<LesHouchesEvents version="3.0">
<header>
<!--
#*********************************************************************
#                                                                    *
#                        MadGraph5_aMC@NLO                           *
#                                                                    *
#                           Going Beyond                             *
#                                                                    *
#                   http://madgraph.hep.uiuc.edu                     *
#                   http://madgraph.phys.ucl.ac.be                   *
#                   http://amcatnlo.cern.ch                          *
#                                                                    *
#                     The MadGraph5_aMC@NLO team                     *
#                                                                    *
#....................................................................*
#                                                                    *
# This file contains all the information necessary to reproduce      *
# the events generated:                                              *
#                                                                    *
# 1. software version                                                *
# 2. proc_card          : code generation info including model       *
# 3. param_card         : model primary parameters in the LH format  *
# 4. run_card           : running parameters (collider and cuts)     *
# 5. pythia_card        : present only if pythia has been run        *
# 6. pgs_card           : present only if pgs has been run           *
# 7. delphes_cards      : present only if delphes has been run       *
#                                                                    *
#                                                                    *
#*********************************************************************
-->
<MGVersion>
#5.2.2.3
</MGVersion>
<MG5ProcCard>
#************************************************************
#*                     MadGraph5_aMC@NLO                    *
#*                                                          *
#*                *                       *                 *
#*                  *        * *        *                   *
#*                    * * * * 5 * * * *                     *
#*                  *        * *        *                   *
#*                *                       *                 *
#*                                                          *
#*                                                          *
#*         VERSION 2.2.3                 2015-02-10         *
#*                                                          *
#*    The MadGraph5_aMC@NLO Development Team - Find us at   *
#*    https://server06.fynu.ucl.ac.be/projects/madgraph     *
#*                                                          *
#************************************************************
#*                                                          *
#*               Command File for MadGraph5_aMC@NLO         *
#*                                                          *
#*     run as ./bin/mg5_aMC  filename                       *
#*                                                          *
#************************************************************
set group_subprocesses Auto
set ignore_six_quark_processes False
set loop_optimized_output True
set gauge unitary
set complex_mass_scheme False
import model sm
define p = g u c d s u~ c~ d~ s~
define j = g u c d s u~ c~ d~ s~
define l+ = e+ mu+
define l- = e- mu-
define vl = ve vm vt
define vl~ = ve~ vm~ vt~
import model Zprime_UFO
generate p p > zph, zph > j j
add process p p > zph, zph > b b~
output Dijet_signal
</MG5ProcCard>
<MGProcCard>
#*********************************************************************
#                        MadGraph/MadEvent                           *
#                   http://madgraph.hep.uiuc.edu                     *
#                                                                    *
#                          proc_card.dat                             *
#*********************************************************************
#                                                                    *
#            This Files is generated by MADGRAPH 5                   *
#                                                                    *
# WARNING: This Files is generated for MADEVENT (compatibility issue)*
#          This files is NOT a valid MG4 proc_card.dat               *
#          Running this in MG4 will NEVER reproduce the result of MG5*
#                                                                    *
#*********************************************************************
#*********************************************************************
# Process(es) requested : mg2 input                                  *
#*********************************************************************
# Begin PROCESS # This is TAG. Do not modify this line
p p > zph , zph > j j           #Process
# Be carefull the coupling are here in MG5 convention
          
end_coup           # End the couplings input

done               # this tells MG there are no more procs
# End PROCESS  # This is TAG. Do not modify this line
#*********************************************************************
# Model information                                                  *
#*********************************************************************
# Begin MODEL  # This is TAG. Do not modify this line
Zprime_UFO
# End   MODEL  # This is TAG. Do not modify this line
#*********************************************************************
# Start multiparticle definitions                                    *
#*********************************************************************
# Begin MULTIPARTICLES # This is TAG. Do not modify this line

# End  MULTIPARTICLES # This is TAG. Do not modify this line
</MGProcCard>
<MGRunCard>
#*********************************************************************
#                       MadGraph5_aMC@NLO                            *
#                                                                    *
#                     run_card.dat MadEvent                          *
#                                                                    *
#  This file is used to set the parameters of the run.               *
#                                                                    *
#  Some notation/conventions:                                        *
#                                                                    *
#   Lines starting with a '# ' are info or comments                  *
#                                                                    *
#   mind the format:   value    = variable     ! comment             *
#*********************************************************************
#
#*******************                                                 
# Running parameters
#*******************                                                 
#                                                                    
#*********************************************************************
# Tag name for the run (one word)                                    *
#*********************************************************************
  tag_1     = run_tag ! name of the run 
#*********************************************************************
# Run to generate the grid pack                                      *
#*********************************************************************
  .false.     = gridpack  !True = setting up the grid pack
#*********************************************************************
# Number of events and rnd seed                                      *
# Warning: Do not generate more than 1M events in a single run       *
# If you want to run Pythia, avoid more than 50k events in a run.    *
#*********************************************************************
  2000 = nevents ! Number of unweighted events requested 
 2982 = iseed   ! rnd seed (0=assigned automatically=default))
#*********************************************************************
# Collider type and energy                                           *
# lpp: 0=No PDF, 1=proton, -1=antiproton, 2=photon from proton,      *
#                                         3=photon from electron     *
#*********************************************************************
        1     = lpp1    ! beam 1 type 
        1     = lpp2    ! beam 2 type
     4000     = ebeam1  ! beam 1 total energy in GeV
     4000     = ebeam2  ! beam 2 total energy in GeV
#*********************************************************************
# Beam polarization from -100 (left-handed) to 100 (right-handed)    *
#*********************************************************************
        0     = polbeam1 ! beam polarization for beam 1
        0     = polbeam2 ! beam polarization for beam 2
#*********************************************************************
# PDF CHOICE: this automatically fixes also alpha_s and its evol.    *
#*********************************************************************
 'nn23lo1'    = pdlabel     ! PDF set                                     
 230000    = lhaid     ! if pdlabel=lhapdf, this is the lhapdf number
#*********************************************************************
# Renormalization and factorization scales                           *
#*********************************************************************
 F        = fixed_ren_scale  ! if .true. use fixed ren scale
 F        = fixed_fac_scale  ! if .true. use fixed fac scale
 91.1880  = scale            ! fixed ren scale
 91.1880  = dsqrt_q2fact1    ! fixed fact scale for pdf1
 91.1880  = dsqrt_q2fact2    ! fixed fact scale for pdf2
 1        = scalefact        ! scale factor for event-by-event scales
#*********************************************************************
# Matching - Warning! ickkw > 1 is still beta
#*********************************************************************
 0        = ickkw            ! 0 no matching, 1 MLM, 2 CKKW matching
 1        = highestmult      ! for ickkw=2, highest mult group
 1        = ktscheme         ! for ickkw=1, 1 Durham kT, 2 Pythia pTE
 1        = alpsfact         ! scale factor for QCD emission vx
 F        = chcluster        ! cluster only according to channel diag
 T        = pdfwgt           ! for ickkw=1, perform pdf reweighting
 5        = asrwgtflavor     ! highest quark flavor for a_s reweight
 T        = clusinfo         ! include clustering tag in output
 3.0      = lhe_version       ! Change the way clustering information pass to shower.        
#*********************************************************************
#**********************************************************
#
#**********************************************************
# Automatic ptj and mjj cuts if xqcut > 0
# (turn off for VBF and single top processes)
#**********************************************************
   T  = auto_ptj_mjj  ! Automatic setting of ptj and mjj
#**********************************************************
#                                                                    
#**********************************
# BW cutoff (M+/-bwcutoff*Gamma)
#**********************************
  15  = bwcutoff      ! (M+/-bwcutoff*Gamma)
#**********************************************************
# Apply pt/E/eta/dr/mij cuts on decay products or not
# (note that etmiss/ptll/ptheavy/ht/sorted cuts always apply)
#**********************************************************
   T  = cut_decays    ! Cut decay products 
#*************************************************************
# Number of helicities to sum per event (0 = all helicities)
# 0 gives more stable result, but longer run time (needed for
# long decay chains e.g.).
# Use >=2 if most helicities contribute, e.g. pure QCD.
#*************************************************************
   0  = nhel          ! Number of helicities used per event
#*******************                                                 
# Standard Cuts
#*******************                                                 
#                                                                    
#*********************************************************************
# Minimum and maximum pt's (for max, -1 means no cut)                *
#*********************************************************************
 20  = ptj       ! minimum pt for the jets 
  0  = ptb       ! minimum pt for the b 
 10  = pta       ! minimum pt for the photons 
 10  = ptl       ! minimum pt for the charged leptons 
  0  = misset    ! minimum missing Et (sum of neutrino's momenta)
  0  = ptheavy   ! minimum pt for one heavy final state
 1.0 = ptonium   ! minimum pt for the quarkonium states
 -1  = ptjmax    ! maximum pt for the jets
 -1  = ptbmax    ! maximum pt for the b
 -1  = ptamax    ! maximum pt for the photons
 -1  = ptlmax    ! maximum pt for the charged leptons
 -1  = missetmax ! maximum missing Et (sum of neutrino's momenta)
#*********************************************************************
# Minimum and maximum E's (in the center of mass frame)              *
#*********************************************************************
  0  = ej     ! minimum E for the jets 
  0  = eb     ! minimum E for the b 
  0  = ea     ! minimum E for the photons 
  0  = el     ! minimum E for the charged leptons 
 -1   = ejmax ! maximum E for the jets
 -1   = ebmax ! maximum E for the b
 -1   = eamax ! maximum E for the photons
 -1   = elmax ! maximum E for the charged leptons
#*********************************************************************
# Maximum and minimum absolute rapidity (for max, -1 means no cut)   *
#*********************************************************************
   5  = etaj    ! max rap for the jets 
  -1  = etab    ! max rap for the b
 2.5  = etaa    ! max rap for the photons 
 2.5  = etal    ! max rap for the charged leptons 
 0.6  = etaonium ! max rap for the quarkonium states
   0  = etajmin ! min rap for the jets
   0  = etabmin ! min rap for the b
   0  = etaamin ! min rap for the photons
   0  = etalmin ! main rap for the charged leptons
#*********************************************************************
# Minimum and maximum DeltaR distance                                *
#*********************************************************************
 0.4 = drjj    ! min distance between jets 
 0   = drbb    ! min distance between b's 
 0.4 = drll    ! min distance between leptons 
 0.4 = draa    ! min distance between gammas 
 0   = drbj    ! min distance between b and jet 
 0.4 = draj    ! min distance between gamma and jet 
 0.4 = drjl    ! min distance between jet and lepton 
 0   = drab    ! min distance between gamma and b 
 0   = drbl    ! min distance between b and lepton 
 0.4 = dral    ! min distance between gamma and lepton 
 -1  = drjjmax ! max distance between jets
 -1  = drbbmax ! max distance between b's
 -1  = drllmax ! max distance between leptons
 -1  = draamax ! max distance between gammas
 -1  = drbjmax ! max distance between b and jet
 -1  = drajmax ! max distance between gamma and jet
 -1  = drjlmax ! max distance between jet and lepton
 -1  = drabmax ! max distance between gamma and b
 -1  = drblmax ! max distance between b and lepton
 -1  = dralmax ! maxdistance between gamma and lepton
#*********************************************************************
# Minimum and maximum invariant mass for pairs                       *
# WARNING: for four lepton final state mmll cut require to have      *
#          different lepton masses for each flavor!                  *           
#*********************************************************************
 0   = mmjj    ! min invariant mass of a jet pair 
 0   = mmbb    ! min invariant mass of a b pair 
 0   = mmaa    ! min invariant mass of gamma gamma pair
 0   = mmll    ! min invariant mass of l+l- (same flavour) lepton pair
 -1  = mmjjmax ! max invariant mass of a jet pair
 -1  = mmbbmax ! max invariant mass of a b pair
 -1  = mmaamax ! max invariant mass of gamma gamma pair
 -1  = mmllmax ! max invariant mass of l+l- (same flavour) lepton pair
#*********************************************************************
# Minimum and maximum invariant mass for all letpons                 *
#*********************************************************************
 0   = mmnl    ! min invariant mass for all letpons (l+- and vl) 
 -1  = mmnlmax ! max invariant mass for all letpons (l+- and vl) 
#*********************************************************************
# Minimum and maximum pt for 4-momenta sum of leptons                *
#*********************************************************************
 0   = ptllmin  ! Minimum pt for 4-momenta sum of leptons(l and vl)
 -1  = ptllmax  ! Maximum pt for 4-momenta sum of leptons(l and vl)
#*********************************************************************
# Inclusive cuts                                                     *
#*********************************************************************
 0  = xptj ! minimum pt for at least one jet  
 0  = xptb ! minimum pt for at least one b 
 0  = xpta ! minimum pt for at least one photon 
 0  = xptl ! minimum pt for at least one charged lepton 
#*********************************************************************
# Control the pt's of the jets sorted by pt                          *
#*********************************************************************
 0   = ptj1min ! minimum pt for the leading jet in pt
 0   = ptj2min ! minimum pt for the second jet in pt
 0   = ptj3min ! minimum pt for the third jet in pt
 0   = ptj4min ! minimum pt for the fourth jet in pt
 -1  = ptj1max ! maximum pt for the leading jet in pt 
 -1  = ptj2max ! maximum pt for the second jet in pt
 -1  = ptj3max ! maximum pt for the third jet in pt
 -1  = ptj4max ! maximum pt for the fourth jet in pt
 0   = cutuse  ! reject event if fails any (0) / all (1) jet pt cuts
#*********************************************************************
# Control the pt's of leptons sorted by pt                           *
#*********************************************************************
 0   = ptl1min ! minimum pt for the leading lepton in pt
 0   = ptl2min ! minimum pt for the second lepton in pt
 0   = ptl3min ! minimum pt for the third lepton in pt
 0   = ptl4min ! minimum pt for the fourth lepton in pt
 -1  = ptl1max ! maximum pt for the leading lepton in pt 
 -1  = ptl2max ! maximum pt for the second lepton in pt
 -1  = ptl3max ! maximum pt for the third lepton in pt
 -1  = ptl4max ! maximum pt for the fourth lepton in pt
#*********************************************************************
# Control the Ht(k)=Sum of k leading jets                            *
#*********************************************************************
 0   = htjmin ! minimum jet HT=Sum(jet pt)
 -1  = htjmax ! maximum jet HT=Sum(jet pt)
 0   = ihtmin  !inclusive Ht for all partons (including b)
 -1  = ihtmax  !inclusive Ht for all partons (including b)
 0   = ht2min ! minimum Ht for the two leading jets
 0   = ht3min ! minimum Ht for the three leading jets
 0   = ht4min ! minimum Ht for the four leading jets
 -1  = ht2max ! maximum Ht for the two leading jets
 -1  = ht3max ! maximum Ht for the three leading jets
 -1  = ht4max ! maximum Ht for the four leading jets
#***********************************************************************
# Photon-isolation cuts, according to hep-ph/9801442                   *
# When ptgmin=0, all the other parameters are ignored                  *
# When ptgmin>0, pta and draj are not going to be used                 *
#***********************************************************************
   0 = ptgmin ! Min photon transverse momentum
 0.4 = R0gamma ! Radius of isolation code
 1.0 = xn ! n parameter of eq.(3.4) in hep-ph/9801442
 1.0 = epsgamma ! epsilon_gamma parameter of eq.(3.4) in hep-ph/9801442
 .true. = isoEM ! isolate photons from EM energy (photons and leptons)
#*********************************************************************
# WBF cuts                                                           *
#*********************************************************************
 0   = xetamin ! minimum rapidity for two jets in the WBF case  
 0   = deltaeta ! minimum rapidity for two jets in the WBF case 
#*********************************************************************
# KT DURHAM CUT                                                      *
#*********************************************************************
 -1    =  ktdurham        
 0.4  =  dparameter 
#*********************************************************************
# maximal pdg code for quark to be considered as a light jet         *
# (otherwise b cuts are applied)                                     *
#*********************************************************************
 4 = maxjetflavor    ! Maximum jet pdg code
#*********************************************************************
# Jet measure cuts                                                   *
#*********************************************************************
 0   = xqcut   ! minimum kt jet measure between partons
#*********************************************************************
#
#*********************************************************************
# Store info for systematics studies                                 *
# WARNING: If use_syst is T, matched Pythia output is                *
#          meaningful ONLY if plotted taking matchscale              *
#          reweighting into account!                                 *
#*********************************************************************
   F  = use_syst      ! Enable systematics studies
#
#**************************************
# Parameter of the systematics study
#  will be used by SysCalc (if installed)
#**************************************                                  
#
0.5 1 2 = sys_scalefact  # factorization/renormalization scale factor
0.5 1 2 = sys_alpsfact  # \alpha_s emission scale factors
30 50 = sys_matchscale # variation of merging scale
# PDF sets and number of members (0 or none for all members).
CT10nlo.LHgrid = sys_pdf # matching scales
# MSTW2008nlo68cl.LHgrid 1  = sys_pdf
</MGRunCard>
<slha>
######################################################################
## PARAM_CARD AUTOMATICALY GENERATED BY MG5 FOLLOWING UFO MODEL   ####
######################################################################
##                                                                  ##
##  Width set on Auto will be computed following the information    ##
##        present in the decay.py files of the model.               ##
##        See  arXiv:1402.1178 for more details.                    ##
##                                                                  ##
######################################################################

###################################
## INFORMATION FOR CKMBLOCK
###################################
Block ckmblock 
    1 2.277360e-01 # cabi 

###################################
## INFORMATION FOR FRBLOCK
###################################
Block frblock 
    1 1.600000e+00 # gz 

###################################
## INFORMATION FOR MASS
###################################
Block mass 
    1 5.040000e-03 # MD 
    2 2.550000e-03 # MU 
    3 1.010000e-01 # MS 
    4 1.270000e+00 # MC 
    5 4.700000e+00 # MB 
    6 1.720000e+02 # MT 
   11 5.110000e-04 # Me 
   13 1.056600e-01 # MM 
   15 1.777000e+00 # MTA 
   23 9.118760e+01 # MZ 
   25 1.200000e+02 # MH 
  10030 2.900000e+03 # MZph 
  10031 3.000000e+02 # MZpl 
## Dependent parameters, given by model restrictions.
## Those values should be edited following the 
## analytical expression. MG5 ignores those values 
## but they are important for interfacing the output of MG5
## to external program such as Pythia.
  12 0.000000 # ve : 0.0 
  14 0.000000 # vm : 0.0 
  16 0.000000 # vt : 0.0 
  21 0.000000 # g : 0.0 
  22 0.000000 # a : 0.0 
  24 79.824360 # w+ : cmath.sqrt(MZ__exp__2/2. + cmath.sqrt(MZ__exp__4/4. - (aEW*cmath.pi*MZ__exp__2)/(Gf*sqrt__2))) 

###################################
## INFORMATION FOR SMINPUTS
###################################
Block sminputs 
    1 1.279000e+02 # aEWM1 
    2 1.166370e-05 # Gf 
    3 1.184000e-01 # aS 

###################################
## INFORMATION FOR YUKAWA
###################################
Block yukawa 
    1 5.040000e-03 # ymdo 
    2 2.550000e-03 # ymup 
    3 1.010000e-01 # yms 
    4 1.270000e+00 # ymc 
    5 4.700000e+00 # ymb 
    6 1.720000e+02 # ymt 
   11 5.110000e-04 # yme 
   13 1.056600e-01 # ymm 
   15 1.777000e+00 # ymtau 

###################################
## INFORMATION FOR DECAY
###################################
DECAY   6 1.508336e+00 # WT 
DECAY  23 2.495200e+00 # WZ 
DECAY  24 2.085000e+00 # WW 
DECAY  25 5.753088e-03 # WH 
## Dependent parameters, given by model restrictions.
## Those values should be edited following the 
## analytical expression. MG5 ignores those values 
## but they are important for interfacing the output of MG5
## to external program such as Pythia.
DECAY  1 0.000000 # d : 0.0 
DECAY  2 0.000000 # u : 0.0 
DECAY  3 0.000000 # s : 0.0 
DECAY  4 0.000000 # c : 0.0 
DECAY  5 0.000000 # b : 0.0 
DECAY  11 0.000000 # e- : 0.0 
DECAY  12 0.000000 # ve : 0.0 
DECAY  13 0.000000 # mu- : 0.0 
DECAY  14 0.000000 # vm : 0.0 
DECAY  15 0.000000 # ta- : 0.0 
DECAY  16 0.000000 # vt : 0.0 
DECAY  21 0.000000 # g : 0.0 
DECAY  22 0.000000 # a : 0.0 
DECAY  10030 0.308725 # zph : (gz__exp__2*MZph*(5 + cmath.sqrt(1 - (4*MT__exp__2)/MZph__exp__2)))/(144.*cmath.pi) 
DECAY  10031 0.132629 # zpl : (5*gz__exp__2*MZpl)/(144.*cmath.pi) 
#===========================================================
# QUANTUM NUMBERS OF NEW STATE(S) (NON SM PDG CODE)
#===========================================================

Block QNUMBERS 10030  # zph 
        1 0  # 3 times electric charge
        2 3  # number of spin states (2S+1)
        3 1  # colour rep (1: singlet, 3: triplet, 8: octet)
        4 0  # Particle/Antiparticle distinction (0=own anti)
Block QNUMBERS 10031  # zpl 
        1 0  # 3 times electric charge
        2 3  # number of spin states (2S+1)
        3 1  # colour rep (1: singlet, 3: triplet, 8: octet)
        4 0  # Particle/Antiparticle distinction (0=own anti)
</slha>
## END BANNER##
<MGGenerationInfo>
#  Number of Events        :         3895
#  Integrated weight (pb)  :  0.52625E-02
#  Max wgt                 :  0.19762E-05
#  Average wgt             :  0.13511E-05
</MGGenerationInfo>
</header>
<init>
     2212     2212  0.40000000000E+04  0.40000000000E+04 0 0  247000  247000 2   1
  0.52660733238E-02  0.20445873663E-04  0.19762330000E-05   0
</init>
<event>
 5   0  0.1918901E-05  0.2928356E+04  0.7818609E-02  0.8264490E-01
       -2   -1    0    0    0  501  0.00000000000E+00  0.00000000000E+00  0.98305211166E+03  0.98305211166E+03  0.25500000920E-02 0.  1.
        2   -1    0    0  501    0  0.00000000000E+00  0.00000000000E+00 -0.21807771307E+04  0.21807771307E+04  0.25500000920E-02 0. -1.
    10030    2    1    2    0    0  0.00000000000E+00  0.00000000000E+00 -0.11977250190E+04  0.31638292424E+04  0.29283562375E+04 0.  0.
        1    1    3    3  502    0  0.49233389685E+03  0.12901831497E+04 -0.11246714490E+04  0.17809691446E+04  0.50400001928E-02 0.  1.
       -1    1    3    3    0  502 -0.49233389685E+03 -0.12901831497E+04 -0.73053570024E+02  0.13828600977E+04  0.50400001928E-02 0. -1.
</event>
<event>
 5   0  0.1918901E-05  0.2897890E+04  0.7818609E-02  0.8273506E-01
        2   -1    0    0  501    0  0.00000000000E+00  0.00000000000E+00  0.15531771913E+04  0.15531771913E+04  0.25500000920E-02 0.  1.
       -2   -1    0    0    0  501  0.00000000000E+00  0.00000000000E+00 -0.13517075123E+04  0.13517075123E+04  0.25500000920E-02 0. -1.
    10030    2    1    2    0    0  0.00000000000E+00  0.00000000000E+00  0.20146967899E+03  0.29048847036E+04  0.28978897684E+04 0.  0.
        1    1    3    3  502    0 -0.77832820297E+03 -0.11098752949E+03 -0.11193012888E+04  0.13678261580E+04  0.50400001928E-02 0. -1.
       -1    1    3    3    0  502  0.77832820297E+03  0.11098752949E+03  0.13207709678E+04  0.15370585456E+04  0.50400001928E-02 0.  1.
</event>
<event>
 5   0  0.1937947E-05  0.2812728E+04  0.7818609E-02  0.8299328E-01
        2   -1    0    0  501    0  0.00000000000E+00  0.00000000000E+00  0.29546936504E+04  0.29546936504E+04  0.25500000920E-02 0.  1.
       -2   -1    0    0    0  501  0.00000000000E+00  0.00000000000E+00 -0.66939575411E+03  0.66939575411E+03  0.25500000920E-02 0. -1.
    10030    2    1    2    0    0  0.00000000000E+00  0.00000000000E+00  0.22852978962E+04  0.36240894045E+04  0.28127277751E+04 0.  0.
        3    1    3    3  502    0  0.52214996505E+03 -0.10719809166E+04  0.21034603779E+04  0.24179183698E+04  0.10100000352E+00 0.  1.
       -3    1    3    3    0  502 -0.52214996505E+03  0.10719809166E+04  0.18183751839E+03  0.12061710347E+04  0.10100000352E+00 0. -1.
</event>
<event>
 5   0  0.1918901E-05  0.2918773E+04  0.7818609E-02  0.8267314E-01
        2   -1    0    0  501    0  0.00000000000E+00  0.00000000000E+00  0.16884249467E+04  0.16884249467E+04  0.25500000920E-02 0.  1.
       -2   -1    0    0    0  501  0.00000000000E+00  0.00000000000E+00 -0.12614177571E+04  0.12614177571E+04  0.25500000920E-02 0. -1.
    10030    2    1    2    0    0  0.00000000000E+00  0.00000000000E+00  0.42700718959E+03  0.29498427038E+04  0.29187731733E+04 0.  0.
        1    1    3    3  502    0  0.11577504934E+04 -0.66071476706E+03 -0.38685595060E+03  0.13880157546E+04  0.50400001928E-02 0.  1.
       -1    1    3    3    0  502 -0.11577504934E+04  0.66071476706E+03  0.81386314019E+03  0.15618269492E+04  0.50400001928E-02 0. -1.
</event>
<event>
 5   0  0.1937947E-05  0.2868139E+04  0.7818609E-02  0.8282421E-01
       -2   -1    0    0    0  501  0.00000000000E+00  0.00000000000E+00  0.83046244082E+03  0.83046244082E+03  0.25500000920E-02 0.  1.
        2   -1    0    0  501    0  0.00000000000E+00  0.00000000000E+00 -0.24763971710E+04  0.24763971710E+04  0.25500000920E-02 0. -1.
    10030    2    1    2    0    0  0.00000000000E+00  0.00000000000E+00 -0.16459347301E+04  0.33068596118E+04  0.28681386571E+04 0.  0.
        3    1    3    3  502    0  0.11112288259E+04  0.47380780781E+03 -0.17139863609E+04  0.20969197881E+04  0.10100000352E+00 0. -1.
       -3    1    3    3    0  502 -0.11112288259E+04 -0.47380780781E+03  0.68051630799E+02  0.12099398236E+04  0.10100000352E+00 0.  1.
</event>
<event>
 5   0  0.8122088E-06  0.2904973E+04  0.7818609E-02  0.8271399E-01
       -1   -1    0    0    0  501  0.00000000000E+00  0.00000000000E+00  0.14852998132E+04  0.14852998132E+04  0.50400001928E-02 0.  1.
        1   -1    0    0  501    0  0.00000000000E+00  0.00000000000E+00 -0.14203985201E+04  0.14203985201E+04  0.50400001928E-02 0. -1.
    10030    2    1    2    0    0  0.00000000000E+00  0.00000000000E+00  0.64901293147E+02  0.29056983333E+04  0.29049734295E+04 0.  0.
        1    1    3    3  502    0  0.83122783907E+03 -0.10267194319E+04 -0.57154202171E+03  0.14393584664E+04  0.50400001928E-02 0. -1.
       -1    1    3    3    0  502 -0.83122783907E+03  0.10267194319E+04  0.63644331486E+03  0.14663398669E+04  0.50400001928E-02 0.  1.
</event>
<event>
 5   0  0.8234888E-06  0.2921198E+04  0.7818609E-02  0.8266598E-01
        1   -1    0    0  501    0  0.00000000000E+00  0.00000000000E+00  0.17877796779E+04  0.17877796779E+04  0.50400001928E-02 0. -1.
       -1   -1    0    0    0  501  0.00000000000E+00  0.00000000000E+00 -0.11932958845E+04  0.11932958845E+04  0.50400001928E-02 0.  1.
    10030    2    1    2    0    0  0.00000000000E+00  0.00000000000E+00  0.59448379341E+03  0.29810755624E+04  0.29211984746E+04 0.  0.
        3    1    3    3  502    0 -0.12518217575E+04 -0.28878022709E+03 -0.41191086386E+03  0.13491190837E+04  0.10100000352E+00 0.  1.
       -3    1    3    3    0  502  0.12518217575E+04  0.28878022709E+03  0.10063946573E+04  0.16319564787E+04  0.10100000352E+00 0. -1.
</event>
<event>
 5   0  0.1918901E-05  0.2909808E+04  0.7818609E-02  0.8269965E-01
       -2   -1    0    0    0  501  0.00000000000E+00  0.00000000000E+00  0.10357997033E+04  0.10357997033E+04  0.25500000920E-02 0.  1.
        2   -1    0    0  501    0  0.00000000000E+00  0.00000000000E+00 -0.20435859978E+04  0.20435859978E+04  0.25500000920E-02 0. -1.
    10030    2    1    2    0    0  0.00000000000E+00  0.00000000000E+00 -0.10077862945E+04  0.30793857012E+04  0.29098080832E+04 0.  0.
        1    1    3    3  502    0  0.49311110699E+02 -0.28656891527E+03 -0.20125211292E+04  0.20334194413E+04  0.50400001928E-02 0. -1.
       -1    1    3    3    0  502 -0.49311110699E+02  0.28656891527E+03  0.10047348346E+04  0.10459662599E+04  0.50400001928E-02 0.  1.
</event>
<event>
 5   0  0.8055928E-06  0.2956660E+04  0.7818609E-02  0.8256216E-01
       -1   -1    0    0    0  501  0.00000000000E+00  0.00000000000E+00  0.27361142226E+04  0.27361142226E+04  0.50400001928E-02 0. -1.
        1   -1    0    0  501    0  0.00000000000E+00  0.00000000000E+00 -0.79874592252E+03  0.79874592254E+03  0.50400001928E-02 0.  1.
    10030    2    1    2    0    0  0.00000000000E+00  0.00000000000E+00  0.19373683001E+04  0.35348601451E+04  0.29566603314E+04 0.  0.
        2    1    3    3  502    0 -0.57313680068E+03  0.37020098506E+03 -0.59924206438E+03  0.90808898978E+03  0.25500000920E-02 0.  1.
       -2    1    3    3    0  502  0.57313680068E+03 -0.37020098506E+03  0.25366103644E+04  0.26267711554E+04  0.25500000920E-02 0. -1.
</event>
<event>
 5   0  0.1918901E-05  0.2901302E+04  0.7818609E-02  0.8272490E-01
       -2   -1    0    0    0  501  0.00000000000E+00  0.00000000000E+00  0.10925876878E+04  0.10925876878E+04  0.25500000920E-02 0.  1.
        2   -1    0    0  501    0  0.00000000000E+00  0.00000000000E+00 -0.19260588173E+04  0.19260588173E+04  0.25500000920E-02 0. -1.
    10030    2    1    2    0    0  0.00000000000E+00  0.00000000000E+00 -0.83347112953E+03  0.30186465051E+04  0.29013018800E+04 0.  0.
        1    1    3    3  502    0 -0.11673243267E+04 -0.72824628560E+03 -0.89511359712E+03  0.16414070452E+04  0.50400001928E-02 0. -1.
       -1    1    3    3    0  502  0.11673243267E+04  0.72824628560E+03  0.61642467595E+02  0.13772394599E+04  0.50400001928E-02 0.  1.
</event>
<event>
 5   0  0.1960961E-05  0.2839334E+04  0.7818609E-02  0.8291160E-01
       -2   -1    0    0    0  501  0.00000000000E+00  0.00000000000E+00  0.59054732979E+03  0.59054732980E+03  0.25500000920E-02 0. -1.
        2   -1    0    0  501    0  0.00000000000E+00  0.00000000000E+00 -0.34128574136E+04  0.34128574136E+04  0.25500000920E-02 0.  1.
    10030    2    1    2    0    0  0.00000000000E+00  0.00000000000E+00 -0.28223100838E+04  0.40034047434E+04  0.28393336067E+04 0.  0.
        5    1    3    3  502    0 -0.28320371122E+03 -0.84427360813E+03 -0.29700791852E+04  0.31007087454E+04  0.46999998093E+01 0.  1.
       -5    1    3    3    0  502  0.28320371122E+03  0.84427360813E+03  0.14776910142E+03  0.90269599798E+03  0.46999998093E+01 0. -1.
</event>
<event>
 5   0  0.1960961E-05  0.2661601E+04  0.7818609E-02  0.8347573E-01
       -2   -1    0    0    0  501  0.00000000000E+00  0.00000000000E+00  0.90141002056E+03  0.90141002056E+03  0.25500000920E-02 0.  1.
        2   -1    0    0  501    0  0.00000000000E+00  0.00000000000E+00 -0.19647335475E+04  0.19647335475E+04  0.25500000920E-02 0. -1.
    10030    2    1    2    0    0  0.00000000000E+00  0.00000000000E+00 -0.10633235269E+04  0.28661435680E+04  0.26616014032E+04 0.  0.
        5    1    3    3  502    0 -0.41294238465E+03 -0.96831246945E+03  0.34506681615E+03  0.11078102947E+04  0.46999998093E+01 0.  1.
       -5    1    3    3    0  502  0.41294238465E+03  0.96831246945E+03 -0.14083903431E+04  0.17583332733E+04  0.46999998093E+01 0. -1.
</event>
<event>
 5   0  0.7971153E-06  0.2920356E+04  0.7818609E-02  0.8266847E-01
       -1   -1    0    0    0  501  0.00000000000E+00  0.00000000000E+00  0.95023554034E+03  0.95023554035E+03  0.50400001928E-02 0.  1.
        1   -1    0    0  501    0  0.00000000000E+00  0.00000000000E+00 -0.22437804404E+04  0.22437804404E+04  0.50400001928E-02 0. -1.
    10030    2    1    2    0    0  0.00000000000E+00  0.00000000000E+00 -0.12935449001E+04  0.31940159808E+04  0.29203560873E+04 0.  0.
        5    1    3    3  502    0  0.47966107922E+03  0.23323056442E+03  0.83987632120E+03  0.99492993322E+03  0.46999998093E+01 0.  1.
       -5    1    3    3    0  502 -0.47966107922E+03 -0.23323056442E+03 -0.21334212213E+04  0.21990860476E+04  0.46999998093E+01 0. -1.
</event>
<event>
 5   0  0.8122088E-06  0.2816553E+04  0.7818609E-02  0.8298148E-01
       -1   -1    0    0    0  501  0.00000000000E+00  0.00000000000E+00  0.93545373599E+03  0.93545373601E+03  0.50400001928E-02 0.  1.
        1   -1    0    0  501    0  0.00000000000E+00  0.00000000000E+00 -0.21200868787E+04  0.21200868788E+04  0.50400001928E-02 0. -1.
    10030    2    1    2    0    0  0.00000000000E+00  0.00000000000E+00 -0.11846331427E+04  0.30555406148E+04  0.28165533486E+04 0.  0.
        1    1    3    3  502    0 -0.76997737528E+03  0.10561268462E+04 -0.11611904438E+04  0.17483227164E+04  0.50400001928E-02 0. -1.
       -1    1    3    3    0  502  0.76997737528E+03 -0.10561268462E+04 -0.23442698927E+02  0.13072178984E+04  0.50400001928E-02 0.  1.
</event>
<event>
 5   0  0.8234888E-06  0.2176885E+04  0.7818609E-02  0.8528111E-01
        1   -1    0    0  501    0  0.00000000000E+00  0.00000000000E+00  0.10539281369E+04  0.10539281369E+04  0.50400001928E-02 0. -1.
       -1   -1    0    0    0  501  0.00000000000E+00  0.00000000000E+00 -0.11240868070E+04  0.11240868070E+04  0.50400001928E-02 0.  1.
    10030    2    1    2    0    0  0.00000000000E+00  0.00000000000E+00 -0.70158670107E+02  0.21780149439E+04  0.21768846678E+04 0.  0.
        3    1    3    3  502    0  0.10398407406E+04  0.33216332137E+02  0.28498457854E+03  0.10786975066E+04  0.10100000352E+00 0.  1.
       -3    1    3    3    0  502 -0.10398407406E+04 -0.33216332137E+02 -0.35514324864E+03  0.10993174373E+04  0.10100000352E+00 0. -1.
</event>
<event>
 5   0  0.8234888E-06  0.2941938E+04  0.7818609E-02  0.8260508E-01
       -1   -1    0    0    0  501  0.00000000000E+00  0.00000000000E+00  0.97054795464E+03  0.97054795466E+03  0.50400001928E-02 0. -1.
        1   -1    0    0  501    0  0.00000000000E+00  0.00000000000E+00 -0.22294103367E+04  0.22294103367E+04  0.50400001928E-02 0.  1.
    10030    2    1    2    0    0  0.00000000000E+00  0.00000000000E+00 -0.12588623820E+04  0.31999582913E+04  0.29419378935E+04 0.  0.
        3    1    3    3  502    0 -0.49918167850E+03 -0.51575095118E+03 -0.20260062504E+04  0.21493912460E+04  0.10100000352E+00 0.  1.
       -3    1    3    3    0  502  0.49918167850E+03  0.51575095118E+03  0.76714386832E+03  0.10505670453E+04  0.10100000352E+00 0. -1.
</event>
<event>
 5   0  0.1918901E-05  0.1712966E+04  0.7818609E-02  0.8754004E-01
        2   -1    0    0  501    0  0.00000000000E+00  0.00000000000E+00  0.93624545511E+03  0.93624545511E+03  0.25500000920E-02 0.  1.
       -2   -1    0    0    0  501  0.00000000000E+00  0.00000000000E+00 -0.78351558880E+03  0.78351558881E+03  0.25500000920E-02 0. -1.
    10030    2    1    2    0    0  0.00000000000E+00  0.00000000000E+00  0.15272986630E+03  0.17197610439E+04  0.17129657428E+04 0.  0.
        1    1    3    3  502    0 -0.72110678230E+03 -0.31172018251E+03  0.41889052013E+03  0.89029979869E+03  0.50400001928E-02 0. -1.
       -1    1    3    3    0  502  0.72110678230E+03  0.31172018251E+03 -0.26616065383E+03  0.82946124523E+03  0.50400001928E-02 0.  1.
</event>
<event>
 5   0  0.7305460E-06  0.2702933E+04  0.7818609E-02  0.8334054E-01
        1   -1    0    0  501    0  0.00000000000E+00  0.00000000000E+00  0.15157011362E+04  0.15157011362E+04  0.50400001928E-02 0.  1.
       -1   -1    0    0    0  501  0.00000000000E+00  0.00000000000E+00 -0.12050272149E+04  0.12050272149E+04  0.50400001928E-02 0. -1.
    10030    2    1    2    0    0  0.00000000000E+00  0.00000000000E+00  0.31067392128E+03  0.27207283511E+04  0.27029325695E+04 0.  0.
        4    1    3    3  502    0  0.73915423192E+03  0.10933092414E+04  0.44843342838E+03  0.13938322095E+04  0.12699999809E+01 0. -1.
       -4    1    3    3    0  502 -0.73915423192E+03 -0.10933092414E+04 -0.13775950710E+03  0.13268961416E+04  0.12699999809E+01 0.  1.
</event>
<event>
 5   0  0.8122088E-06  0.2837014E+04  0.7818609E-02  0.8291868E-01
        1   -1    0    0  501    0  0.00000000000E+00  0.00000000000E+00  0.13457136330E+04  0.13457136330E+04  0.50400001928E-02 0. -1.
       -1   -1    0    0    0  501  0.00000000000E+00  0.00000000000E+00 -0.14952382006E+04  0.14952382006E+04  0.50400001928E-02 0.  1.
    10030    2    1    2    0    0  0.00000000000E+00  0.00000000000E+00 -0.14952456764E+03  0.28409518336E+04  0.28370142270E+04 0.  0.
        1    1    3    3  502    0  0.12355477875E+04  0.12241369720E+03  0.61219202018E+03  0.13843202368E+04  0.50400001928E-02 0. -1.
       -1    1    3    3    0  502 -0.12355477875E+04 -0.12241369720E+03 -0.76171658781E+03  0.14566315968E+04  0.50400001928E-02 0.  1.
</event>
<event>
 5   0  0.1976233E-05  0.2899468E+04  0.7818609E-02  0.8273036E-01
        2   -1    0    0  501    0  0.00000000000E+00  0.00000000000E+00  0.18867213709E+04  0.18867213710E+04  0.25500000920E-02 0.  1.
       -2   -1    0    0    0  501  0.00000000000E+00  0.00000000000E+00 -0.11139584620E+04  0.11139584620E+04  0.25500000920E-02 0. -1.
    10030    2    1    2    0    0  0.00000000000E+00  0.00000000000E+00  0.77276290898E+03  0.30006798329E+04  0.28994683903E+04 0.  0.
        2    1    3    3  502    0 -0.82386961680E+03  0.11614112813E+04  0.66808137536E+03  0.15728858935E+04  0.25500000920E-02 0. -1.
       -2    1    3    3    0  502  0.82386961680E+03 -0.11614112813E+04  0.10468153362E+03  0.14277939394E+04  0.25500000920E-02 0.  1.
</event>
<event>
 5   0  0.8234888E-06  0.3003475E+04  0.7818609E-02  0.8242739E-01
        1   -1    0    0  501    0  0.00000000000E+00  0.00000000000E+00  0.22248909075E+04  0.22248909075E+04  0.50400001928E-02 0. -1.
       -1   -1    0    0    0  501  0.00000000000E+00  0.00000000000E+00 -0.10136298953E+04  0.10136298954E+04  0.50400001928E-02 0.  1.
    10030    2    1    2    0    0  0.00000000000E+00  0.00000000000E+00  0.12112610121E+04  0.32385208028E+04  0.30034752789E+04 0.  0.
        3    1    3    3  502    0  0.36865918784E+03  0.33864781367E+03  0.21322791315E+04  0.21902525524E+04  0.10100000352E+00 0. -1.
       -3    1    3    3    0  502 -0.36865918784E+03 -0.33864781367E+03 -0.92101811936E+03  0.10482682504E+04  0.10100000352E+00 0.  1.
</event>
<event>
 5   0  0.1937947E-05  0.2837593E+04  0.7818609E-02  0.8291691E-01
        2   -1    0    0  501    0  0.00000000000E+00  0.00000000000E+00  0.11246939611E+04  0.11246939611E+04  0.25500000920E-02 0. -1.
       -2   -1    0    0    0  501  0.00000000000E+00  0.00000000000E+00 -0.17898061673E+04  0.17898061673E+04  0.25500000920E-02 0.  1.
    10030    2    1    2    0    0  0.00000000000E+00  0.00000000000E+00 -0.66511220615E+03  0.29145001284E+04  0.28375934790E+04 0.  0.
        3    1    3    3  502    0  0.10277579459E+04  0.26620005683E+03  0.63414095229E+03  0.12366420756E+04  0.10100000352E+00 0. -1.
       -3    1    3    3    0  502 -0.10277579459E+04 -0.26620005683E+03 -0.12992531584E+04  0.16778580528E+04  0.10100000352E+00 0.  1.
</event>
<event>
 5   0  0.8122088E-06  0.2893984E+04  0.7818609E-02  0.8274670E-01
       -1   -1    0    0    0  501  0.00000000000E+00  0.00000000000E+00  0.23745762163E+04  0.23745762163E+04  0.50400001928E-02 0.  1.
        1   -1    0    0  501    0  0.00000000000E+00  0.00000000000E+00 -0.88175123519E+03  0.88175123521E+03  0.50400001928E-02 0. -1.
    10030    2    1    2    0    0  0.00000000000E+00  0.00000000000E+00  0.14928249811E+04  0.32563274515E+04  0.28939837676E+04 0.  0.
        1    1    3    3  502    0  0.96766675154E+02 -0.46255273285E+03  0.22853003345E+04  0.23336487394E+04  0.50400001928E-02 0.  1.
       -1    1    3    3    0  502 -0.96766675154E+02  0.46255273285E+03 -0.79247535337E+03  0.92267871213E+03  0.50400001928E-02 0. -1.
</event>
<event>
 5   0  0.1976233E-05  0.3054775E+04  0.7818609E-02  0.8228260E-01
        2   -1    0    0  501    0  0.00000000000E+00  0.00000000000E+00  0.18309149654E+04  0.18309149654E+04  0.25500000920E-02 0.  1.
       -2   -1    0    0    0  501  0.00000000000E+00  0.00000000000E+00 -0.12741784163E+04  0.12741784163E+04  0.25500000920E-02 0. -1.
    10030    2    1    2    0    0  0.00000000000E+00  0.00000000000E+00  0.55673654909E+03  0.31050933817E+04  0.30547748401E+04 0.  0.
        2    1    3    3  502    0 -0.11388214495E+04 -0.90040323208E+03  0.76081473306E+03  0.16390483008E+04  0.25500000920E-02 0. -1.
       -2    1    3    3    0  502  0.11388214495E+04  0.90040323208E+03 -0.20407818398E+03  0.14660450809E+04  0.25500000920E-02 0.  1.
</event>
<event>
 5   0  0.8055928E-06  0.1557489E+04  0.7818609E-02  0.8847098E-01
        1   -1    0    0  501    0  0.00000000000E+00  0.00000000000E+00  0.17578802681E+04  0.17578802681E+04  0.50400001928E-02 0.  1.
       -1   -1    0    0    0  501  0.00000000000E+00  0.00000000000E+00 -0.34498538731E+03  0.34498538734E+03  0.50400001928E-02 0. -1.
    10030    2    1    2    0    0  0.00000000000E+00  0.00000000000E+00  0.14128948808E+04  0.21028656554E+04  0.15574890114E+04 0.  0.
        2    1    3    3  502    0 -0.30400429068E+03  0.27215230324E+03  0.16020017117E+04  0.16531469896E+04  0.25500000920E-02 0.  1.
       -2    1    3    3    0  502  0.30400429068E+03 -0.27215230324E+03 -0.18910683091E+03  0.44971866585E+03  0.25500000920E-02 0. -1.
</event>
<event>
 5   0  0.1937947E-05  0.2635742E+04  0.7818609E-02  0.8356161E-01
       -2   -1    0    0    0  501  0.00000000000E+00  0.00000000000E+00  0.10307103412E+04  0.10307103412E+04  0.25500000920E-02 0. -1.
        2   -1    0    0  501    0  0.00000000000E+00  0.00000000000E+00 -0.16850353106E+04  0.16850353106E+04  0.25500000920E-02 0.  1.
    10030    2    1    2    0    0  0.00000000000E+00  0.00000000000E+00 -0.65432496940E+03  0.27157456517E+04  0.26357415046E+04 0.  0.
        3    1    3    3  502    0 -0.26217933077E+03  0.10159525366E+03 -0.16537696917E+04  0.16775022505E+04  0.10100000352E+00 0.  1.
       -3    1    3    3    0  502  0.26217933077E+03 -0.10159525366E+03  0.99944472230E+03  0.10382434012E+04  0.10100000352E+00 0. -1.
</event>
<event>
 5   0  0.1960961E-05  0.3334682E+04  0.7818609E-02  0.8154126E-01
       -2   -1    0    0    0  501  0.00000000000E+00  0.00000000000E+00  0.13734477071E+04  0.13734477071E+04  0.25500000920E-02 0.  1.
        2   -1    0    0  501    0  0.00000000000E+00  0.00000000000E+00 -0.20241224391E+04  0.20241224391E+04  0.25500000920E-02 0. -1.
    10030    2    1    2    0    0  0.00000000000E+00  0.00000000000E+00 -0.65067473198E+03  0.33975701461E+04  0.33346821874E+04 0.  0.
        5    1    3    3  502    0 -0.14372824671E+04  0.81042265271E+03 -0.56952035215E+03  0.17455489932E+04  0.46999998093E+01 0. -1.
       -5    1    3    3    0  502  0.14372824671E+04 -0.81042265271E+03 -0.81154379827E+02  0.16520211529E+04  0.46999998093E+01 0.  1.
</event>
<event>
 5   0  0.8055928E-06  0.2137025E+04  0.7818609E-02  0.8545107E-01
       -1   -1    0    0    0  501  0.00000000000E+00  0.00000000000E+00  0.50481488391E+03  0.50481488394E+03  0.50400001928E-02 0. -1.
        1   -1    0    0  501    0  0.00000000000E+00  0.00000000000E+00 -0.22616576496E+04  0.22616576496E+04  0.50400001928E-02 0.  1.
    10030    2    1    2    0    0  0.00000000000E+00  0.00000000000E+00 -0.17568427657E+04  0.27664725336E+04  0.21370245145E+04 0.  0.
        2    1    3    3  502    0 -0.26221657084E+02 -0.10659826897E+04 -0.96728194849E+03  0.14396669886E+04  0.25500000920E-02 0. -1.
       -2    1    3    3    0  502  0.26221657084E+02  0.10659826897E+04 -0.78956081723E+03  0.13268055450E+04  0.25500000920E-02 0.  1.
</event>
<event>
 5   0  0.1937947E-05  0.2812890E+04  0.7818609E-02  0.8299278E-01
       -2   -1    0    0    0  501  0.00000000000E+00  0.00000000000E+00  0.11514444975E+04  0.11514444975E+04  0.25500000920E-02 0.  1.
        2   -1    0    0  501    0  0.00000000000E+00  0.00000000000E+00 -0.17179177495E+04  0.17179177495E+04  0.25500000920E-02 0. -1.
    10030    2    1    2    0    0  0.00000000000E+00  0.00000000000E+00 -0.56647325202E+03  0.28693622470E+04  0.28128895747E+04 0.  0.
        3    1    3    3  502    0 -0.10285598733E+04 -0.69283078374E+03 -0.95998410497E+03  0.15682854969E+04  0.10100000352E+00 0.  1.
       -3    1    3    3    0  502  0.10285598733E+04  0.69283078374E+03  0.39351085295E+03  0.13010767501E+04  0.10100000352E+00 0. -1.
</event>
<event>
 5   0  0.1918901E-05  0.2920942E+04  0.7818609E-02  0.8266674E-01
       -2   -1    0    0    0  501  0.00000000000E+00  0.00000000000E+00  0.13499540260E+04  0.13499540260E+04  0.25500000920E-02 0.  1.
        2   -1    0    0  501    0  0.00000000000E+00  0.00000000000E+00 -0.15800361253E+04  0.15800361253E+04  0.25500000920E-02 0. -1.
    10030    2    1    2    0    0  0.00000000000E+00  0.00000000000E+00 -0.23008209928E+03  0.29299901514E+04  0.29209424018E+04 0.  0.
        1    1    3    3  502    0 -0.86223737868E+03 -0.10526381202E+04 -0.64722737782E+03  0.15067858467E+04  0.50400001928E-02 0. -1.
       -1    1    3    3    0  502  0.86223737868E+03  0.10526381202E+04  0.41714527854E+03  0.14232043046E+04  0.50400001928E-02 0.  1.
</event>
<event>
 5   0  0.7971153E-06  0.2509549E+04  0.7818609E-02  0.8399592E-01
        1   -1    0    0  501    0  0.00000000000E+00  0.00000000000E+00  0.12352452645E+04  0.12352452645E+04  0.50400001928E-02 0. -1.
       -1   -1    0    0    0  501  0.00000000000E+00  0.00000000000E+00 -0.12746121271E+04  0.12746121271E+04  0.50400001928E-02 0.  1.
    10030    2    1    2    0    0  0.00000000000E+00  0.00000000000E+00 -0.39366862522E+02  0.25098573916E+04  0.25095486400E+04 0.  0.
        5    1    3    3  502    0  0.94705421323E+03 -0.62271136939E+02 -0.84054450089E+03  0.12678038197E+04  0.46999998093E+01 0.  1.
       -5    1    3    3    0  502 -0.94705421323E+03  0.62271136939E+02  0.80117763837E+03  0.12420535719E+04  0.46999998093E+01 0. -1.
</event>
<event>
 5   0  0.1937947E-05  0.2872735E+04  0.7818609E-02  0.8281036E-01
        2   -1    0    0  501    0  0.00000000000E+00  0.00000000000E+00  0.14570779986E+04  0.14570779986E+04  0.25500000920E-02 0.  1.
       -2   -1    0    0    0  501  0.00000000000E+00  0.00000000000E+00 -0.14159509576E+04  0.14159509576E+04  0.25500000920E-02 0. -1.
    10030    2    1    2    0    0  0.00000000000E+00  0.00000000000E+00  0.41127041023E+02  0.28730289562E+04  0.28727345769E+04 0.  0.
        3    1    3    3  502    0 -0.11167926708E+04  0.54610942635E+03  0.74014374991E+03  0.14468151768E+04  0.10100000352E+00 0.  1.
       -3    1    3    3    0  502  0.11167926708E+04 -0.54610942635E+03 -0.69901670889E+03  0.14262137794E+04  0.10100000352E+00 0. -1.
</event>
<event>
 5   0  0.7305460E-06  0.2912584E+04  0.7818609E-02  0.8269143E-01
        1   -1    0    0  501    0  0.00000000000E+00  0.00000000000E+00  0.21850847780E+04  0.21850847780E+04  0.50400001928E-02 0. -1.
       -1   -1    0    0    0  501  0.00000000000E+00  0.00000000000E+00 -0.97057394063E+03  0.97057394064E+03  0.50400001928E-02 0.  1.
    10030    2    1    2    0    0  0.00000000000E+00  0.00000000000E+00  0.12145108374E+04  0.31556587187E+04  0.29125839687E+04 0.  0.
        4    1    3    3  502    0  0.60269898484E+03 -0.61044413480E+03  0.18822849741E+04  0.20685469404E+04  0.12699999809E+01 0. -1.
       -4    1    3    3    0  502 -0.60269898484E+03  0.61044413480E+03 -0.66777413666E+03  0.10871117783E+04  0.12699999809E+01 0.  1.
</event>
<event>
 5   0  0.8122088E-06  0.2912847E+04  0.7818609E-02  0.8269065E-01
       -1   -1    0    0    0  501  0.00000000000E+00  0.00000000000E+00  0.81728369783E+03  0.81728369785E+03  0.50400001928E-02 0. -1.
        1   -1    0    0  501    0  0.00000000000E+00  0.00000000000E+00 -0.25953901053E+04  0.25953901053E+04  0.50400001928E-02 0.  1.
    10030    2    1    2    0    0  0.00000000000E+00  0.00000000000E+00 -0.17781064075E+04  0.34126738031E+04  0.29128474197E+04 0.  0.
        1    1    3    3  502    0 -0.14155822215E+04  0.26646467022E+03 -0.11411326342E+04  0.18376779193E+04  0.50400001928E-02 0.  1.
       -1    1    3    3    0  502  0.14155822215E+04 -0.26646467022E+03 -0.63697377328E+03  0.15749958839E+04  0.50400001928E-02 0. -1.
</event>
<event>
 5   0  0.8234888E-06  0.2680809E+04  0.7818609E-02  0.8341259E-01
        1   -1    0    0  501    0  0.00000000000E+00  0.00000000000E+00  0.20494512231E+04  0.20494512232E+04  0.50400001928E-02 0.  1.
       -1   -1    0    0    0  501  0.00000000000E+00  0.00000000000E+00 -0.87666607239E+03  0.87666607241E+03  0.50400001928E-02 0. -1.
    10030    2    1    2    0    0  0.00000000000E+00  0.00000000000E+00  0.11727851508E+04  0.29261172956E+04  0.26808090976E+04 0.  0.
        3    1    3    3  502    0  0.11396292832E+04 -0.44610677914E+03 -0.10370590387E+02  0.12238765137E+04  0.10100000352E+00 0. -1.
       -3    1    3    3    0  502 -0.11396292832E+04  0.44610677914E+03  0.11831557411E+04  0.17022407819E+04  0.10100000352E+00 0.  1.
</event>
<event>
 5   0  0.1829810E-05  0.2621429E+04  0.7818609E-02  0.8360959E-01
        2   -1    0    0  501    0  0.00000000000E+00  0.00000000000E+00  0.12467826814E+04  0.12467826814E+04  0.25500000920E-02 0.  1.
       -2   -1    0    0    0  501  0.00000000000E+00  0.00000000000E+00 -0.13779244693E+04  0.13779244693E+04  0.25500000920E-02 0. -1.
    10030    2    1    2    0    0  0.00000000000E+00  0.00000000000E+00 -0.13114178786E+03  0.26247071507E+04  0.26214288963E+04 0.  0.
        4    1    3    3  502    0 -0.89532839293E+03  0.66019296186E+03 -0.75962105135E+03  0.13470313406E+04  0.12699999809E+01 0. -1.
       -4    1    3    3    0  502  0.89532839293E+03 -0.66019296186E+03  0.62847926349E+03  0.12776758101E+04  0.12699999809E+01 0.  1.
</event>
<event>
 5   0  0.1829810E-05  0.2833940E+04  0.7818609E-02  0.8292808E-01
       -2   -1    0    0    0  501  0.00000000000E+00  0.00000000000E+00  0.13056104769E+04  0.13056104769E+04  0.25500000920E-02 0.  1.
        2   -1    0    0  501    0  0.00000000000E+00  0.00000000000E+00 -0.15378277534E+04  0.15378277534E+04  0.25500000920E-02 0. -1.
    10030    2    1    2    0    0  0.00000000000E+00  0.00000000000E+00 -0.23221727654E+03  0.28434382303E+04  0.28339400322E+04 0.  0.
        4    1    3    3  502    0 -0.11916688464E+04  0.75103451011E+03  0.38273685261E+02  0.14091110541E+04  0.12699999809E+01 0.  1.
       -4    1    3    3    0  502  0.11916688464E+04 -0.75103451011E+03 -0.27049096180E+03  0.14343271762E+04  0.12699999809E+01 0. -1.
</event>
<event>
 5   0  0.6578125E-06  0.1443548E+04  0.7818609E-02  0.8922886E-01
        4   -1    0    0  501    0  0.00000000000E+00  0.00000000000E+00  0.74895952596E+03  0.74896060272E+03  0.12699999809E+01 0.  1.
       -4   -1    0    0    0  501  0.00000000000E+00  0.00000000000E+00 -0.69557331007E+03  0.69557446947E+03  0.12699999809E+01 0. -1.
    10030    2    1    2    0    0  0.00000000000E+00  0.00000000000E+00  0.53386215889E+02  0.14445350722E+04  0.14435482281E+04 0.  0.
        1    1    3    3  502    0  0.66516505712E+03 -0.82810602334E+02  0.29456196989E+03  0.73216726450E+03  0.50400001928E-02 0.  1.
       -1    1    3    3    0  502 -0.66516505712E+03  0.82810602334E+02 -0.24117575400E+03  0.71236780768E+03  0.50400001928E-02 0. -1.
</event>
<event>
 5   0  0.7971153E-06  0.2830113E+04  0.7818609E-02  0.8293980E-01
        1   -1    0    0  501    0  0.00000000000E+00  0.00000000000E+00  0.23362764348E+04  0.23362764348E+04  0.50400001928E-02 0. -1.
       -1   -1    0    0    0  501  0.00000000000E+00  0.00000000000E+00 -0.85708370279E+03  0.85708370281E+03  0.50400001928E-02 0.  1.
    10030    2    1    2    0    0  0.00000000000E+00  0.00000000000E+00  0.14791927320E+04  0.31933601376E+04  0.28301126886E+04 0.  0.
        5    1    3    3  502    0  0.40086515858E+03  0.71111521067E+02  0.22687564611E+04  0.23050005843E+04  0.46999998093E+01 0. -1.
       -5    1    3    3    0  502 -0.40086515858E+03 -0.71111521067E+02 -0.78956372906E+03  0.88835955336E+03  0.46999998093E+01 0.  1.
</event>
<event>
 5   0  0.7971153E-06  0.2377346E+04  0.7818609E-02  0.8448034E-01
       -1   -1    0    0    0  501  0.00000000000E+00  0.00000000000E+00  0.12060765635E+04  0.12060765635E+04  0.50400001928E-02 0. -1.
        1   -1    0    0  501    0  0.00000000000E+00  0.00000000000E+00 -0.11715205162E+04  0.11715205162E+04  0.50400001928E-02 0.  1.
    10030    2    1    2    0    0  0.00000000000E+00  0.00000000000E+00  0.34556047306E+02  0.23775970798E+04  0.23773459473E+04 0.  0.
        5    1    3    3  502    0 -0.95545920443E+03  0.69011934863E+03 -0.13686269289E+03  0.11865582554E+04  0.46999998093E+01 0.  1.
       -5    1    3    3    0  502  0.95545920443E+03 -0.69011934863E+03  0.17141874019E+03  0.11910388244E+04  0.46999998093E+01 0. -1.
</event>
<event>
 5   0  0.1976233E-05  0.2860033E+04  0.7818609E-02  0.8284869E-01
       -2   -1    0    0    0  501  0.00000000000E+00  0.00000000000E+00  0.94139301443E+03  0.94139301443E+03  0.25500000920E-02 0. -1.
        2   -1    0    0  501    0  0.00000000000E+00  0.00000000000E+00 -0.21722571206E+04  0.21722571206E+04  0.25500000920E-02 0.  1.
    10030    2    1    2    0    0  0.00000000000E+00  0.00000000000E+00 -0.12308641062E+04  0.31136501351E+04  0.28600333417E+04 0.  0.
        2    1    3    3  502    0 -0.80925193962E+03 -0.55641665022E+03  0.51619405680E+03  0.11094793800E+04  0.25500000920E-02 0. -1.
       -2    1    3    3    0  502  0.80925193962E+03  0.55641665022E+03 -0.17470581630E+04  0.20041707550E+04  0.25500000920E-02 0.  1.
</event>
<event>
 5   0  0.1937947E-05  0.2924444E+04  0.7818609E-02  0.8265642E-01
       -2   -1    0    0    0  501  0.00000000000E+00  0.00000000000E+00  0.13473092570E+04  0.13473092570E+04  0.25500000920E-02 0. -1.
        2   -1    0    0  501    0  0.00000000000E+00  0.00000000000E+00 -0.15869353830E+04  0.15869353830E+04  0.25500000920E-02 0.  1.
    10030    2    1    2    0    0  0.00000000000E+00  0.00000000000E+00 -0.23962612595E+03  0.29342446400E+04  0.29244436953E+04 0.  0.
        3    1    3    3  502    0  0.21078625858E+03 -0.12116879032E+04 -0.91333290451E+03  0.15319253984E+04  0.10100000352E+00 0.  1.
       -3    1    3    3    0  502 -0.21078625858E+03  0.12116879032E+04  0.67370677856E+03  0.14023192416E+04  0.10100000352E+00 0. -1.
</event>
<event>
 5   0  0.1918901E-05  0.2902836E+04  0.7818609E-02  0.8272034E-01
        2   -1    0    0  501    0  0.00000000000E+00  0.00000000000E+00  0.13389618032E+04  0.13389618032E+04  0.25500000920E-02 0.  1.
       -2   -1    0    0    0  501  0.00000000000E+00  0.00000000000E+00 -0.15733189865E+04  0.15733189865E+04  0.25500000920E-02 0. -1.
    10030    2    1    2    0    0  0.00000000000E+00  0.00000000000E+00 -0.23435718328E+03  0.29122807897E+04  0.29028358735E+04 0.  0.
        1    1    3    3  502    0 -0.67120772683E+03  0.97519671879E+03  0.72524724637E+03  0.13883486670E+04  0.50400001928E-02 0.  1.
       -1    1    3    3    0  502  0.67120772683E+03 -0.97519671879E+03 -0.95960442965E+03  0.15239321226E+04  0.50400001928E-02 0. -1.
</event>
<event>
 5   0  0.1976233E-05  0.2874081E+04  0.7818609E-02  0.8280631E-01
       -2   -1    0    0    0  501  0.00000000000E+00  0.00000000000E+00  0.20613940661E+04  0.20613940661E+04  0.25500000920E-02 0.  1.
        2   -1    0    0  501    0  0.00000000000E+00  0.00000000000E+00 -0.10017904557E+04  0.10017904557E+04  0.25500000920E-02 0. -1.
    10030    2    1    2    0    0  0.00000000000E+00  0.00000000000E+00  0.10596036103E+04  0.30631845218E+04  0.28740806537E+04 0.  0.
        2    1    3    3  502    0  0.77451039289E+03 -0.71920123783E+03 -0.50789642589E+03  0.11726361536E+04  0.25500000920E-02 0. -1.
       -2    1    3    3    0  502 -0.77451039289E+03  0.71920123783E+03  0.15675000362E+04  0.18905483683E+04  0.25500000920E-02 0.  1.
</event>
<event>
 5   0  0.1937947E-05  0.2682235E+04  0.7818609E-02  0.8340792E-01
       -2   -1    0    0    0  501  0.00000000000E+00  0.00000000000E+00  0.77939885427E+03  0.77939885427E+03  0.25500000920E-02 0.  1.
        2   -1    0    0  501    0  0.00000000000E+00  0.00000000000E+00 -0.23076707973E+04  0.23076707973E+04  0.25500000920E-02 0. -1.
    10030    2    1    2    0    0  0.00000000000E+00  0.00000000000E+00 -0.15282719430E+04  0.30870696515E+04  0.26822348707E+04 0.  0.
        3    1    3    3  502    0 -0.94194990248E+03 -0.41574270784E+03  0.22491863788E+03  0.10538975386E+04  0.10100000352E+00 0.  1.
       -3    1    3    3    0  502  0.94194990248E+03  0.41574270784E+03 -0.17531905809E+04  0.20331721130E+04  0.10100000352E+00 0. -1.
</event>
<event>
 5   0  0.8234888E-06  0.2914509E+04  0.7818609E-02  0.8268574E-01
       -1   -1    0    0    0  501  0.00000000000E+00  0.00000000000E+00  0.12894140925E+04  0.12894140925E+04  0.50400001928E-02 0.  1.
        1   -1    0    0  501    0  0.00000000000E+00  0.00000000000E+00 -0.16469422984E+04  0.16469422984E+04  0.50400001928E-02 0. -1.
    10030    2    1    2    0    0  0.00000000000E+00  0.00000000000E+00 -0.35752820592E+03  0.29363563909E+04  0.29145089529E+04 0.  0.
        3    1    3    3  502    0  0.26398945866E+03 -0.14307425736E+04 -0.26230644674E+03  0.14783502387E+04  0.10100000352E+00 0.  1.
       -3    1    3    3    0  502 -0.26398945866E+03  0.14307425736E+04 -0.95221759173E+02  0.14580061522E+04  0.10100000352E+00 0. -1.
</event>
<event>
 5   0  0.1960961E-05  0.2554588E+04  0.7818609E-02  0.8383792E-01
        2   -1    0    0  501    0  0.00000000000E+00  0.00000000000E+00  0.14700803299E+04  0.14700803299E+04  0.25500000920E-02 0.  1.
       -2   -1    0    0    0  501  0.00000000000E+00  0.00000000000E+00 -0.11097900348E+04  0.11097900348E+04  0.25500000920E-02 0. -1.
    10030    2    1    2    0    0  0.00000000000E+00  0.00000000000E+00  0.36029029512E+03  0.25798703648E+04  0.25545884213E+04 0.  0.
        5    1    3    3  502    0 -0.53953714348E+03 -0.32913117981E+02  0.13488686949E+04  0.14531525896E+04  0.46999998093E+01 0.  1.
       -5    1    3    3    0  502  0.53953714348E+03  0.32913117981E+02 -0.98857839974E+03  0.11267177752E+04  0.46999998093E+01 0. -1.
</event>
<event>
 5   0  0.7971153E-06  0.2919559E+04  0.7818609E-02  0.8267082E-01
        1   -1    0    0  501    0  0.00000000000E+00  0.00000000000E+00  0.20404571388E+04  0.20404571388E+04  0.50400001928E-02 0.  1.
       -1   -1    0    0    0  501  0.00000000000E+00  0.00000000000E+00 -0.10443524617E+04  0.10443524618E+04  0.50400001928E-02 0. -1.
    10030    2    1    2    0    0  0.00000000000E+00  0.00000000000E+00  0.99610467709E+03  0.30848096006E+04  0.29195591695E+04 0.  0.
        5    1    3    3  502    0  0.32190015217E+03  0.71323448461E+03 -0.80401781182E+03  0.11219580517E+04  0.46999998093E+01 0. -1.
       -5    1    3    3    0  502 -0.32190015217E+03 -0.71323448461E+03  0.18001224889E+04  0.19628515489E+04  0.46999998093E+01 0.  1.
</event>
<event>
 5   0  0.8234888E-06  0.2096649E+04  0.7818609E-02  0.8562721E-01
        1   -1    0    0  501    0  0.00000000000E+00  0.00000000000E+00  0.63365696459E+03  0.63365696461E+03  0.50400001928E-02 0. -1.
       -1   -1    0    0    0  501  0.00000000000E+00  0.00000000000E+00 -0.17343526470E+04  0.17343526470E+04  0.50400001928E-02 0.  1.
    10030    2    1    2    0    0  0.00000000000E+00  0.00000000000E+00 -0.11006956824E+04  0.23680096116E+04  0.20966493592E+04 0.  0.
        3    1    3    3  502    0 -0.48119247282E+02  0.83238471235E+03  0.16735294470E+03  0.85040389793E+03  0.10100000352E+00 0. -1.
       -3    1    3    3    0  502  0.48119247282E+02 -0.83238471235E+03 -0.12680486271E+04  0.15176057137E+04  0.10100000352E+00 0.  1.
</event>
<event>
 5   0  0.1937947E-05  0.1768740E+04  0.7818609E-02  0.8723102E-01
        2   -1    0    0  501    0  0.00000000000E+00  0.00000000000E+00  0.18170624203E+04  0.18170624203E+04  0.25500000920E-02 0. -1.
       -2   -1    0    0    0  501  0.00000000000E+00  0.00000000000E+00 -0.43042548338E+03  0.43042548339E+03  0.25500000920E-02 0.  1.
    10030    2    1    2    0    0  0.00000000000E+00  0.00000000000E+00  0.13866369369E+04  0.22474879037E+04  0.17687396310E+04 0.  0.
        3    1    3    3  502    0  0.86790274647E+03  0.35381337088E+02  0.48220732472E+03  0.99349430323E+03  0.10100000352E+00 0.  1.
       -3    1    3    3    0  502 -0.86790274647E+03 -0.35381337088E+02  0.90442961217E+03  0.12539936004E+04  0.10100000352E+00 0. -1.
</event>
<event>
 5   0  0.8122088E-06  0.2883972E+04  0.7818609E-02  0.8277662E-01
       -1   -1    0    0    0  501  0.00000000000E+00  0.00000000000E+00  0.12606389627E+04  0.12606389627E+04  0.50400001928E-02 0.  1.
        1   -1    0    0  501    0  0.00000000000E+00  0.00000000000E+00 -0.16494206143E+04  0.16494206143E+04  0.50400001928E-02 0. -1.
    10030    2    1    2    0    0  0.00000000000E+00  0.00000000000E+00 -0.38878165164E+03  0.29100595770E+04  0.28839721859E+04 0.  0.
        1    1    3    3  502    0  0.13598147136E+04 -0.34653771099E+03  0.14048382036E+03  0.14102908013E+04  0.50400001928E-02 0.  1.
       -1    1    3    3    0  502 -0.13598147136E+04  0.34653771099E+03 -0.52926547201E+03  0.14997687756E+04  0.50400001928E-02 0. -1.
</event>
<event>
 5   0  0.8234888E-06  0.2956610E+04  0.7818609E-02  0.8256231E-01
        1   -1    0    0  501    0  0.00000000000E+00  0.00000000000E+00  0.93482001295E+03  0.93482001296E+03  0.50400001928E-02 0.  1.
       -1   -1    0    0    0  501  0.00000000000E+00  0.00000000000E+00 -0.23377609189E+04  0.23377609189E+04  0.50400001928E-02 0. -1.
    10030    2    1    2    0    0  0.00000000000E+00  0.00000000000E+00 -0.14029409060E+04  0.32725809319E+04  0.29566100132E+04 0.  0.
        3    1    3    3  502    0  0.44696862279E+03  0.89966904877E+03  0.49895999273E+03  0.11216712672E+04  0.10100000352E+00 0.  1.
       -3    1    3    3    0  502 -0.44696862279E+03 -0.89966904877E+03 -0.19019008987E+04  0.21509096647E+04  0.10100000352E+00 0. -1.
</event>
<event>
 5   0  0.8055928E-06  0.2061588E+04  0.7818609E-02  0.8578356E-01
        1   -1    0    0  501    0  0.00000000000E+00  0.00000000000E+00  0.10963593748E+04  0.10963593748E+04  0.50400001928E-02 0. -1.
       -1   -1    0    0    0  501  0.00000000000E+00  0.00000000000E+00 -0.96914938394E+03  0.96914938395E+03  0.50400001928E-02 0.  1.
    10030    2    1    2    0    0  0.00000000000E+00  0.00000000000E+00  0.12720999088E+03  0.20655087588E+04  0.20615877500E+04 0.  0.
        2    1    3    3  502    0  0.74523424406E+03 -0.60143781680E+03 -0.31847906220E+03  0.10092226905E+04  0.25500000920E-02 0.  1.
       -2    1    3    3    0  502 -0.74523424406E+03  0.60143781680E+03  0.44568905308E+03  0.10562860683E+04  0.25500000920E-02 0. -1.
</event>
<event>
 5   0  0.7971153E-06  0.1461576E+04  0.7818609E-02  0.8910414E-01
        1   -1    0    0  501    0  0.00000000000E+00  0.00000000000E+00  0.51024449003E+03  0.51024449005E+03  0.50400001928E-02 0.  1.
       -1   -1    0    0    0  501  0.00000000000E+00  0.00000000000E+00 -0.10466579222E+04  0.10466579223E+04  0.50400001928E-02 0. -1.
    10030    2    1    2    0    0  0.00000000000E+00  0.00000000000E+00 -0.53641343222E+03  0.15569024123E+04  0.14615764609E+04 0.  0.
        5    1    3    3  502    0  0.32878374970E+03  0.64529891430E+03 -0.16427307140E+03  0.74264202336E+03  0.46999998093E+01 0.  1.
       -5    1    3    3    0  502 -0.32878374970E+03 -0.64529891430E+03 -0.37214036081E+03  0.81426038895E+03  0.46999998093E+01 0. -1.
</event>
<event>
 5   0  0.1829810E-05  0.3087466E+04  0.7818609E-02  0.8219186E-01
        2   -1    0    0  501    0  0.00000000000E+00  0.00000000000E+00  0.13467269610E+04  0.13467269610E+04  0.25500000920E-02 0.  1.
       -2   -1    0    0    0  501  0.00000000000E+00  0.00000000000E+00 -0.17695580707E+04  0.17695580707E+04  0.25500000920E-02 0. -1.
    10030    2    1    2    0    0  0.00000000000E+00  0.00000000000E+00 -0.42283110973E+03  0.31162850317E+04  0.30874659919E+04 0.  0.
        4    1    3    3  502    0 -0.32796056515E+03 -0.92090255708E+03  0.99451298569E+03  0.13945168854E+04  0.12699999809E+01 0.  1.
       -4    1    3    3    0  502  0.32796056515E+03  0.92090255708E+03 -0.14173440954E+04  0.17217681463E+04  0.12699999809E+01 0. -1.
</event>
<event>
 5   0  0.1918901E-05  0.1732717E+04  0.7818609E-02  0.8742921E-01
       -2   -1    0    0    0  501  0.00000000000E+00  0.00000000000E+00  0.43392943893E+03  0.43392943894E+03  0.25500000920E-02 0.  1.
        2   -1    0    0  501    0  0.00000000000E+00  0.00000000000E+00 -0.17297221945E+04  0.17297221945E+04  0.25500000920E-02 0. -1.
    10030    2    1    2    0    0  0.00000000000E+00  0.00000000000E+00 -0.12957927555E+04  0.21636516334E+04  0.17327173819E+04 0.  0.
        1    1    3    3  502    0 -0.11711386971E+03  0.45465864863E+03 -0.15570930880E+04  0.16263360753E+04  0.50400001928E-02 0. -1.
       -1    1    3    3    0  502  0.11711386971E+03 -0.45465864863E+03  0.26130033241E+03  0.53731555812E+03  0.50400001928E-02 0.  1.
</event>
<event>
 5   0  0.7305460E-06  0.2316595E+04  0.7818609E-02  0.8471407E-01
       -1   -1    0    0    0  501  0.00000000000E+00  0.00000000000E+00  0.82416357048E+03  0.82416357049E+03  0.50400001928E-02 0. -1.
        1   -1    0    0  501    0  0.00000000000E+00  0.00000000000E+00 -0.16278961142E+04  0.16278961142E+04  0.50400001928E-02 0.  1.
    10030    2    1    2    0    0  0.00000000000E+00  0.00000000000E+00 -0.80373254373E+03  0.24520596847E+04  0.23165946334E+04 0.  0.
        4    1    3    3  502    0 -0.10208493032E+03  0.16741763890E+03 -0.16101994591E+04  0.16220955304E+04  0.12699999809E+01 0.  1.
       -4    1    3    3    0  502  0.10208493032E+03 -0.16741763890E+03  0.80646691540E+03  0.82996415426E+03  0.12699999809E+01 0. -1.
</event>
<event>
 5   0  0.1976233E-05  0.3226129E+04  0.7818609E-02  0.8181950E-01
       -2   -1    0    0    0  501  0.00000000000E+00  0.00000000000E+00  0.12192814600E+04  0.12192814600E+04  0.25500000920E-02 0. -1.
        2   -1    0    0  501    0  0.00000000000E+00  0.00000000000E+00 -0.21340253546E+04  0.21340253546E+04  0.25500000920E-02 0.  1.
    10030    2    1    2    0    0  0.00000000000E+00  0.00000000000E+00 -0.91474389462E+03  0.33533068146E+04  0.32261292906E+04 0.  0.
        2    1    3    3  502    0  0.13315933107E+04  0.13550553210E+03 -0.13931252093E+04  0.19319162361E+04  0.25500000920E-02 0.  1.
       -2    1    3    3    0  502 -0.13315933107E+04 -0.13550553210E+03  0.47838131468E+03  0.14213905785E+04  0.25500000920E-02 0. -1.
</event>
<event>
 5   0  0.7971153E-06  0.2881549E+04  0.7818609E-02  0.8278389E-01
        1   -1    0    0  501    0  0.00000000000E+00  0.00000000000E+00  0.12413787886E+04  0.12413787886E+04  0.50400001928E-02 0.  1.
       -1   -1    0    0    0  501  0.00000000000E+00  0.00000000000E+00 -0.16721975451E+04  0.16721975452E+04  0.50400001928E-02 0. -1.
    10030    2    1    2    0    0  0.00000000000E+00  0.00000000000E+00 -0.43081875655E+03  0.29135763338E+04  0.28815485857E+04 0.  0.
        5    1    3    3  502    0 -0.12635211851E+04  0.68827057463E+03 -0.29111685450E+03  0.14679827254E+04  0.46999998093E+01 0. -1.
       -5    1    3    3    0  502  0.12635211851E+04 -0.68827057463E+03 -0.13970190205E+03  0.14455936084E+04  0.46999998093E+01 0.  1.
</event>
<event>
 5   0  0.1976233E-05  0.1718158E+04  0.7818609E-02  0.8751075E-01
       -2   -1    0    0    0  501  0.00000000000E+00  0.00000000000E+00  0.64272961881E+03  0.64272961881E+03  0.25500000920E-02 0. -1.
        2   -1    0    0  501    0  0.00000000000E+00  0.00000000000E+00 -0.11482536703E+04  0.11482536703E+04  0.25500000920E-02 0.  1.
    10030    2    1    2    0    0  0.00000000000E+00  0.00000000000E+00 -0.50552405152E+03  0.17909832891E+04  0.17181579017E+04 0.  0.
        2    1    3    3  502    0  0.51207818203E+02 -0.38885753985E+03  0.54395366349E+03  0.67061018109E+03  0.25500000920E-02 0. -1.
       -2    1    3    3    0  502 -0.51207818203E+02  0.38885753985E+03 -0.10494777150E+04  0.11203731081E+04  0.25500000920E-02 0.  1.
</event>
<event>
 5   0  0.7305460E-06  0.2982813E+04  0.7818609E-02  0.8248656E-01
       -1   -1    0    0    0  501  0.00000000000E+00  0.00000000000E+00  0.17960041353E+04  0.17960041353E+04  0.50400001928E-02 0.  1.
        1   -1    0    0  501    0  0.00000000000E+00  0.00000000000E+00 -0.12384675364E+04  0.12384675364E+04  0.50400001928E-02 0. -1.
    10030    2    1    2    0    0  0.00000000000E+00  0.00000000000E+00  0.55753659888E+03  0.30344716717E+04  0.29828126437E+04 0.  0.
        4    1    3    3  502    0 -0.13916254545E+04  0.15659099682E+03 -0.24309652174E+03  0.14213513561E+04  0.12699999809E+01 0. -1.
       -4    1    3    3    0  502  0.13916254545E+04 -0.15659099682E+03  0.80063312062E+03  0.16131203156E+04  0.12699999809E+01 0.  1.
</event>
<event>
 5   0  0.7305460E-06  0.1868579E+04  0.7818609E-02  0.8670656E-01
       -1   -1    0    0    0  501  0.00000000000E+00  0.00000000000E+00  0.13929041310E+04  0.13929041310E+04  0.50400001928E-02 0.  1.
        1   -1    0    0  501    0  0.00000000000E+00  0.00000000000E+00 -0.62667436980E+03  0.62667436982E+03  0.50400001928E-02 0. -1.
    10030    2    1    2    0    0  0.00000000000E+00  0.00000000000E+00  0.76622976121E+03  0.20195785008E+04  0.18685794803E+04 0.  0.
        4    1    3    3  502    0  0.86333260940E+03 -0.32910251556E+03  0.23318183945E+03  0.95290453003E+03  0.12699999809E+01 0.  1.
       -4    1    3    3    0  502 -0.86333260940E+03  0.32910251556E+03  0.53304792175E+03  0.10666739708E+04  0.12699999809E+01 0. -1.
</event>
<event>
 5   0  0.8055928E-06  0.2896223E+04  0.7818609E-02  0.8274002E-01
        1   -1    0    0  501    0  0.00000000000E+00  0.00000000000E+00  0.14507427306E+04  0.14507427306E+04  0.50400001928E-02 0. -1.
       -1   -1    0    0    0  501  0.00000000000E+00  0.00000000000E+00 -0.14454846919E+04  0.14454846919E+04  0.50400001928E-02 0.  1.
    10030    2    1    2    0    0  0.00000000000E+00  0.00000000000E+00  0.52580386837E+01  0.28962274224E+04  0.28962226495E+04 0.  0.
        2    1    3    3  502    0  0.11416984857E+04 -0.20589799167E+03 -0.86406554597E+03  0.14465402459E+04  0.25500000920E-02 0.  1.
       -2    1    3    3    0  502 -0.11416984857E+04  0.20589799167E+03  0.86932358465E+03  0.14496871766E+04  0.25500000920E-02 0. -1.
</event>
<event>
 5   0  0.1829810E-05  0.2958869E+04  0.7818609E-02  0.8255575E-01
        2   -1    0    0  501    0  0.00000000000E+00  0.00000000000E+00  0.23756383633E+04  0.23756383633E+04  0.25500000920E-02 0.  1.
       -2   -1    0    0    0  501  0.00000000000E+00  0.00000000000E+00 -0.92132148935E+03  0.92132148935E+03  0.25500000920E-02 0. -1.
    10030    2    1    2    0    0  0.00000000000E+00  0.00000000000E+00  0.14543168739E+04  0.32969598526E+04  0.29588691590E+04 0.  0.
        4    1    3    3  502    0 -0.13073915942E+04 -0.55531987655E+03  0.26628942097E+03  0.14451867057E+04  0.12699999809E+01 0. -1.
       -4    1    3    3    0  502  0.13073915942E+04  0.55531987655E+03  0.11880274530E+04  0.18517731469E+04  0.12699999809E+01 0.  1.
</event>
<event>
 5   0  0.6578125E-06  0.2917988E+04  0.7818609E-02  0.8267546E-01
        3   -1    0    0  501    0  0.00000000000E+00  0.00000000000E+00  0.13783121711E+04  0.13783121748E+04  0.10100000352E+00 0. -1.
       -3   -1    0    0    0  501  0.00000000000E+00  0.00000000000E+00 -0.15443981543E+04  0.15443981576E+04  0.10100000352E+00 0.  1.
    10030    2    1    2    0    0  0.00000000000E+00  0.00000000000E+00 -0.16608598321E+03  0.29227103324E+04  0.29179875143E+04 0.  0.
        1    1    3    3  502    0 -0.76468727662E+03 -0.28853667022E+03 -0.12935779103E+04  0.15301450425E+04  0.50400001928E-02 0.  1.
       -1    1    3    3    0  502  0.76468727662E+03  0.28853667022E+03  0.11274919271E+04  0.13925652899E+04  0.50400001928E-02 0. -1.
</event>
<event>
 5   0  0.1960961E-05  0.2890460E+04  0.7818609E-02  0.8275722E-01
       -2   -1    0    0    0  501  0.00000000000E+00  0.00000000000E+00  0.16066764712E+04  0.16066764712E+04  0.25500000920E-02 0. -1.
        2   -1    0    0  501    0  0.00000000000E+00  0.00000000000E+00 -0.13000060281E+04  0.13000060281E+04  0.25500000920E-02 0.  1.
    10030    2    1    2    0    0  0.00000000000E+00  0.00000000000E+00  0.30667044304E+03  0.29066824993E+04  0.28904595467E+04 0.  0.
        5    1    3    3  502    0 -0.26086825199E+02 -0.76569990427E+03  0.13856477536E+04  0.15833567674E+04  0.46999998093E+01 0. -1.
       -5    1    3    3    0  502  0.26086825199E+02  0.76569990427E+03 -0.10789773106E+04  0.13233257319E+04  0.46999998093E+01 0.  1.
</event>
<event>
 5   0  0.1960961E-05  0.2840297E+04  0.7818609E-02  0.8290866E-01
        2   -1    0    0  501    0  0.00000000000E+00  0.00000000000E+00  0.18508415766E+04  0.18508415766E+04  0.25500000920E-02 0. -1.
       -2   -1    0    0    0  501  0.00000000000E+00  0.00000000000E+00 -0.10896779807E+04  0.10896779807E+04  0.25500000920E-02 0.  1.
    10030    2    1    2    0    0  0.00000000000E+00  0.00000000000E+00  0.76116359589E+03  0.29405195574E+04  0.28402966830E+04 0.  0.
        5    1    3    3  502    0 -0.89670962335E+03  0.10974420897E+04  0.47508211149E+03  0.14947215097E+04  0.46999998093E+01 0.  1.
       -5    1    3    3    0  502  0.89670962335E+03 -0.10974420897E+04  0.28608148440E+03  0.14457980477E+04  0.46999998093E+01 0. -1.
</event>
<event>
 5   0  0.1829810E-05  0.2981297E+04  0.7818609E-02  0.8249092E-01
       -2   -1    0    0    0  501  0.00000000000E+00  0.00000000000E+00  0.12084259368E+04  0.12084259368E+04  0.25500000920E-02 0.  1.
        2   -1    0    0  501    0  0.00000000000E+00  0.00000000000E+00 -0.18387823390E+04  0.18387823390E+04  0.25500000920E-02 0. -1.
    10030    2    1    2    0    0  0.00000000000E+00  0.00000000000E+00 -0.63035640219E+03  0.30472082759E+04  0.29812965439E+04 0.  0.
        4    1    3    3  502    0  0.15379560161E+03 -0.13237876135E+04 -0.99774762058E+03  0.16648028892E+04  0.12699999809E+01 0. -1.
       -4    1    3    3    0  502 -0.15379560161E+03  0.13237876135E+04  0.36739121839E+03  0.13824053866E+04  0.12699999809E+01 0.  1.
</event>
<event>
 5   0  0.7305460E-06  0.3068909E+04  0.7818609E-02  0.8224323E-01
        1   -1    0    0  501    0  0.00000000000E+00  0.00000000000E+00  0.24062979051E+04  0.24062979051E+04  0.50400001928E-02 0. -1.
       -1   -1    0    0    0  501  0.00000000000E+00  0.00000000000E+00 -0.97849526431E+03  0.97849526432E+03  0.50400001928E-02 0.  1.
    10030    2    1    2    0    0  0.00000000000E+00  0.00000000000E+00  0.14278026408E+04  0.33847931694E+04  0.30689093207E+04 0.  0.
        4    1    3    3  502    0  0.12892909163E+04  0.10079132174E+03  0.16248173052E+04  0.20766470200E+04  0.12699999809E+01 0. -1.
       -4    1    3    3    0  502 -0.12892909163E+04 -0.10079132174E+03 -0.19701466443E+03  0.13081461494E+04  0.12699999809E+01 0.  1.
</event>
<event>
 5   0  0.8055928E-06  0.2886026E+04  0.7818609E-02  0.8277047E-01
       -1   -1    0    0    0  501  0.00000000000E+00  0.00000000000E+00  0.11083087368E+04  0.11083087368E+04  0.50400001928E-02 0. -1.
        1   -1    0    0  501    0  0.00000000000E+00  0.00000000000E+00 -0.18787965356E+04  0.18787965357E+04  0.50400001928E-02 0.  1.
    10030    2    1    2    0    0  0.00000000000E+00  0.00000000000E+00 -0.77048779881E+03  0.29871052725E+04  0.28860260673E+04 0.  0.
        2    1    3    3  502    0  0.94287787142E+03  0.21340611399E+02 -0.15156548922E+04  0.17851285260E+04  0.25500000920E-02 0.  1.
       -2    1    3    3    0  502 -0.94287787142E+03 -0.21340611399E+02  0.74516709337E+03  0.12019767465E+04  0.25500000920E-02 0. -1.
</event>
<event>
 5   0  0.1976233E-05  0.2888469E+04  0.7818609E-02  0.8276316E-01
        2   -1    0    0  501    0  0.00000000000E+00  0.00000000000E+00  0.24739625416E+04  0.24739625416E+04  0.25500000920E-02 0. -1.
       -2   -1    0    0    0  501  0.00000000000E+00  0.00000000000E+00 -0.84310653693E+03  0.84310653694E+03  0.25500000920E-02 0.  1.
    10030    2    1    2    0    0  0.00000000000E+00  0.00000000000E+00  0.16308560047E+04  0.33170690786E+04  0.28884694847E+04 0.  0.
        2    1    3    3  502    0 -0.90188464997E+03  0.92470622702E+03  0.73554435189E+02  0.12937881523E+04  0.25500000920E-02 0.  1.
       -2    1    3    3    0  502  0.90188464997E+03 -0.92470622702E+03  0.15573015695E+04  0.20232809263E+04  0.25500000920E-02 0. -1.
</event>
<event>
 5   0  0.8055928E-06  0.2934060E+04  0.7818609E-02  0.8262815E-01
       -1   -1    0    0    0  501  0.00000000000E+00  0.00000000000E+00  0.17436512046E+04  0.17436512046E+04  0.50400001928E-02 0.  1.
        1   -1    0    0  501    0  0.00000000000E+00  0.00000000000E+00 -0.12342933417E+04  0.12342933417E+04  0.50400001928E-02 0. -1.
    10030    2    1    2    0    0  0.00000000000E+00  0.00000000000E+00  0.50935786293E+03  0.29779445464E+04  0.29340600350E+04 0.  0.
        2    1    3    3  502    0  0.36973765082E+03  0.10428764854E+04  0.12323515797E+04  0.16561967607E+04  0.25500000920E-02 0.  1.
       -2    1    3    3    0  502 -0.36973765082E+03 -0.10428764854E+04 -0.72299371679E+03  0.13217477856E+04  0.25500000920E-02 0. -1.
</event>
<event>
 5   0  0.1937947E-05  0.2913920E+04  0.7818609E-02  0.8268748E-01
       -2   -1    0    0    0  501  0.00000000000E+00  0.00000000000E+00  0.11182314305E+04  0.11182314305E+04  0.25500000920E-02 0.  1.
        2   -1    0    0  501    0  0.00000000000E+00  0.00000000000E+00 -0.18982938216E+04  0.18982938216E+04  0.25500000920E-02 0. -1.
    10030    2    1    2    0    0  0.00000000000E+00  0.00000000000E+00 -0.78006239104E+03  0.30165252521E+04  0.29139195704E+04 0.  0.
        3    1    3    3  502    0  0.32119953085E+03 -0.57773098356E+03 -0.17341296670E+04  0.18558415720E+04  0.10100000352E+00 0. -1.
       -3    1    3    3    0  502 -0.32119953085E+03  0.57773098356E+03  0.95406727601E+03  0.11606836801E+04  0.10100000352E+00 0.  1.
</event>
<event>
 5   0  0.1960961E-05  0.1732291E+04  0.7818609E-02  0.8743159E-01
        2   -1    0    0  501    0  0.00000000000E+00  0.00000000000E+00  0.71071268413E+03  0.71071268413E+03  0.25500000920E-02 0. -1.
       -2   -1    0    0    0  501  0.00000000000E+00  0.00000000000E+00 -0.10555712738E+04  0.10555712738E+04  0.25500000920E-02 0.  1.
    10030    2    1    2    0    0  0.00000000000E+00  0.00000000000E+00 -0.34485858967E+03  0.17662839579E+04  0.17322908454E+04 0.  0.
        5    1    3    3  502    0  0.18924011522E+03 -0.53913085522E+03  0.49127563957E+03  0.75355672932E+03  0.46999998093E+01 0. -1.
       -5    1    3    3    0  502 -0.18924011522E+03  0.53913085522E+03 -0.83613422924E+03  0.10127272286E+04  0.46999998093E+01 0.  1.
</event>
<event>
 5   0  0.7971153E-06  0.2869277E+04  0.7818609E-02  0.8282078E-01
       -1   -1    0    0    0  501  0.00000000000E+00  0.00000000000E+00  0.11057318019E+04  0.11057318019E+04  0.50400001928E-02 0.  1.
        1   -1    0    0  501    0  0.00000000000E+00  0.00000000000E+00 -0.18613800246E+04  0.18613800246E+04  0.50400001928E-02 0. -1.
    10030    2    1    2    0    0  0.00000000000E+00  0.00000000000E+00 -0.75564822268E+03  0.29671118265E+04  0.28692766257E+04 0.  0.
        5    1    3    3  502    0 -0.89017569689E+03 -0.98088733618E+03  0.19197418610E+03  0.13384427204E+04  0.46999998093E+01 0. -1.
       -5    1    3    3    0  502  0.89017569689E+03  0.98088733618E+03 -0.94762240878E+03  0.16286691061E+04  0.46999998093E+01 0.  1.
</event>
<event>
 5   0  0.8234888E-06  0.1928690E+04  0.7818609E-02  0.8640706E-01
       -1   -1    0    0    0  501  0.00000000000E+00  0.00000000000E+00  0.73646473949E+03  0.73646473951E+03  0.50400001928E-02 0. -1.
        1   -1    0    0  501    0  0.00000000000E+00  0.00000000000E+00 -0.12627375564E+04  0.12627375564E+04  0.50400001928E-02 0.  1.
    10030    2    1    2    0    0  0.00000000000E+00  0.00000000000E+00 -0.52627281692E+03  0.19992022959E+04  0.19286904216E+04 0.  0.
        3    1    3    3  502    0  0.42932533626E+03  0.85810300328E+03 -0.16317065122E+03  0.97328602179E+03  0.10100000352E+00 0. -1.
       -3    1    3    3    0  502 -0.42932533626E+03 -0.85810300328E+03 -0.36310216570E+03  0.10259162741E+04  0.10100000352E+00 0.  1.
</event>
<event>
 5   0  0.1937947E-05  0.2875994E+04  0.7818609E-02  0.8280056E-01
        2   -1    0    0  501    0  0.00000000000E+00  0.00000000000E+00  0.77958973691E+03  0.77958973691E+03  0.25500000920E-02 0.  1.
       -2   -1    0    0    0  501  0.00000000000E+00  0.00000000000E+00 -0.26524657892E+04  0.26524657892E+04  0.25500000920E-02 0. -1.
    10030    2    1    2    0    0  0.00000000000E+00  0.00000000000E+00 -0.18728760523E+04  0.34320555261E+04  0.28759938155E+04 0.  0.
        3    1    3    3  502    0 -0.30065517480E+03 -0.60867513134E+02  0.74009057548E+03  0.80114446788E+03  0.10100000352E+00 0.  1.
       -3    1    3    3    0  502  0.30065517480E+03  0.60867513134E+02 -0.26129666277E+04  0.26309110582E+04  0.10100000352E+00 0. -1.
</event>
<event>
 5   0  0.1829810E-05  0.2930089E+04  0.7818609E-02  0.8263981E-01
        2   -1    0    0  501    0  0.00000000000E+00  0.00000000000E+00  0.20878858297E+04  0.20878858297E+04  0.25500000920E-02 0. -1.
       -2   -1    0    0    0  501  0.00000000000E+00  0.00000000000E+00 -0.10280040322E+04  0.10280040322E+04  0.25500000920E-02 0.  1.
    10030    2    1    2    0    0  0.00000000000E+00  0.00000000000E+00  0.10598817975E+04  0.31158898619E+04  0.29300887712E+04 0.  0.
        4    1    3    3  502    0 -0.14351698866E+04 -0.39033300268E+02  0.84018967579E+03  0.16634772335E+04  0.12699999809E+01 0. -1.
       -4    1    3    3    0  502  0.14351698866E+04  0.39033300268E+02  0.21969212172E+03  0.14524126285E+04  0.12699999809E+01 0.  1.
</event>
<event>
 5   0  0.1918901E-05  0.2916914E+04  0.7818609E-02  0.8267863E-01
       -2   -1    0    0    0  501  0.00000000000E+00  0.00000000000E+00  0.13148771198E+04  0.13148771198E+04  0.25500000920E-02 0. -1.
        2   -1    0    0  501    0  0.00000000000E+00  0.00000000000E+00 -0.16177149760E+04  0.16177149760E+04  0.25500000920E-02 0.  1.
    10030    2    1    2    0    0  0.00000000000E+00  0.00000000000E+00 -0.30283785616E+03  0.29325920958E+04  0.29169137172E+04 0.  0.
        1    1    3    3  502    0 -0.13968253723E+04 -0.16603913499E+03 -0.53872493763E+03  0.15062916961E+04  0.50400001928E-02 0.  1.
       -1    1    3    3    0  502  0.13968253723E+04  0.16603913499E+03  0.23588708147E+03  0.14263003998E+04  0.50400001928E-02 0. -1.
</event>
<event>
 5   0  0.1976233E-05  0.2882317E+04  0.7818609E-02  0.8278158E-01
       -2   -1    0    0    0  501  0.00000000000E+00  0.00000000000E+00  0.15458226088E+04  0.15458226088E+04  0.25500000920E-02 0. -1.
        2   -1    0    0  501    0  0.00000000000E+00  0.00000000000E+00 -0.13435805151E+04  0.13435805151E+04  0.25500000920E-02 0.  1.
    10030    2    1    2    0    0  0.00000000000E+00  0.00000000000E+00  0.20224209373E+03  0.28894031239E+04  0.28823165246E+04 0.  0.
        2    1    3    3  502    0 -0.29841365645E+03 -0.13634893063E+04  0.46086732193E+03  0.14698817936E+04  0.25500000920E-02 0. -1.
       -2    1    3    3    0  502  0.29841365645E+03  0.13634893063E+04 -0.25862522820E+03  0.14195213304E+04  0.25500000920E-02 0.  1.
</event>
<event>
 5   0  0.8122088E-06  0.2904526E+04  0.7818609E-02  0.8271532E-01
       -1   -1    0    0    0  501  0.00000000000E+00  0.00000000000E+00  0.10117862373E+04  0.10117862373E+04  0.50400001928E-02 0. -1.
        1   -1    0    0  501    0  0.00000000000E+00  0.00000000000E+00 -0.20844997321E+04  0.20844997321E+04  0.50400001928E-02 0.  1.
    10030    2    1    2    0    0  0.00000000000E+00  0.00000000000E+00 -0.10727134948E+04  0.30962859694E+04  0.29045262199E+04 0.  0.
        1    1    3    3  502    0 -0.86642413908E+03  0.34922257990E+03  0.64899962710E+03  0.11374742701E+04  0.50400001928E-02 0. -1.
       -1    1    3    3    0  502  0.86642413908E+03 -0.34922257990E+03 -0.17217131219E+04  0.19588116993E+04  0.50400001928E-02 0.  1.
</event>
<event>
 5   0  0.1829810E-05  0.2888759E+04  0.7818609E-02  0.8276230E-01
       -2   -1    0    0    0  501  0.00000000000E+00  0.00000000000E+00  0.87038223784E+03  0.87038223785E+03  0.25500000920E-02 0. -1.
        2   -1    0    0  501    0  0.00000000000E+00  0.00000000000E+00 -0.23969152265E+04  0.23969152265E+04  0.25500000920E-02 0.  1.
    10030    2    1    2    0    0  0.00000000000E+00  0.00000000000E+00 -0.15265329886E+04  0.32672974643E+04  0.28887592068E+04 0.  0.
        4    1    3    3  502    0  0.11357110694E+04 -0.29024756641E+03 -0.17177365835E+04  0.20795922355E+04  0.12699999809E+01 0.  1.
       -4    1    3    3    0  502 -0.11357110694E+04  0.29024756641E+03  0.19120359485E+03  0.11877052288E+04  0.12699999809E+01 0. -1.
</event>
<event>
 5   0  0.1829810E-05  0.2853032E+04  0.7818609E-02  0.8286991E-01
       -2   -1    0    0    0  501  0.00000000000E+00  0.00000000000E+00  0.13236200229E+04  0.13236200229E+04  0.25500000920E-02 0.  1.
        2   -1    0    0  501    0  0.00000000000E+00  0.00000000000E+00 -0.15374107097E+04  0.15374107097E+04  0.25500000920E-02 0. -1.
    10030    2    1    2    0    0  0.00000000000E+00  0.00000000000E+00 -0.21379068686E+03  0.28610307326E+04  0.28530317901E+04 0.  0.
        4    1    3    3  502    0  0.48905757627E+03 -0.24317929843E+03 -0.14284035805E+04  0.15292651457E+04  0.12699999809E+01 0. -1.
       -4    1    3    3    0  502 -0.48905757627E+03  0.24317929843E+03  0.12146128937E+04  0.13317655869E+04  0.12699999809E+01 0.  1.
</event>
<event>
 5   0  0.1937947E-05  0.2921864E+04  0.7818609E-02  0.8266402E-01
       -2   -1    0    0    0  501  0.00000000000E+00  0.00000000000E+00  0.79450949290E+03  0.79450949291E+03  0.25500000920E-02 0. -1.
        2   -1    0    0  501    0  0.00000000000E+00  0.00000000000E+00 -0.26863401129E+04  0.26863401129E+04  0.25500000920E-02 0.  1.
    10030    2    1    2    0    0  0.00000000000E+00  0.00000000000E+00 -0.18918306200E+04  0.34808496058E+04  0.29218642822E+04 0.  0.
        3    1    3    3  502    0  0.35061006805E+03 -0.13220170158E+04 -0.15576351032E+04  0.20728925527E+04  0.10100000352E+00 0.  1.
       -3    1    3    3    0  502 -0.35061006805E+03  0.13220170158E+04 -0.33419551679E+03  0.14079570532E+04  0.10100000352E+00 0. -1.
</event>
<event>
 5   0  0.7971153E-06  0.2771907E+04  0.7818609E-02  0.8312044E-01
       -1   -1    0    0    0  501  0.00000000000E+00  0.00000000000E+00  0.70419323624E+03  0.70419323626E+03  0.50400001928E-02 0.  1.
        1   -1    0    0  501    0  0.00000000000E+00  0.00000000000E+00 -0.27277553395E+04  0.27277553395E+04  0.50400001928E-02 0. -1.
    10030    2    1    2    0    0  0.00000000000E+00  0.00000000000E+00 -0.20235621032E+04  0.34319485757E+04  0.27719068240E+04 0.  0.
        5    1    3    3  502    0 -0.13163380423E+04 -0.26731971348E+03 -0.58893310811E+03  0.14666526401E+04  0.46999998093E+01 0.  1.
       -5    1    3    3    0  502  0.13163380423E+04  0.26731971348E+03 -0.14346289951E+04  0.19652959356E+04  0.46999998093E+01 0. -1.
</event>
<event>
 5   0  0.6578125E-06  0.3194483E+04  0.7818609E-02  0.8190276E-01
       -4   -1    0    0    0  501  0.00000000000E+00  0.00000000000E+00  0.17591840868E+04  0.17591845453E+04  0.12699999809E+01 0. -1.
        4   -1    0    0  501    0  0.00000000000E+00  0.00000000000E+00 -0.14502056825E+04  0.14502062386E+04  0.12699999809E+01 0.  1.
    10030    2    1    2    0    0  0.00000000000E+00  0.00000000000E+00  0.30897840430E+03  0.32093907839E+04  0.31944829863E+04 0.  0.
        5    1    3    3  502    0  0.10377419084E+04 -0.12116987661E+04  0.23254430207E+03  0.16122100082E+04  0.46999998093E+01 0.  1.
       -5    1    3    3    0  502 -0.10377419084E+04  0.12116987661E+04  0.76434102234E+02  0.15971807757E+04  0.46999998093E+01 0. -1.
</event>
<event>
 5   0  0.1918901E-05  0.2964270E+04  0.7818609E-02  0.8254008E-01
       -2   -1    0    0    0  501  0.00000000000E+00  0.00000000000E+00  0.96661196347E+03  0.96661196347E+03  0.25500000920E-02 0. -1.
        2   -1    0    0  501    0  0.00000000000E+00  0.00000000000E+00 -0.22726015378E+04  0.22726015378E+04  0.25500000920E-02 0.  1.
    10030    2    1    2    0    0  0.00000000000E+00  0.00000000000E+00 -0.13059895743E+04  0.32392135012E+04  0.29642697817E+04 0.  0.
        1    1    3    3  502    0  0.40810457528E+02 -0.87788832838E+03  0.65117255516E+03  0.10937911625E+04  0.50400001928E-02 0. -1.
       -1    1    3    3    0  502 -0.40810457528E+02  0.87788832838E+03 -0.19571621294E+04  0.21454223387E+04  0.50400001928E-02 0.  1.
</event>
<event>
 5   0  0.1829810E-05  0.2938994E+04  0.7818609E-02  0.8261369E-01
        2   -1    0    0  501    0  0.00000000000E+00  0.00000000000E+00  0.18819424438E+04  0.18819424438E+04  0.25500000920E-02 0.  1.
       -2   -1    0    0    0  501  0.00000000000E+00  0.00000000000E+00 -0.11474427468E+04  0.11474427468E+04  0.25500000920E-02 0. -1.
    10030    2    1    2    0    0  0.00000000000E+00  0.00000000000E+00  0.73449969704E+03  0.30293851906E+04  0.29389938463E+04 0.  0.
        4    1    3    3  502    0  0.11313331653E+04  0.50677874622E+03 -0.44612050243E+03  0.13174841722E+04  0.12699999809E+01 0. -1.
       -4    1    3    3    0  502 -0.11313331653E+04 -0.50677874622E+03  0.11806201995E+04  0.17119010184E+04  0.12699999809E+01 0.  1.
</event>
<event>
 5   0  0.1937947E-05  0.2893612E+04  0.7818609E-02  0.8274781E-01
        2   -1    0    0  501    0  0.00000000000E+00  0.00000000000E+00  0.23488699295E+04  0.23488699295E+04  0.25500000920E-02 0. -1.
       -2   -1    0    0    0  501  0.00000000000E+00  0.00000000000E+00 -0.89117219656E+03  0.89117219657E+03  0.25500000920E-02 0.  1.
    10030    2    1    2    0    0  0.00000000000E+00  0.00000000000E+00  0.14576977329E+04  0.32400421261E+04  0.28936119812E+04 0.  0.
        3    1    3    3  502    0 -0.16493502561E+03  0.14008719437E+04  0.10892565249E+04  0.17821687779E+04  0.10100000352E+00 0. -1.
       -3    1    3    3    0  502  0.16493502561E+03 -0.14008719437E+04  0.36844120798E+03  0.14578733482E+04  0.10100000352E+00 0.  1.
</event>
<event>
 5   0  0.8122088E-06  0.1705093E+04  0.7818609E-02  0.8758465E-01
        1   -1    0    0  501    0  0.00000000000E+00  0.00000000000E+00  0.70850968447E+03  0.70850968449E+03  0.50400001928E-02 0. -1.
       -1   -1    0    0    0  501  0.00000000000E+00  0.00000000000E+00 -0.10258648943E+04  0.10258648944E+04  0.50400001928E-02 0.  1.
    10030    2    1    2    0    0  0.00000000000E+00  0.00000000000E+00 -0.31735520988E+03  0.17343745788E+04  0.17050926223E+04 0.  0.
        1    1    3    3  502    0 -0.30982373037E+03  0.76062326157E+03 -0.39128962924E+03  0.90975055038E+03  0.50400001928E-02 0.  1.
       -1    1    3    3    0  502  0.30982373037E+03 -0.76062326157E+03  0.73934419359E+02  0.82462402847E+03  0.50400001928E-02 0. -1.
</event>
<event>
 5   0  0.1976233E-05  0.2799846E+04  0.7818609E-02  0.8303316E-01
        2   -1    0    0  501    0  0.00000000000E+00  0.00000000000E+00  0.18128983595E+04  0.18128983595E+04  0.25500000920E-02 0.  1.
       -2   -1    0    0    0  501  0.00000000000E+00  0.00000000000E+00 -0.10810227654E+04  0.10810227654E+04  0.25500000920E-02 0. -1.
    10030    2    1    2    0    0  0.00000000000E+00  0.00000000000E+00  0.73187559415E+03  0.28939211249E+04  0.27998459943E+04 0.  0.
        2    1    3    3  502    0 -0.24459083204E+03  0.91751323221E+03 -0.69727915972E+03  0.11780719133E+04  0.25500000920E-02 0. -1.
       -2    1    3    3    0  502  0.24459083204E+03 -0.91751323221E+03  0.14291547539E+04  0.17158492116E+04  0.25500000920E-02 0.  1.
</event>
<event>
 5   0  0.8122088E-06  0.2816035E+04  0.7818609E-02  0.8298307E-01
       -1   -1    0    0    0  501  0.00000000000E+00  0.00000000000E+00  0.15481658575E+04  0.15481658575E+04  0.50400001928E-02 0. -1.
        1   -1    0    0  501    0  0.00000000000E+00  0.00000000000E+00 -0.12805564236E+04  0.12805564236E+04  0.50400001928E-02 0.  1.
    10030    2    1    2    0    0  0.00000000000E+00  0.00000000000E+00  0.26760943392E+03  0.28287222811E+04  0.28160353219E+04 0.  0.
        1    1    3    3  502    0  0.11955968431E+04  0.49364328000E+03 -0.42491898037E+03  0.13615034481E+04  0.50400001928E-02 0. -1.
       -1    1    3    3    0  502 -0.11955968431E+04 -0.49364328000E+03  0.69252841429E+03  0.14672188330E+04  0.50400001928E-02 0.  1.
</event>
<event>
 5   0  0.8055928E-06  0.2887706E+04  0.7818609E-02  0.8276545E-01
       -1   -1    0    0    0  501  0.00000000000E+00  0.00000000000E+00  0.25759789355E+04  0.25759789355E+04  0.50400001928E-02 0.  1.
        1   -1    0    0  501    0  0.00000000000E+00  0.00000000000E+00 -0.80928891200E+03  0.80928891201E+03  0.50400001928E-02 0. -1.
    10030    2    1    2    0    0  0.00000000000E+00  0.00000000000E+00  0.17666900235E+04  0.33852678475E+04  0.28877057953E+04 0.  0.
        2    1    3    3  502    0  0.26487835135E+03  0.33673311565E+03 -0.73305778283E+03  0.84907210834E+03  0.25500000920E-02 0. -1.
       -2    1    3    3    0  502 -0.26487835135E+03 -0.33673311565E+03  0.24997478063E+04  0.25361957392E+04  0.25500000920E-02 0.  1.
</event>
<event>
 5   0  0.1960961E-05  0.1876562E+04  0.7818609E-02  0.8666612E-01
       -2   -1    0    0    0  501  0.00000000000E+00  0.00000000000E+00  0.56400214950E+03  0.56400214951E+03  0.25500000920E-02 0. -1.
        2   -1    0    0  501    0  0.00000000000E+00  0.00000000000E+00 -0.15609353670E+04  0.15609353670E+04  0.25500000920E-02 0.  1.
    10030    2    1    2    0    0  0.00000000000E+00  0.00000000000E+00 -0.99693321750E+03  0.21249375165E+04  0.18765616454E+04 0.  0.
        5    1    3    3  502    0 -0.55238971974E+03  0.20615116938E+03 -0.13249445027E+04  0.14502181672E+04  0.46999998093E+01 0.  1.
       -5    1    3    3    0  502  0.55238971974E+03 -0.20615116938E+03  0.32801128524E+03  0.67471934933E+03  0.46999998093E+01 0. -1.
</event>
<event>
 5   0  0.8122088E-06  0.2874796E+04  0.7818609E-02  0.8280416E-01
        1   -1    0    0  501    0  0.00000000000E+00  0.00000000000E+00  0.18047118044E+04  0.18047118044E+04  0.50400001928E-02 0. -1.
       -1   -1    0    0    0  501  0.00000000000E+00  0.00000000000E+00 -0.11448436419E+04  0.11448436419E+04  0.50400001928E-02 0.  1.
    10030    2    1    2    0    0  0.00000000000E+00  0.00000000000E+00  0.65986816245E+03  0.29495554463E+04  0.28747958778E+04 0.  0.
        1    1    3    3  502    0 -0.90717440126E+03  0.82032851166E+02  0.14707937297E+04  0.17300083752E+04  0.50400001928E-02 0. -1.
       -1    1    3    3    0  502  0.90717440126E+03 -0.82032851166E+02 -0.81092556724E+03  0.12195470711E+04  0.50400001928E-02 0.  1.
</event>
<event>
 5   0  0.1829810E-05  0.2752251E+04  0.7818609E-02  0.8318248E-01
       -2   -1    0    0    0  501  0.00000000000E+00  0.00000000000E+00  0.64359193696E+03  0.64359193696E+03  0.25500000920E-02 0.  1.
        2   -1    0    0  501    0  0.00000000000E+00  0.00000000000E+00 -0.29424263670E+04  0.29424263670E+04  0.25500000920E-02 0. -1.
    10030    2    1    2    0    0  0.00000000000E+00  0.00000000000E+00 -0.22988344301E+04  0.35860183040E+04  0.27522513584E+04 0.  0.
        4    1    3    3  502    0 -0.34289611170E+03  0.11302230358E+04 -0.20695718517E+04  0.23828787456E+04  0.12699999809E+01 0.  1.
       -4    1    3    3    0  502  0.34289611170E+03 -0.11302230358E+04 -0.22926257836E+03  0.12031395584E+04  0.12699999809E+01 0. -1.
</event>
<event>
 5   0  0.6578125E-06  0.2904587E+04  0.7818609E-02  0.8271514E-01
        3   -1    0    0  501    0  0.00000000000E+00  0.00000000000E+00  0.15998544455E+04  0.15998544487E+04  0.10100000352E+00 0. -1.
       -3   -1    0    0    0  501  0.00000000000E+00  0.00000000000E+00 -0.13183425833E+04  0.13183425871E+04  0.10100000352E+00 0.  1.
    10030    2    1    2    0    0  0.00000000000E+00  0.00000000000E+00  0.28151186222E+03  0.29181970358E+04  0.29045868917E+04 0.  0.
        3    1    3    3  502    0  0.10717627115E+04 -0.55913429618E+03  0.94941859845E+03  0.15371083749E+04  0.10100000352E+00 0. -1.
       -3    1    3    3    0  502 -0.10717627115E+04  0.55913429618E+03 -0.66790673624E+03  0.13810886609E+04  0.10100000352E+00 0.  1.
</event>
<event>
 5   0  0.1937947E-05  0.2505213E+04  0.7818609E-02  0.8401131E-01
       -2   -1    0    0    0  501  0.00000000000E+00  0.00000000000E+00  0.56283938437E+03  0.56283938438E+03  0.25500000920E-02 0.  1.
        2   -1    0    0  501    0  0.00000000000E+00  0.00000000000E+00 -0.27876927133E+04  0.27876927133E+04  0.25500000920E-02 0. -1.
    10030    2    1    2    0    0  0.00000000000E+00  0.00000000000E+00 -0.22248533290E+04  0.33505320977E+04  0.25052131651E+04 0.  0.
        3    1    3    3  502    0  0.84003078499E+02  0.32776630479E+03  0.50056205710E+03  0.60419338871E+03  0.10100000352E+00 0.  1.
       -3    1    3    3    0  502 -0.84003078499E+02 -0.32776630479E+03 -0.27254153861E+04  0.27463387090E+04  0.10100000352E+00 0. -1.
</event>
<event>
 5   0  0.1937947E-05  0.2971152E+04  0.7818609E-02  0.8252017E-01
       -2   -1    0    0    0  501  0.00000000000E+00  0.00000000000E+00  0.10201613447E+04  0.10201613447E+04  0.25500000920E-02 0. -1.
        2   -1    0    0  501    0  0.00000000000E+00  0.00000000000E+00 -0.21633199877E+04  0.21633199877E+04  0.25500000920E-02 0.  1.
    10030    2    1    2    0    0  0.00000000000E+00  0.00000000000E+00 -0.11431586430E+04  0.31834813324E+04  0.29711515799E+04 0.  0.
        3    1    3    3  502    0  0.13349579739E+03  0.61516297706E+03  0.87020203851E+03  0.10740103418E+04  0.10100000352E+00 0. -1.
       -3    1    3    3    0  502 -0.13349579739E+03 -0.61516297706E+03 -0.20133606815E+04  0.21094709906E+04  0.10100000352E+00 0.  1.
</event>
<event>
 5   0  0.8234888E-06  0.2885298E+04  0.7818609E-02  0.8277265E-01
        1   -1    0    0  501    0  0.00000000000E+00  0.00000000000E+00  0.27656877172E+04  0.27656877172E+04  0.50400001928E-02 0.  1.
       -1   -1    0    0    0  501  0.00000000000E+00  0.00000000000E+00 -0.75252005538E+03  0.75252005540E+03  0.50400001928E-02 0. -1.
    10030    2    1    2    0    0  0.00000000000E+00  0.00000000000E+00  0.20131676618E+04  0.35182077726E+04  0.28852975404E+04 0.  0.
        3    1    3    3  502    0  0.31974797883E+03 -0.13785797726E+04  0.13482530267E+04  0.19546117757E+04  0.10100000352E+00 0.  1.
       -3    1    3    3    0  502 -0.31974797883E+03  0.13785797726E+04  0.66491463515E+03  0.15635959970E+04  0.10100000352E+00 0. -1.
</event>
<event>
 5   0  0.1976233E-05  0.1772649E+04  0.7818609E-02  0.8720981E-01
        2   -1    0    0  501    0  0.00000000000E+00  0.00000000000E+00  0.11109724497E+04  0.11109724497E+04  0.25500000920E-02 0.  1.
       -2   -1    0    0    0  501  0.00000000000E+00  0.00000000000E+00 -0.70710220688E+03  0.70710220689E+03  0.25500000920E-02 0. -1.
    10030    2    1    2    0    0  0.00000000000E+00  0.00000000000E+00  0.40387024286E+03  0.18180746566E+04  0.17726489455E+04 0.  0.
        2    1    3    3  502    0  0.23688699732E+03 -0.12837427749E+03 -0.66408170472E+03  0.71665885550E+03  0.25500000920E-02 0. -1.
       -2    1    3    3    0  502 -0.23688699732E+03  0.12837427749E+03  0.10679519476E+04  0.11014158011E+04  0.25500000920E-02 0.  1.
</event>
<event>
 5   0  0.1829810E-05  0.2878086E+04  0.7818609E-02  0.8279428E-01
        2   -1    0    0  501    0  0.00000000000E+00  0.00000000000E+00  0.98829691276E+03  0.98829691277E+03  0.25500000920E-02 0. -1.
       -2   -1    0    0    0  501  0.00000000000E+00  0.00000000000E+00 -0.20953665776E+04  0.20953665776E+04  0.25500000920E-02 0.  1.
    10030    2    1    2    0    0  0.00000000000E+00  0.00000000000E+00 -0.11070696648E+04  0.30836634903E+04  0.28780856969E+04 0.  0.
        4    1    3    3  502    0 -0.24541905981E+03 -0.11756056624E+04 -0.14029848765E+04  0.18467938069E+04  0.12699999809E+01 0. -1.
       -4    1    3    3    0  502  0.24541905981E+03  0.11756056624E+04  0.29591521169E+03  0.12368696835E+04  0.12699999809E+01 0.  1.
</event>
<event>
 5   0  0.1829810E-05  0.2688868E+04  0.7818609E-02  0.8338626E-01
        2   -1    0    0  501    0  0.00000000000E+00  0.00000000000E+00  0.19008234447E+04  0.19008234447E+04  0.25500000920E-02 0.  1.
       -2   -1    0    0    0  501  0.00000000000E+00  0.00000000000E+00 -0.95090486198E+03  0.95090486198E+03  0.25500000920E-02 0. -1.
    10030    2    1    2    0    0  0.00000000000E+00  0.00000000000E+00  0.94991858268E+03  0.28517283067E+04  0.26888676095E+04 0.  0.
        4    1    3    3  502    0  0.37618173542E+03 -0.96538922609E+02  0.18400342264E+04  0.18805743880E+04  0.12699999809E+01 0.  1.
       -4    1    3    3    0  502 -0.37618173542E+03  0.96538922609E+02 -0.89011564370E+03  0.97115391865E+03  0.12699999809E+01 0. -1.
</event>
<event>
 5   0  0.7305460E-06  0.2887700E+04  0.7818609E-02  0.8276547E-01
       -1   -1    0    0    0  501  0.00000000000E+00  0.00000000000E+00  0.79304433811E+03  0.79304433813E+03  0.50400001928E-02 0. -1.
        1   -1    0    0  501    0  0.00000000000E+00  0.00000000000E+00 -0.26287341409E+04  0.26287341409E+04  0.50400001928E-02 0.  1.
    10030    2    1    2    0    0  0.00000000000E+00  0.00000000000E+00 -0.18356898028E+04  0.34217784790E+04  0.28876999338E+04 0.  0.
        4    1    3    3  502    0 -0.14157525863E+04 -0.61508315217E+02 -0.12457194868E+04  0.18867849139E+04  0.12699999809E+01 0.  1.
       -4    1    3    3    0  502  0.14157525863E+04  0.61508315217E+02 -0.58997031600E+03  0.15349935652E+04  0.12699999809E+01 0. -1.
</event>
<event>
 5   0  0.7971153E-06  0.2546433E+04  0.7818609E-02  0.8386628E-01
       -1   -1    0    0    0  501  0.00000000000E+00  0.00000000000E+00  0.16901311620E+04  0.16901311620E+04  0.50400001928E-02 0. -1.
        1   -1    0    0  501    0  0.00000000000E+00  0.00000000000E+00 -0.95914487156E+03  0.95914487158E+03  0.50400001928E-02 0.  1.
    10030    2    1    2    0    0  0.00000000000E+00  0.00000000000E+00  0.73098629041E+03  0.26492760336E+04  0.25464332988E+04 0.  0.
        5    1    3    3  502    0 -0.27313295485E+03 -0.38885224156E+02  0.16586505765E+04  0.16814450621E+04  0.46999998093E+01 0. -1.
       -5    1    3    3    0  502  0.27313295485E+03  0.38885224156E+02 -0.92766428612E+03  0.96783097151E+03  0.46999998093E+01 0.  1.
</event>
<event>
 5   0  0.8122088E-06  0.2932521E+04  0.7818609E-02  0.8263267E-01
       -1   -1    0    0    0  501  0.00000000000E+00  0.00000000000E+00  0.12214077554E+04  0.12214077554E+04  0.50400001928E-02 0. -1.
        1   -1    0    0  501    0  0.00000000000E+00  0.00000000000E+00 -0.17601987332E+04  0.17601987333E+04  0.50400001928E-02 0.  1.
    10030    2    1    2    0    0  0.00000000000E+00  0.00000000000E+00 -0.53879097783E+03  0.29816064887E+04  0.29325213615E+04 0.  0.
        1    1    3    3  502    0  0.11526573187E+03 -0.67641080654E+03  0.10480958219E+04  0.12527260754E+04  0.50400001928E-02 0. -1.
       -1    1    3    3    0  502 -0.11526573187E+03  0.67641080654E+03 -0.15868867997E+04  0.17288804133E+04  0.50400001928E-02 0.  1.
</event>
<event>
 5   0  0.7305460E-06  0.2744249E+04  0.7818609E-02  0.8320789E-01
       -1   -1    0    0    0  501  0.00000000000E+00  0.00000000000E+00  0.16494522884E+04  0.16494522884E+04  0.50400001928E-02 0. -1.
        1   -1    0    0  501    0  0.00000000000E+00  0.00000000000E+00 -0.11414247786E+04  0.11414247787E+04  0.50400001928E-02 0.  1.
    10030    2    1    2    0    0  0.00000000000E+00  0.00000000000E+00  0.50802750978E+03  0.27908770671E+04  0.27442490508E+04 0.  0.
        4    1    3    3  502    0 -0.78311190665E+03 -0.29081772377E+03  0.13610332413E+04  0.15969509397E+04  0.12699999809E+01 0. -1.
       -4    1    3    3    0  502  0.78311190665E+03  0.29081772377E+03 -0.85300573154E+03  0.11939261274E+04  0.12699999809E+01 0.  1.
</event>
<event>
 5   0  0.8122088E-06  0.2821385E+04  0.7818609E-02  0.8296660E-01
       -1   -1    0    0    0  501  0.00000000000E+00  0.00000000000E+00  0.15952550526E+04  0.15952550526E+04  0.50400001928E-02 0.  1.
        1   -1    0    0  501    0  0.00000000000E+00  0.00000000000E+00 -0.12474829023E+04  0.12474829023E+04  0.50400001928E-02 0. -1.
    10030    2    1    2    0    0  0.00000000000E+00  0.00000000000E+00  0.34777215024E+03  0.28427379549E+04  0.28213850520E+04 0.  0.
        1    1    3    3  502    0  0.11010038806E+04  0.35122597921E+03 -0.64123860006E+03  0.13216490365E+04  0.50400001928E-02 0. -1.
       -1    1    3    3    0  502 -0.11010038806E+04 -0.35122597921E+03  0.98901075030E+03  0.15210889184E+04  0.50400001928E-02 0.  1.
</event>
<event>
 5   0  0.1976233E-05  0.2867329E+04  0.7818609E-02  0.8282665E-01
       -2   -1    0    0    0  501  0.00000000000E+00  0.00000000000E+00  0.18494525468E+04  0.18494525468E+04  0.25500000920E-02 0. -1.
        2   -1    0    0  501    0  0.00000000000E+00  0.00000000000E+00 -0.11113522952E+04  0.11113522952E+04  0.25500000920E-02 0.  1.
    10030    2    1    2    0    0  0.00000000000E+00  0.00000000000E+00  0.73810025160E+03  0.29608048421E+04  0.28673286054E+04 0.  0.
        2    1    3    3  502    0 -0.16946065574E+03 -0.10585734755E+04 -0.61387412115E+03  0.12353688330E+04  0.25500000920E-02 0.  1.
       -2    1    3    3    0  502  0.16946065574E+03  0.10585734755E+04  0.13519743727E+04  0.17254360091E+04  0.25500000920E-02 0. -1.
</event>
<event>
 5   0  0.7305460E-06  0.2386500E+04  0.7818609E-02  0.8444575E-01
        1   -1    0    0  501    0  0.00000000000E+00  0.00000000000E+00  0.16501601967E+04  0.16501601967E+04  0.50400001928E-02 0.  1.
       -1   -1    0    0    0  501  0.00000000000E+00  0.00000000000E+00 -0.86285302858E+03  0.86285302859E+03  0.50400001928E-02 0. -1.
    10030    2    1    2    0    0  0.00000000000E+00  0.00000000000E+00  0.78730716814E+03  0.25130132253E+04  0.23865001348E+04 0.  0.
        4    1    3    3  502    0 -0.63385728023E+03 -0.56791849817E+03 -0.48706843460E+03  0.98058336982E+03  0.12699999809E+01 0. -1.
       -4    1    3    3    0  502  0.63385728023E+03  0.56791849817E+03  0.12743756027E+04  0.15324298555E+04  0.12699999809E+01 0.  1.
</event>
<event>
 5   0  0.1829810E-05  0.2930926E+04  0.7818609E-02  0.8263735E-01
        2   -1    0    0  501    0  0.00000000000E+00  0.00000000000E+00  0.10387229592E+04  0.10387229592E+04  0.25500000920E-02 0. -1.
       -2   -1    0    0    0  501  0.00000000000E+00  0.00000000000E+00 -0.20675208823E+04  0.20675208823E+04  0.25500000920E-02 0.  1.
    10030    2    1    2    0    0  0.00000000000E+00  0.00000000000E+00 -0.10287979231E+04  0.31062438415E+04  0.29309257303E+04 0.  0.
        4    1    3    3  502    0  0.24086320450E+03  0.27500307029E+03  0.98962163042E+03  0.10549854768E+04  0.12699999809E+01 0. -1.
       -4    1    3    3    0  502 -0.24086320450E+03 -0.27500307029E+03 -0.20184195535E+04  0.20512583647E+04  0.12699999809E+01 0.  1.
</event>
<event>
 5   0  0.8122088E-06  0.2919331E+04  0.7818609E-02  0.8267149E-01
       -1   -1    0    0    0  501  0.00000000000E+00  0.00000000000E+00  0.27118178257E+04  0.27118178257E+04  0.50400001928E-02 0. -1.
        1   -1    0    0  501    0  0.00000000000E+00  0.00000000000E+00 -0.78568064281E+03  0.78568064283E+03  0.50400001928E-02 0.  1.
    10030    2    1    2    0    0  0.00000000000E+00  0.00000000000E+00  0.19261371829E+04  0.34974984685E+04  0.29193305894E+04 0.  0.
        1    1    3    3  502    0 -0.69777174653E+03 -0.10062461717E+04  0.19148995270E+04  0.22729401591E+04  0.50400001928E-02 0.  1.
       -1    1    3    3    0  502  0.69777174653E+03  0.10062461717E+04  0.11237655867E+02  0.12245583094E+04  0.50400001928E-02 0. -1.
</event>
<event>
 5   0  0.8234888E-06  0.2887033E+04  0.7818609E-02  0.8276746E-01
        1   -1    0    0  501    0  0.00000000000E+00  0.00000000000E+00  0.18817838563E+04  0.18817838564E+04  0.50400001928E-02 0. -1.
       -1   -1    0    0    0  501  0.00000000000E+00  0.00000000000E+00 -0.11073215104E+04  0.11073215104E+04  0.50400001928E-02 0.  1.
    10030    2    1    2    0    0  0.00000000000E+00  0.00000000000E+00  0.77446234594E+03  0.29891053668E+04  0.28870329005E+04 0.  0.
        3    1    3    3  502    0  0.93396067061E+03 -0.10983250064E+04  0.46145524375E+03  0.15137837713E+04  0.10100000352E+00 0. -1.
       -3    1    3    3    0  502 -0.93396067061E+03  0.10983250064E+04  0.31300710220E+03  0.14753215955E+04  0.10100000352E+00 0.  1.
</event>
<event>
 5   0  0.1976233E-05  0.1761282E+04  0.7818609E-02  0.8727165E-01
       -2   -1    0    0    0  501  0.00000000000E+00  0.00000000000E+00  0.14517360361E+04  0.14517360362E+04  0.25500000920E-02 0. -1.
        2   -1    0    0  501    0  0.00000000000E+00  0.00000000000E+00 -0.53420744311E+03  0.53420744312E+03  0.25500000920E-02 0.  1.
    10030    2    1    2    0    0  0.00000000000E+00  0.00000000000E+00  0.91752859304E+03  0.19859434793E+04  0.17612815743E+04 0.  0.
        2    1    3    3  502    0 -0.51266722446E+03  0.50008726145E+03 -0.11906080534E+03  0.72600993621E+03  0.25500000920E-02 0.  1.
       -2    1    3    3    0  502  0.51266722446E+03 -0.50008726145E+03  0.10365893984E+04  0.12599335431E+04  0.25500000920E-02 0. -1.
</event>
<event>
 5   0  0.1918901E-05  0.2675359E+04  0.7818609E-02  0.8343045E-01
        2   -1    0    0  501    0  0.00000000000E+00  0.00000000000E+00  0.19132220523E+04  0.19132220523E+04  0.25500000920E-02 0. -1.
       -2   -1    0    0    0  501  0.00000000000E+00  0.00000000000E+00 -0.93527367396E+03  0.93527367396E+03  0.25500000920E-02 0.  1.
    10030    2    1    2    0    0  0.00000000000E+00  0.00000000000E+00  0.97794837835E+03  0.28484957263E+04  0.26753588305E+04 0.  0.
        1    1    3    3  502    0 -0.81094994488E+03  0.96959929398E+03  0.95505159044E+03  0.15842620189E+04  0.50400001928E-02 0.  1.
       -1    1    3    3    0  502  0.81094994488E+03 -0.96959929398E+03  0.22896787904E+02  0.12642337074E+04  0.50400001928E-02 0. -1.
</event>
<event>
 5   0  0.1960961E-05  0.2895676E+04  0.7818609E-02  0.8274165E-01
       -2   -1    0    0    0  501  0.00000000000E+00  0.00000000000E+00  0.99636376923E+03  0.99636376924E+03  0.25500000920E-02 0. -1.
        2   -1    0    0  501    0  0.00000000000E+00  0.00000000000E+00 -0.21038846327E+04  0.21038846327E+04  0.25500000920E-02 0.  1.
    10030    2    1    2    0    0  0.00000000000E+00  0.00000000000E+00 -0.11075208635E+04  0.31002484019E+04  0.28956756881E+04 0.  0.
        5    1    3    3  502    0  0.13167197578E+04  0.28964913280E+03 -0.11188401042E+04  0.17519910986E+04  0.46999998093E+01 0. -1.
       -5    1    3    3    0  502 -0.13167197578E+04 -0.28964913280E+03  0.11319240750E+02  0.13482573033E+04  0.46999998093E+01 0.  1.
</event>
<event>
 5   0  0.7305460E-06  0.2953706E+04  0.7818609E-02  0.8257075E-01
       -1   -1    0    0    0  501  0.00000000000E+00  0.00000000000E+00  0.12927157543E+04  0.12927157543E+04  0.50400001928E-02 0.  1.
        1   -1    0    0  501    0  0.00000000000E+00  0.00000000000E+00 -0.16872195366E+04  0.16872195366E+04  0.50400001928E-02 0. -1.
    10030    2    1    2    0    0  0.00000000000E+00  0.00000000000E+00 -0.39450378234E+03  0.29799352909E+04  0.29537063333E+04 0.  0.
        4    1    3    3  502    0 -0.13840024710E+04  0.35191228718E+03 -0.57714386983E+03  0.15402602887E+04  0.12699999809E+01 0. -1.
       -4    1    3    3    0  502  0.13840024710E+04 -0.35191228718E+03  0.18264008750E+03  0.14396750022E+04  0.12699999809E+01 0.  1.
</event>
<event>
 5   0  0.8122088E-06  0.2850018E+04  0.7818609E-02  0.8287906E-01
        1   -1    0    0  501    0  0.00000000000E+00  0.00000000000E+00  0.22149685951E+04  0.22149685951E+04  0.50400001928E-02 0. -1.
       -1   -1    0    0    0  501  0.00000000000E+00  0.00000000000E+00 -0.91678499373E+03  0.91678499375E+03  0.50400001928E-02 0.  1.
    10030    2    1    2    0    0  0.00000000000E+00  0.00000000000E+00  0.12981836013E+04  0.31317535888E+04  0.28500175225E+04 0.  0.
        1    1    3    3  502    0 -0.66016201996E+03  0.12595576681E+04  0.74950661651E+03  0.16075010358E+04  0.50400001928E-02 0.  1.
       -1    1    3    3    0  502  0.66016201996E+03 -0.12595576681E+04  0.54867698484E+03  0.15242525531E+04  0.50400001928E-02 0. -1.
</event>
<event>
 5   0  0.8234888E-06  0.2777007E+04  0.7818609E-02  0.8310443E-01
       -1   -1    0    0    0  501  0.00000000000E+00  0.00000000000E+00  0.10654389269E+04  0.10654389269E+04  0.50400001928E-02 0. -1.
        1   -1    0    0  501    0  0.00000000000E+00  0.00000000000E+00 -0.18095280020E+04  0.18095280020E+04  0.50400001928E-02 0.  1.
    10030    2    1    2    0    0  0.00000000000E+00  0.00000000000E+00 -0.74408907516E+03  0.28749669289E+04  0.27770067141E+04 0.  0.
        3    1    3    3  502    0  0.32775774293E+03  0.11993029698E+04  0.26797747002E+03  0.12718351647E+04  0.10100000352E+00 0. -1.
       -3    1    3    3    0  502 -0.32775774293E+03 -0.11993029698E+04 -0.10120665452E+04  0.16031317642E+04  0.10100000352E+00 0.  1.
</event>
<event>
 5   0  0.1937947E-05  0.2940726E+04  0.7818609E-02  0.8260863E-01
        2   -1    0    0  501    0  0.00000000000E+00  0.00000000000E+00  0.17781008012E+04  0.17781008012E+04  0.25500000920E-02 0.  1.
       -2   -1    0    0    0  501  0.00000000000E+00  0.00000000000E+00 -0.12158854321E+04  0.12158854321E+04  0.25500000920E-02 0. -1.
    10030    2    1    2    0    0  0.00000000000E+00  0.00000000000E+00  0.56221536910E+03  0.29939862332E+04  0.29407256661E+04 0.  0.
        3    1    3    3  502    0  0.13631353801E+04  0.40447346132E+03 -0.10014750338E+03  0.14254004273E+04  0.10100000352E+00 0.  1.
       -3    1    3    3    0  502 -0.13631353801E+04 -0.40447346132E+03  0.66236287248E+03  0.15685858059E+04  0.10100000352E+00 0. -1.
</event>
<event>
 5   0  0.1976233E-05  0.2695889E+04  0.7818609E-02  0.8336340E-01
        2   -1    0    0  501    0  0.00000000000E+00  0.00000000000E+00  0.17200818722E+04  0.17200818722E+04  0.25500000920E-02 0. -1.
       -2   -1    0    0    0  501  0.00000000000E+00  0.00000000000E+00 -0.10563186413E+04  0.10563186413E+04  0.25500000920E-02 0.  1.
    10030    2    1    2    0    0  0.00000000000E+00  0.00000000000E+00  0.66376323091E+03  0.27764005135E+04  0.26958891269E+04 0.  0.
        2    1    3    3  502    0  0.11389802798E+04 -0.36627057832E+03  0.97133072296E+03  0.15410754646E+04  0.25500000920E-02 0. -1.
       -2    1    3    3    0  502 -0.11389802798E+04  0.36627057832E+03 -0.30756749205E+03  0.12353250489E+04  0.25500000920E-02 0.  1.
</event>
<event>
 5   0  0.6578125E-06  0.2891952E+04  0.7818609E-02  0.8275276E-01
        4   -1    0    0  501    0  0.00000000000E+00  0.00000000000E+00  0.11263700798E+04  0.11263707958E+04  0.12699999809E+01 0.  1.
       -4   -1    0    0    0  501  0.00000000000E+00  0.00000000000E+00 -0.18562686460E+04  0.18562690804E+04  0.12699999809E+01 0. -1.
    10030    2    1    2    0    0  0.00000000000E+00  0.00000000000E+00 -0.72989856621E+03  0.29826398762E+04  0.28919524052E+04 0.  0.
        5    1    3    3  502    0 -0.47690105916E+03  0.40862769081E+03  0.97835867316E+03  0.11625914989E+04  0.46999998093E+01 0.  1.
       -5    1    3    3    0  502  0.47690105916E+03 -0.40862769081E+03 -0.17082572394E+04  0.18200483773E+04  0.46999998093E+01 0. -1.
</event>
<event>
 5   0  0.8055928E-06  0.2921039E+04  0.7818609E-02  0.8266645E-01
       -1   -1    0    0    0  501  0.00000000000E+00  0.00000000000E+00  0.13545737502E+04  0.13545737502E+04  0.50400001928E-02 0. -1.
        1   -1    0    0  501    0  0.00000000000E+00  0.00000000000E+00 -0.15747521591E+04  0.15747521591E+04  0.50400001928E-02 0.  1.
    10030    2    1    2    0    0  0.00000000000E+00  0.00000000000E+00 -0.22017840896E+03  0.29293259093E+04  0.29210394984E+04 0.  0.
        2    1    3    3  502    0  0.91699093374E+03  0.61947379286E+03  0.84576619939E+03  0.13928175102E+04  0.25500000920E-02 0. -1.
       -2    1    3    3    0  502 -0.91699093374E+03 -0.61947379286E+03 -0.10659446084E+04  0.15365083992E+04  0.25500000920E-02 0.  1.
</event>
<event>
 5   0  0.1829810E-05  0.2949038E+04  0.7818609E-02  0.8258435E-01
       -2   -1    0    0    0  501  0.00000000000E+00  0.00000000000E+00  0.94843571995E+03  0.94843571996E+03  0.25500000920E-02 0.  1.
        2   -1    0    0  501    0  0.00000000000E+00  0.00000000000E+00 -0.22924132221E+04  0.22924132221E+04  0.25500000920E-02 0. -1.
    10030    2    1    2    0    0  0.00000000000E+00  0.00000000000E+00 -0.13439775022E+04  0.32408489421E+04  0.29490382058E+04 0.  0.
        4    1    3    3  502    0 -0.53354576734E+03  0.10477979329E+04  0.30580199855E+03  0.12149354178E+04  0.12699999809E+01 0.  1.
       -4    1    3    3    0  502  0.53354576734E+03 -0.10477979329E+04 -0.16497795007E+04  0.20259135243E+04  0.12699999809E+01 0. -1.
</event>
<event>
 5   0  0.8234888E-06  0.2873548E+04  0.7818609E-02  0.8280792E-01
        1   -1    0    0  501    0  0.00000000000E+00  0.00000000000E+00  0.18477664726E+04  0.18477664726E+04  0.50400001928E-02 0. -1.
       -1   -1    0    0    0  501  0.00000000000E+00  0.00000000000E+00 -0.11171968573E+04  0.11171968573E+04  0.50400001928E-02 0.  1.
    10030    2    1    2    0    0  0.00000000000E+00  0.00000000000E+00  0.73056961531E+03  0.29649633300E+04  0.28735475610E+04 0.  0.
        3    1    3    3  502    0  0.51204434440E+03 -0.15595145828E+03  0.17410472219E+04  0.18214707538E+04  0.10100000352E+00 0. -1.
       -3    1    3    3    0  502 -0.51204434440E+03  0.15595145828E+03 -0.10104776066E+04  0.11434925761E+04  0.10100000352E+00 0.  1.
</event>
<event>
 5   0  0.1918901E-05  0.2199157E+04  0.7818609E-02  0.8518779E-01
        2   -1    0    0  501    0  0.00000000000E+00  0.00000000000E+00  0.14106788624E+04  0.14106788624E+04  0.25500000920E-02 0. -1.
       -2   -1    0    0    0  501  0.00000000000E+00  0.00000000000E+00 -0.85708554447E+03  0.85708554448E+03  0.25500000920E-02 0.  1.
    10030    2    1    2    0    0  0.00000000000E+00  0.00000000000E+00  0.55359331789E+03  0.22677644068E+04  0.21991566209E+04 0.  0.
        1    1    3    3  502    0  0.12033733125E+03  0.40916377155E+03 -0.76831884336E+03  0.87875474982E+03  0.50400001928E-02 0.  1.
       -1    1    3    3    0  502 -0.12033733125E+03 -0.40916377155E+03  0.13219121612E+04  0.13890096570E+04  0.50400001928E-02 0. -1.
</event>
<event>
 5   0  0.8055928E-06  0.2940824E+04  0.7818609E-02  0.8260834E-01
       -1   -1    0    0    0  501  0.00000000000E+00  0.00000000000E+00  0.11758284101E+04  0.11758284101E+04  0.50400001928E-02 0.  1.
        1   -1    0    0  501    0  0.00000000000E+00  0.00000000000E+00 -0.18387985656E+04  0.18387985656E+04  0.50400001928E-02 0. -1.
    10030    2    1    2    0    0  0.00000000000E+00  0.00000000000E+00 -0.66297015554E+03  0.30146269757E+04  0.29408240980E+04 0.  0.
        2    1    3    3  502    0 -0.95667403738E+03 -0.13172283717E+02 -0.14760692977E+04  0.17590279402E+04  0.25500000920E-02 0. -1.
       -2    1    3    3    0  502  0.95667403738E+03  0.13172283717E+02  0.81309914215E+03  0.12555990355E+04  0.25500000920E-02 0.  1.
</event>
<event>
 5   0  0.7305460E-06  0.2899916E+04  0.7818609E-02  0.8272902E-01
       -1   -1    0    0    0  501  0.00000000000E+00  0.00000000000E+00  0.16902735307E+04  0.16902735307E+04  0.50400001928E-02 0.  1.
        1   -1    0    0  501    0  0.00000000000E+00  0.00000000000E+00 -0.12438098027E+04  0.12438098027E+04  0.50400001928E-02 0. -1.
    10030    2    1    2    0    0  0.00000000000E+00  0.00000000000E+00  0.44646372797E+03  0.29340833335E+04  0.28999164035E+04 0.  0.
        4    1    3    3  502    0  0.90845143827E+03 -0.50295069657E+03  0.12471501667E+04  0.16228458245E+04  0.12699999809E+01 0.  1.
       -4    1    3    3    0  502 -0.90845143827E+03  0.50295069657E+03 -0.80068643873E+03  0.13112375090E+04  0.12699999809E+01 0. -1.
</event>
<event>
 5   0  0.1829810E-05  0.2854906E+04  0.7818609E-02  0.8286422E-01
        2   -1    0    0  501    0  0.00000000000E+00  0.00000000000E+00  0.19461766909E+04  0.19461766909E+04  0.25500000920E-02 0. -1.
       -2   -1    0    0    0  501  0.00000000000E+00  0.00000000000E+00 -0.10469874689E+04  0.10469874689E+04  0.25500000920E-02 0.  1.
    10030    2    1    2    0    0  0.00000000000E+00  0.00000000000E+00  0.89918922205E+03  0.29931641598E+04  0.28549063786E+04 0.  0.
        4    1    3    3  502    0  0.12704352900E+04 -0.14278325888E+03 -0.21615981942E+03  0.12965799496E+04  0.12699999809E+01 0.  1.
       -4    1    3    3    0  502 -0.12704352900E+04  0.14278325888E+03  0.11153490415E+04  0.16965842102E+04  0.12699999809E+01 0. -1.
</event>
<event>
 5   0  0.1976233E-05  0.2876652E+04  0.7818609E-02  0.8279858E-01
        2   -1    0    0  501    0  0.00000000000E+00  0.00000000000E+00  0.24922760090E+04  0.24922760090E+04  0.25500000920E-02 0.  1.
       -2   -1    0    0    0  501  0.00000000000E+00  0.00000000000E+00 -0.83007721321E+03  0.83007721322E+03  0.25500000920E-02 0. -1.
    10030    2    1    2    0    0  0.00000000000E+00  0.00000000000E+00  0.16621987958E+04  0.33223532222E+04  0.28766518901E+04 0.  0.
        2    1    3    3  502    0  0.12427040919E+04 -0.31926327223E+03  0.80355333516E+02  0.12855735983E+04  0.25500000920E-02 0. -1.
       -2    1    3    3    0  502 -0.12427040919E+04  0.31926327223E+03  0.15818434623E+04  0.20367796239E+04  0.25500000920E-02 0.  1.
</event>
<event>
 5   0  0.7971153E-06  0.2992313E+04  0.7818609E-02  0.8245929E-01
       -1   -1    0    0    0  501  0.00000000000E+00  0.00000000000E+00  0.15205446843E+04  0.15205446843E+04  0.50400001928E-02 0. -1.
        1   -1    0    0  501    0  0.00000000000E+00  0.00000000000E+00 -0.14721595003E+04  0.14721595004E+04  0.50400001928E-02 0.  1.
    10030    2    1    2    0    0  0.00000000000E+00  0.00000000000E+00  0.48385183937E+02  0.29927041846E+04  0.29923130202E+04 0.  0.
        5    1    3    3  502    0 -0.12684290311E+04 -0.15458841557E+03  0.80253106816E+03  0.15089360458E+04  0.46999998093E+01 0. -1.
       -5    1    3    3    0  502  0.12684290311E+04  0.15458841557E+03 -0.75414588422E+03  0.14837681388E+04  0.46999998093E+01 0.  1.
</event>
<event>
 5   0  0.1960961E-05  0.2204499E+04  0.7818609E-02  0.8516558E-01
        2   -1    0    0  501    0  0.00000000000E+00  0.00000000000E+00  0.15097265821E+04  0.15097265821E+04  0.25500000920E-02 0.  1.
       -2   -1    0    0    0  501  0.00000000000E+00  0.00000000000E+00 -0.80475071683E+03  0.80475071683E+03  0.25500000920E-02 0. -1.
    10030    2    1    2    0    0  0.00000000000E+00  0.00000000000E+00  0.70497586531E+03  0.23144772990E+04  0.22044986271E+04 0.  0.
        5    1    3    3  502    0 -0.32453233913E+03  0.93714567405E+03  0.85749206517E+03  0.13110598710E+04  0.46999998093E+01 0.  1.
       -5    1    3    3    0  502  0.32453233913E+03 -0.93714567405E+03 -0.15251619987E+03  0.10034174280E+04  0.46999998093E+01 0. -1.
</event>
<event>
 5   0  0.1976233E-05  0.2908146E+04  0.7818609E-02  0.8270458E-01
       -2   -1    0    0    0  501  0.00000000000E+00  0.00000000000E+00  0.13698971962E+04  0.13698971962E+04  0.25500000920E-02 0.  1.
        2   -1    0    0  501    0  0.00000000000E+00  0.00000000000E+00 -0.15434213846E+04  0.15434213846E+04  0.25500000920E-02 0. -1.
    10030    2    1    2    0    0  0.00000000000E+00  0.00000000000E+00 -0.17352418844E+03  0.29133185808E+04  0.29081462325E+04 0.  0.
        2    1    3    3  502    0  0.13632575435E+04  0.34738133411E+03  0.28156520836E+03  0.14347208396E+04  0.25500000920E-02 0.  1.
       -2    1    3    3    0  502 -0.13632575435E+04 -0.34738133411E+03 -0.45508939680E+03  0.14785977412E+04  0.25500000920E-02 0. -1.
</event>
<event>
 5   0  0.1960961E-05  0.2830469E+04  0.7818609E-02  0.8293871E-01
        2   -1    0    0  501    0  0.00000000000E+00  0.00000000000E+00  0.22021639900E+04  0.22021639900E+04  0.25500000920E-02 0.  1.
       -2   -1    0    0    0  501  0.00000000000E+00  0.00000000000E+00 -0.90950930121E+03  0.90950930121E+03  0.25500000920E-02 0. -1.
    10030    2    1    2    0    0  0.00000000000E+00  0.00000000000E+00  0.12926546888E+04  0.31116732912E+04  0.28304689588E+04 0.  0.
        5    1    3    3  502    0  0.95216964939E+03 -0.90104482113E+03  0.60097241546E+02  0.13123043014E+04  0.46999998093E+01 0. -1.
       -5    1    3    3    0  502 -0.95216964939E+03  0.90104482113E+03  0.12325574472E+04  0.17993689898E+04  0.46999998093E+01 0.  1.
</event>
<event>
 5   0  0.8234888E-06  0.2836340E+04  0.7818609E-02  0.8292074E-01
        1   -1    0    0  501    0  0.00000000000E+00  0.00000000000E+00  0.18357301984E+04  0.18357301984E+04  0.50400001928E-02 0.  1.
       -1   -1    0    0    0  501  0.00000000000E+00  0.00000000000E+00 -0.10955891670E+04  0.10955891670E+04  0.50400001928E-02 0. -1.
    10030    2    1    2    0    0  0.00000000000E+00  0.00000000000E+00  0.74014103146E+03  0.29313193654E+04  0.28363399789E+04 0.  0.
        3    1    3    3  502    0  0.11349135311E+03  0.55752162675E+02  0.18298927542E+04  0.18342562778E+04  0.10100000352E+00 0.  1.
       -3    1    3    3    0  502 -0.11349135311E+03 -0.55752162675E+02 -0.10897517227E+04  0.10970630876E+04  0.10100000352E+00 0. -1.
</event>
<event>
 5   0  0.1918901E-05  0.2851879E+04  0.7818609E-02  0.8287341E-01
        2   -1    0    0  501    0  0.00000000000E+00  0.00000000000E+00  0.13602757311E+04  0.13602757311E+04  0.25500000920E-02 0.  1.
       -2   -1    0    0    0  501  0.00000000000E+00  0.00000000000E+00 -0.14947726286E+04  0.14947726286E+04  0.25500000920E-02 0. -1.
    10030    2    1    2    0    0  0.00000000000E+00  0.00000000000E+00 -0.13449689748E+03  0.28550483598E+04  0.28518786301E+04 0.  0.
        1    1    3    3  502    0  0.11382951292E+04  0.47374016921E+03 -0.78439467922E+03  0.14613078259E+04  0.50400001928E-02 0. -1.
       -1    1    3    3    0  502 -0.11382951292E+04 -0.47374016921E+03  0.64989778174E+03  0.13937405339E+04  0.50400001928E-02 0.  1.
</event>
<event>
 5   0  0.8234888E-06  0.2321772E+04  0.7818609E-02  0.8469386E-01
        1   -1    0    0  501    0  0.00000000000E+00  0.00000000000E+00  0.18863588241E+04  0.18863588241E+04  0.50400001928E-02 0. -1.
       -1   -1    0    0    0  501  0.00000000000E+00  0.00000000000E+00 -0.71442192393E+03  0.71442192395E+03  0.50400001928E-02 0.  1.
    10030    2    1    2    0    0  0.00000000000E+00  0.00000000000E+00  0.11719369001E+04  0.26007807480E+04  0.23217718237E+04 0.  0.
        3    1    3    3  502    0 -0.31497998834E+03 -0.10434888040E+04  0.13849592223E+03  0.10987549353E+04  0.10100000352E+00 0. -1.
       -3    1    3    3    0  502  0.31497998834E+03  0.10434888040E+04  0.10334409779E+04  0.15020258127E+04  0.10100000352E+00 0.  1.
</event>
<event>
 5   0  0.1976233E-05  0.2905487E+04  0.7818609E-02  0.8271247E-01
        2   -1    0    0  501    0  0.00000000000E+00  0.00000000000E+00  0.14176420230E+04  0.14176420230E+04  0.25500000920E-02 0.  1.
       -2   -1    0    0    0  501  0.00000000000E+00  0.00000000000E+00 -0.14887140952E+04  0.14887140952E+04  0.25500000920E-02 0. -1.
    10030    2    1    2    0    0  0.00000000000E+00  0.00000000000E+00 -0.71072072195E+02  0.29063561181E+04  0.29054869895E+04 0.  0.
        2    1    3    3  502    0 -0.12010018101E+04  0.81715058778E+03 -0.17552048521E+02  0.14527382784E+04  0.25500000920E-02 0.  1.
       -2    1    3    3    0  502  0.12010018101E+04 -0.81715058778E+03 -0.53520023674E+02  0.14536178397E+04  0.25500000920E-02 0. -1.
</event>
<event>
 5   0  0.1937947E-05  0.2991250E+04  0.7818609E-02  0.8246234E-01
       -2   -1    0    0    0  501  0.00000000000E+00  0.00000000000E+00  0.13555684339E+04  0.13555684339E+04  0.25500000920E-02 0. -1.
        2   -1    0    0  501    0  0.00000000000E+00  0.00000000000E+00 -0.16501517657E+04  0.16501517658E+04  0.25500000920E-02 0.  1.
    10030    2    1    2    0    0  0.00000000000E+00  0.00000000000E+00 -0.29458333185E+03  0.30057201996E+04  0.29912496685E+04 0.  0.
        3    1    3    3  502    0  0.36444059887E+03 -0.27261277119E+03  0.12842965677E+04  0.13625536163E+04  0.10100000352E+00 0. -1.
       -3    1    3    3    0  502 -0.36444059887E+03  0.27261277119E+03 -0.15788798996E+04  0.16431665834E+04  0.10100000352E+00 0.  1.
</event>
<event>
 5   0  0.1918901E-05  0.2525318E+04  0.7818609E-02  0.8394021E-01
       -2   -1    0    0    0  501  0.00000000000E+00  0.00000000000E+00  0.67589672734E+03  0.67589672734E+03  0.25500000920E-02 0.  1.
        2   -1    0    0  501    0  0.00000000000E+00  0.00000000000E+00 -0.23588046873E+04  0.23588046874E+04  0.25500000920E-02 0. -1.
    10030    2    1    2    0    0  0.00000000000E+00  0.00000000000E+00 -0.16829079600E+04  0.30347014147E+04  0.25253184897E+04 0.  0.
        1    1    3    3  502    0  0.98774775360E+03  0.28843409622E+03  0.37906166205E+02  0.10296973973E+04  0.50400001928E-02 0.  1.
       -1    1    3    3    0  502 -0.98774775360E+03 -0.28843409622E+03 -0.17208141262E+04  0.20050040174E+04  0.50400001928E-02 0. -1.
</event>
<event>
 5   0  0.1960961E-05  0.2923997E+04  0.7818609E-02  0.8265773E-01
       -2   -1    0    0    0  501  0.00000000000E+00  0.00000000000E+00  0.17742842029E+04  0.17742842029E+04  0.25500000920E-02 0. -1.
        2   -1    0    0  501    0  0.00000000000E+00  0.00000000000E+00 -0.12046773448E+04  0.12046773448E+04  0.25500000920E-02 0.  1.
    10030    2    1    2    0    0  0.00000000000E+00  0.00000000000E+00  0.56960685805E+03  0.29789615477E+04  0.29239972520E+04 0.  0.
        5    1    3    3  502    0  0.23190655830E+03  0.75631101290E+03  0.15373988411E+04  0.17289893830E+04  0.46999998093E+01 0. -1.
       -5    1    3    3    0  502 -0.23190655830E+03 -0.75631101290E+03 -0.96779198302E+03  0.12499721647E+04  0.46999998093E+01 0.  1.
</event>
<event>
 5   0  0.7305460E-06  0.2888955E+04  0.7818609E-02  0.8276171E-01
        1   -1    0    0  501    0  0.00000000000E+00  0.00000000000E+00  0.12152729840E+04  0.12152729840E+04  0.50400001928E-02 0. -1.
       -1   -1    0    0    0  501  0.00000000000E+00  0.00000000000E+00 -0.17169101906E+04  0.17169101906E+04  0.50400001928E-02 0.  1.
    10030    2    1    2    0    0  0.00000000000E+00  0.00000000000E+00 -0.50163720662E+03  0.29321831746E+04  0.28889545311E+04 0.  0.
        4    1    3    3  502    0 -0.27826764181E+03 -0.12158110838E+04  0.48870152422E+03  0.13395746581E+04  0.12699999809E+01 0. -1.
       -4    1    3    3    0  502  0.27826764181E+03  0.12158110838E+04 -0.99033873084E+03  0.15926085165E+04  0.12699999809E+01 0.  1.
</event>
<event>
 5   0  0.7971153E-06  0.2073356E+04  0.7818609E-02  0.8573072E-01
        1   -1    0    0  501    0  0.00000000000E+00  0.00000000000E+00  0.64138378094E+03  0.64138378096E+03  0.50400001928E-02 0. -1.
       -1   -1    0    0    0  501  0.00000000000E+00  0.00000000000E+00 -0.16755976341E+04  0.16755976341E+04  0.50400001928E-02 0.  1.
    10030    2    1    2    0    0  0.00000000000E+00  0.00000000000E+00 -0.10342138531E+04  0.23169814150E+04  0.20733558748E+04 0.  0.
        5    1    3    3  502    0  0.10064181603E+03  0.91945516959E+03 -0.10402516935E+04  0.13920029669E+04  0.46999998093E+01 0.  1.
       -5    1    3    3    0  502 -0.10064181603E+03 -0.91945516959E+03  0.60378403563E+01  0.92497844815E+03  0.46999998093E+01 0. -1.
</event>
<event>
 5   0  0.1829810E-05  0.2502959E+04  0.7818609E-02  0.8401932E-01
       -2   -1    0    0    0  501  0.00000000000E+00  0.00000000000E+00  0.79292867186E+03  0.79292867187E+03  0.25500000920E-02 0.  1.
        2   -1    0    0  501    0  0.00000000000E+00  0.00000000000E+00 -0.19752110805E+04  0.19752110805E+04  0.25500000920E-02 0. -1.
    10030    2    1    2    0    0  0.00000000000E+00  0.00000000000E+00 -0.11822824086E+04  0.27681397523E+04  0.25029594473E+04 0.  0.
        4    1    3    3  502    0  0.15589379995E+03  0.90785078962E+02  0.77847235648E+03  0.79910301597E+03  0.12699999809E+01 0.  1.
       -4    1    3    3    0  502 -0.15589379995E+03 -0.90785078962E+02 -0.19607547651E+04  0.19690367364E+04  0.12699999809E+01 0. -1.
</event>
<event>
 5   0  0.7305460E-06  0.1767084E+04  0.7818609E-02  0.8724002E-01
       -1   -1    0    0    0  501  0.00000000000E+00  0.00000000000E+00  0.88057555449E+03  0.88057555450E+03  0.50400001928E-02 0. -1.
        1   -1    0    0  501    0  0.00000000000E+00  0.00000000000E+00 -0.88651853150E+03  0.88651853151E+03  0.50400001928E-02 0.  1.
    10030    2    1    2    0    0  0.00000000000E+00  0.00000000000E+00 -0.59429770125E+01  0.17670940860E+04  0.17670840925E+04 0.  0.
        4    1    3    3  502    0 -0.15252896533E+03 -0.36004327952E+03  0.78933892195E+03  0.88088239567E+03  0.12699999809E+01 0. -1.
       -4    1    3    3    0  502  0.15252896533E+03  0.36004327952E+03 -0.79528189896E+03  0.88621169035E+03  0.12699999809E+01 0.  1.
</event>
<event>
 5   0  0.8122088E-06  0.1849106E+04  0.7818609E-02  0.8680613E-01
        1   -1    0    0  501    0  0.00000000000E+00  0.00000000000E+00  0.11666991755E+04  0.11666991755E+04  0.50400001928E-02 0. -1.
       -1   -1    0    0    0  501  0.00000000000E+00  0.00000000000E+00 -0.73266396825E+03  0.73266396827E+03  0.50400001928E-02 0.  1.
    10030    2    1    2    0    0  0.00000000000E+00  0.00000000000E+00  0.43403520727E+03  0.18993631438E+04  0.18491062141E+04 0.  0.
        1    1    3    3  502    0 -0.51539923743E+03 -0.41393677701E+03 -0.44693937315E+03  0.79795666085E+03  0.50400001928E-02 0.  1.
       -1    1    3    3    0  502  0.51539923743E+03  0.41393677701E+03  0.88097458042E+03  0.11014064829E+04  0.50400001928E-02 0. -1.
</event>
<event>
 5   0  0.1918901E-05  0.2902751E+04  0.7818609E-02  0.8272059E-01
        2   -1    0    0  501    0  0.00000000000E+00  0.00000000000E+00  0.19599358567E+04  0.19599358567E+04  0.25500000920E-02 0. -1.
       -2   -1    0    0    0  501  0.00000000000E+00  0.00000000000E+00 -0.10747753616E+04  0.10747753616E+04  0.25500000920E-02 0.  1.
    10030    2    1    2    0    0  0.00000000000E+00  0.00000000000E+00  0.88516049503E+03  0.30347112183E+04  0.29027509498E+04 0.  0.
        1    1    3    3  502    0  0.13387575440E+04  0.39136682988E+02  0.10271855291E+04  0.16878724930E+04  0.50400001928E-02 0. -1.
       -1    1    3    3    0  502 -0.13387575440E+04 -0.39136682988E+02 -0.14202503406E+03  0.13468387253E+04  0.50400001928E-02 0.  1.
</event>
<event>
 5   0  0.7971153E-06  0.2829015E+04  0.7818609E-02  0.8294317E-01
       -1   -1    0    0    0  501  0.00000000000E+00  0.00000000000E+00  0.10570804960E+04  0.10570804960E+04  0.50400001928E-02 0. -1.
        1   -1    0    0  501    0  0.00000000000E+00  0.00000000000E+00 -0.18927899093E+04  0.18927899093E+04  0.50400001928E-02 0.  1.
    10030    2    1    2    0    0  0.00000000000E+00  0.00000000000E+00 -0.83570941334E+03  0.29498704053E+04  0.28290148788E+04 0.  0.
        5    1    3    3  502    0  0.91301677164E+03 -0.31200924870E+03  0.66067259144E+03  0.11693843507E+04  0.46999998093E+01 0. -1.
       -5    1    3    3    0  502 -0.91301677164E+03  0.31200924870E+03 -0.14963820048E+04  0.17804860546E+04  0.46999998093E+01 0.  1.
</event>
<event>
 5   0  0.1829810E-05  0.1450629E+04  0.7818609E-02  0.8917965E-01
        2   -1    0    0  501    0  0.00000000000E+00  0.00000000000E+00  0.17636813566E+04  0.17636813566E+04  0.25500000920E-02 0.  1.
       -2   -1    0    0    0  501  0.00000000000E+00  0.00000000000E+00 -0.29828572533E+03  0.29828572534E+03  0.25500000920E-02 0. -1.
    10030    2    1    2    0    0  0.00000000000E+00  0.00000000000E+00  0.14653956313E+04  0.20619670820E+04  0.14506287915E+04 0.  0.
        4    1    3    3  502    0 -0.74476828381E+01  0.64834385762E+03  0.11947699553E+04  0.13593682668E+04  0.12699999809E+01 0. -1.
       -4    1    3    3    0  502  0.74476828381E+01 -0.64834385762E+03  0.27062567597E+03  0.70259881518E+03  0.12699999809E+01 0.  1.
</event>
<event>
 5   0  0.1918901E-05  0.3287451E+04  0.7818609E-02  0.8166096E-01
        2   -1    0    0  501    0  0.00000000000E+00  0.00000000000E+00  0.21023935791E+04  0.21023935791E+04  0.25500000920E-02 0.  1.
       -2   -1    0    0    0  501  0.00000000000E+00  0.00000000000E+00 -0.12851224842E+04  0.12851224842E+04  0.25500000920E-02 0. -1.
    10030    2    1    2    0    0  0.00000000000E+00  0.00000000000E+00  0.81727109490E+03  0.33875160634E+04  0.32874508417E+04 0.  0.
        1    1    3    3  502    0 -0.14138021651E+04 -0.33346060483E+03 -0.38406624702E+03  0.15025110379E+04  0.50400001928E-02 0. -1.
       -1    1    3    3    0  502  0.14138021651E+04  0.33346060483E+03  0.12013373419E+04  0.18850050255E+04  0.50400001928E-02 0.  1.
</event>
<event>
 5   0  0.1937947E-05  0.2896138E+04  0.7818609E-02  0.8274027E-01
        2   -1    0    0  501    0  0.00000000000E+00  0.00000000000E+00  0.15733312526E+04  0.15733312527E+04  0.25500000920E-02 0.  1.
       -2   -1    0    0    0  501  0.00000000000E+00  0.00000000000E+00 -0.13327800021E+04  0.13327800021E+04  0.25500000920E-02 0. -1.
    10030    2    1    2    0    0  0.00000000000E+00  0.00000000000E+00  0.24055125056E+03  0.29061112547E+04  0.28961384153E+04 0.  0.
        3    1    3    3  502    0  0.36358708167E+03  0.52646853768E+02  0.15257905737E+04  0.15693961074E+04  0.10100000352E+00 0.  1.
       -3    1    3    3    0  502 -0.36358708167E+03 -0.52646853768E+02 -0.12852393231E+04  0.13367151473E+04  0.10100000352E+00 0. -1.
</event>
<event>
 5   0  0.1976233E-05  0.2869189E+04  0.7818609E-02  0.8282104E-01
        2   -1    0    0  501    0  0.00000000000E+00  0.00000000000E+00  0.13579224911E+04  0.13579224911E+04  0.25500000920E-02 0.  1.
       -2   -1    0    0    0  501  0.00000000000E+00  0.00000000000E+00 -0.15155953017E+04  0.15155953017E+04  0.25500000920E-02 0. -1.
    10030    2    1    2    0    0  0.00000000000E+00  0.00000000000E+00 -0.15767281053E+03  0.28735177928E+04  0.28691886990E+04 0.  0.
        2    1    3    3  502    0  0.48588759817E+03  0.61366830149E+03  0.11252193879E+04  0.13706911444E+04  0.25500000920E-02 0.  1.
       -2    1    3    3    0  502 -0.48588759817E+03 -0.61366830149E+03 -0.12828921985E+04  0.15028266484E+04  0.25500000920E-02 0. -1.
</event>
<event>
 5   0  0.1918901E-05  0.2922755E+04  0.7818609E-02  0.8266139E-01
        2   -1    0    0  501    0  0.00000000000E+00  0.00000000000E+00  0.18274028336E+04  0.18274028336E+04  0.25500000920E-02 0. -1.
       -2   -1    0    0    0  501  0.00000000000E+00  0.00000000000E+00 -0.11686666282E+04  0.11686666282E+04  0.25500000920E-02 0.  1.
    10030    2    1    2    0    0  0.00000000000E+00  0.00000000000E+00  0.65873620541E+03  0.29960694618E+04  0.29227553492E+04 0.  0.
        1    1    3    3  502    0 -0.12051339953E+03  0.11722020658E+04  0.12153653504E+04  0.16928361106E+04  0.50400001928E-02 0. -1.
       -1    1    3    3    0  502  0.12051339953E+03 -0.11722020658E+04 -0.55662914495E+03  0.13032333512E+04  0.50400001928E-02 0.  1.
</event>
<event>
 5   0  0.1937947E-05  0.2873950E+04  0.7818609E-02  0.8280670E-01
        2   -1    0    0  501    0  0.00000000000E+00  0.00000000000E+00  0.20687106937E+04  0.20687106937E+04  0.25500000920E-02 0. -1.
       -2   -1    0    0    0  501  0.00000000000E+00  0.00000000000E+00 -0.99815685646E+03  0.99815685647E+03  0.25500000920E-02 0.  1.
    10030    2    1    2    0    0  0.00000000000E+00  0.00000000000E+00  0.10705538372E+04  0.30668675502E+04  0.28739504261E+04 0.  0.
        3    1    3    3  502    0  0.85573420718E+03  0.95629838566E+03 -0.15474213948E+03  0.12925682867E+04  0.10100000352E+00 0.  1.
       -3    1    3    3    0  502 -0.85573420718E+03 -0.95629838566E+03  0.12252959767E+04  0.17742992635E+04  0.10100000352E+00 0. -1.
</event>
<event>
 5   0  0.1976233E-05  0.1687660E+04  0.7818609E-02  0.8768434E-01
       -2   -1    0    0    0  501  0.00000000000E+00  0.00000000000E+00  0.39440609426E+03  0.39440609427E+03  0.25500000920E-02 0. -1.
        2   -1    0    0  501    0  0.00000000000E+00  0.00000000000E+00 -0.18053694194E+04  0.18053694194E+04  0.25500000920E-02 0.  1.
    10030    2    1    2    0    0  0.00000000000E+00  0.00000000000E+00 -0.14109633251E+04  0.21997755137E+04  0.16876595645E+04 0.  0.
        2    1    3    3  502    0  0.38558023659E+03  0.18660464760E+02 -0.16835262582E+04  0.17272177031E+04  0.25500000920E-02 0.  1.
       -2    1    3    3    0  502 -0.38558023659E+03 -0.18660464760E+02  0.27256293310E+03  0.47255781054E+03  0.25500000920E-02 0. -1.
</event>
<event>
 5   0  0.8234888E-06  0.2945547E+04  0.7818609E-02  0.8259454E-01
       -1   -1    0    0    0  501  0.00000000000E+00  0.00000000000E+00  0.12240307975E+04  0.12240307975E+04  0.50400001928E-02 0. -1.
        1   -1    0    0  501    0  0.00000000000E+00  0.00000000000E+00 -0.17720644786E+04  0.17720644786E+04  0.50400001928E-02 0.  1.
    10030    2    1    2    0    0  0.00000000000E+00  0.00000000000E+00 -0.54803368113E+03  0.29960952762E+04  0.29455468063E+04 0.  0.
        3    1    3    3  502    0  0.13838297762E+04 -0.40824449560E+03  0.26713936389E+02  0.14430391756E+04  0.10100000352E+00 0. -1.
       -3    1    3    3    0  502 -0.13838297762E+04  0.40824449560E+03 -0.57474761752E+03  0.15530561006E+04  0.10100000352E+00 0.  1.
</event>
<event>
 5   0  0.8122088E-06  0.2995923E+04  0.7818609E-02  0.8244896E-01
       -1   -1    0    0    0  501  0.00000000000E+00  0.00000000000E+00  0.79226943794E+03  0.79226943795E+03  0.50400001928E-02 0. -1.
        1   -1    0    0  501    0  0.00000000000E+00  0.00000000000E+00 -0.28322294953E+04  0.28322294953E+04  0.50400001928E-02 0.  1.
    10030    2    1    2    0    0  0.00000000000E+00  0.00000000000E+00 -0.20399600574E+04  0.36244989333E+04  0.29959231435E+04 0.  0.
        1    1    3    3  502    0 -0.10766585000E+04 -0.97926511433E+03 -0.14489685911E+04  0.20536951254E+04  0.50400001928E-02 0. -1.
       -1    1    3    3    0  502  0.10766585000E+04  0.97926511433E+03 -0.59099146626E+03  0.15708038079E+04  0.50400001928E-02 0.  1.
</event>
<event>
 5   0  0.1829810E-05  0.2648923E+04  0.7818609E-02  0.8351771E-01
        2   -1    0    0  501    0  0.00000000000E+00  0.00000000000E+00  0.13338174116E+04  0.13338174116E+04  0.25500000920E-02 0. -1.
       -2   -1    0    0    0  501  0.00000000000E+00  0.00000000000E+00 -0.13151711580E+04  0.13151711580E+04  0.25500000920E-02 0.  1.
    10030    2    1    2    0    0  0.00000000000E+00  0.00000000000E+00  0.18646253645E+02  0.26489885696E+04  0.26489229432E+04 0.  0.
        4    1    3    3  502    0  0.70142247646E+02  0.12308470717E+04  0.49337243952E+03  0.13279015121E+04  0.12699999809E+01 0.  1.
       -4    1    3    3    0  502 -0.70142247646E+02 -0.12308470717E+04 -0.47472618588E+03  0.13210870575E+04  0.12699999809E+01 0. -1.
</event>
<event>
 5   0  0.1960961E-05  0.1800214E+04  0.7818609E-02  0.8706186E-01
        2   -1    0    0  501    0  0.00000000000E+00  0.00000000000E+00  0.71212278640E+03  0.71212278640E+03  0.25500000920E-02 0.  1.
       -2   -1    0    0    0  501  0.00000000000E+00  0.00000000000E+00 -0.11377143455E+04  0.11377143455E+04  0.25500000920E-02 0. -1.
    10030    2    1    2    0    0  0.00000000000E+00  0.00000000000E+00 -0.42559155913E+03  0.18498371319E+04  0.18002136650E+04 0.  0.
        5    1    3    3  502    0  0.28054655742E+03  0.85182750824E+03 -0.29141456789E+03  0.94300637063E+03  0.46999998093E+01 0.  1.
       -5    1    3    3    0  502 -0.28054655742E+03 -0.85182750824E+03 -0.13417699124E+03  0.90683076131E+03  0.46999998093E+01 0. -1.
</event>
<event>
 5   0  0.1960961E-05  0.2866274E+04  0.7818609E-02  0.8282983E-01
        2   -1    0    0  501    0  0.00000000000E+00  0.00000000000E+00  0.13112451117E+04  0.13112451117E+04  0.25500000920E-02 0.  1.
       -2   -1    0    0    0  501  0.00000000000E+00  0.00000000000E+00 -0.15663601089E+04  0.15663601089E+04  0.25500000920E-02 0. -1.
    10030    2    1    2    0    0  0.00000000000E+00  0.00000000000E+00 -0.25511499727E+03  0.28776052206E+04  0.28662742618E+04 0.  0.
        5    1    3    3  502    0 -0.78273500450E+03 -0.80869760255E+03  0.76318950320E+03  0.13598331543E+04  0.46999998093E+01 0.  1.
       -5    1    3    3    0  502  0.78273500450E+03  0.80869760255E+03 -0.10183045005E+04  0.15177720663E+04  0.46999998093E+01 0. -1.
</event>
<event>
 5   0  0.7305460E-06  0.1948510E+04  0.7818609E-02  0.8631079E-01
        1   -1    0    0  501    0  0.00000000000E+00  0.00000000000E+00  0.20524261381E+04  0.20524261381E+04  0.50400001928E-02 0. -1.
       -1   -1    0    0    0  501  0.00000000000E+00  0.00000000000E+00 -0.46246395885E+03  0.46246395888E+03  0.50400001928E-02 0.  1.
    10030    2    1    2    0    0  0.00000000000E+00  0.00000000000E+00  0.15899621793E+04  0.25148900970E+04  0.19485103204E+04 0.  0.
        4    1    3    3  502    0  0.19193162946E+03 -0.13640429619E+03 -0.42518483018E+03  0.48603254533E+03  0.12699999809E+01 0.  1.
       -4    1    3    3    0  502 -0.19193162946E+03  0.13640429619E+03  0.20151470095E+04  0.20288575517E+04  0.12699999809E+01 0. -1.
</event>
<event>
 5   0  0.7971153E-06  0.1673397E+04  0.7818609E-02  0.8776684E-01
       -1   -1    0    0    0  501  0.00000000000E+00  0.00000000000E+00  0.74763956580E+03  0.74763956582E+03  0.50400001928E-02 0.  1.
        1   -1    0    0  501    0  0.00000000000E+00  0.00000000000E+00 -0.93636595371E+03  0.93636595372E+03  0.50400001928E-02 0. -1.
    10030    2    1    2    0    0  0.00000000000E+00  0.00000000000E+00 -0.18872638790E+03  0.16840055195E+04  0.16733968269E+04 0.  0.
        5    1    3    3  502    0  0.80956945039E+03  0.19962495491E+03 -0.24719494049E+02  0.83419779490E+03  0.46999998093E+01 0.  1.
       -5    1    3    3    0  502 -0.80956945039E+03 -0.19962495491E+03 -0.16400689386E+03  0.84980772464E+03  0.46999998093E+01 0. -1.
</event>
<event>
 5   0  0.1918901E-05  0.2937680E+04  0.7818609E-02  0.8261754E-01
       -2   -1    0    0    0  501  0.00000000000E+00  0.00000000000E+00  0.12392309084E+04  0.12392309084E+04  0.25500000920E-02 0.  1.
        2   -1    0    0  501    0  0.00000000000E+00  0.00000000000E+00 -0.17409917665E+04  0.17409917665E+04  0.25500000920E-02 0. -1.
    10030    2    1    2    0    0  0.00000000000E+00  0.00000000000E+00 -0.50176085807E+03  0.29802226749E+04  0.29376799065E+04 0.  0.
        1    1    3    3  502    0  0.69985273143E+03 -0.48484109781E+03 -0.14651375730E+04  0.16945479762E+04  0.50400001928E-02 0. -1.
       -1    1    3    3    0  502 -0.69985273143E+03  0.48484109781E+03  0.96337671496E+03  0.12856746987E+04  0.50400001928E-02 0.  1.
</event>
<event>
 5   0  0.1829810E-05  0.2954489E+04  0.7818609E-02  0.8256848E-01
        2   -1    0    0  501    0  0.00000000000E+00  0.00000000000E+00  0.20083211913E+04  0.20083211913E+04  0.25500000920E-02 0.  1.
       -2   -1    0    0    0  501  0.00000000000E+00  0.00000000000E+00 -0.10866047388E+04  0.10866047388E+04  0.25500000920E-02 0. -1.
    10030    2    1    2    0    0  0.00000000000E+00  0.00000000000E+00  0.92171645251E+03  0.30949259301E+04  0.29544890073E+04 0.  0.
        4    1    3    3  502    0  0.63659279976E+03 -0.49451240879E+03  0.17576253778E+04  0.19336601296E+04  0.12699999809E+01 0.  1.
       -4    1    3    3    0  502 -0.63659279976E+03  0.49451240879E+03 -0.83590892532E+03  0.11612658005E+04  0.12699999809E+01 0. -1.
</event>
<event>
 5   0  0.1976233E-05  0.2681089E+04  0.7818609E-02  0.8341167E-01
        2   -1    0    0  501    0  0.00000000000E+00  0.00000000000E+00  0.11548544508E+04  0.11548544508E+04  0.25500000920E-02 0. -1.
       -2   -1    0    0    0  501  0.00000000000E+00  0.00000000000E+00 -0.15560919943E+04  0.15560919943E+04  0.25500000920E-02 0.  1.
    10030    2    1    2    0    0  0.00000000000E+00  0.00000000000E+00 -0.40123754355E+03  0.27109464451E+04  0.26810891559E+04 0.  0.
        2    1    3    3  502    0 -0.11820264189E+03  0.11276196263E+04  0.52258181384E+03  0.12484348755E+04  0.25500000920E-02 0. -1.
       -2    1    3    3    0  502  0.11820264189E+03 -0.11276196263E+04 -0.92381935739E+03  0.14625115696E+04  0.25500000920E-02 0.  1.
</event>
<event>
 5   0  0.1976233E-05  0.2910868E+04  0.7818609E-02  0.8269651E-01
        2   -1    0    0  501    0  0.00000000000E+00  0.00000000000E+00  0.20535691181E+04  0.20535691181E+04  0.25500000920E-02 0.  1.
       -2   -1    0    0    0  501  0.00000000000E+00  0.00000000000E+00 -0.10315150736E+04  0.10315150736E+04  0.25500000920E-02 0. -1.
    10030    2    1    2    0    0  0.00000000000E+00  0.00000000000E+00  0.10220540444E+04  0.30850841917E+04  0.29108675682E+04 0.  0.
        2    1    3    3  502    0  0.81964788750E+03  0.48154079008E+03 -0.65701435356E+03  0.11555829926E+04  0.25500000920E-02 0. -1.
       -2    1    3    3    0  502 -0.81964788750E+03 -0.48154079008E+03  0.16790683980E+04  0.19295011991E+04  0.25500000920E-02 0.  1.
</event>
<event>
 5   0  0.6578125E-06  0.2819488E+04  0.7818609E-02  0.8297243E-01
        4   -1    0    0  501    0  0.00000000000E+00  0.00000000000E+00  0.14936076845E+04  0.14936082244E+04  0.12699999809E+01 0. -1.
       -4   -1    0    0    0  501  0.00000000000E+00  0.00000000000E+00 -0.13305883133E+04  0.13305889194E+04  0.12699999809E+01 0.  1.
    10030    2    1    2    0    0  0.00000000000E+00  0.00000000000E+00  0.16301937114E+03  0.28241971438E+04  0.28194882854E+04 0.  0.
        1    1    3    3  502    0 -0.18113380838E+02 -0.52512445368E+03  0.13918591195E+04  0.14877350554E+04  0.50400001928E-02 0. -1.
       -1    1    3    3    0  502  0.18113380838E+02  0.52512445368E+03 -0.12288397484E+04  0.13364620884E+04  0.50400001928E-02 0.  1.
</event>
<event>
 5   0  0.8234888E-06  0.2452744E+04  0.7818609E-02  0.8420017E-01
       -1   -1    0    0    0  501  0.00000000000E+00  0.00000000000E+00  0.14561271523E+04  0.14561271523E+04  0.50400001928E-02 0.  1.
        1   -1    0    0  501    0  0.00000000000E+00  0.00000000000E+00 -0.10328685044E+04  0.10328685044E+04  0.50400001928E-02 0. -1.
    10030    2    1    2    0    0  0.00000000000E+00  0.00000000000E+00  0.42325864789E+03  0.24889956567E+04  0.24527436670E+04 0.  0.
        3    1    3    3  502    0  0.65348939699E+03 -0.52664819634E+03 -0.69578002422E+03  0.10901910690E+04  0.10100000352E+00 0. -1.
       -3    1    3    3    0  502 -0.65348939699E+03  0.52664819634E+03  0.11190386721E+04  0.13988045877E+04  0.10100000352E+00 0.  1.
</event>
<event>
 5   0  0.1960961E-05  0.2996855E+04  0.7818609E-02  0.8244630E-01
        2   -1    0    0  501    0  0.00000000000E+00  0.00000000000E+00  0.22407325205E+04  0.22407325205E+04  0.25500000920E-02 0. -1.
       -2   -1    0    0    0  501  0.00000000000E+00  0.00000000000E+00 -0.10020314445E+04  0.10020314445E+04  0.25500000920E-02 0.  1.
    10030    2    1    2    0    0  0.00000000000E+00  0.00000000000E+00  0.12387010760E+04  0.32427639649E+04  0.29968546472E+04 0.  0.
        5    1    3    3  502    0  0.13587446893E+04  0.50438146614E+03  0.20777861117E+03  0.14641659180E+04  0.46999998093E+01 0.  1.
       -5    1    3    3    0  502 -0.13587446893E+04 -0.50438146614E+03  0.10309224648E+04  0.17785980470E+04  0.46999998093E+01 0. -1.
</event>
<event>
 5   0  0.1918901E-05  0.2709647E+04  0.7818609E-02  0.8331881E-01
       -2   -1    0    0    0  501  0.00000000000E+00  0.00000000000E+00  0.95644595901E+03  0.95644595901E+03  0.25500000920E-02 0. -1.
        2   -1    0    0  501    0  0.00000000000E+00  0.00000000000E+00 -0.19191333635E+04  0.19191333635E+04  0.25500000920E-02 0.  1.
    10030    2    1    2    0    0  0.00000000000E+00  0.00000000000E+00 -0.96268740449E+03  0.28755793225E+04  0.27096474681E+04 0.  0.
        1    1    3    3  502    0 -0.30335080562E+03  0.91066105929E+02 -0.18792929665E+04  0.19057955821E+04  0.50400001928E-02 0.  1.
       -1    1    3    3    0  502  0.30335080562E+03 -0.91066105929E+02  0.91660556197E+03  0.96978374042E+03  0.50400001928E-02 0. -1.
</event>
<event>
 5   0  0.7305460E-06  0.1682134E+04  0.7818609E-02  0.8771620E-01
        1   -1    0    0  501    0  0.00000000000E+00  0.00000000000E+00  0.12280301171E+04  0.12280301171E+04  0.50400001928E-02 0.  1.
       -1   -1    0    0    0  501  0.00000000000E+00  0.00000000000E+00 -0.57603952846E+03  0.57603952849E+03  0.50400001928E-02 0. -1.
    10030    2    1    2    0    0  0.00000000000E+00  0.00000000000E+00  0.65199058864E+03  0.18040696456E+04  0.16821342273E+04 0.  0.
        4    1    3    3  502    0 -0.58435122802E+03 -0.45112200437E+03 -0.10622537109E+03  0.74583031775E+03  0.12699999809E+01 0. -1.
       -4    1    3    3    0  502  0.58435122802E+03  0.45112200437E+03  0.75821595973E+03  0.10582393278E+04  0.12699999809E+01 0.  1.
</event>
<event>
 5   0  0.8234888E-06  0.1446933E+04  0.7818609E-02  0.8920529E-01
       -1   -1    0    0    0  501  0.00000000000E+00  0.00000000000E+00  0.37078753103E+03  0.37078753107E+03  0.50400001928E-02 0.  1.
        1   -1    0    0  501    0  0.00000000000E+00  0.00000000000E+00 -0.14116011641E+04  0.14116011641E+04  0.50400001928E-02 0. -1.
    10030    2    1    2    0    0  0.00000000000E+00  0.00000000000E+00 -0.10408136331E+04  0.17823886952E+04  0.14469334615E+04 0.  0.
        3    1    3    3  502    0 -0.45629518850E+03  0.39900209815E+03 -0.10069380961E+04  0.11753009457E+04  0.10100000352E+00 0. -1.
       -3    1    3    3    0  502  0.45629518850E+03 -0.39900209815E+03 -0.33875536970E+02  0.60708774949E+03  0.10100000352E+00 0.  1.
</event>
<event>
 5   0  0.1960961E-05  0.2906634E+04  0.7818609E-02  0.8270906E-01
        2   -1    0    0  501    0  0.00000000000E+00  0.00000000000E+00  0.19512584302E+04  0.19512584303E+04  0.25500000920E-02 0. -1.
       -2   -1    0    0    0  501  0.00000000000E+00  0.00000000000E+00 -0.10824455538E+04  0.10824455539E+04  0.25500000920E-02 0.  1.
    10030    2    1    2    0    0  0.00000000000E+00  0.00000000000E+00  0.86881287640E+03  0.30337039841E+04  0.29066344884E+04 0.  0.
        5    1    3    3  502    0 -0.35495898580E+03  0.53330081128E+03  0.17959285480E+04  0.19067739972E+04  0.46999998093E+01 0. -1.
       -5    1    3    3    0  502  0.35495898580E+03 -0.53330081128E+03 -0.92711567158E+03  0.11269299869E+04  0.46999998093E+01 0.  1.
</event>
<event>
 5   0  0.1960961E-05  0.2744789E+04  0.7818609E-02  0.8320617E-01
        2   -1    0    0  501    0  0.00000000000E+00  0.00000000000E+00  0.22094851756E+04  0.22094851756E+04  0.25500000920E-02 0.  1.
       -2   -1    0    0    0  501  0.00000000000E+00  0.00000000000E+00 -0.85244597619E+03  0.85244597619E+03  0.25500000920E-02 0. -1.
    10030    2    1    2    0    0  0.00000000000E+00  0.00000000000E+00  0.13570391994E+04  0.30619311518E+04  0.27447890610E+04 0.  0.
        5    1    3    3  502    0 -0.11954529083E+02 -0.32241680799E+03  0.21665679217E+04  0.21904643704E+04  0.46999998093E+01 0.  1.
       -5    1    3    3    0  502  0.11954529083E+02  0.32241680799E+03 -0.80952872227E+03  0.87146678137E+03  0.46999998093E+01 0. -1.
</event>
<event>
 5   0  0.1976233E-05  0.1473391E+04  0.7818609E-02  0.8902343E-01
        2   -1    0    0  501    0  0.00000000000E+00  0.00000000000E+00  0.53965599986E+03  0.53965599986E+03  0.25500000920E-02 0. -1.
       -2   -1    0    0    0  501  0.00000000000E+00  0.00000000000E+00 -0.10056776050E+04  0.10056776050E+04  0.25500000920E-02 0.  1.
    10030    2    1    2    0    0  0.00000000000E+00  0.00000000000E+00 -0.46602160511E+03  0.15453336048E+04  0.14733905843E+04 0.  0.
        2    1    3    3  502    0 -0.15421985219E+03 -0.86285710306E+02 -0.98311801764E+03  0.99887437810E+03  0.25500000920E-02 0.  1.
       -2    1    3    3    0  502  0.15421985219E+03  0.86285710306E+02  0.51709641253E+03  0.54645922673E+03  0.25500000920E-02 0. -1.
</event>
<event>
 5   0  0.1829810E-05  0.2890915E+04  0.7818609E-02  0.8275586E-01
       -2   -1    0    0    0  501  0.00000000000E+00  0.00000000000E+00  0.90569271106E+03  0.90569271107E+03  0.25500000920E-02 0. -1.
        2   -1    0    0  501    0  0.00000000000E+00  0.00000000000E+00 -0.23069049009E+04  0.23069049009E+04  0.25500000920E-02 0.  1.
    10030    2    1    2    0    0  0.00000000000E+00  0.00000000000E+00 -0.14012121898E+04  0.32125976119E+04  0.28909147022E+04 0.  0.
        4    1    3    3  502    0  0.78811353738E+03 -0.67201257520E+02 -0.20450665660E+04  0.21927010351E+04  0.12699999809E+01 0.  1.
       -4    1    3    3    0  502 -0.78811353738E+03  0.67201257520E+02  0.64385437622E+03  0.10198965769E+04  0.12699999809E+01 0. -1.
</event>
<event>
 5   0  0.8122088E-06  0.2924487E+04  0.7818609E-02  0.8265629E-01
       -1   -1    0    0    0  501  0.00000000000E+00  0.00000000000E+00  0.13492246956E+04  0.13492246956E+04  0.50400001928E-02 0. -1.
        1   -1    0    0  501    0  0.00000000000E+00  0.00000000000E+00 -0.15847298059E+04  0.15847298059E+04  0.50400001928E-02 0.  1.
    10030    2    1    2    0    0  0.00000000000E+00  0.00000000000E+00 -0.23550511028E+03  0.29339545015E+04  0.29244873671E+04 0.  0.
        1    1    3    3  502    0  0.16910165022E+03  0.10585629491E+04  0.87995445427E+03  0.13868924713E+04  0.50400001928E-02 0. -1.
       -1    1    3    3    0  502 -0.16910165022E+03 -0.10585629491E+04 -0.11154595645E+04  0.15470620303E+04  0.50400001928E-02 0.  1.
</event>
<event>
 5   0  0.8122088E-06  0.2319361E+04  0.7818609E-02  0.8470326E-01
       -1   -1    0    0    0  501  0.00000000000E+00  0.00000000000E+00  0.10695852728E+04  0.10695852728E+04  0.50400001928E-02 0. -1.
        1   -1    0    0  501    0  0.00000000000E+00  0.00000000000E+00 -0.12573642643E+04  0.12573642643E+04  0.50400001928E-02 0.  1.
    10030    2    1    2    0    0  0.00000000000E+00  0.00000000000E+00 -0.18777899146E+03  0.23269495372E+04  0.23193605151E+04 0.  0.
        1    1    3    3  502    0  0.10049668611E+04  0.38162567305E+03  0.34257621985E+03  0.11282530800E+04  0.50400001928E-02 0. -1.
       -1    1    3    3    0  502 -0.10049668611E+04 -0.38162567305E+03 -0.53035521131E+03  0.11986964571E+04  0.50400001928E-02 0.  1.
</event>
<event>
 5   0  0.7971153E-06  0.3345459E+04  0.7818609E-02  0.8151424E-01
       -1   -1    0    0    0  501  0.00000000000E+00  0.00000000000E+00  0.14710370732E+04  0.14710370732E+04  0.50400001928E-02 0.  1.
        1   -1    0    0  501    0  0.00000000000E+00  0.00000000000E+00 -0.19020752845E+04  0.19020752845E+04  0.50400001928E-02 0. -1.
    10030    2    1    2    0    0  0.00000000000E+00  0.00000000000E+00 -0.43103821131E+03  0.33731123578E+04  0.33454585693E+04 0.  0.
        5    1    3    3  502    0 -0.16560795589E+04 -0.19736122460E+03 -0.86200535571E+02  0.16700310119E+04  0.46999998093E+01 0. -1.
       -5    1    3    3    0  502  0.16560795589E+04  0.19736122460E+03 -0.34483767574E+03  0.17030813459E+04  0.46999998093E+01 0.  1.
</event>
<event>
 5   0  0.1918901E-05  0.1820537E+04  0.7818609E-02  0.8695454E-01
        2   -1    0    0  501    0  0.00000000000E+00  0.00000000000E+00  0.18586221923E+04  0.18586221923E+04  0.25500000920E-02 0.  1.
       -2   -1    0    0    0  501  0.00000000000E+00  0.00000000000E+00 -0.44580789785E+03  0.44580789786E+03  0.25500000920E-02 0. -1.
    10030    2    1    2    0    0  0.00000000000E+00  0.00000000000E+00  0.14128142944E+04  0.23044300901E+04  0.18205366818E+04 0.  0.
        1    1    3    3  502    0 -0.90631044516E+03  0.57963041023E+02  0.62806958976E+03  0.11041873694E+04  0.50400001928E-02 0. -1.
       -1    1    3    3    0  502  0.90631044516E+03 -0.57963041023E+02  0.78474470465E+03  0.12002427207E+04  0.50400001928E-02 0.  1.
</event>
<event>
 5   0  0.1829810E-05  0.2912534E+04  0.7818609E-02  0.8269158E-01
       -2   -1    0    0    0  501  0.00000000000E+00  0.00000000000E+00  0.16408024545E+04  0.16408024545E+04  0.25500000920E-02 0. -1.
        2   -1    0    0  501    0  0.00000000000E+00  0.00000000000E+00 -0.12924860567E+04  0.12924860567E+04  0.25500000920E-02 0.  1.
    10030    2    1    2    0    0  0.00000000000E+00  0.00000000000E+00  0.34831639778E+03  0.29332885113E+04  0.29125344938E+04 0.  0.
        4    1    3    3  502    0  0.34171858320E+03  0.93284821967E+03  0.12465155578E+04  0.15939824465E+04  0.12699999809E+01 0. -1.
       -4    1    3    3    0  502 -0.34171858320E+03 -0.93284821967E+03 -0.89819916004E+03  0.13393060647E+04  0.12699999809E+01 0.  1.
</event>
<event>
 5   0  0.7305460E-06  0.1491006E+04  0.7818609E-02  0.8890456E-01
        1   -1    0    0  501    0  0.00000000000E+00  0.00000000000E+00  0.64273661263E+03  0.64273661265E+03  0.50400001928E-02 0.  1.
       -1   -1    0    0    0  501  0.00000000000E+00  0.00000000000E+00 -0.86470069959E+03  0.86470069961E+03  0.50400001928E-02 0. -1.
    10030    2    1    2    0    0  0.00000000000E+00  0.00000000000E+00 -0.22196408696E+03  0.15074373123E+04  0.14910061014E+04 0.  0.
        4    1    3    3  502    0  0.64573515389E+03  0.27491340715E+03 -0.36519264864E+03  0.79115014625E+03  0.12699999809E+01 0. -1.
       -4    1    3    3    0  502 -0.64573515389E+03 -0.27491340715E+03  0.14322856168E+03  0.71628716600E+03  0.12699999809E+01 0.  1.
</event>
<event>
 5   0  0.7971153E-06  0.2138253E+04  0.7818609E-02  0.8544577E-01
       -1   -1    0    0    0  501  0.00000000000E+00  0.00000000000E+00  0.14770945011E+04  0.14770945011E+04  0.50400001928E-02 0. -1.
        1   -1    0    0  501    0  0.00000000000E+00  0.00000000000E+00 -0.77383749459E+03  0.77383749460E+03  0.50400001928E-02 0.  1.
    10030    2    1    2    0    0  0.00000000000E+00  0.00000000000E+00  0.70325700649E+03  0.22509319957E+04  0.21382526586E+04 0.  0.
        5    1    3    3  502    0 -0.66410871719E+03  0.79292151811E+03  0.63652667677E+03  0.12144765219E+04  0.46999998093E+01 0. -1.
       -5    1    3    3    0  502  0.66410871719E+03 -0.79292151811E+03  0.66730329720E+02  0.10364554737E+04  0.46999998093E+01 0.  1.
</event>
<event>
 5   0  0.1918901E-05  0.2150504E+04  0.7818609E-02  0.8539317E-01
        2   -1    0    0  501    0  0.00000000000E+00  0.00000000000E+00  0.25429039238E+04  0.25429039238E+04  0.25500000920E-02 0. -1.
       -2   -1    0    0    0  501  0.00000000000E+00  0.00000000000E+00 -0.45466385829E+03  0.45466385830E+03  0.25500000920E-02 0.  1.
    10030    2    1    2    0    0  0.00000000000E+00  0.00000000000E+00  0.20882400655E+04  0.29975677821E+04  0.21505036705E+04 0.  0.
        1    1    3    3  502    0 -0.84739126900E+03  0.53167562467E+03  0.15936306603E+04  0.18815976228E+04  0.50400001928E-02 0. -1.
       -1    1    3    3    0  502  0.84739126900E+03 -0.53167562467E+03  0.49460940517E+03  0.11159701593E+04  0.50400001928E-02 0.  1.
</event>
<event>
 5   0  0.8234888E-06  0.3035204E+04  0.7818609E-02  0.8233749E-01
        1   -1    0    0  501    0  0.00000000000E+00  0.00000000000E+00  0.14160080258E+04  0.14160080258E+04  0.50400001928E-02 0. -1.
       -1   -1    0    0    0  501  0.00000000000E+00  0.00000000000E+00 -0.16264852982E+04  0.16264852982E+04  0.50400001928E-02 0.  1.
    10030    2    1    2    0    0  0.00000000000E+00  0.00000000000E+00 -0.21047727238E+03  0.30424933240E+04  0.30352042673E+04 0.  0.
        3    1    3    3  502    0 -0.70643496840E+03 -0.71015982114E+03 -0.12480374125E+04  0.16003045739E+04  0.10100000352E+00 0.  1.
       -3    1    3    3    0  502  0.70643496840E+03  0.71015982114E+03  0.10375601401E+04  0.14421887500E+04  0.10100000352E+00 0. -1.
</event>
<event>
 5   0  0.1976233E-05  0.2996767E+04  0.7818609E-02  0.8244655E-01
        2   -1    0    0  501    0  0.00000000000E+00  0.00000000000E+00  0.16275535008E+04  0.16275535009E+04  0.25500000920E-02 0.  1.
       -2   -1    0    0    0  501  0.00000000000E+00  0.00000000000E+00 -0.13794654409E+04  0.13794654409E+04  0.25500000920E-02 0. -1.
    10030    2    1    2    0    0  0.00000000000E+00  0.00000000000E+00  0.24808805998E+03  0.30070189417E+04  0.29967674635E+04 0.  0.
        2    1    3    3  502    0  0.55871014747E+03 -0.11117472927E+04 -0.71368602905E+03  0.14343942344E+04  0.25500000920E-02 0. -1.
       -2    1    3    3    0  502 -0.55871014747E+03  0.11117472927E+04  0.96177408903E+03  0.15726247073E+04  0.25500000920E-02 0.  1.
</event>
<event>
 5   0  0.1976233E-05  0.2861597E+04  0.7818609E-02  0.8284396E-01
        2   -1    0    0  501    0  0.00000000000E+00  0.00000000000E+00  0.15145596279E+04  0.15145596279E+04  0.25500000920E-02 0. -1.
       -2   -1    0    0    0  501  0.00000000000E+00  0.00000000000E+00 -0.13516694638E+04  0.13516694638E+04  0.25500000920E-02 0.  1.
    10030    2    1    2    0    0  0.00000000000E+00  0.00000000000E+00  0.16289016414E+03  0.28662290917E+04  0.28615967572E+04 0.  0.
        2    1    3    3  502    0 -0.38496055924E+03 -0.85229141717E+03 -0.10031691992E+04  0.13714750214E+04  0.25500000920E-02 0.  1.
       -2    1    3    3    0  502  0.38496055924E+03  0.85229141717E+03  0.11660593634E+04  0.14947540704E+04  0.25500000920E-02 0. -1.
</event>
<event>
 5   0  0.1829810E-05  0.2837159E+04  0.7818609E-02  0.8291824E-01
       -2   -1    0    0    0  501  0.00000000000E+00  0.00000000000E+00  0.14625460481E+04  0.14625460481E+04  0.25500000920E-02 0. -1.
        2   -1    0    0  501    0  0.00000000000E+00  0.00000000000E+00 -0.13759349055E+04  0.13759349055E+04  0.25500000920E-02 0.  1.
    10030    2    1    2    0    0  0.00000000000E+00  0.00000000000E+00  0.86611142560E+02  0.28384809536E+04  0.28371592542E+04 0.  0.
        4    1    3    3  502    0  0.27709410021E+03  0.22094441970E+03 -0.13309314142E+04  0.13773081061E+04  0.12699999809E+01 0.  1.
       -4    1    3    3    0  502 -0.27709410021E+03 -0.22094441970E+03  0.14175425568E+04  0.14611728475E+04  0.12699999809E+01 0. -1.
</event>
<event>
 5   0  0.1937947E-05  0.2266002E+04  0.7818609E-02  0.8491448E-01
        2   -1    0    0  501    0  0.00000000000E+00  0.00000000000E+00  0.66580171637E+03  0.66580171638E+03  0.25500000920E-02 0.  1.
       -2   -1    0    0    0  501  0.00000000000E+00  0.00000000000E+00 -0.19280388569E+04  0.19280388569E+04  0.25500000920E-02 0. -1.
    10030    2    1    2    0    0  0.00000000000E+00  0.00000000000E+00 -0.12622371405E+04  0.25938405733E+04  0.22660022773E+04 0.  0.
        3    1    3    3  502    0 -0.40020194332E+03  0.15223296073E+02 -0.18443131847E+04  0.18872955460E+04  0.10100000352E+00 0. -1.
       -3    1    3    3    0  502  0.40020194332E+03 -0.15223296073E+02  0.58207604422E+03  0.70654502732E+03  0.10100000352E+00 0.  1.
</event>
<event>
 5   0  0.1918901E-05  0.2975165E+04  0.7818609E-02  0.8250858E-01
       -2   -1    0    0    0  501  0.00000000000E+00  0.00000000000E+00  0.16723537383E+04  0.16723537383E+04  0.25500000920E-02 0.  1.
        2   -1    0    0  501    0  0.00000000000E+00  0.00000000000E+00 -0.13232259984E+04  0.13232259984E+04  0.25500000920E-02 0. -1.
    10030    2    1    2    0    0  0.00000000000E+00  0.00000000000E+00  0.34912773993E+03  0.29955797368E+04  0.29751651686E+04 0.  0.
        1    1    3    3  502    0  0.81994360147E+03  0.70620129111E+03 -0.85316235619E+03  0.13780108052E+04  0.50400001928E-02 0. -1.
       -1    1    3    3    0  502 -0.81994360147E+03 -0.70620129111E+03  0.12022900961E+04  0.16175689316E+04  0.50400001928E-02 0.  1.
</event>
<event>
 5   0  0.1960961E-05  0.2894371E+04  0.7818609E-02  0.8274554E-01
        2   -1    0    0  501    0  0.00000000000E+00  0.00000000000E+00  0.14792784903E+04  0.14792784903E+04  0.25500000920E-02 0.  1.
       -2   -1    0    0    0  501  0.00000000000E+00  0.00000000000E+00 -0.14157890410E+04  0.14157890410E+04  0.25500000920E-02 0. -1.
    10030    2    1    2    0    0  0.00000000000E+00  0.00000000000E+00  0.63489449296E+02  0.28950675314E+04  0.28943712791E+04 0.  0.
        5    1    3    3  502    0 -0.37675896222E+03  0.67677673676E+03  0.12544749272E+04  0.14743485002E+04  0.46999998093E+01 0.  1.
       -5    1    3    3    0  502  0.37675896222E+03 -0.67677673676E+03 -0.11909854779E+04  0.14207190312E+04  0.46999998093E+01 0. -1.
</event>
<event>
 5   0  0.7305460E-06  0.1878651E+04  0.7818609E-02  0.8665557E-01
        1   -1    0    0  501    0  0.00000000000E+00  0.00000000000E+00  0.25517951384E+04  0.25517951384E+04  0.50400001928E-02 0. -1.
       -1   -1    0    0    0  501  0.00000000000E+00  0.00000000000E+00 -0.34576932698E+03  0.34576932702E+03  0.50400001928E-02 0.  1.
    10030    2    1    2    0    0  0.00000000000E+00  0.00000000000E+00  0.22060258115E+04  0.28975644655E+04  0.18786510987E+04 0.  0.
        4    1    3    3  502    0 -0.65422166327E+03  0.52171776421E+03  0.17612528528E+04  0.19499252895E+04  0.12699999809E+01 0. -1.
       -4    1    3    3    0  502  0.65422166327E+03 -0.52171776421E+03  0.44477295863E+03  0.94763917596E+03  0.12699999809E+01 0.  1.
</event>
<event>
 5   0  0.7971153E-06  0.2886046E+04  0.7818609E-02  0.8277041E-01
        1   -1    0    0  501    0  0.00000000000E+00  0.00000000000E+00  0.19330141191E+04  0.19330141191E+04  0.50400001928E-02 0.  1.
       -1   -1    0    0    0  501  0.00000000000E+00  0.00000000000E+00 -0.10772371964E+04  0.10772371964E+04  0.50400001928E-02 0. -1.
    10030    2    1    2    0    0  0.00000000000E+00  0.00000000000E+00  0.85577692265E+03  0.30102513155E+04  0.28860455370E+04 0.  0.
        5    1    3    3  502    0 -0.21025805829E+03  0.22991843396E+03  0.18975051687E+04  0.19229193672E+04  0.46999998093E+01 0.  1.
       -5    1    3    3    0  502  0.21025805829E+03 -0.22991843396E+03 -0.10417282461E+04  0.10873319484E+04  0.46999998093E+01 0. -1.
</event>
<event>
 5   0  0.1829810E-05  0.2850489E+04  0.7818609E-02  0.8287763E-01
       -2   -1    0    0    0  501  0.00000000000E+00  0.00000000000E+00  0.95791689231E+03  0.95791689231E+03  0.25500000920E-02 0.  1.
        2   -1    0    0  501    0  0.00000000000E+00  0.00000000000E+00 -0.21205616848E+04  0.21205616848E+04  0.25500000920E-02 0. -1.
    10030    2    1    2    0    0  0.00000000000E+00  0.00000000000E+00 -0.11626447925E+04  0.30784785771E+04  0.28504889819E+04 0.  0.
        4    1    3    3  502    0 -0.18500025304E+03  0.42578698686E+03  0.87397196302E+03  0.98962025891E+03  0.12699999809E+01 0.  1.
       -4    1    3    3    0  502  0.18500025304E+03 -0.42578698686E+03 -0.20366167555E+04  0.20888583182E+04  0.12699999809E+01 0. -1.
</event>
<event>
 5   0  0.1976233E-05  0.2080178E+04  0.7818609E-02  0.8570026E-01
       -2   -1    0    0    0  501  0.00000000000E+00  0.00000000000E+00  0.14835763056E+04  0.14835763056E+04  0.25500000920E-02 0. -1.
        2   -1    0    0  501    0  0.00000000000E+00  0.00000000000E+00 -0.72917381290E+03  0.72917381291E+03  0.25500000920E-02 0.  1.
    10030    2    1    2    0    0  0.00000000000E+00  0.00000000000E+00  0.75440249267E+03  0.22127501185E+04  0.20801778688E+04 0.  0.
        2    1    3    3  502    0 -0.56062748899E+03  0.81741684493E+03  0.41979875751E+02  0.99208658380E+03  0.25500000920E-02 0.  1.
       -2    1    3    3    0  502  0.56062748899E+03 -0.81741684493E+03  0.71242261691E+03  0.12206635347E+04  0.25500000920E-02 0. -1.
</event>
<event>
 5   0  0.7971153E-06  0.2890942E+04  0.7818609E-02  0.8275578E-01
        1   -1    0    0  501    0  0.00000000000E+00  0.00000000000E+00  0.18683165094E+04  0.18683165094E+04  0.50400001928E-02 0.  1.
       -1   -1    0    0    0  501  0.00000000000E+00  0.00000000000E+00 -0.11183258697E+04  0.11183258697E+04  0.50400001928E-02 0. -1.
    10030    2    1    2    0    0  0.00000000000E+00  0.00000000000E+00  0.74999063975E+03  0.29866423791E+04  0.28909421891E+04 0.  0.
        5    1    3    3  502    0  0.10834729952E+04  0.95192275220E+03  0.47459173222E+03  0.15183313406E+04  0.46999998093E+01 0.  1.
       -5    1    3    3    0  502 -0.10834729952E+04 -0.95192275220E+03  0.27539890753E+03  0.14683110385E+04  0.46999998093E+01 0. -1.
</event>
<event>
 5   0  0.8055928E-06  0.2911557E+04  0.7818609E-02  0.8269447E-01
       -1   -1    0    0    0  501  0.00000000000E+00  0.00000000000E+00  0.81197053403E+03  0.81197053404E+03  0.50400001928E-02 0. -1.
        1   -1    0    0  501    0  0.00000000000E+00  0.00000000000E+00 -0.26100591858E+04  0.26100591858E+04  0.50400001928E-02 0.  1.
    10030    2    1    2    0    0  0.00000000000E+00  0.00000000000E+00 -0.17980886518E+04  0.34220297199E+04  0.29115570755E+04 0.  0.
        2    1    3    3  502    0  0.12703419544E+04 -0.24834751327E+03 -0.16820675003E+04  0.21224505280E+04  0.25500000920E-02 0.  1.
       -2    1    3    3    0  502 -0.12703419544E+04  0.24834751327E+03 -0.11602115152E+03  0.12995791919E+04  0.25500000920E-02 0. -1.
</event>
<event>
 5   0  0.1960961E-05  0.2938149E+04  0.7818609E-02  0.8261617E-01
       -2   -1    0    0    0  501  0.00000000000E+00  0.00000000000E+00  0.11400220098E+04  0.11400220098E+04  0.25500000920E-02 0.  1.
        2   -1    0    0  501    0  0.00000000000E+00  0.00000000000E+00 -0.18931041756E+04  0.18931041756E+04  0.25500000920E-02 0. -1.
    10030    2    1    2    0    0  0.00000000000E+00  0.00000000000E+00 -0.75308216574E+03  0.30331261854E+04  0.29381493679E+04 0.  0.
        5    1    3    3  502    0  0.53453824260E+03  0.67299392373E+02 -0.17874311827E+04  0.18668670719E+04  0.46999998093E+01 0. -1.
       -5    1    3    3    0  502 -0.53453824260E+03 -0.67299392373E+02  0.10343490170E+04  0.11662591136E+04  0.46999998093E+01 0.  1.
</event>
<event>
 5   0  0.8055928E-06  0.2893469E+04  0.7818609E-02  0.8274823E-01
       -1   -1    0    0    0  501  0.00000000000E+00  0.00000000000E+00  0.18789944261E+04  0.18789944261E+04  0.50400001928E-02 0. -1.
        1   -1    0    0  501    0  0.00000000000E+00  0.00000000000E+00 -0.11139153072E+04  0.11139153072E+04  0.50400001928E-02 0.  1.
    10030    2    1    2    0    0  0.00000000000E+00  0.00000000000E+00  0.76507911891E+03  0.29929097334E+04  0.28934689585E+04 0.  0.
        2    1    3    3  502    0 -0.11507529758E+03 -0.91649062494E+03  0.15342894628E+04  0.17908773117E+04  0.25500000920E-02 0. -1.
       -2    1    3    3    0  502  0.11507529758E+03  0.91649062494E+03 -0.76921034390E+03  0.12020324217E+04  0.25500000920E-02 0.  1.
</event>
<event>
 5   0  0.8234888E-06  0.2817617E+04  0.7818609E-02  0.8297820E-01
        1   -1    0    0  501    0  0.00000000000E+00  0.00000000000E+00  0.17682990844E+04  0.17682990844E+04  0.50400001928E-02 0. -1.
       -1   -1    0    0    0  501  0.00000000000E+00  0.00000000000E+00 -0.11224017994E+04  0.11224017994E+04  0.50400001928E-02 0.  1.
    10030    2    1    2    0    0  0.00000000000E+00  0.00000000000E+00  0.64589728503E+03  0.28907008838E+04  0.28176174859E+04 0.  0.
        3    1    3    3  502    0 -0.64197104471E+03 -0.89903723729E+03 -0.57399774652E+03  0.12449370263E+04  0.10100000352E+00 0.  1.
       -3    1    3    3    0  502  0.64197104471E+03  0.89903723729E+03  0.12198950316E+04  0.16457638574E+04  0.10100000352E+00 0. -1.
</event>
<event>
 5   0  0.8122088E-06  0.1713981E+04  0.7818609E-02  0.8753430E-01
        1   -1    0    0  501    0  0.00000000000E+00  0.00000000000E+00  0.12302321433E+04  0.12302321433E+04  0.50400001928E-02 0.  1.
       -1   -1    0    0    0  501  0.00000000000E+00  0.00000000000E+00 -0.59698718633E+03  0.59698718635E+03  0.50400001928E-02 0. -1.
    10030    2    1    2    0    0  0.00000000000E+00  0.00000000000E+00  0.63324495701E+03  0.18272193297E+04  0.17139811269E+04 0.  0.
        1    1    3    3  502    0 -0.38652664567E+03 -0.56756149515E+03  0.86323953878E+03  0.11030464179E+04  0.50400001928E-02 0.  1.
       -1    1    3    3    0  502  0.38652664567E+03  0.56756149515E+03 -0.22999458177E+03  0.72417291185E+03  0.50400001928E-02 0. -1.
</event>
<event>
 5   0  0.1918901E-05  0.2121689E+04  0.7818609E-02  0.8551749E-01
        2   -1    0    0  501    0  0.00000000000E+00  0.00000000000E+00  0.80949985665E+03  0.80949985665E+03  0.25500000920E-02 0. -1.
       -2   -1    0    0    0  501  0.00000000000E+00  0.00000000000E+00 -0.13902297738E+04  0.13902297738E+04  0.25500000920E-02 0.  1.
    10030    2    1    2    0    0  0.00000000000E+00  0.00000000000E+00 -0.58072991715E+03  0.21997296305E+04  0.21216887638E+04 0.  0.
        1    1    3    3  502    0 -0.64497966990E+03 -0.22850086035E+03 -0.11308492369E+04  0.13217531594E+04  0.50400001928E-02 0.  1.
       -1    1    3    3    0  502  0.64497966990E+03  0.22850086035E+03  0.55011931974E+03  0.87797647106E+03  0.50400001928E-02 0. -1.
</event>
<event>
 5   0  0.1937947E-05  0.2198073E+04  0.7818609E-02  0.8519231E-01
        2   -1    0    0  501    0  0.00000000000E+00  0.00000000000E+00  0.16677989690E+04  0.16677989690E+04  0.25500000920E-02 0. -1.
       -2   -1    0    0    0  501  0.00000000000E+00  0.00000000000E+00 -0.72423647648E+03  0.72423647648E+03  0.25500000920E-02 0.  1.
    10030    2    1    2    0    0  0.00000000000E+00  0.00000000000E+00  0.94356249249E+03  0.23920354455E+04  0.21980726546E+04 0.  0.
        3    1    3    3  502    0  0.69180610597E+03  0.99107181038E+02 -0.45127841977E+03  0.83190753329E+03  0.10100000352E+00 0.  1.
       -3    1    3    3    0  502 -0.69180610597E+03 -0.99107181038E+02  0.13948409123E+04  0.15601279122E+04  0.10100000352E+00 0. -1.
</event>
<event>
 5   0  0.1960961E-05  0.2846732E+04  0.7818609E-02  0.8288905E-01
       -2   -1    0    0    0  501  0.00000000000E+00  0.00000000000E+00  0.13725364825E+04  0.13725364825E+04  0.25500000920E-02 0.  1.
        2   -1    0    0  501    0  0.00000000000E+00  0.00000000000E+00 -0.14760782522E+04  0.14760782522E+04  0.25500000920E-02 0. -1.
    10030    2    1    2    0    0  0.00000000000E+00  0.00000000000E+00 -0.10354176967E+03  0.28486147346E+04  0.28467323387E+04 0.  0.
        5    1    3    3  502    0  0.89819528674E+03  0.18129890326E+03 -0.11416766264E+04  0.14639233841E+04  0.46999998093E+01 0. -1.
       -5    1    3    3    0  502 -0.89819528674E+03 -0.18129890326E+03  0.10381348567E+04  0.13846913505E+04  0.46999998093E+01 0.  1.
</event>
<event>
 5   0  0.1829810E-05  0.1527879E+04  0.7818609E-02  0.8866122E-01
        2   -1    0    0  501    0  0.00000000000E+00  0.00000000000E+00  0.17918604932E+04  0.17918604932E+04  0.25500000920E-02 0.  1.
       -2   -1    0    0    0  501  0.00000000000E+00  0.00000000000E+00 -0.32569698166E+03  0.32569698167E+03  0.25500000920E-02 0. -1.
    10030    2    1    2    0    0  0.00000000000E+00  0.00000000000E+00  0.14661635115E+04  0.21175574748E+04  0.15278789928E+04 0.  0.
        4    1    3    3  502    0  0.39116482738E+03  0.12331369682E+03  0.16263297396E+04  0.16772496013E+04  0.12699999809E+01 0.  1.
       -4    1    3    3    0  502 -0.39116482738E+03 -0.12331369682E+03 -0.16016622812E+03  0.44030787358E+03  0.12699999809E+01 0. -1.
</event>
<event>
 5   0  0.1918901E-05  0.2766943E+04  0.7818609E-02  0.8313605E-01
        2   -1    0    0  501    0  0.00000000000E+00  0.00000000000E+00  0.21721327817E+04  0.21721327817E+04  0.25500000920E-02 0.  1.
       -2   -1    0    0    0  501  0.00000000000E+00  0.00000000000E+00 -0.88115868906E+03  0.88115868906E+03  0.25500000920E-02 0. -1.
    10030    2    1    2    0    0  0.00000000000E+00  0.00000000000E+00  0.12909740926E+04  0.30532914708E+04  0.27669432046E+04 0.  0.
        1    1    3    3  502    0 -0.10161046017E+04 -0.62463818339E+03  0.14189944867E+04  0.18536954375E+04  0.50400001928E-02 0.  1.
       -1    1    3    3    0  502  0.10161046017E+04  0.62463818339E+03 -0.12802039409E+03  0.11995960332E+04  0.50400001928E-02 0. -1.
</event>
<event>
 5   0  0.8055928E-06  0.3135864E+04  0.7818609E-02  0.8205964E-01
        1   -1    0    0  501    0  0.00000000000E+00  0.00000000000E+00  0.17722424855E+04  0.17722424855E+04  0.50400001928E-02 0. -1.
       -1   -1    0    0    0  501  0.00000000000E+00  0.00000000000E+00 -0.13871752686E+04  0.13871752687E+04  0.50400001928E-02 0.  1.
    10030    2    1    2    0    0  0.00000000000E+00  0.00000000000E+00  0.38506721682E+03  0.31594177541E+04  0.31358641207E+04 0.  0.
        2    1    3    3  502    0  0.13196857556E+04 -0.22517918516E+03  0.10148347160E+04  0.16799302544E+04  0.25500000920E-02 0. -1.
       -2    1    3    3    0  502 -0.13196857556E+04  0.22517918516E+03 -0.62976749916E+03  0.14794874997E+04  0.25500000920E-02 0.  1.
</event>
<event>
 5   0  0.8234888E-06  0.2925536E+04  0.7818609E-02  0.8265320E-01
        1   -1    0    0  501    0  0.00000000000E+00  0.00000000000E+00  0.20031394630E+04  0.20031394630E+04  0.50400001928E-02 0.  1.
       -1   -1    0    0    0  501  0.00000000000E+00  0.00000000000E+00 -0.10681680277E+04  0.10681680277E+04  0.50400001928E-02 0. -1.
    10030    2    1    2    0    0  0.00000000000E+00  0.00000000000E+00  0.93497143536E+03  0.30713074907E+04  0.29255355266E+04 0.  0.
        3    1    3    3  502    0 -0.12332515694E+04  0.35281346587E+03 -0.27061297027E+03  0.13109607793E+04  0.10100000352E+00 0. -1.
       -3    1    3    3    0  502  0.12332515694E+04 -0.35281346587E+03  0.12055844056E+04  0.17603467114E+04  0.10100000352E+00 0.  1.
</event>
<event>
 5   0  0.1937947E-05  0.2976841E+04  0.7818609E-02  0.8250375E-01
        2   -1    0    0  501    0  0.00000000000E+00  0.00000000000E+00  0.16503749841E+04  0.16503749841E+04  0.25500000920E-02 0.  1.
       -2   -1    0    0    0  501  0.00000000000E+00  0.00000000000E+00 -0.13423590481E+04  0.13423590481E+04  0.25500000920E-02 0. -1.
    10030    2    1    2    0    0  0.00000000000E+00  0.00000000000E+00  0.30801593602E+03  0.29927340322E+04  0.29768411397E+04 0.  0.
        3    1    3    3  502    0  0.73985802565E+03 -0.11669056361E+04  0.71044019663E+03  0.15536357182E+04  0.10100000352E+00 0. -1.
       -3    1    3    3    0  502 -0.73985802565E+03  0.11669056361E+04 -0.40242426061E+03  0.14390983140E+04  0.10100000352E+00 0.  1.
</event>
<event>
 5   0  0.1937947E-05  0.2705752E+04  0.7818609E-02  0.8333141E-01
       -2   -1    0    0    0  501  0.00000000000E+00  0.00000000000E+00  0.23295417324E+04  0.23295417324E+04  0.25500000920E-02 0. -1.
        2   -1    0    0  501    0  0.00000000000E+00  0.00000000000E+00 -0.78567961003E+03  0.78567961003E+03  0.25500000920E-02 0.  1.
    10030    2    1    2    0    0  0.00000000000E+00  0.00000000000E+00  0.15438621224E+04  0.31152213424E+04  0.27057519767E+04 0.  0.
        3    1    3    3  502    0  0.26343151399E+03 -0.39468057854E+02  0.22990514946E+04  0.23144311775E+04  0.10100000352E+00 0. -1.
       -3    1    3    3    0  502 -0.26343151399E+03  0.39468057854E+02 -0.75518937224E+03  0.80079016496E+03  0.10100000352E+00 0.  1.
</event>
<event>
 5   0  0.8055928E-06  0.2700689E+04  0.7818609E-02  0.8334782E-01
        1   -1    0    0  501    0  0.00000000000E+00  0.00000000000E+00  0.20306941846E+04  0.20306941846E+04  0.50400001928E-02 0.  1.
       -1   -1    0    0    0  501  0.00000000000E+00  0.00000000000E+00 -0.89793419551E+03  0.89793419553E+03  0.50400001928E-02 0. -1.
    10030    2    1    2    0    0  0.00000000000E+00  0.00000000000E+00  0.11327599890E+04  0.29286283801E+04  0.27006886151E+04 0.  0.
        2    1    3    3  502    0 -0.71579850860E+03 -0.67945595628E+03  0.15657961227E+04  0.18508769271E+04  0.25500000920E-02 0.  1.
       -2    1    3    3    0  502  0.71579850860E+03  0.67945595628E+03 -0.43303613363E+03  0.10777514530E+04  0.25500000920E-02 0. -1.
</event>
<event>
 5   0  0.8122088E-06  0.2752884E+04  0.7818609E-02  0.8318047E-01
        1   -1    0    0  501    0  0.00000000000E+00  0.00000000000E+00  0.21784281813E+04  0.21784281813E+04  0.50400001928E-02 0.  1.
       -1   -1    0    0    0  501  0.00000000000E+00  0.00000000000E+00 -0.86970635488E+03  0.86970635489E+03  0.50400001928E-02 0. -1.
    10030    2    1    2    0    0  0.00000000000E+00  0.00000000000E+00  0.13087218265E+04  0.30481345362E+04  0.27528841843E+04 0.  0.
        1    1    3    3  502    0  0.71885159811E+03  0.19612006946E+03  0.19358014000E+04  0.20742559538E+04  0.50400001928E-02 0.  1.
       -1    1    3    3    0  502 -0.71885159811E+03 -0.19612006946E+03 -0.62707957352E+03  0.97387858242E+03  0.50400001928E-02 0. -1.
</event>
<event>
 5   0  0.1960961E-05  0.1777723E+04  0.7818609E-02  0.8718237E-01
       -2   -1    0    0    0  501  0.00000000000E+00  0.00000000000E+00  0.64772784568E+03  0.64772784568E+03  0.25500000920E-02 0.  1.
        2   -1    0    0  501    0  0.00000000000E+00  0.00000000000E+00 -0.12197637627E+04  0.12197637627E+04  0.25500000920E-02 0. -1.
    10030    2    1    2    0    0  0.00000000000E+00  0.00000000000E+00 -0.57203591701E+03  0.18674916084E+04  0.17777232116E+04 0.  0.
        5    1    3    3  502    0 -0.43855850917E+03 -0.66674233493E+03 -0.69715535558E+03  0.10596823047E+04  0.46999998093E+01 0. -1.
       -5    1    3    3    0  502  0.43855850917E+03  0.66674233493E+03  0.12511943857E+03  0.80780930364E+03  0.46999998093E+01 0.  1.
</event>
<event>
 5   0  0.7305460E-06  0.2292039E+04  0.7818609E-02  0.8481067E-01
       -1   -1    0    0    0  501  0.00000000000E+00  0.00000000000E+00  0.66051722272E+03  0.66051722273E+03  0.50400001928E-02 0.  1.
        1   -1    0    0  501    0  0.00000000000E+00  0.00000000000E+00 -0.19883816985E+04  0.19883816985E+04  0.50400001928E-02 0. -1.
    10030    2    1    2    0    0  0.00000000000E+00  0.00000000000E+00 -0.13278644758E+04  0.26488989213E+04  0.22920387058E+04 0.  0.
        4    1    3    3  502    0  0.32271940820E+02 -0.64521014495E+02  0.65788961190E+03  0.66183441571E+03  0.12699999809E+01 0.  1.
       -4    1    3    3    0  502 -0.32271940820E+02  0.64521014495E+02 -0.19857540877E+04  0.19870645056E+04  0.12699999809E+01 0. -1.
</event>
<event>
 5   0  0.8122088E-06  0.2026135E+04  0.7818609E-02  0.8594498E-01
       -1   -1    0    0    0  501  0.00000000000E+00  0.00000000000E+00  0.82488970188E+03  0.82488970189E+03  0.50400001928E-02 0.  1.
        1   -1    0    0  501    0  0.00000000000E+00  0.00000000000E+00 -0.12441728380E+04  0.12441728380E+04  0.50400001928E-02 0. -1.
    10030    2    1    2    0    0  0.00000000000E+00  0.00000000000E+00 -0.41928313611E+03  0.20690625399E+04  0.20261346070E+04 0.  0.
        1    1    3    3  502    0  0.89894755442E+02  0.48594059424E+03  0.69345166589E+03  0.85152483296E+03  0.50400001928E-02 0.  1.
       -1    1    3    3    0  502 -0.89894755442E+02 -0.48594059424E+03 -0.11127348020E+04  0.12175377069E+04  0.50400001928E-02 0. -1.
</event>
<event>
 5   0  0.1829810E-05  0.2907734E+04  0.7818609E-02  0.8270580E-01
       -2   -1    0    0    0  501  0.00000000000E+00  0.00000000000E+00  0.10350144421E+04  0.10350144421E+04  0.25500000920E-02 0. -1.
        2   -1    0    0  501    0  0.00000000000E+00  0.00000000000E+00 -0.20422225138E+04  0.20422225138E+04  0.25500000920E-02 0.  1.
    10030    2    1    2    0    0  0.00000000000E+00  0.00000000000E+00 -0.10072080717E+04  0.30772369559E+04  0.29077343728E+04 0.  0.
        4    1    3    3  502    0  0.11116045585E+04 -0.32637005691E+03 -0.14331848295E+04  0.18428788557E+04  0.12699999809E+01 0.  1.
       -4    1    3    3    0  502 -0.11116045585E+04  0.32637005691E+03  0.42597675774E+03  0.12343581002E+04  0.12699999809E+01 0. -1.
</event>
<event>
 5   0  0.8234888E-06  0.2923663E+04  0.7818609E-02  0.8265872E-01
       -1   -1    0    0    0  501  0.00000000000E+00  0.00000000000E+00  0.98044535314E+03  0.98044535315E+03  0.50400001928E-02 0.  1.
        1   -1    0    0  501    0  0.00000000000E+00  0.00000000000E+00 -0.21795717051E+04  0.21795717051E+04  0.50400001928E-02 0. -1.
    10030    2    1    2    0    0  0.00000000000E+00  0.00000000000E+00 -0.11991263519E+04  0.31600170582E+04  0.29236627371E+04 0.  0.
        3    1    3    3  502    0  0.11265184743E+04 -0.84279131593E+03 -0.10286585698E+04  0.17428366357E+04  0.10100000352E+00 0. -1.
       -3    1    3    3    0  502 -0.11265184743E+04  0.84279131593E+03 -0.17046778213E+03  0.14171804226E+04  0.10100000352E+00 0.  1.
</event>
<event>
 5   0  0.8122088E-06  0.2934657E+04  0.7818609E-02  0.8262640E-01
        1   -1    0    0  501    0  0.00000000000E+00  0.00000000000E+00  0.16402944685E+04  0.16402944685E+04  0.50400001928E-02 0. -1.
       -1   -1    0    0    0  501  0.00000000000E+00  0.00000000000E+00 -0.13126018971E+04  0.13126018971E+04  0.50400001928E-02 0.  1.
    10030    2    1    2    0    0  0.00000000000E+00  0.00000000000E+00  0.32769257147E+03  0.29528963656E+04  0.29346574800E+04 0.  0.
        1    1    3    3  502    0  0.76173149817E+02 -0.14392795382E+04  0.44073956517E+03  0.15071759360E+04  0.50400001928E-02 0. -1.
       -1    1    3    3    0  502 -0.76173149817E+02  0.14392795382E+04 -0.11304699371E+03  0.14457204296E+04  0.50400001928E-02 0.  1.
</event>
<event>
 5   0  0.8122088E-06  0.1908661E+04  0.7818609E-02  0.8650557E-01
        1   -1    0    0  501    0  0.00000000000E+00  0.00000000000E+00  0.16757822769E+04  0.16757822769E+04  0.50400001928E-02 0. -1.
       -1   -1    0    0    0  501  0.00000000000E+00  0.00000000000E+00 -0.54347538791E+03  0.54347538793E+03  0.50400001928E-02 0.  1.
    10030    2    1    2    0    0  0.00000000000E+00  0.00000000000E+00  0.11323068889E+04  0.22192576648E+04  0.19086607064E+04 0.  0.
        1    1    3    3  502    0 -0.58238796430E+03  0.69316671176E+03  0.21522727383E+03  0.93057971753E+03  0.50400001928E-02 0. -1.
       -1    1    3    3    0  502  0.58238796430E+03 -0.69316671176E+03  0.91707961512E+03  0.12886779473E+04  0.50400001928E-02 0.  1.
</event>
<event>
 5   0  0.7971153E-06  0.2300069E+04  0.7818609E-02  0.8477894E-01
        1   -1    0    0  501    0  0.00000000000E+00  0.00000000000E+00  0.14728180990E+04  0.14728180990E+04  0.50400001928E-02 0. -1.
       -1   -1    0    0    0  501  0.00000000000E+00  0.00000000000E+00 -0.89799260904E+03  0.89799260906E+03  0.50400001928E-02 0.  1.
    10030    2    1    2    0    0  0.00000000000E+00  0.00000000000E+00  0.57482548999E+03  0.23708107081E+04  0.23000693619E+04 0.  0.
        5    1    3    3  502    0  0.74180171552E+03 -0.85716991129E+03  0.87680932307E+02  0.11369784861E+04  0.46999998093E+01 0.  1.
       -5    1    3    3    0  502 -0.74180171552E+03  0.85716991129E+03  0.48714455768E+03  0.12338322220E+04  0.46999998093E+01 0. -1.
</event>
<event>
 5   0  0.7971153E-06  0.2752838E+04  0.7818609E-02  0.8318062E-01
        1   -1    0    0  501    0  0.00000000000E+00  0.00000000000E+00  0.96512672199E+03  0.96512672200E+03  0.50400001928E-02 0. -1.
       -1   -1    0    0    0  501  0.00000000000E+00  0.00000000000E+00 -0.19629851836E+04  0.19629851837E+04  0.50400001928E-02 0.  1.
    10030    2    1    2    0    0  0.00000000000E+00  0.00000000000E+00 -0.99785846166E+03  0.29281119057E+04  0.27528381395E+04 0.  0.
        5    1    3    3  502    0  0.26921503417E+03  0.74523627545E+03 -0.16960443388E+04  0.18720155796E+04  0.46999998093E+01 0.  1.
       -5    1    3    3    0  502 -0.26921503417E+03 -0.74523627545E+03  0.69818587718E+03  0.10560963261E+04  0.46999998093E+01 0. -1.
</event>
<event>
 5   0  0.8055928E-06  0.2795425E+04  0.7818609E-02  0.8304690E-01
       -1   -1    0    0    0  501  0.00000000000E+00  0.00000000000E+00  0.11746997497E+04  0.11746997497E+04  0.50400001928E-02 0. -1.
        1   -1    0    0  501    0  0.00000000000E+00  0.00000000000E+00 -0.16630636659E+04  0.16630636660E+04  0.50400001928E-02 0.  1.
    10030    2    1    2    0    0  0.00000000000E+00  0.00000000000E+00 -0.48836391625E+03  0.28377634157E+04  0.27954251713E+04 0.  0.
        2    1    3    3  502    0 -0.14796067235E+03  0.12408228983E+04 -0.87981763200E+03  0.15282712099E+04  0.25500000920E-02 0. -1.
       -2    1    3    3    0  502  0.14796067235E+03 -0.12408228983E+04  0.39145371575E+03  0.13094922058E+04  0.25500000920E-02 0.  1.
</event>
<event>
 5   0  0.8055928E-06  0.1468930E+04  0.7818609E-02  0.8905381E-01
       -1   -1    0    0    0  501  0.00000000000E+00  0.00000000000E+00  0.53656883437E+03  0.53656883440E+03  0.50400001928E-02 0.  1.
        1   -1    0    0  501    0  0.00000000000E+00  0.00000000000E+00 -0.10053481894E+04  0.10053481894E+04  0.50400001928E-02 0. -1.
    10030    2    1    2    0    0  0.00000000000E+00  0.00000000000E+00 -0.46877935506E+03  0.15419170238E+04  0.14689295506E+04 0.  0.
        2    1    3    3  502    0  0.20849962463E+03 -0.39719557733E+03 -0.84483697685E+03  0.95654897292E+03  0.25500000920E-02 0. -1.
       -2    1    3    3    0  502 -0.20849962463E+03  0.39719557733E+03  0.37605762179E+03  0.58536805092E+03  0.25500000920E-02 0.  1.
</event>
<event>
 5   0  0.8055928E-06  0.2913861E+04  0.7818609E-02  0.8268765E-01
       -1   -1    0    0    0  501  0.00000000000E+00  0.00000000000E+00  0.82891963256E+03  0.82891963257E+03  0.50400001928E-02 0. -1.
        1   -1    0    0  501    0  0.00000000000E+00  0.00000000000E+00 -0.25607378003E+04  0.25607378003E+04  0.50400001928E-02 0.  1.
    10030    2    1    2    0    0  0.00000000000E+00  0.00000000000E+00 -0.17318181677E+04  0.33896574328E+04  0.29138605571E+04 0.  0.
        2    1    3    3  502    0 -0.50801777938E+03 -0.11371979086E+04 -0.17452071989E+04  0.21440730665E+04  0.25500000920E-02 0.  1.
       -2    1    3    3    0  502  0.50801777938E+03  0.11371979086E+04  0.13389031170E+02  0.12455843663E+04  0.25500000920E-02 0. -1.
</event>
<event>
 5   0  0.1937947E-05  0.2938790E+04  0.7818609E-02  0.8261429E-01
        2   -1    0    0  501    0  0.00000000000E+00  0.00000000000E+00  0.18353698574E+04  0.18353698574E+04  0.25500000920E-02 0.  1.
       -2   -1    0    0    0  501  0.00000000000E+00  0.00000000000E+00 -0.11763963189E+04  0.11763963189E+04  0.25500000920E-02 0. -1.
    10030    2    1    2    0    0  0.00000000000E+00  0.00000000000E+00  0.65897353851E+03  0.30117661762E+04  0.29387904614E+04 0.  0.
        3    1    3    3  502    0 -0.66959077722E+03 -0.13335777713E+02 -0.10108870454E+04  0.12126096984E+04  0.10100000352E+00 0. -1.
       -3    1    3    3    0  502  0.66959077722E+03  0.13335777713E+02  0.16698605839E+04  0.17991564778E+04  0.10100000352E+00 0.  1.
</event>
<event>
 5   0  0.8122088E-06  0.2970689E+04  0.7818609E-02  0.8252151E-01
        1   -1    0    0  501    0  0.00000000000E+00  0.00000000000E+00  0.89839060236E+03  0.89839060237E+03  0.50400001928E-02 0. -1.
       -1   -1    0    0    0  501  0.00000000000E+00  0.00000000000E+00 -0.24557782689E+04  0.24557782689E+04  0.50400001928E-02 0.  1.
    10030    2    1    2    0    0  0.00000000000E+00  0.00000000000E+00 -0.15573876666E+04  0.33541688713E+04  0.29706888887E+04 0.  0.
        1    1    3    3  502    0 -0.15129581824E+03  0.67681557444E+03  0.70436145320E+03  0.98848105859E+03  0.50400001928E-02 0. -1.
       -1    1    3    3    0  502  0.15129581824E+03 -0.67681557444E+03 -0.22617491198E+04  0.23656878127E+04  0.50400001928E-02 0.  1.
</event>
<event>
 5   0  0.6578125E-06  0.2782013E+04  0.7818609E-02  0.8308874E-01
        3   -1    0    0  501    0  0.00000000000E+00  0.00000000000E+00  0.11453720694E+04  0.11453720738E+04  0.10100000352E+00 0. -1.
       -3   -1    0    0    0  501  0.00000000000E+00  0.00000000000E+00 -0.16893196903E+04  0.16893196933E+04  0.10100000352E+00 0.  1.
    10030    2    1    2    0    0  0.00000000000E+00  0.00000000000E+00 -0.54394762095E+03  0.28346917672E+04  0.27820133717E+04 0.  0.
        5    1    3    3  502    0 -0.55311994534E+03 -0.16981271558E+03  0.10169288527E+04  0.11700189801E+04  0.46999998093E+01 0. -1.
       -5    1    3    3    0  502  0.55311994534E+03  0.16981271558E+03 -0.15608764736E+04  0.16646727871E+04  0.46999998093E+01 0.  1.
</event>
<event>
 5   0  0.1937947E-05  0.2786747E+04  0.7818609E-02  0.8307395E-01
        2   -1    0    0  501    0  0.00000000000E+00  0.00000000000E+00  0.91658723028E+03  0.91658723029E+03  0.25500000920E-02 0. -1.
       -2   -1    0    0    0  501  0.00000000000E+00  0.00000000000E+00 -0.21181716507E+04  0.21181716507E+04  0.25500000920E-02 0.  1.
    10030    2    1    2    0    0  0.00000000000E+00  0.00000000000E+00 -0.12015844204E+04  0.30347588810E+04  0.27867465522E+04 0.  0.
        3    1    3    3  502    0 -0.67920860258E+03 -0.12155111598E+04 -0.54423381707E+03  0.14949856733E+04  0.10100000352E+00 0.  1.
       -3    1    3    3    0  502  0.67920860258E+03  0.12155111598E+04 -0.65735060336E+03  0.15397732078E+04  0.10100000352E+00 0. -1.
</event>
<event>
 5   0  0.7305460E-06  0.2967605E+04  0.7818609E-02  0.8253042E-01
       -1   -1    0    0    0  501  0.00000000000E+00  0.00000000000E+00  0.18677707769E+04  0.18677707769E+04  0.50400001928E-02 0. -1.
        1   -1    0    0  501    0  0.00000000000E+00  0.00000000000E+00 -0.11787690091E+04  0.11787690091E+04  0.50400001928E-02 0.  1.
    10030    2    1    2    0    0  0.00000000000E+00  0.00000000000E+00  0.68900176783E+03  0.30465397861E+04  0.29676053026E+04 0.  0.
        4    1    3    3  502    0 -0.12695113400E+03 -0.75510998154E+03 -0.96027378054E+03  0.12281836268E+04  0.12699999809E+01 0.  1.
       -4    1    3    3    0  502  0.12695113400E+03  0.75510998154E+03  0.16492755484E+04  0.18183561593E+04  0.12699999809E+01 0. -1.
</event>
<event>
 5   0  0.1829810E-05  0.2847183E+04  0.7818609E-02  0.8288768E-01
       -2   -1    0    0    0  501  0.00000000000E+00  0.00000000000E+00  0.68504103743E+03  0.68504103744E+03  0.25500000920E-02 0. -1.
        2   -1    0    0  501    0  0.00000000000E+00  0.00000000000E+00 -0.29583820902E+04  0.29583820902E+04  0.25500000920E-02 0.  1.
    10030    2    1    2    0    0  0.00000000000E+00  0.00000000000E+00 -0.22733410528E+04  0.36434231276E+04  0.28471832651E+04 0.  0.
        4    1    3    3  502    0 -0.13319657024E+03  0.91688919225E+03  0.24641772036E+03  0.95872332974E+03  0.12699999809E+01 0. -1.
       -4    1    3    3    0  502  0.13319657024E+03 -0.91688919225E+03 -0.25197587731E+04  0.26846997979E+04  0.12699999809E+01 0.  1.
</event>
<event>
 5   0  0.1918901E-05  0.2920932E+04  0.7818609E-02  0.8266677E-01
       -2   -1    0    0    0  501  0.00000000000E+00  0.00000000000E+00  0.91525989728E+03  0.91525989729E+03  0.25500000920E-02 0. -1.
        2   -1    0    0  501    0  0.00000000000E+00  0.00000000000E+00 -0.23304425157E+04  0.23304425157E+04  0.25500000920E-02 0.  1.
    10030    2    1    2    0    0  0.00000000000E+00  0.00000000000E+00 -0.14151826184E+04  0.32457024130E+04  0.29209317538E+04 0.  0.
        1    1    3    3  502    0 -0.10564846829E+04 -0.62343987809E+03 -0.15882543663E+04  0.20068355934E+04  0.50400001928E-02 0.  1.
       -1    1    3    3    0  502  0.10564846829E+04  0.62343987809E+03  0.17307174792E+03  0.12388668196E+04  0.50400001928E-02 0. -1.
</event>
<event>
 5   0  0.8234888E-06  0.2932959E+04  0.7818609E-02  0.8263138E-01
        1   -1    0    0  501    0  0.00000000000E+00  0.00000000000E+00  0.20194767612E+04  0.20194767612E+04  0.50400001928E-02 0. -1.
       -1   -1    0    0    0  501  0.00000000000E+00  0.00000000000E+00 -0.10649107466E+04  0.10649107466E+04  0.50400001928E-02 0.  1.
    10030    2    1    2    0    0  0.00000000000E+00  0.00000000000E+00  0.95456601461E+03  0.30843875079E+04  0.29329592603E+04 0.  0.
        3    1    3    3  502    0 -0.98389034908E+03  0.90125805136E+03  0.11171859031E+04  0.17402329288E+04  0.10100000352E+00 0. -1.
       -3    1    3    3    0  502  0.98389034908E+03 -0.90125805136E+03 -0.16261988849E+03  0.13441545791E+04  0.10100000352E+00 0.  1.
</event>
<event>
 5   0  0.1937947E-05  0.2836751E+04  0.7818609E-02  0.8291949E-01
       -2   -1    0    0    0  501  0.00000000000E+00  0.00000000000E+00  0.11461000657E+04  0.11461000657E+04  0.25500000920E-02 0. -1.
        2   -1    0    0  501    0  0.00000000000E+00  0.00000000000E+00 -0.17553343397E+04  0.17553343397E+04  0.25500000920E-02 0.  1.
    10030    2    1    2    0    0  0.00000000000E+00  0.00000000000E+00 -0.60923427399E+03  0.29014344053E+04  0.28367508188E+04 0.  0.
        3    1    3    3  502    0  0.81277299281E+03  0.58922639573E+03  0.72022898927E+03  0.12355231647E+04  0.10100000352E+00 0. -1.
       -3    1    3    3    0  502 -0.81277299281E+03 -0.58922639573E+03 -0.13294632633E+04  0.16659112407E+04  0.10100000352E+00 0.  1.
</event>
<event>
 5   0  0.7305460E-06  0.2916113E+04  0.7818609E-02  0.8268099E-01
       -1   -1    0    0    0  501  0.00000000000E+00  0.00000000000E+00  0.10310168835E+04  0.10310168836E+04  0.50400001928E-02 0.  1.
        1   -1    0    0  501    0  0.00000000000E+00  0.00000000000E+00 -0.20619731526E+04  0.20619731526E+04  0.50400001928E-02 0. -1.
    10030    2    1    2    0    0  0.00000000000E+00  0.00000000000E+00 -0.10309562691E+04  0.30929900362E+04  0.29161132583E+04 0.  0.
        4    1    3    3  502    0  0.93966875667E+03  0.45176713154E+03  0.56558718816E+03  0.11861540346E+04  0.12699999809E+01 0.  1.
       -4    1    3    3    0  502 -0.93966875667E+03 -0.45176713154E+03 -0.15965434572E+04  0.19068360016E+04  0.12699999809E+01 0. -1.
</event>
<event>
 5   0  0.1976233E-05  0.2879581E+04  0.7818609E-02  0.8278979E-01
        2   -1    0    0  501    0  0.00000000000E+00  0.00000000000E+00  0.19194772824E+04  0.19194772824E+04  0.25500000920E-02 0.  1.
       -2   -1    0    0    0  501  0.00000000000E+00  0.00000000000E+00 -0.10799796297E+04  0.10799796297E+04  0.25500000920E-02 0. -1.
    10030    2    1    2    0    0  0.00000000000E+00  0.00000000000E+00  0.83949765276E+03  0.29994569121E+04  0.28795807783E+04 0.  0.
        2    1    3    3  502    0 -0.75104896546E+03 -0.74488455291E+03 -0.59767806660E+03  0.12149677432E+04  0.25500000920E-02 0. -1.
       -2    1    3    3    0  502  0.75104896546E+03  0.74488455291E+03  0.14371757194E+04  0.17844891689E+04  0.25500000920E-02 0.  1.
</event>
<event>
 5   0  0.7305460E-06  0.2746925E+04  0.7818609E-02  0.8319938E-01
        1   -1    0    0  501    0  0.00000000000E+00  0.00000000000E+00  0.12912427766E+04  0.12912427766E+04  0.50400001928E-02 0. -1.
       -1   -1    0    0    0  501  0.00000000000E+00  0.00000000000E+00 -0.14609180592E+04  0.14609180592E+04  0.50400001928E-02 0.  1.
    10030    2    1    2    0    0  0.00000000000E+00  0.00000000000E+00 -0.16967528264E+03  0.27521608359E+04  0.27469254749E+04 0.  0.
        4    1    3    3  502    0  0.10174192797E+04  0.42568897237E+03  0.73528533513E+03  0.13255184755E+04  0.12699999809E+01 0. -1.
       -4    1    3    3    0  502 -0.10174192797E+04 -0.42568897237E+03 -0.90496061777E+03  0.14266423604E+04  0.12699999809E+01 0.  1.
</event>
<event>
 5   0  0.7305460E-06  0.2551368E+04  0.7818609E-02  0.8384911E-01
       -1   -1    0    0    0  501  0.00000000000E+00  0.00000000000E+00  0.10271332906E+04  0.10271332906E+04  0.50400001928E-02 0. -1.
        1   -1    0    0  501    0  0.00000000000E+00  0.00000000000E+00 -0.15843802713E+04  0.15843802714E+04  0.50400001928E-02 0.  1.
    10030    2    1    2    0    0  0.00000000000E+00  0.00000000000E+00 -0.55724698074E+03  0.26115135620E+04  0.25513680422E+04 0.  0.
        4    1    3    3  502    0  0.35609535856E+03  0.31326393792E+03  0.93353597432E+03  0.10471051654E+04  0.12699999809E+01 0. -1.
       -4    1    3    3    0  502 -0.35609535856E+03 -0.31326393792E+03 -0.14907829551E+04  0.15644083966E+04  0.12699999809E+01 0.  1.
</event>
<event>
 5   0  0.8055928E-06  0.2327144E+04  0.7818609E-02  0.8467295E-01
        1   -1    0    0  501    0  0.00000000000E+00  0.00000000000E+00  0.11759537608E+04  0.11759537608E+04  0.50400001928E-02 0.  1.
       -1   -1    0    0    0  501  0.00000000000E+00  0.00000000000E+00 -0.11513206057E+04  0.11513206057E+04  0.50400001928E-02 0. -1.
    10030    2    1    2    0    0  0.00000000000E+00  0.00000000000E+00  0.24633155103E+02  0.23272743665E+04  0.23271439974E+04 0.  0.
        2    1    3    3  502    0  0.10009804833E+04 -0.13051475733E+03  0.59105770338E+03  0.11697628984E+04  0.25500000920E-02 0.  1.
       -2    1    3    3    0  502 -0.10009804833E+04  0.13051475733E+03 -0.56642454828E+03  0.11575114680E+04  0.25500000920E-02 0. -1.
</event>
<event>
 5   0  0.1976233E-05  0.2907089E+04  0.7818609E-02  0.8270771E-01
        2   -1    0    0  501    0  0.00000000000E+00  0.00000000000E+00  0.32803916814E+04  0.32803916814E+04  0.25500000920E-02 0.  1.
       -2   -1    0    0    0  501  0.00000000000E+00  0.00000000000E+00 -0.64406696893E+03  0.64406696893E+03  0.25500000920E-02 0. -1.
    10030    2    1    2    0    0  0.00000000000E+00  0.00000000000E+00  0.26363247125E+04  0.39244586503E+04  0.29070892158E+04 0.  0.
        2    1    3    3  502    0  0.16934351107E+03  0.11263736635E+04  0.99155996393E+02  0.11433401796E+04  0.25500000920E-02 0. -1.
       -2    1    3    3    0  502 -0.16934351107E+03 -0.11263736635E+04  0.25371687161E+04  0.27811184708E+04  0.25500000920E-02 0.  1.
</event>
<event>
 5   0  0.1918901E-05  0.2546998E+04  0.7818609E-02  0.8386431E-01
        2   -1    0    0  501    0  0.00000000000E+00  0.00000000000E+00  0.23327910155E+04  0.23327910155E+04  0.25500000920E-02 0. -1.
       -2   -1    0    0    0  501  0.00000000000E+00  0.00000000000E+00 -0.69521879126E+03  0.69521879127E+03  0.25500000920E-02 0.  1.
    10030    2    1    2    0    0  0.00000000000E+00  0.00000000000E+00  0.16375722242E+04  0.30280098068E+04  0.25469983511E+04 0.  0.
        1    1    3    3  502    0 -0.76201720050E+03  0.84529549380E+03  0.14982092564E+04  0.18814424418E+04  0.50400001928E-02 0.  1.
       -1    1    3    3    0  502  0.76201720050E+03 -0.84529549380E+03  0.13936296785E+03  0.11465673650E+04  0.50400001928E-02 0. -1.
</event>
<event>
 5   0  0.1960961E-05  0.2672588E+04  0.7818609E-02  0.8343954E-01
        2   -1    0    0  501    0  0.00000000000E+00  0.00000000000E+00  0.27640084612E+04  0.27640084612E+04  0.25500000920E-02 0.  1.
       -2   -1    0    0    0  501  0.00000000000E+00  0.00000000000E+00 -0.64604793194E+03  0.64604793194E+03  0.25500000920E-02 0. -1.
    10030    2    1    2    0    0  0.00000000000E+00  0.00000000000E+00  0.21179605292E+04  0.34100563931E+04  0.26725882213E+04 0.  0.
        5    1    3    3  502    0  0.76826598662E+03 -0.40329705995E+03 -0.23770074518E+03  0.89966931649E+03  0.46999998093E+01 0. -1.
       -5    1    3    3    0  502 -0.76826598662E+03  0.40329705995E+03  0.23556612744E+04  0.25103870766E+04  0.46999998093E+01 0.  1.
</event>
<event>
 5   0  0.1918901E-05  0.2694807E+04  0.7818609E-02  0.8336692E-01
        2   -1    0    0  501    0  0.00000000000E+00  0.00000000000E+00  0.20200253754E+04  0.20200253754E+04  0.25500000920E-02 0. -1.
       -2   -1    0    0    0  501  0.00000000000E+00  0.00000000000E+00 -0.89874922507E+03  0.89874922508E+03  0.25500000920E-02 0.  1.
    10030    2    1    2    0    0  0.00000000000E+00  0.00000000000E+00  0.11212761503E+04  0.29187746005E+04  0.26948070363E+04 0.  0.
        1    1    3    3  502    0 -0.20858548525E+02 -0.49128640295E+03  0.19193697409E+04  0.19813575172E+04  0.50400001928E-02 0. -1.
       -1    1    3    3    0  502  0.20858548525E+02  0.49128640295E+03 -0.79809359053E+03  0.93741708329E+03  0.50400001928E-02 0.  1.
</event>
<event>
 5   0  0.8122088E-06  0.2895420E+04  0.7818609E-02  0.8274241E-01
        1   -1    0    0  501    0  0.00000000000E+00  0.00000000000E+00  0.16857042093E+04  0.16857042093E+04  0.50400001928E-02 0.  1.
       -1   -1    0    0    0  501  0.00000000000E+00  0.00000000000E+00 -0.12433167804E+04  0.12433167804E+04  0.50400001928E-02 0. -1.
    10030    2    1    2    0    0  0.00000000000E+00  0.00000000000E+00  0.44238742891E+03  0.29290209898E+04  0.28954200596E+04 0.  0.
        1    1    3    3  502    0 -0.32230064487E+03  0.16061372774E+03  0.16396750657E+04  0.16787521545E+04  0.50400001928E-02 0.  1.
       -1    1    3    3    0  502  0.32230064487E+03 -0.16061372774E+03 -0.11972876368E+04  0.12502688353E+04  0.50400001928E-02 0. -1.
</event>
<event>
 5   0  0.1960961E-05  0.2875704E+04  0.7818609E-02  0.8280143E-01
        2   -1    0    0  501    0  0.00000000000E+00  0.00000000000E+00  0.28501068520E+04  0.28501068520E+04  0.25500000920E-02 0. -1.
       -2   -1    0    0    0  501  0.00000000000E+00  0.00000000000E+00 -0.72538254769E+03  0.72538254770E+03  0.25500000920E-02 0.  1.
    10030    2    1    2    0    0  0.00000000000E+00  0.00000000000E+00  0.21247243043E+04  0.35754893997E+04  0.28757035797E+04 0.  0.
        5    1    3    3  502    0 -0.92915934774E+03 -0.50774595354E+03  0.22718316696E+04  0.25064684861E+04  0.46999998093E+01 0. -1.
       -5    1    3    3    0  502  0.92915934774E+03  0.50774595354E+03 -0.14710736528E+03  0.10690209136E+04  0.46999998093E+01 0.  1.
</event>
<event>
 5   0  0.1829810E-05  0.2655798E+04  0.7818609E-02  0.8349491E-01
        2   -1    0    0  501    0  0.00000000000E+00  0.00000000000E+00  0.20639718945E+04  0.20639718945E+04  0.25500000920E-02 0. -1.
       -2   -1    0    0    0  501  0.00000000000E+00  0.00000000000E+00 -0.85433152797E+03  0.85433152797E+03  0.25500000920E-02 0.  1.
    10030    2    1    2    0    0  0.00000000000E+00  0.00000000000E+00  0.12096403665E+04  0.29183034225E+04  0.26557983826E+04 0.  0.
        4    1    3    3  502    0  0.98659905004E+03 -0.50119323896E+03  0.14113601274E+04  0.17934635124E+04  0.12699999809E+01 0. -1.
       -4    1    3    3    0  502 -0.98659905004E+03  0.50119323896E+03 -0.20171976090E+03  0.11248399100E+04  0.12699999809E+01 0.  1.
</event>
<event>
 5   0  0.1829810E-05  0.2821512E+04  0.7818609E-02  0.8296621E-01
        2   -1    0    0  501    0  0.00000000000E+00  0.00000000000E+00  0.22483252916E+04  0.22483252916E+04  0.25500000920E-02 0. -1.
       -2   -1    0    0    0  501  0.00000000000E+00  0.00000000000E+00 -0.88520695634E+03  0.88520695634E+03  0.25500000920E-02 0.  1.
    10030    2    1    2    0    0  0.00000000000E+00  0.00000000000E+00  0.13631183353E+04  0.31335322479E+04  0.28215124939E+04 0.  0.
        4    1    3    3  502    0 -0.39568768699E+02 -0.20280102423E+03 -0.86831028999E+03  0.89255717771E+03  0.12699999809E+01 0.  1.
       -4    1    3    3    0  502  0.39568768699E+02  0.20280102423E+03  0.22314286253E+04  0.22409750702E+04  0.12699999809E+01 0. -1.
</event>
<event>
 5   0  0.8055928E-06  0.2797550E+04  0.7818609E-02  0.8304029E-01
       -1   -1    0    0    0  501  0.00000000000E+00  0.00000000000E+00  0.11318142761E+04  0.11318142761E+04  0.50400001928E-02 0. -1.
        1   -1    0    0  501    0  0.00000000000E+00  0.00000000000E+00 -0.17287033977E+04  0.17287033977E+04  0.50400001928E-02 0.  1.
    10030    2    1    2    0    0  0.00000000000E+00  0.00000000000E+00 -0.59688912156E+03  0.28605176738E+04  0.27975497742E+04 0.  0.
        2    1    3    3  502    0 -0.52270163111E+03 -0.12611031967E+04  0.13333133577E+02  0.13652018314E+04  0.25500000920E-02 0. -1.
       -2    1    3    3    0  502  0.52270163111E+03  0.12611031967E+04 -0.61022225514E+03  0.14953158424E+04  0.25500000920E-02 0.  1.
</event>
<event>
 5   0  0.8234888E-06  0.2008574E+04  0.7818609E-02  0.8602622E-01
       -1   -1    0    0    0  501  0.00000000000E+00  0.00000000000E+00  0.12448273259E+04  0.12448273259E+04  0.50400001928E-02 0.  1.
        1   -1    0    0  501    0  0.00000000000E+00  0.00000000000E+00 -0.81022707595E+03  0.81022707597E+03  0.50400001928E-02 0. -1.
    10030    2    1    2    0    0  0.00000000000E+00  0.00000000000E+00  0.43460024991E+03  0.20550544018E+04  0.20085744241E+04 0.  0.
        3    1    3    3  502    0  0.17059008315E+03 -0.87918185217E+03  0.68227352818E+03  0.11258591755E+04  0.10100000352E+00 0.  1.
       -3    1    3    3    0  502 -0.17059008315E+03  0.87918185217E+03 -0.24767327827E+03  0.92919522632E+03  0.10100000352E+00 0. -1.
</event>
<event>
 5   0  0.7971153E-06  0.2856620E+04  0.7818609E-02  0.8285903E-01
        1   -1    0    0  501    0  0.00000000000E+00  0.00000000000E+00  0.19427217983E+04  0.19427217983E+04  0.50400001928E-02 0. -1.
       -1   -1    0    0    0  501  0.00000000000E+00  0.00000000000E+00 -0.10501087753E+04  0.10501087753E+04  0.50400001928E-02 0.  1.
    10030    2    1    2    0    0  0.00000000000E+00  0.00000000000E+00  0.89261302304E+03  0.29928305737E+04  0.28566198266E+04 0.  0.
        5    1    3    3  502    0  0.12383985648E+04  0.64738697015E+03  0.75587182230E+03  0.15887432757E+04  0.46999998093E+01 0.  1.
       -5    1    3    3    0  502 -0.12383985648E+04 -0.64738697015E+03  0.13674120073E+03  0.14040872980E+04  0.46999998093E+01 0. -1.
</event>
<event>
 5   0  0.1829810E-05  0.2850441E+04  0.7818609E-02  0.8287777E-01
       -2   -1    0    0    0  501  0.00000000000E+00  0.00000000000E+00  0.10377294761E+04  0.10377294761E+04  0.25500000920E-02 0. -1.
        2   -1    0    0  501    0  0.00000000000E+00  0.00000000000E+00 -0.19574021075E+04  0.19574021075E+04  0.25500000920E-02 0.  1.
    10030    2    1    2    0    0  0.00000000000E+00  0.00000000000E+00 -0.91967263137E+03  0.29951315836E+04  0.28504412736E+04 0.  0.
        4    1    3    3  502    0 -0.35114026724E+03  0.66331202228E+03  0.81326330248E+03  0.11066531246E+04  0.12699999809E+01 0. -1.
       -4    1    3    3    0  502  0.35114026724E+03 -0.66331202228E+03 -0.17329359338E+04  0.18884784589E+04  0.12699999809E+01 0.  1.
</event>
<event>
 5   0  0.1960961E-05  0.2775482E+04  0.7818609E-02  0.8310921E-01
       -2   -1    0    0    0  501  0.00000000000E+00  0.00000000000E+00  0.11205726747E+04  0.11205726747E+04  0.25500000920E-02 0. -1.
        2   -1    0    0  501    0  0.00000000000E+00  0.00000000000E+00 -0.17186085318E+04  0.17186085318E+04  0.25500000920E-02 0.  1.
    10030    2    1    2    0    0  0.00000000000E+00  0.00000000000E+00 -0.59803585717E+03  0.28391812065E+04  0.27754824872E+04 0.  0.
        5    1    3    3  502    0 -0.12480012980E+04  0.34484427554E+03 -0.80985738441E+03  0.15271921579E+04  0.46999998093E+01 0.  1.
       -5    1    3    3    0  502  0.12480012980E+04 -0.34484427554E+03  0.21182152724E+03  0.13119890486E+04  0.46999998093E+01 0. -1.
</event>
<event>
 5   0  0.1918901E-05  0.2853001E+04  0.7818609E-02  0.8287000E-01
        2   -1    0    0  501    0  0.00000000000E+00  0.00000000000E+00  0.16146080950E+04  0.16146080950E+04  0.25500000920E-02 0.  1.
       -2   -1    0    0    0  501  0.00000000000E+00  0.00000000000E+00 -0.12603082769E+04  0.12603082769E+04  0.25500000920E-02 0. -1.
    10030    2    1    2    0    0  0.00000000000E+00  0.00000000000E+00  0.35429981814E+03  0.28749163719E+04  0.28530011889E+04 0.  0.
        1    1    3    3  502    0  0.34318767191E+03 -0.88172028731E+03  0.12529155786E+04  0.15700337227E+04  0.50400001928E-02 0.  1.
       -1    1    3    3    0  502 -0.34318767191E+03  0.88172028731E+03 -0.89861576045E+03  0.13048826492E+04  0.50400001928E-02 0. -1.
</event>
<event>
 5   0  0.1918901E-05  0.2922715E+04  0.7818609E-02  0.8266151E-01
       -2   -1    0    0    0  501  0.00000000000E+00  0.00000000000E+00  0.10669805588E+04  0.10669805588E+04  0.25500000920E-02 0.  1.
        2   -1    0    0  501    0  0.00000000000E+00  0.00000000000E+00 -0.20015032385E+04  0.20015032385E+04  0.25500000920E-02 0. -1.
    10030    2    1    2    0    0  0.00000000000E+00  0.00000000000E+00 -0.93452267962E+03  0.30684837973E+04  0.29227145217E+04 0.  0.
        1    1    3    3  502    0  0.25029500896E+03 -0.88579580031E+02 -0.19759684690E+04  0.19937264918E+04  0.50400001928E-02 0. -1.
       -1    1    3    3    0  502 -0.25029500896E+03  0.88579580031E+02  0.10414457894E+04  0.10747573055E+04  0.50400001928E-02 0.  1.
</event>
<event>
 5   0  0.6578125E-06  0.2840048E+04  0.7818609E-02  0.8290942E-01
        3   -1    0    0  501    0  0.00000000000E+00  0.00000000000E+00  0.17994246196E+04  0.17994246224E+04  0.10100000352E+00 0.  1.
       -3   -1    0    0    0  501  0.00000000000E+00  0.00000000000E+00 -0.11206180747E+04  0.11206180792E+04  0.10100000352E+00 0. -1.
    10030    2    1    2    0    0  0.00000000000E+00  0.00000000000E+00  0.67880654493E+03  0.29200427017E+04  0.28400477204E+04 0.  0.
        4    1    3    3  502    0 -0.12039974652E+04 -0.72751878025E+03  0.53869976021E+03  0.15063507282E+04  0.12699999809E+01 0.  1.
       -4    1    3    3    0  502  0.12039974652E+04  0.72751878025E+03  0.14010678472E+03  0.14136919735E+04  0.12699999809E+01 0. -1.
</event>
<event>
 5   0  0.6578125E-06  0.2931092E+04  0.7818609E-02  0.8263686E-01
        3   -1    0    0  501    0  0.00000000000E+00  0.00000000000E+00  0.15989818499E+04  0.15989818531E+04  0.10100000352E+00 0. -1.
       -3   -1    0    0    0  501  0.00000000000E+00  0.00000000000E+00 -0.13432453490E+04  0.13432453528E+04  0.10100000352E+00 0.  1.
    10030    2    1    2    0    0  0.00000000000E+00  0.00000000000E+00  0.25573650094E+03  0.29422272058E+04  0.29310919080E+04 0.  0.
        1    1    3    3  502    0 -0.15807555462E+03  0.13563025619E+04  0.66213119265E+03  0.15175513951E+04  0.50400001928E-02 0. -1.
       -1    1    3    3    0  502  0.15807555462E+03 -0.13563025619E+04 -0.40639469172E+03  0.14246758108E+04  0.50400001928E-02 0.  1.
</event>
<event>
 5   0  0.1829810E-05  0.1694716E+04  0.7818609E-02  0.8764384E-01
       -2   -1    0    0    0  501  0.00000000000E+00  0.00000000000E+00  0.74848587674E+03  0.74848587674E+03  0.25500000920E-02 0. -1.
        2   -1    0    0  501    0  0.00000000000E+00  0.00000000000E+00 -0.95929085300E+03  0.95929085300E+03  0.25500000920E-02 0.  1.
    10030    2    1    2    0    0  0.00000000000E+00  0.00000000000E+00 -0.21080497626E+03  0.17077767297E+04  0.16947160885E+04 0.  0.
        4    1    3    3  502    0  0.50343152722E+03 -0.71400706446E+02 -0.78847055915E+03  0.93820509433E+03  0.12699999809E+01 0.  1.
       -4    1    3    3    0  502 -0.50343152722E+03  0.71400706446E+02  0.57766558288E+03  0.76957163541E+03  0.12699999809E+01 0. -1.
</event>
<event>
 5   0  0.7305460E-06  0.2754595E+04  0.7818609E-02  0.8317505E-01
       -1   -1    0    0    0  501  0.00000000000E+00  0.00000000000E+00  0.84789337470E+03  0.84789337472E+03  0.50400001928E-02 0.  1.
        1   -1    0    0  501    0  0.00000000000E+00  0.00000000000E+00 -0.22372484164E+04  0.22372484164E+04  0.50400001928E-02 0. -1.
    10030    2    1    2    0    0  0.00000000000E+00  0.00000000000E+00 -0.13893550417E+04  0.30851417911E+04  0.27545947868E+04 0.  0.
        4    1    3    3  502    0  0.33215767849E+03 -0.84769826525E+03  0.46278837380E+03  0.10213205981E+04  0.12699999809E+01 0.  1.
       -4    1    3    3    0  502 -0.33215767849E+03  0.84769826525E+03 -0.18521434155E+04  0.20638211930E+04  0.12699999809E+01 0. -1.
</event>
<event>
 5   0  0.1829810E-05  0.2927451E+04  0.7818609E-02  0.8264756E-01
        2   -1    0    0  501    0  0.00000000000E+00  0.00000000000E+00  0.14608933269E+04  0.14608933269E+04  0.25500000920E-02 0. -1.
       -2   -1    0    0    0  501  0.00000000000E+00  0.00000000000E+00 -0.14665634155E+04  0.14665634155E+04  0.25500000920E-02 0.  1.
    10030    2    1    2    0    0  0.00000000000E+00  0.00000000000E+00 -0.56700885563E+01  0.29274567424E+04  0.29274512513E+04 0.  0.
        4    1    3    3  502    0  0.13087594297E+04 -0.11741968566E+03 -0.64770249334E+03  0.14649773924E+04  0.12699999809E+01 0.  1.
       -4    1    3    3    0  502 -0.13087594297E+04  0.11741968566E+03  0.64203240478E+03  0.14624793500E+04  0.12699999809E+01 0. -1.
</event>
<event>
 5   0  0.8234888E-06  0.2945762E+04  0.7818609E-02  0.8259391E-01
        1   -1    0    0  501    0  0.00000000000E+00  0.00000000000E+00  0.19546550018E+04  0.19546550018E+04  0.50400001928E-02 0.  1.
       -1   -1    0    0    0  501  0.00000000000E+00  0.00000000000E+00 -0.11098523464E+04  0.11098523464E+04  0.50400001928E-02 0. -1.
    10030    2    1    2    0    0  0.00000000000E+00  0.00000000000E+00  0.84480265537E+03  0.30645073482E+04  0.29457620000E+04 0.  0.
        3    1    3    3  502    0 -0.14025552931E+04  0.42607811537E+03  0.57198380536E+03  0.15734895597E+04  0.10100000352E+00 0.  1.
       -3    1    3    3    0  502  0.14025552931E+04 -0.42607811537E+03  0.27281885001E+03  0.14910177885E+04  0.10100000352E+00 0. -1.
</event>
<event>
 5   0  0.7305460E-06  0.2911848E+04  0.7818609E-02  0.8269361E-01
       -1   -1    0    0    0  501  0.00000000000E+00  0.00000000000E+00  0.15375908987E+04  0.15375908987E+04  0.50400001928E-02 0.  1.
        1   -1    0    0  501    0  0.00000000000E+00  0.00000000000E+00 -0.13785946904E+04  0.13785946904E+04  0.50400001928E-02 0. -1.
    10030    2    1    2    0    0  0.00000000000E+00  0.00000000000E+00  0.15899620836E+03  0.29161855891E+04  0.29118479692E+04 0.  0.
        4    1    3    3  502    0  0.10093885246E+04  0.72789400874E+03  0.83628119747E+03  0.14993541062E+04  0.12699999809E+01 0.  1.
       -4    1    3    3    0  502 -0.10093885246E+04 -0.72789400874E+03 -0.67728498911E+03  0.14168314829E+04  0.12699999809E+01 0. -1.
</event>
<event>
 5   0  0.8055928E-06  0.2913766E+04  0.7818609E-02  0.8268793E-01
        1   -1    0    0  501    0  0.00000000000E+00  0.00000000000E+00  0.20304756991E+04  0.20304756991E+04  0.50400001928E-02 0.  1.
       -1   -1    0    0    0  501  0.00000000000E+00  0.00000000000E+00 -0.10453254691E+04  0.10453254691E+04  0.50400001928E-02 0. -1.
    10030    2    1    2    0    0  0.00000000000E+00  0.00000000000E+00  0.98515022995E+03  0.30758011682E+04  0.29137659224E+04 0.  0.
        2    1    3    3  502    0  0.28492593032E+03 -0.12712779176E+04 -0.19574237140E+03  0.13174389571E+04  0.25500000920E-02 0. -1.
       -2    1    3    3    0  502 -0.28492593032E+03  0.12712779176E+04  0.11808926013E+04  0.17583622111E+04  0.25500000920E-02 0.  1.
</event>
<event>
 5   0  0.1918901E-05  0.2911646E+04  0.7818609E-02  0.8269421E-01
       -2   -1    0    0    0  501  0.00000000000E+00  0.00000000000E+00  0.11582885815E+04  0.11582885815E+04  0.25500000920E-02 0.  1.
        2   -1    0    0  501    0  0.00000000000E+00  0.00000000000E+00 -0.18297858212E+04  0.18297858213E+04  0.25500000920E-02 0. -1.
    10030    2    1    2    0    0  0.00000000000E+00  0.00000000000E+00 -0.67149723971E+03  0.29880744028E+04  0.29116455989E+04 0.  0.
        1    1    3    3  502    0  0.83786202340E+03 -0.11495475215E+04 -0.65363380618E+03  0.15654741860E+04  0.50400001928E-02 0. -1.
       -1    1    3    3    0  502 -0.83786202340E+03  0.11495475215E+04 -0.17863433531E+02  0.14226002168E+04  0.50400001928E-02 0.  1.
</event>
<event>
 5   0  0.8122088E-06  0.2833906E+04  0.7818609E-02  0.8292819E-01
        1   -1    0    0  501    0  0.00000000000E+00  0.00000000000E+00  0.20735529108E+04  0.20735529108E+04  0.50400001928E-02 0.  1.
       -1   -1    0    0    0  501  0.00000000000E+00  0.00000000000E+00 -0.96826831097E+03  0.96826831099E+03  0.50400001928E-02 0. -1.
    10030    2    1    2    0    0  0.00000000000E+00  0.00000000000E+00  0.11052845998E+04  0.30418212217E+04  0.28339058380E+04 0.  0.
        1    1    3    3  502    0 -0.23876401828E+03 -0.13966261483E+04  0.53813317300E+03  0.15156385343E+04  0.50400001928E-02 0.  1.
       -1    1    3    3    0  502  0.23876401828E+03  0.13966261483E+04  0.56715142677E+03  0.15261826875E+04  0.50400001928E-02 0. -1.
</event>
<event>
 5   0  0.1918901E-05  0.3046189E+04  0.7818609E-02  0.8230663E-01
       -2   -1    0    0    0  501  0.00000000000E+00  0.00000000000E+00  0.95265997911E+03  0.95265997911E+03  0.25500000920E-02 0.  1.
        2   -1    0    0  501    0  0.00000000000E+00  0.00000000000E+00 -0.24350937656E+04  0.24350937656E+04  0.25500000920E-02 0. -1.
    10030    2    1    2    0    0  0.00000000000E+00  0.00000000000E+00 -0.14824337865E+04  0.33877537447E+04  0.30461886848E+04 0.  0.
        1    1    3    3  502    0 -0.73056489366E+01  0.12035367392E+04  0.29685994180E+03  0.12396289284E+04  0.50400001928E-02 0. -1.
       -1    1    3    3    0  502  0.73056489366E+01 -0.12035367392E+04 -0.17792937283E+04  0.21481248164E+04  0.50400001928E-02 0.  1.
</event>
<event>
 5   0  0.1976233E-05  0.1718318E+04  0.7818609E-02  0.8750985E-01
       -2   -1    0    0    0  501  0.00000000000E+00  0.00000000000E+00  0.10106816879E+04  0.10106816879E+04  0.25500000920E-02 0. -1.
        2   -1    0    0  501    0  0.00000000000E+00  0.00000000000E+00 -0.73035257489E+03  0.73035257490E+03  0.25500000920E-02 0.  1.
    10030    2    1    2    0    0  0.00000000000E+00  0.00000000000E+00  0.28032911304E+03  0.17410342628E+04  0.17183177508E+04 0.  0.
        2    1    3    3  502    0  0.50365404404E+03 -0.50642710611E+03 -0.34366073053E+03  0.79261498067E+03  0.25500000920E-02 0.  1.
       -2    1    3    3    0  502 -0.50365404404E+03  0.50642710611E+03  0.62398984357E+03  0.94841928215E+03  0.25500000920E-02 0. -1.
</event>
<event>
 5   0  0.1829810E-05  0.1824989E+04  0.7818609E-02  0.8693123E-01
        2   -1    0    0  501    0  0.00000000000E+00  0.00000000000E+00  0.74070491497E+03  0.74070491498E+03  0.25500000920E-02 0.  1.
       -2   -1    0    0    0  501  0.00000000000E+00  0.00000000000E+00 -0.11241263493E+04  0.11241263493E+04  0.25500000920E-02 0. -1.
    10030    2    1    2    0    0  0.00000000000E+00  0.00000000000E+00 -0.38342143435E+03  0.18648312643E+04  0.18249886707E+04 0.  0.
        4    1    3    3  502    0  0.86310505401E+03 -0.23193851752E+03 -0.37984569158E+03  0.97109740627E+03  0.12699999809E+01 0. -1.
       -4    1    3    3    0  502 -0.86310505401E+03  0.23193851752E+03 -0.35757427761E+01  0.89373385803E+03  0.12699999809E+01 0.  1.
</event>
<event>
 5   0  0.7305460E-06  0.2441181E+04  0.7818609E-02  0.8424245E-01
       -1   -1    0    0    0  501  0.00000000000E+00  0.00000000000E+00  0.92162661311E+03  0.92162661312E+03  0.50400001928E-02 0. -1.
        1   -1    0    0  501    0  0.00000000000E+00  0.00000000000E+00 -0.16165339588E+04  0.16165339588E+04  0.50400001928E-02 0.  1.
    10030    2    1    2    0    0  0.00000000000E+00  0.00000000000E+00 -0.69490734573E+03  0.25381605720E+04  0.24411806303E+04 0.  0.
        4    1    3    3  502    0 -0.65686961076E+03 -0.68206701302E+03 -0.11482092724E+04  0.14883142282E+04  0.12699999809E+01 0.  1.
       -4    1    3    3    0  502  0.65686961076E+03  0.68206701302E+03  0.45330192670E+03  0.10498463437E+04  0.12699999809E+01 0. -1.
</event>
<event>
 5   0  0.8122088E-06  0.2796614E+04  0.7818609E-02  0.8304320E-01
        1   -1    0    0  501    0  0.00000000000E+00  0.00000000000E+00  0.18528670112E+04  0.18528670112E+04  0.50400001928E-02 0. -1.
       -1   -1    0    0    0  501  0.00000000000E+00  0.00000000000E+00 -0.10552634820E+04  0.10552634820E+04  0.50400001928E-02 0.  1.
    10030    2    1    2    0    0  0.00000000000E+00  0.00000000000E+00  0.79760352916E+03  0.29081304932E+04  0.27966143059E+04 0.  0.
        1    1    3    3  502    0 -0.69713747264E+03 -0.10634398314E+04  0.10036821703E+04  0.16199638359E+04  0.50400001928E-02 0. -1.
       -1    1    3    3    0  502  0.69713747264E+03  0.10634398314E+04 -0.20607864111E+03  0.12881666573E+04  0.50400001928E-02 0.  1.
</event>
<event>
 5   0  0.1829810E-05  0.2932945E+04  0.7818609E-02  0.8263142E-01
        2   -1    0    0  501    0  0.00000000000E+00  0.00000000000E+00  0.29510977639E+04  0.29510977639E+04  0.25500000920E-02 0. -1.
       -2   -1    0    0    0  501  0.00000000000E+00  0.00000000000E+00 -0.72872602316E+03  0.72872602316E+03  0.25500000920E-02 0.  1.
    10030    2    1    2    0    0  0.00000000000E+00  0.00000000000E+00  0.22223717407E+04  0.36798237871E+04  0.29329450983E+04 0.  0.
        4    1    3    3  502    0  0.14630022689E+04  0.75830499807E+02  0.10278273250E+04  0.17895688102E+04  0.12699999809E+01 0.  1.
       -4    1    3    3    0  502 -0.14630022689E+04 -0.75830499807E+02  0.11945444158E+04  0.18902549769E+04  0.12699999809E+01 0. -1.
</event>
<event>
 5   0  0.1937947E-05  0.3053460E+04  0.7818609E-02  0.8228628E-01
        2   -1    0    0  501    0  0.00000000000E+00  0.00000000000E+00  0.30008398560E+04  0.30008398560E+04  0.25500000920E-02 0.  1.
       -2   -1    0    0    0  501  0.00000000000E+00  0.00000000000E+00 -0.77675091794E+03  0.77675091795E+03  0.25500000920E-02 0. -1.
    10030    2    1    2    0    0  0.00000000000E+00  0.00000000000E+00  0.22240889381E+04  0.37775907740E+04  0.30534604060E+04 0.  0.
        3    1    3    3  502    0 -0.41457427036E+03  0.65039847526E+03 -0.51799967302E+03  0.92909293062E+03  0.10100000352E+00 0. -1.
       -3    1    3    3    0  502  0.41457427036E+03 -0.65039847526E+03  0.27420886111E+04  0.28484978434E+04  0.10100000352E+00 0.  1.
</event>
<event>
 5   0  0.8055928E-06  0.2758244E+04  0.7818609E-02  0.8316350E-01
       -1   -1    0    0    0  501  0.00000000000E+00  0.00000000000E+00  0.16540565090E+04  0.16540565090E+04  0.50400001928E-02 0.  1.
        1   -1    0    0  501    0  0.00000000000E+00  0.00000000000E+00 -0.11498864672E+04  0.11498864672E+04  0.50400001928E-02 0. -1.
    10030    2    1    2    0    0  0.00000000000E+00  0.00000000000E+00  0.50417004178E+03  0.28039429762E+04  0.27582437859E+04 0.  0.
        2    1    3    3  502    0  0.64259170138E+03  0.20844999915E+03 -0.97016725233E+03  0.11822013341E+04  0.25500000920E-02 0. -1.
       -2    1    3    3    0  502 -0.64259170138E+03 -0.20844999915E+03  0.14743372941E+04  0.16217416421E+04  0.25500000920E-02 0.  1.
</event>
<event>
 5   0  0.8234888E-06  0.2786404E+04  0.7818609E-02  0.8307502E-01
       -1   -1    0    0    0  501  0.00000000000E+00  0.00000000000E+00  0.57053130355E+03  0.57053130357E+03  0.50400001928E-02 0.  1.
        1   -1    0    0  501    0  0.00000000000E+00  0.00000000000E+00 -0.34021126974E+04  0.34021126974E+04  0.50400001928E-02 0. -1.
    10030    2    1    2    0    0  0.00000000000E+00  0.00000000000E+00 -0.28315813939E+04  0.39726440010E+04  0.27864039852E+04 0.  0.
        3    1    3    3  502    0 -0.10730538319E+04  0.40018498640E+03 -0.25469025944E+04  0.27925446075E+04  0.10100000352E+00 0. -1.
       -3    1    3    3    0  502  0.10730538319E+04 -0.40018498640E+03 -0.28467879947E+03  0.11800993935E+04  0.10100000352E+00 0.  1.
</event>
<event>
 5   0  0.1976233E-05  0.2858673E+04  0.7818609E-02  0.8285281E-01
       -2   -1    0    0    0  501  0.00000000000E+00  0.00000000000E+00  0.85433595135E+03  0.85433595136E+03  0.25500000920E-02 0. -1.
        2   -1    0    0  501    0  0.00000000000E+00  0.00000000000E+00 -0.23913342254E+04  0.23913342254E+04  0.25500000920E-02 0.  1.
    10030    2    1    2    0    0  0.00000000000E+00  0.00000000000E+00 -0.15369982741E+04  0.32456701768E+04  0.28586729792E+04 0.  0.
        2    1    3    3  502    0  0.89878883272E+03 -0.10550517903E+04 -0.11651457385E+04  0.18106684506E+04  0.25500000920E-02 0.  1.
       -2    1    3    3    0  502 -0.89878883272E+03  0.10550517903E+04 -0.37185253552E+03  0.14350017262E+04  0.25500000920E-02 0. -1.
</event>
<event>
 5   0  0.1829810E-05  0.2795170E+04  0.7818609E-02  0.8304769E-01
       -2   -1    0    0    0  501  0.00000000000E+00  0.00000000000E+00  0.14026953856E+04  0.14026953856E+04  0.25500000920E-02 0.  1.
        2   -1    0    0  501    0  0.00000000000E+00  0.00000000000E+00 -0.13924931721E+04  0.13924931721E+04  0.25500000920E-02 0. -1.
    10030    2    1    2    0    0  0.00000000000E+00  0.00000000000E+00  0.10202213513E+02  0.27951885576E+04  0.27951699389E+04 0.  0.
        4    1    3    3  502    0 -0.12546774470E+04  0.55285756251E+03 -0.26577918238E+03  0.13966055875E+04  0.12699999809E+01 0. -1.
       -4    1    3    3    0  502  0.12546774470E+04 -0.55285756251E+03  0.27598139589E+03  0.13985829701E+04  0.12699999809E+01 0.  1.
</event>
<event>
 5   0  0.8122088E-06  0.2877203E+04  0.7818609E-02  0.8279693E-01
        1   -1    0    0  501    0  0.00000000000E+00  0.00000000000E+00  0.16409718490E+04  0.16409718490E+04  0.50400001928E-02 0. -1.
       -1   -1    0    0    0  501  0.00000000000E+00  0.00000000000E+00 -0.12611880719E+04  0.12611880719E+04  0.50400001928E-02 0.  1.
    10030    2    1    2    0    0  0.00000000000E+00  0.00000000000E+00  0.37978377709E+03  0.29021599209E+04  0.28772028933E+04 0.  0.
        1    1    3    3  502    0  0.50160734701E+03 -0.56525733837E+02  0.15487106411E+04  0.16288983207E+04  0.50400001928E-02 0. -1.
       -1    1    3    3    0  502 -0.50160734701E+03  0.56525733837E+02 -0.11689268640E+04  0.12732616002E+04  0.50400001928E-02 0.  1.
</event>
<event>
 5   0  0.8122088E-06  0.3131379E+04  0.7818609E-02  0.8207179E-01
       -1   -1    0    0    0  501  0.00000000000E+00  0.00000000000E+00  0.12128725905E+04  0.12128725905E+04  0.50400001928E-02 0.  1.
        1   -1    0    0  501    0  0.00000000000E+00  0.00000000000E+00 -0.20211386722E+04  0.20211386722E+04  0.50400001928E-02 0. -1.
    10030    2    1    2    0    0  0.00000000000E+00  0.00000000000E+00 -0.80826608172E+03  0.32340112627E+04  0.31313790553E+04 0.  0.
        1    1    3    3  502    0 -0.37256808412E+03 -0.47895398464E+03 -0.18947610022E+04  0.19895535057E+04  0.50400001928E-02 0. -1.
       -1    1    3    3    0  502  0.37256808412E+03  0.47895398464E+03  0.10864949204E+04  0.12444577570E+04  0.50400001928E-02 0.  1.
</event>
<event>
 5   0  0.1937947E-05  0.2923683E+04  0.7818609E-02  0.8265866E-01
       -2   -1    0    0    0  501  0.00000000000E+00  0.00000000000E+00  0.74843202872E+03  0.74843202872E+03  0.25500000920E-02 0. -1.
        2   -1    0    0  501    0  0.00000000000E+00  0.00000000000E+00 -0.28552775592E+04  0.28552775592E+04  0.25500000920E-02 0.  1.
    10030    2    1    2    0    0  0.00000000000E+00  0.00000000000E+00 -0.21068455305E+04  0.36037095879E+04  0.29236834139E+04 0.  0.
        3    1    3    3  502    0  0.13525963249E+03  0.11658488475E+04 -0.21276058673E+04  0.24298570822E+04  0.10100000352E+00 0.  1.
       -3    1    3    3    0  502 -0.13525963249E+03 -0.11658488475E+04  0.20760336813E+02  0.11738525057E+04  0.10100000352E+00 0. -1.
</event>
<event>
 5   0  0.7305460E-06  0.2842091E+04  0.7818609E-02  0.8290319E-01
        1   -1    0    0  501    0  0.00000000000E+00  0.00000000000E+00  0.25938136666E+04  0.25938136666E+04  0.50400001928E-02 0.  1.
       -1   -1    0    0    0  501  0.00000000000E+00  0.00000000000E+00 -0.77853352968E+03  0.77853352970E+03  0.50400001928E-02 0. -1.
    10030    2    1    2    0    0  0.00000000000E+00  0.00000000000E+00  0.18152801369E+04  0.33723471963E+04  0.28420914195E+04 0.  0.
        4    1    3    3  502    0  0.10311271610E+04 -0.59162026349E+03  0.18314394728E+04  0.21834399268E+04  0.12699999809E+01 0.  1.
       -4    1    3    3    0  502 -0.10311271610E+04  0.59162026349E+03 -0.16159335949E+02  0.11889072695E+04  0.12699999809E+01 0. -1.
</event>
<event>
 5   0  0.8122088E-06  0.1681011E+04  0.7818609E-02  0.8772269E-01
       -1   -1    0    0    0  501  0.00000000000E+00  0.00000000000E+00  0.85688582137E+03  0.85688582139E+03  0.50400001928E-02 0. -1.
        1   -1    0    0  501    0  0.00000000000E+00  0.00000000000E+00 -0.82443853916E+03  0.82443853917E+03  0.50400001928E-02 0.  1.
    10030    2    1    2    0    0  0.00000000000E+00  0.00000000000E+00  0.32447282214E+02  0.16813243606E+04  0.16810112371E+04 0.  0.
        1    1    3    3  502    0  0.43759051934E+03  0.17270747482E+03 -0.68042340778E+03  0.82721783609E+03  0.50400001928E-02 0.  1.
       -1    1    3    3    0  502 -0.43759051934E+03 -0.17270747482E+03  0.71287068999E+03  0.85410652447E+03  0.50400001928E-02 0. -1.
</event>
<event>
 5   0  0.8122088E-06  0.3173180E+04  0.7818609E-02  0.8195936E-01
        1   -1    0    0  501    0  0.00000000000E+00  0.00000000000E+00  0.24391583467E+04  0.24391583467E+04  0.50400001928E-02 0.  1.
       -1   -1    0    0    0  501  0.00000000000E+00  0.00000000000E+00 -0.10320232027E+04  0.10320232027E+04  0.50400001928E-02 0. -1.
    10030    2    1    2    0    0  0.00000000000E+00  0.00000000000E+00  0.14071351440E+04  0.34711815493E+04  0.31731801139E+04 0.  0.
        1    1    3    3  502    0 -0.91076304128E+03  0.55974065437E+03  0.19860460738E+04  0.22554773164E+04  0.50400001928E-02 0.  1.
       -1    1    3    3    0  502  0.91076304128E+03 -0.55974065437E+03 -0.57891092972E+03  0.12157042330E+04  0.50400001928E-02 0. -1.
</event>
<event>
 5   0  0.8234888E-06  0.2904693E+04  0.7818609E-02  0.8271483E-01
        1   -1    0    0  501    0  0.00000000000E+00  0.00000000000E+00  0.84041172457E+03  0.84041172459E+03  0.50400001928E-02 0.  1.
       -1   -1    0    0    0  501  0.00000000000E+00  0.00000000000E+00 -0.25098530662E+04  0.25098530662E+04  0.50400001928E-02 0. -1.
    10030    2    1    2    0    0  0.00000000000E+00  0.00000000000E+00 -0.16694413417E+04  0.33502647908E+04  0.29046927162E+04 0.  0.
        3    1    3    3  502    0  0.42960763164E+03 -0.12300548688E+04 -0.15747958258E+04  0.20439128163E+04  0.10100000352E+00 0. -1.
       -3    1    3    3    0  502 -0.42960763164E+03  0.12300548688E+04 -0.94645515825E+02  0.13063519745E+04  0.10100000352E+00 0.  1.
</event>
<event>
 5   0  0.1960961E-05  0.2863167E+04  0.7818609E-02  0.8283921E-01
       -2   -1    0    0    0  501  0.00000000000E+00  0.00000000000E+00  0.19993508872E+04  0.19993508872E+04  0.25500000920E-02 0.  1.
        2   -1    0    0  501    0  0.00000000000E+00  0.00000000000E+00 -0.10250484557E+04  0.10250484557E+04  0.25500000920E-02 0. -1.
    10030    2    1    2    0    0  0.00000000000E+00  0.00000000000E+00  0.97430243153E+03  0.30243993430E+04  0.28631671550E+04 0.  0.
        5    1    3    3  502    0  0.65943093124E+03  0.78716059819E+03 -0.56648465477E+03  0.11727735990E+04  0.46999998093E+01 0. -1.
       -5    1    3    3    0  502 -0.65943093124E+03 -0.78716059819E+03  0.15407870863E+04  0.18516257440E+04  0.46999998093E+01 0.  1.
</event>
<event>
 5   0  0.7305460E-06  0.2852253E+04  0.7818609E-02  0.8287227E-01
       -1   -1    0    0    0  501  0.00000000000E+00  0.00000000000E+00  0.94791287304E+03  0.94791287306E+03  0.50400001928E-02 0.  1.
        1   -1    0    0  501    0  0.00000000000E+00  0.00000000000E+00 -0.21455948815E+04  0.21455948815E+04  0.50400001928E-02 0. -1.
    10030    2    1    2    0    0  0.00000000000E+00  0.00000000000E+00 -0.11976820085E+04  0.30935077546E+04  0.28522531504E+04 0.  0.
        4    1    3    3  502    0 -0.33122229551E+03 -0.13752307162E+04 -0.40221200965E+03  0.14706270246E+04  0.12699999809E+01 0.  1.
       -4    1    3    3    0  502  0.33122229551E+03  0.13752307162E+04 -0.79546999882E+03  0.16228807300E+04  0.12699999809E+01 0. -1.
</event>
<event>
 5   0  0.8122088E-06  0.2939172E+04  0.7818609E-02  0.8261317E-01
       -1   -1    0    0    0  501  0.00000000000E+00  0.00000000000E+00  0.91297399784E+03  0.91297399786E+03  0.50400001928E-02 0.  1.
        1   -1    0    0  501    0  0.00000000000E+00  0.00000000000E+00 -0.23655477152E+04  0.23655477152E+04  0.50400001928E-02 0. -1.
    10030    2    1    2    0    0  0.00000000000E+00  0.00000000000E+00 -0.14525737174E+04  0.32785217131E+04  0.29391723697E+04 0.  0.
        1    1    3    3  502    0 -0.14556314414E+02  0.34981653816E+03 -0.23183459699E+04  0.23446346268E+04  0.50400001928E-02 0. -1.
       -1    1    3    3    0  502  0.14556314414E+02 -0.34981653816E+03  0.86577225256E+03  0.93388708632E+03  0.50400001928E-02 0.  1.
</event>
<event>
 5   0  0.8122088E-06  0.2904419E+04  0.7818609E-02  0.8271564E-01
       -1   -1    0    0    0  501  0.00000000000E+00  0.00000000000E+00  0.13854453778E+04  0.13854453778E+04  0.50400001928E-02 0.  1.
        1   -1    0    0  501    0  0.00000000000E+00  0.00000000000E+00 -0.15221914576E+04  0.15221914576E+04  0.50400001928E-02 0. -1.
    10030    2    1    2    0    0  0.00000000000E+00  0.00000000000E+00 -0.13674607979E+03  0.29076368354E+04  0.29044194732E+04 0.  0.
        1    1    3    3  502    0  0.70993349710E+03 -0.41646811331E+03  0.11293894622E+04  0.13974876804E+04  0.50400001928E-02 0.  1.
       -1    1    3    3    0  502 -0.70993349710E+03  0.41646811331E+03 -0.12661355419E+04  0.15101491550E+04  0.50400001928E-02 0. -1.
</event>
<event>
 5   0  0.1960961E-05  0.1990955E+04  0.7818609E-02  0.8610861E-01
        2   -1    0    0  501    0  0.00000000000E+00  0.00000000000E+00  0.10034185561E+04  0.10034185561E+04  0.25500000920E-02 0. -1.
       -2   -1    0    0    0  501  0.00000000000E+00  0.00000000000E+00 -0.98759897169E+03  0.98759897169E+03  0.25500000920E-02 0.  1.
    10030    2    1    2    0    0  0.00000000000E+00  0.00000000000E+00  0.15819584435E+02  0.19910175278E+04  0.19909546798E+04 0.  0.
        5    1    3    3  502    0  0.29730262334E+03  0.36548615345E+03 -0.86903525481E+03  0.98854101701E+03  0.46999998093E+01 0.  1.
       -5    1    3    3    0  502 -0.29730262334E+03 -0.36548615345E+03  0.88485483924E+03  0.10024765108E+04  0.46999998093E+01 0. -1.
</event>
<event>
 5   0  0.1829810E-05  0.1869987E+04  0.7818609E-02  0.8669942E-01
        2   -1    0    0  501    0  0.00000000000E+00  0.00000000000E+00  0.77610458799E+03  0.77610458799E+03  0.25500000920E-02 0. -1.
       -2   -1    0    0    0  501  0.00000000000E+00  0.00000000000E+00 -0.11264109163E+04  0.11264109163E+04  0.25500000920E-02 0.  1.
    10030    2    1    2    0    0  0.00000000000E+00  0.00000000000E+00 -0.35030632830E+03  0.19025155043E+04  0.18699868236E+04 0.  0.
        4    1    3    3  502    0 -0.10979859500E+03  0.46720985667E+02  0.76832518051E+03  0.77753699454E+03  0.12699999809E+01 0. -1.
       -4    1    3    3    0  502  0.10979859500E+03 -0.46720985667E+02 -0.11186315088E+04  0.11249785097E+04  0.12699999809E+01 0.  1.
</event>
<event>
 5   0  0.7971153E-06  0.2967059E+04  0.7818609E-02  0.8253200E-01
        1   -1    0    0  501    0  0.00000000000E+00  0.00000000000E+00  0.16522193129E+04  0.16522193129E+04  0.50400001928E-02 0.  1.
       -1   -1    0    0    0  501  0.00000000000E+00  0.00000000000E+00 -0.13320624921E+04  0.13320624921E+04  0.50400001928E-02 0. -1.
    10030    2    1    2    0    0  0.00000000000E+00  0.00000000000E+00  0.32015682079E+03  0.29842818051E+04  0.29670587291E+04 0.  0.
        5    1    3    3  502    0  0.11935035883E+04 -0.43807961155E+03  0.92902435824E+03  0.15746342145E+04  0.46999998093E+01 0. -1.
       -5    1    3    3    0  502 -0.11935035883E+04  0.43807961155E+03 -0.60886753745E+03  0.14096475905E+04  0.46999998093E+01 0.  1.
</event>
<event>
 5   0  0.1829810E-05  0.2994297E+04  0.7818609E-02  0.8245361E-01
       -2   -1    0    0    0  501  0.00000000000E+00  0.00000000000E+00  0.10904256643E+04  0.10904256643E+04  0.25500000920E-02 0.  1.
        2   -1    0    0  501    0  0.00000000000E+00  0.00000000000E+00 -0.20555762488E+04  0.20555762488E+04  0.25500000920E-02 0. -1.
    10030    2    1    2    0    0  0.00000000000E+00  0.00000000000E+00 -0.96515058442E+03  0.31460019131E+04  0.29942966431E+04 0.  0.
        4    1    3    3  502    0 -0.21331932543E+03 -0.14183566430E+03 -0.20323784403E+04  0.20484594767E+04  0.12699999809E+01 0. -1.
       -4    1    3    3    0  502  0.21331932543E+03  0.14183566430E+03  0.10672278559E+04  0.10975424363E+04  0.12699999809E+01 0.  1.
</event>
<event>
 5   0  0.8234888E-06  0.2772683E+04  0.7818609E-02  0.8311800E-01
       -1   -1    0    0    0  501  0.00000000000E+00  0.00000000000E+00  0.14154327287E+04  0.14154327287E+04  0.50400001928E-02 0.  1.
        1   -1    0    0  501    0  0.00000000000E+00  0.00000000000E+00 -0.13578477585E+04  0.13578477585E+04  0.50400001928E-02 0. -1.
    10030    2    1    2    0    0  0.00000000000E+00  0.00000000000E+00  0.57584970168E+02  0.27732804872E+04  0.27726825696E+04 0.  0.
        3    1    3    3  502    0 -0.38622158340E+03 -0.12328386373E+04  0.53177658946E+03  0.13970843097E+04  0.10100000352E+00 0.  1.
       -3    1    3    3    0  502  0.38622158340E+03  0.12328386373E+04 -0.47419161929E+03  0.13761961775E+04  0.10100000352E+00 0. -1.
</event>
<event>
 5   0  0.1976233E-05  0.2899658E+04  0.7818609E-02  0.8272979E-01
        2   -1    0    0  501    0  0.00000000000E+00  0.00000000000E+00  0.21764478328E+04  0.21764478328E+04  0.25500000920E-02 0. -1.
       -2   -1    0    0    0  501  0.00000000000E+00  0.00000000000E+00 -0.96579588454E+03  0.96579588455E+03  0.25500000920E-02 0.  1.
    10030    2    1    2    0    0  0.00000000000E+00  0.00000000000E+00  0.12106519483E+04  0.31422437174E+04  0.28996581591E+04 0.  0.
        2    1    3    3  502    0  0.86132588564E+02  0.36460054585E+03 -0.91243731817E+03  0.98635401375E+03  0.25500000920E-02 0.  1.
       -2    1    3    3    0  502 -0.86132588564E+02 -0.36460054585E+03  0.21230892665E+04  0.21558897036E+04  0.25500000920E-02 0. -1.
</event>
<event>
 5   0  0.1918901E-05  0.2812168E+04  0.7818609E-02  0.8299501E-01
       -2   -1    0    0    0  501  0.00000000000E+00  0.00000000000E+00  0.94283015143E+03  0.94283015143E+03  0.25500000920E-02 0. -1.
        2   -1    0    0  501    0  0.00000000000E+00  0.00000000000E+00 -0.20969553425E+04  0.20969553425E+04  0.25500000920E-02 0.  1.
    10030    2    1    2    0    0  0.00000000000E+00  0.00000000000E+00 -0.11541251911E+04  0.30397854939E+04  0.28121683613E+04 0.  0.
        1    1    3    3  502    0  0.97308971457E+03 -0.17246488719E+03  0.50410715630E+03  0.11094015301E+04  0.50400001928E-02 0. -1.
       -1    1    3    3    0  502 -0.97308971457E+03  0.17246488719E+03 -0.16582323474E+04  0.19303839638E+04  0.50400001928E-02 0.  1.
</event>
<event>
 5   0  0.7305460E-06  0.2619325E+04  0.7818609E-02  0.8361666E-01
        1   -1    0    0  501    0  0.00000000000E+00  0.00000000000E+00  0.16119185007E+04  0.16119185007E+04  0.50400001928E-02 0.  1.
       -1   -1    0    0    0  501  0.00000000000E+00  0.00000000000E+00 -0.10640835878E+04  0.10640835879E+04  0.50400001928E-02 0. -1.
    10030    2    1    2    0    0  0.00000000000E+00  0.00000000000E+00  0.54783491286E+03  0.26760020886E+04  0.26193251204E+04 0.  0.
        4    1    3    3  502    0  0.17189448226E+03 -0.12895242498E+04  0.42816079069E+03  0.13695779567E+04  0.12699999809E+01 0. -1.
       -4    1    3    3    0  502 -0.17189448226E+03  0.12895242498E+04  0.11967412217E+03  0.13064241319E+04  0.12699999809E+01 0.  1.
</event>
<event>
 5   0  0.1918901E-05  0.2972266E+04  0.7818609E-02  0.8251695E-01
        2   -1    0    0  501    0  0.00000000000E+00  0.00000000000E+00  0.21007842540E+04  0.21007842540E+04  0.25500000920E-02 0. -1.
       -2   -1    0    0    0  501  0.00000000000E+00  0.00000000000E+00 -0.10513176056E+04  0.10513176056E+04  0.25500000920E-02 0.  1.
    10030    2    1    2    0    0  0.00000000000E+00  0.00000000000E+00  0.10494666484E+04  0.31521018595E+04  0.29722661198E+04 0.  0.
        1    1    3    3  502    0  0.59755275897E+03  0.10236478322E+04 -0.42598244550E+03  0.12595178554E+04  0.50400001928E-02 0.  1.
       -1    1    3    3    0  502 -0.59755275897E+03 -0.10236478322E+04  0.14754490939E+04  0.18925840042E+04  0.50400001928E-02 0. -1.
</event>
<event>
 5   0  0.6578125E-06  0.2583749E+04  0.7818609E-02  0.8373742E-01
        4   -1    0    0  501    0  0.00000000000E+00  0.00000000000E+00  0.15078858911E+04  0.15078864259E+04  0.12699999809E+01 0.  1.
       -4   -1    0    0    0  501  0.00000000000E+00  0.00000000000E+00 -0.11068069558E+04  0.11068076844E+04  0.12699999809E+01 0. -1.
    10030    2    1    2    0    0  0.00000000000E+00  0.00000000000E+00  0.40107893527E+03  0.26146941103E+04  0.25837494031E+04 0.  0.
        5    1    3    3  502    0 -0.26656557795E+03  0.12303278068E+04  0.49410766323E+03  0.13523787164E+04  0.46999998093E+01 0.  1.
       -5    1    3    3    0  502  0.26656557795E+03 -0.12303278068E+04 -0.93028727969E+02  0.12623153940E+04  0.46999998093E+01 0. -1.
</event>
<event>
 5   0  0.1829810E-05  0.2823503E+04  0.7818609E-02  0.8296009E-01
       -2   -1    0    0    0  501  0.00000000000E+00  0.00000000000E+00  0.94987497398E+03  0.94987497398E+03  0.25500000920E-02 0.  1.
        2   -1    0    0  501    0  0.00000000000E+00  0.00000000000E+00 -0.20982154654E+04  0.20982154654E+04  0.25500000920E-02 0. -1.
    10030    2    1    2    0    0  0.00000000000E+00  0.00000000000E+00 -0.11483404914E+04  0.30480904394E+04  0.28235030445E+04 0.  0.
        4    1    3    3  502    0 -0.35804656868E+03  0.13321784371E+04 -0.25004860034E+03  0.14019353227E+04  0.12699999809E+01 0.  1.
       -4    1    3    3    0  502  0.35804656868E+03 -0.13321784371E+04 -0.89829189108E+03  0.16461551167E+04  0.12699999809E+01 0. -1.
</event>
<event>
 5   0  0.1937947E-05  0.2899024E+04  0.7818609E-02  0.8273168E-01
        2   -1    0    0  501    0  0.00000000000E+00  0.00000000000E+00  0.17197600222E+04  0.17197600222E+04  0.25500000920E-02 0.  1.
       -2   -1    0    0    0  501  0.00000000000E+00  0.00000000000E+00 -0.12217315394E+04  0.12217315394E+04  0.25500000920E-02 0. -1.
    10030    2    1    2    0    0  0.00000000000E+00  0.00000000000E+00  0.49802848274E+03  0.29414915616E+04  0.28990240146E+04 0.  0.
        3    1    3    3  502    0 -0.39198126757E+03  0.20871423772E+03  0.16490363922E+04  0.17077856951E+04  0.10100000352E+00 0.  1.
       -3    1    3    3    0  502  0.39198126757E+03 -0.20871423772E+03 -0.11510079095E+04  0.12337058665E+04  0.10100000352E+00 0. -1.
</event>
<event>
 5   0  0.8055928E-06  0.2900152E+04  0.7818609E-02  0.8272832E-01
        1   -1    0    0  501    0  0.00000000000E+00  0.00000000000E+00  0.12911426017E+04  0.12911426017E+04  0.50400001928E-02 0.  1.
       -1   -1    0    0    0  501  0.00000000000E+00  0.00000000000E+00 -0.16285737826E+04  0.16285737826E+04  0.50400001928E-02 0. -1.
    10030    2    1    2    0    0  0.00000000000E+00  0.00000000000E+00 -0.33743118091E+03  0.29197163842E+04  0.29001524033E+04 0.  0.
        2    1    3    3  502    0 -0.10123262044E+04 -0.48574265799E+03  0.75506395090E+03  0.13530971303E+04  0.25500000920E-02 0.  1.
       -2    1    3    3    0  502  0.10123262044E+04  0.48574265799E+03 -0.10924951318E+04  0.15666192540E+04  0.25500000920E-02 0. -1.
</event>
<event>
 5   0  0.7305460E-06  0.2934798E+04  0.7818609E-02  0.8262599E-01
        1   -1    0    0  501    0  0.00000000000E+00  0.00000000000E+00  0.10962033080E+04  0.10962033080E+04  0.50400001928E-02 0.  1.
       -1   -1    0    0    0  501  0.00000000000E+00  0.00000000000E+00 -0.19642881102E+04  0.19642881102E+04  0.50400001928E-02 0. -1.
    10030    2    1    2    0    0  0.00000000000E+00  0.00000000000E+00 -0.86808480226E+03  0.30604914182E+04  0.29347975223E+04 0.  0.
        4    1    3    3  502    0  0.11743715331E+04 -0.82839489884E+03 -0.74316842832E+03  0.16179269241E+04  0.12699999809E+01 0. -1.
       -4    1    3    3    0  502 -0.11743715331E+04  0.82839489884E+03 -0.12491637394E+03  0.14425644941E+04  0.12699999809E+01 0.  1.
</event>
<event>
 5   0  0.8234888E-06  0.3021083E+04  0.7818609E-02  0.8237736E-01
        1   -1    0    0  501    0  0.00000000000E+00  0.00000000000E+00  0.19046438272E+04  0.19046438272E+04  0.50400001928E-02 0.  1.
       -1   -1    0    0    0  501  0.00000000000E+00  0.00000000000E+00 -0.11979852458E+04  0.11979852458E+04  0.50400001928E-02 0. -1.
    10030    2    1    2    0    0  0.00000000000E+00  0.00000000000E+00  0.70665858137E+03  0.31026290730E+04  0.30210827222E+04 0.  0.
        3    1    3    3  502    0  0.22084566665E+03  0.12871993096E+04 -0.42615750181E+03  0.13737776741E+04  0.10100000352E+00 0. -1.
       -3    1    3    3    0  502 -0.22084566665E+03 -0.12871993096E+04  0.11328160832E+04  0.17288513990E+04  0.10100000352E+00 0.  1.
</event>
<event>
 5   0  0.8234888E-06  0.2833306E+04  0.7818609E-02  0.8293002E-01
        1   -1    0    0  501    0  0.00000000000E+00  0.00000000000E+00  0.87323273950E+03  0.87323273951E+03  0.50400001928E-02 0.  1.
       -1   -1    0    0    0  501  0.00000000000E+00  0.00000000000E+00 -0.22982488395E+04  0.22982488395E+04  0.50400001928E-02 0. -1.
    10030    2    1    2    0    0  0.00000000000E+00  0.00000000000E+00 -0.14250161000E+04  0.31714815790E+04  0.28333062878E+04 0.  0.
        3    1    3    3  502    0  0.73784255524E+03  0.11460615266E+04 -0.28037608815E+03  0.13915744393E+04  0.10100000352E+00 0.  1.
       -3    1    3    3    0  502 -0.73784255524E+03 -0.11460615266E+04 -0.11446400118E+04  0.17799071397E+04  0.10100000352E+00 0. -1.
</event>
<event>
 5   0  0.1918901E-05  0.2867386E+04  0.7818609E-02  0.8282648E-01
        2   -1    0    0  501    0  0.00000000000E+00  0.00000000000E+00  0.20286980693E+04  0.20286980693E+04  0.25500000920E-02 0. -1.
       -2   -1    0    0    0  501  0.00000000000E+00  0.00000000000E+00 -0.10131991170E+04  0.10131991170E+04  0.25500000920E-02 0.  1.
    10030    2    1    2    0    0  0.00000000000E+00  0.00000000000E+00  0.10154989524E+04  0.30418971863E+04  0.28673856333E+04 0.  0.
        1    1    3    3  502    0 -0.99830103018E+03 -0.24715389723E+03 -0.55193587952E+03  0.11671860224E+04  0.50400001928E-02 0.  1.
       -1    1    3    3    0  502  0.99830103018E+03  0.24715389723E+03  0.15674348319E+04  0.18747111639E+04  0.50400001928E-02 0. -1.
</event>
<event>
 5   0  0.1937947E-05  0.2914467E+04  0.7818609E-02  0.8268586E-01
        2   -1    0    0  501    0  0.00000000000E+00  0.00000000000E+00  0.23722143535E+04  0.23722143535E+04  0.25500000920E-02 0.  1.
       -2   -1    0    0    0  501  0.00000000000E+00  0.00000000000E+00 -0.89516760814E+03  0.89516760814E+03  0.25500000920E-02 0. -1.
    10030    2    1    2    0    0  0.00000000000E+00  0.00000000000E+00  0.14770467454E+04  0.32673819617E+04  0.29144669831E+04 0.  0.
        3    1    3    3  502    0 -0.13791722624E+04  0.34603813884E+03  0.38105375562E+03  0.14720939161E+04  0.10100000352E+00 0.  1.
       -3    1    3    3    0  502  0.13791722624E+04 -0.34603813884E+03  0.10959929898E+04  0.17952880456E+04  0.10100000352E+00 0. -1.
</event>
<event>
 5   0  0.1976233E-05  0.2862568E+04  0.7818609E-02  0.8284103E-01
        2   -1    0    0  501    0  0.00000000000E+00  0.00000000000E+00  0.15926453397E+04  0.15926453397E+04  0.25500000920E-02 0.  1.
       -2   -1    0    0    0  501  0.00000000000E+00  0.00000000000E+00 -0.12862710100E+04  0.12862710100E+04  0.25500000920E-02 0. -1.
    10030    2    1    2    0    0  0.00000000000E+00  0.00000000000E+00  0.30637432971E+03  0.28789163497E+04  0.28625677492E+04 0.  0.
        2    1    3    3  502    0  0.38093966514E+03 -0.11126834971E+04 -0.66718835332E+03  0.13521537974E+04  0.25500000920E-02 0. -1.
       -2    1    3    3    0  502 -0.38093966514E+03  0.11126834971E+04  0.97356268303E+03  0.15267625522E+04  0.25500000920E-02 0.  1.
</event>
<event>
 5   0  0.8122088E-06  0.2923265E+04  0.7818609E-02  0.8265989E-01
        1   -1    0    0  501    0  0.00000000000E+00  0.00000000000E+00  0.18678391939E+04  0.18678391939E+04  0.50400001928E-02 0. -1.
       -1   -1    0    0    0  501  0.00000000000E+00  0.00000000000E+00 -0.11437651238E+04  0.11437651238E+04  0.50400001928E-02 0.  1.
    10030    2    1    2    0    0  0.00000000000E+00  0.00000000000E+00  0.72407407009E+03  0.30116043177E+04  0.29232648370E+04 0.  0.
        1    1    3    3  502    0  0.16355778706E+03 -0.33867126531E+02  0.18579750016E+04  0.18654675656E+04  0.50400001928E-02 0. -1.
       -1    1    3    3    0  502 -0.16355778706E+03  0.33867126531E+02 -0.11339009315E+04  0.11461367520E+04  0.50400001928E-02 0.  1.
</event>
<event>
 5   0  0.1976233E-05  0.2907573E+04  0.7818609E-02  0.8270628E-01
       -2   -1    0    0    0  501  0.00000000000E+00  0.00000000000E+00  0.16214992846E+04  0.16214992846E+04  0.25500000920E-02 0. -1.
        2   -1    0    0  501    0  0.00000000000E+00  0.00000000000E+00 -0.13034202179E+04  0.13034202179E+04  0.25500000920E-02 0.  1.
    10030    2    1    2    0    0  0.00000000000E+00  0.00000000000E+00  0.31807906664E+03  0.29249195025E+04  0.29075728372E+04 0.  0.
        2    1    3    3  502    0  0.12288624719E+03 -0.44495458952E+02  0.16155776312E+04  0.16208553168E+04  0.25500000920E-02 0. -1.
       -2    1    3    3    0  502 -0.12288624719E+03  0.44495458952E+02 -0.12974985645E+04  0.13040641857E+04  0.25500000920E-02 0.  1.
</event>
<event>
 5   0  0.8122088E-06  0.2841961E+04  0.7818609E-02  0.8290358E-01
       -1   -1    0    0    0  501  0.00000000000E+00  0.00000000000E+00  0.83401801047E+03  0.83401801048E+03  0.50400001928E-02 0. -1.
        1   -1    0    0  501    0  0.00000000000E+00  0.00000000000E+00 -0.24210340922E+04  0.24210340922E+04  0.50400001928E-02 0.  1.
    10030    2    1    2    0    0  0.00000000000E+00  0.00000000000E+00 -0.15870160817E+04  0.32550521027E+04  0.28419613205E+04 0.  0.
        1    1    3    3  502    0 -0.65146910675E+02  0.13943164168E+04 -0.10983178398E+04  0.17761375136E+04  0.50400001928E-02 0.  1.
       -1    1    3    3    0  502  0.65146910675E+02 -0.13943164168E+04 -0.48869824186E+03  0.14789145890E+04  0.50400001928E-02 0. -1.
</event>
<event>
 5   0  0.7971153E-06  0.2905895E+04  0.7818609E-02  0.8271126E-01
        1   -1    0    0  501    0  0.00000000000E+00  0.00000000000E+00  0.26360330054E+04  0.26360330054E+04  0.50400001928E-02 0.  1.
       -1   -1    0    0    0  501  0.00000000000E+00  0.00000000000E+00 -0.80084624847E+03  0.80084624849E+03  0.50400001928E-02 0. -1.
    10030    2    1    2    0    0  0.00000000000E+00  0.00000000000E+00  0.18351867569E+04  0.34368792539E+04  0.29058954856E+04 0.  0.
        5    1    3    3  502    0 -0.12007641325E+04 -0.41236645782E+03  0.81986972953E+02  0.12722517640E+04  0.46999998093E+01 0. -1.
       -5    1    3    3    0  502  0.12007641325E+04  0.41236645782E+03  0.17531997839E+04  0.21646274898E+04  0.46999998093E+01 0.  1.
</event>
<event>
 5   0  0.1829810E-05  0.2817374E+04  0.7818609E-02  0.8297895E-01
        2   -1    0    0  501    0  0.00000000000E+00  0.00000000000E+00  0.17544713243E+04  0.17544713243E+04  0.25500000920E-02 0.  1.
       -2   -1    0    0    0  501  0.00000000000E+00  0.00000000000E+00 -0.11310521943E+04  0.11310521943E+04  0.25500000920E-02 0. -1.
    10030    2    1    2    0    0  0.00000000000E+00  0.00000000000E+00  0.62341912999E+03  0.28855235185E+04  0.28173736998E+04 0.  0.
        4    1    3    3  502    0 -0.93474983605E+03 -0.76131455165E+03 -0.43464251823E+03  0.12815119329E+04  0.12699999809E+01 0. -1.
       -4    1    3    3    0  502  0.93474983605E+03  0.76131455165E+03  0.10580616482E+04  0.16040115856E+04  0.12699999809E+01 0.  1.
</event>
<event>
 5   0  0.8234888E-06  0.2924485E+04  0.7818609E-02  0.8265629E-01
       -1   -1    0    0    0  501  0.00000000000E+00  0.00000000000E+00  0.11350799977E+04  0.11350799977E+04  0.50400001928E-02 0.  1.
        1   -1    0    0  501    0  0.00000000000E+00  0.00000000000E+00 -0.18837029282E+04  0.18837029282E+04  0.50400001928E-02 0. -1.
    10030    2    1    2    0    0  0.00000000000E+00  0.00000000000E+00 -0.74862293052E+03  0.30187829259E+04  0.29244852643E+04 0.  0.
        3    1    3    3  502    0  0.59318656069E+03  0.11813427374E+04  0.27091344532E+03  0.13493832161E+04  0.10100000352E+00 0.  1.
       -3    1    3    3    0  502 -0.59318656069E+03 -0.11813427374E+04 -0.10195363758E+04  0.16693997097E+04  0.10100000352E+00 0. -1.
</event>
<event>
 5   0  0.8122088E-06  0.2046962E+04  0.7818609E-02  0.8584974E-01
        1   -1    0    0  501    0  0.00000000000E+00  0.00000000000E+00  0.89215084507E+03  0.89215084508E+03  0.50400001928E-02 0. -1.
       -1   -1    0    0    0  501  0.00000000000E+00  0.00000000000E+00 -0.11741439348E+04  0.11741439348E+04  0.50400001928E-02 0.  1.
    10030    2    1    2    0    0  0.00000000000E+00  0.00000000000E+00 -0.28199308970E+03  0.20662947799E+04  0.20469621429E+04 0.  0.
        1    1    3    3  502    0 -0.53399643824E+02 -0.13257692533E+03 -0.11640203346E+04  0.11727623384E+04  0.50400001928E-02 0.  1.
       -1    1    3    3    0  502  0.53399643824E+02  0.13257692533E+03  0.88202724490E+03  0.89353244142E+03  0.50400001928E-02 0. -1.
</event>
<event>
 5   0  0.8055928E-06  0.1507375E+04  0.7818609E-02  0.8879563E-01
       -1   -1    0    0    0  501  0.00000000000E+00  0.00000000000E+00  0.29925380072E+03  0.29925380077E+03  0.50400001928E-02 0. -1.
        1   -1    0    0  501    0  0.00000000000E+00  0.00000000000E+00 -0.18982040667E+04  0.18982040667E+04  0.50400001928E-02 0.  1.
    10030    2    1    2    0    0  0.00000000000E+00  0.00000000000E+00 -0.15989502660E+04  0.21974578675E+04  0.15073749123E+04 0.  0.
        2    1    3    3  502    0  0.23307638094E+03 -0.69476515284E+03 -0.10562373536E+04  0.12855584639E+04  0.25500000920E-02 0.  1.
       -2    1    3    3    0  502 -0.23307638094E+03  0.69476515284E+03 -0.54271291234E+03  0.91189940355E+03  0.25500000920E-02 0. -1.
</event>
<event>
 5   0  0.7305460E-06  0.2954248E+04  0.7818609E-02  0.8256918E-01
        1   -1    0    0  501    0  0.00000000000E+00  0.00000000000E+00  0.24856097907E+04  0.24856097907E+04  0.50400001928E-02 0. -1.
       -1   -1    0    0    0  501  0.00000000000E+00  0.00000000000E+00 -0.87781106504E+03  0.87781106506E+03  0.50400001928E-02 0.  1.
    10030    2    1    2    0    0  0.00000000000E+00  0.00000000000E+00  0.16077987256E+04  0.33634208557E+04  0.29542483157E+04 0.  0.
        4    1    3    3  502    0 -0.32159712879E+03 -0.13357119409E+04  0.18622280624E+03  0.13864456890E+04  0.12699999809E+01 0.  1.
       -4    1    3    3    0  502  0.32159712879E+03  0.13357119409E+04  0.14215759194E+04  0.19769751667E+04  0.12699999809E+01 0. -1.
</event>
<event>
 5   0  0.6578125E-06  0.2363255E+04  0.7818609E-02  0.8453390E-01
        3   -1    0    0  501    0  0.00000000000E+00  0.00000000000E+00  0.13840552599E+04  0.13840552636E+04  0.10100000352E+00 0. -1.
       -3   -1    0    0    0  501  0.00000000000E+00  0.00000000000E+00 -0.10088061879E+04  0.10088061930E+04  0.10100000352E+00 0.  1.
    10030    2    1    2    0    0  0.00000000000E+00  0.00000000000E+00  0.37524907199E+03  0.23928614565E+04  0.23632549765E+04 0.  0.
        4    1    3    3  502    0  0.98046967811E+03 -0.55013867512E+03 -0.18061912561E+03  0.11386826744E+04  0.12699999809E+01 0.  1.
       -4    1    3    3    0  502 -0.98046967811E+03  0.55013867512E+03  0.55586819760E+03  0.12541787821E+04  0.12699999809E+01 0. -1.
</event>
<event>
 5   0  0.1918901E-05  0.2845650E+04  0.7818609E-02  0.8289234E-01
        2   -1    0    0  501    0  0.00000000000E+00  0.00000000000E+00  0.17385025117E+04  0.17385025118E+04  0.25500000920E-02 0. -1.
       -2   -1    0    0    0  501  0.00000000000E+00  0.00000000000E+00 -0.11644682945E+04  0.11644682945E+04  0.25500000920E-02 0.  1.
    10030    2    1    2    0    0  0.00000000000E+00  0.00000000000E+00  0.57403421725E+03  0.29029708063E+04  0.28456500522E+04 0.  0.
        1    1    3    3  502    0 -0.10743665712E+03  0.11883786123E+04  0.10776411196E+04  0.16078236048E+04  0.50400001928E-02 0. -1.
       -1    1    3    3    0  502  0.10743665712E+03 -0.11883786123E+04 -0.50360690233E+03  0.12951472015E+04  0.50400001928E-02 0.  1.
</event>
<event>
 5   0  0.8055928E-06  0.2908014E+04  0.7818609E-02  0.8270497E-01
       -1   -1    0    0    0  501  0.00000000000E+00  0.00000000000E+00  0.14989512937E+04  0.14989512937E+04  0.50400001928E-02 0. -1.
        1   -1    0    0  501    0  0.00000000000E+00  0.00000000000E+00 -0.14104105417E+04  0.14104105417E+04  0.50400001928E-02 0.  1.
    10030    2    1    2    0    0  0.00000000000E+00  0.00000000000E+00  0.88540752033E+02  0.29093618354E+04  0.29080142408E+04 0.  0.
        2    1    3    3  502    0 -0.63220485265E+03  0.79174245380E+03  0.10876331374E+04  0.14864336280E+04  0.25500000920E-02 0.  1.
       -2    1    3    3    0  502  0.63220485265E+03 -0.79174245380E+03 -0.99909238539E+03  0.14229282074E+04  0.25500000920E-02 0. -1.
</event>
<event>
 5   0  0.1937947E-05  0.2849377E+04  0.7818609E-02  0.8288101E-01
       -2   -1    0    0    0  501  0.00000000000E+00  0.00000000000E+00  0.13887476024E+04  0.13887476024E+04  0.25500000920E-02 0. -1.
        2   -1    0    0  501    0  0.00000000000E+00  0.00000000000E+00 -0.14615590875E+04  0.14615590875E+04  0.25500000920E-02 0.  1.
    10030    2    1    2    0    0  0.00000000000E+00  0.00000000000E+00 -0.72811485167E+02  0.28503066899E+04  0.28493765483E+04 0.  0.
        3    1    3    3  502    0 -0.12496085022E+04  0.90072511495E+02 -0.71493550595E+03  0.14424864832E+04  0.10100000352E+00 0.  1.
       -3    1    3    3    0  502  0.12496085022E+04 -0.90072511495E+02  0.64212402078E+03  0.14078202067E+04  0.10100000352E+00 0. -1.
</event>
<event>
 5   0  0.7305460E-06  0.2930494E+04  0.7818609E-02  0.8263862E-01
       -1   -1    0    0    0  501  0.00000000000E+00  0.00000000000E+00  0.84827982146E+03  0.84827982148E+03  0.50400001928E-02 0.  1.
        1   -1    0    0  501    0  0.00000000000E+00  0.00000000000E+00 -0.25309435695E+04  0.25309435695E+04  0.50400001928E-02 0. -1.
    10030    2    1    2    0    0  0.00000000000E+00  0.00000000000E+00 -0.16826637480E+04  0.33792233910E+04  0.29304937190E+04 0.  0.
        4    1    3    3  502    0  0.28734469057E+03 -0.49158317033E+02  0.81450125161E+03  0.86509965502E+03  0.12699999809E+01 0.  1.
       -4    1    3    3    0  502 -0.28734469057E+03  0.49158317033E+02 -0.24971649996E+04  0.25141237360E+04  0.12699999809E+01 0. -1.
</event>
<event>
 5   0  0.1918901E-05  0.2866143E+04  0.7818609E-02  0.8283023E-01
       -2   -1    0    0    0  501  0.00000000000E+00  0.00000000000E+00  0.16415667375E+04  0.16415667375E+04  0.25500000920E-02 0.  1.
        2   -1    0    0  501    0  0.00000000000E+00  0.00000000000E+00 -0.12510575938E+04  0.12510575938E+04  0.25500000920E-02 0. -1.
    10030    2    1    2    0    0  0.00000000000E+00  0.00000000000E+00  0.39050914370E+03  0.28926243312E+04  0.28661434246E+04 0.  0.
        1    1    3    3  502    0  0.11688960814E+04  0.78902225334E+03 -0.61696160151E+02  0.14116233852E+04  0.50400001928E-02 0. -1.
       -1    1    3    3    0  502 -0.11688960814E+04 -0.78902225334E+03  0.45220530385E+03  0.14810009461E+04  0.50400001928E-02 0.  1.
</event>
<event>
 5   0  0.8234888E-06  0.3040410E+04  0.7818609E-02  0.8232285E-01
       -1   -1    0    0    0  501  0.00000000000E+00  0.00000000000E+00  0.19916893032E+04  0.19916893032E+04  0.50400001928E-02 0. -1.
        1   -1    0    0  501    0  0.00000000000E+00  0.00000000000E+00 -0.11603330713E+04  0.11603330713E+04  0.50400001928E-02 0.  1.
    10030    2    1    2    0    0  0.00000000000E+00  0.00000000000E+00  0.83135623195E+03  0.31520223745E+04  0.30404098186E+04 0.  0.
        3    1    3    3  502    0  0.31424258650E+03 -0.14754841742E+04  0.61024012158E+03  0.16273275539E+04  0.10100000352E+00 0. -1.
       -3    1    3    3    0  502 -0.31424258650E+03  0.14754841742E+04  0.22111611037E+03  0.15246948206E+04  0.10100000352E+00 0.  1.
</event>
<event>
 5   0  0.1829810E-05  0.2891940E+04  0.7818609E-02  0.8275280E-01
        2   -1    0    0  501    0  0.00000000000E+00  0.00000000000E+00  0.12874832473E+04  0.12874832473E+04  0.25500000920E-02 0.  1.
       -2   -1    0    0    0  501  0.00000000000E+00  0.00000000000E+00 -0.16239661445E+04  0.16239661445E+04  0.25500000920E-02 0. -1.
    10030    2    1    2    0    0  0.00000000000E+00  0.00000000000E+00 -0.33648289720E+03  0.29114493918E+04  0.28919399753E+04 0.  0.
        4    1    3    3  502    0  0.79683446425E+03  0.97538021037E+03 -0.88332598825E+03  0.15383686595E+04  0.12699999809E+01 0. -1.
       -4    1    3    3    0  502 -0.79683446425E+03 -0.97538021037E+03  0.54684309105E+03  0.13730807323E+04  0.12699999809E+01 0.  1.
</event>
<event>
 5   0  0.1829810E-05  0.1819163E+04  0.7818609E-02  0.8696175E-01
        2   -1    0    0  501    0  0.00000000000E+00  0.00000000000E+00  0.23401543704E+04  0.23401543704E+04  0.25500000920E-02 0. -1.
       -2   -1    0    0    0  501  0.00000000000E+00  0.00000000000E+00 -0.35353999407E+03  0.35353999408E+03  0.25500000920E-02 0.  1.
    10030    2    1    2    0    0  0.00000000000E+00  0.00000000000E+00  0.19866143763E+04  0.26936943645E+04  0.18191626230E+04 0.  0.
        4    1    3    3  502    0 -0.38658590983E+03  0.17475392192E+03 -0.19806104956E+03  0.46820656890E+03  0.12699999809E+01 0.  1.
       -4    1    3    3    0  502  0.38658590983E+03 -0.17475392192E+03  0.21846754259E+04  0.22254877956E+04  0.12699999809E+01 0. -1.
</event>
<event>
 5   0  0.1960961E-05  0.2886606E+04  0.7818609E-02  0.8276874E-01
       -2   -1    0    0    0  501  0.00000000000E+00  0.00000000000E+00  0.10804363744E+04  0.10804363744E+04  0.25500000920E-02 0.  1.
        2   -1    0    0  501    0  0.00000000000E+00  0.00000000000E+00 -0.19280386881E+04  0.19280386881E+04  0.25500000920E-02 0. -1.
    10030    2    1    2    0    0  0.00000000000E+00  0.00000000000E+00 -0.84760231375E+03  0.30084750625E+04  0.28866057091E+04 0.  0.
        5    1    3    3  502    0  0.14134508688E+04 -0.25897218412E+03 -0.28323256295E+03  0.14646339903E+04  0.46999998093E+01 0.  1.
       -5    1    3    3    0  502 -0.14134508688E+04  0.25897218412E+03 -0.56436975080E+03  0.15438410723E+04  0.46999998093E+01 0. -1.
</event>
<event>
 5   0  0.1976233E-05  0.2815725E+04  0.7818609E-02  0.8298403E-01
       -2   -1    0    0    0  501  0.00000000000E+00  0.00000000000E+00  0.14785571472E+04  0.14785571472E+04  0.25500000920E-02 0. -1.
        2   -1    0    0  501    0  0.00000000000E+00  0.00000000000E+00 -0.13405482651E+04  0.13405482651E+04  0.25500000920E-02 0.  1.
    10030    2    1    2    0    0  0.00000000000E+00  0.00000000000E+00  0.13800888209E+03  0.28191054124E+04  0.28157252839E+04 0.  0.
        2    1    3    3  502    0  0.71670384939E+03 -0.47472684890E+03 -0.10472542410E+04  0.13549064300E+04  0.25500000920E-02 0.  1.
       -2    1    3    3    0  502 -0.71670384939E+03  0.47472684890E+03  0.11852631231E+04  0.14641989823E+04  0.25500000920E-02 0. -1.
</event>
<event>
 5   0  0.1937947E-05  0.2805877E+04  0.7818609E-02  0.8301446E-01
        2   -1    0    0  501    0  0.00000000000E+00  0.00000000000E+00  0.15427995121E+04  0.15427995121E+04  0.25500000920E-02 0.  1.
       -2   -1    0    0    0  501  0.00000000000E+00  0.00000000000E+00 -0.12757561533E+04  0.12757561533E+04  0.25500000920E-02 0. -1.
    10030    2    1    2    0    0  0.00000000000E+00  0.00000000000E+00  0.26704335887E+03  0.28185556654E+04  0.28058766693E+04 0.  0.
        3    1    3    3  502    0 -0.24512938139E+03  0.56450855262E+03  0.13999635193E+04  0.15292665513E+04  0.10100000352E+00 0.  1.
       -3    1    3    3    0  502  0.24512938139E+03 -0.56450855262E+03 -0.11329201604E+04  0.12892891141E+04  0.10100000352E+00 0. -1.
</event>
<event>
 5   0  0.1937947E-05  0.2928581E+04  0.7818609E-02  0.8264424E-01
       -2   -1    0    0    0  501  0.00000000000E+00  0.00000000000E+00  0.13831941513E+04  0.13831941513E+04  0.25500000920E-02 0.  1.
        2   -1    0    0  501    0  0.00000000000E+00  0.00000000000E+00 -0.15501418149E+04  0.15501418150E+04  0.25500000920E-02 0. -1.
    10030    2    1    2    0    0  0.00000000000E+00  0.00000000000E+00 -0.16694766360E+03  0.29333359663E+04  0.29285812894E+04 0.  0.
        3    1    3    3  502    0 -0.14430676849E+04 -0.24815355890E+03 -0.72385630514E+02  0.14660369101E+04  0.10100000352E+00 0. -1.
       -3    1    3    3    0  502  0.14430676849E+04  0.24815355890E+03 -0.94562033090E+02  0.14672990562E+04  0.10100000352E+00 0.  1.
</event>
<event>
 5   0  0.1976233E-05  0.1753934E+04  0.7818609E-02  0.8731188E-01
       -2   -1    0    0    0  501  0.00000000000E+00  0.00000000000E+00  0.82685742870E+03  0.82685742870E+03  0.25500000920E-02 0.  1.
        2   -1    0    0  501    0  0.00000000000E+00  0.00000000000E+00 -0.93011369596E+03  0.93011369596E+03  0.25500000920E-02 0. -1.
    10030    2    1    2    0    0  0.00000000000E+00  0.00000000000E+00 -0.10325626726E+03  0.17569711247E+04  0.17539343420E+04 0.  0.
        2    1    3    3  502    0  0.21205266806E+02  0.29820790901E+02 -0.92934864711E+03  0.93006873445E+03  0.25500000920E-02 0. -1.
       -2    1    3    3    0  502 -0.21205266806E+02 -0.29820790901E+02  0.82609237985E+03  0.82690239022E+03  0.25500000920E-02 0.  1.
</event>
<event>
 5   0  0.1960961E-05  0.2801484E+04  0.7818609E-02  0.8302808E-01
        2   -1    0    0  501    0  0.00000000000E+00  0.00000000000E+00  0.19994069938E+04  0.19994069938E+04  0.25500000920E-02 0. -1.
       -2   -1    0    0    0  501  0.00000000000E+00  0.00000000000E+00 -0.98133038621E+03  0.98133038621E+03  0.25500000920E-02 0.  1.
    10030    2    1    2    0    0  0.00000000000E+00  0.00000000000E+00  0.10180766076E+04  0.29807373800E+04  0.28014844904E+04 0.  0.
        5    1    3    3  502    0  0.60083688476E+03 -0.18784002399E+03 -0.82233298032E+03  0.10356362572E+04  0.46999998093E+01 0.  1.
       -5    1    3    3    0  502 -0.60083688476E+03  0.18784002399E+03  0.18404095879E+04  0.19451011228E+04  0.46999998093E+01 0. -1.
</event>
<event>
 5   0  0.1937947E-05  0.2851413E+04  0.7818609E-02  0.8287482E-01
        2   -1    0    0  501    0  0.00000000000E+00  0.00000000000E+00  0.18593233761E+04  0.18593233761E+04  0.25500000920E-02 0. -1.
       -2   -1    0    0    0  501  0.00000000000E+00  0.00000000000E+00 -0.10932143406E+04  0.10932143406E+04  0.25500000920E-02 0.  1.
    10030    2    1    2    0    0  0.00000000000E+00  0.00000000000E+00  0.76610903550E+03  0.29525377167E+04  0.28514129680E+04 0.  0.
        3    1    3    3  502    0  0.14842468616E+03 -0.51279154698E+03 -0.98581814435E+03  0.11210809436E+04  0.10100000352E+00 0.  1.
       -3    1    3    3    0  502 -0.14842468616E+03  0.51279154698E+03  0.17519271799E+04  0.18314567731E+04  0.10100000352E+00 0. -1.
</event>
<event>
 5   0  0.7305460E-06  0.2860866E+04  0.7818609E-02  0.8284617E-01
       -1   -1    0    0    0  501  0.00000000000E+00  0.00000000000E+00  0.12307153169E+04  0.12307153170E+04  0.50400001928E-02 0. -1.
        1   -1    0    0  501    0  0.00000000000E+00  0.00000000000E+00 -0.16625609411E+04  0.16625609411E+04  0.50400001928E-02 0.  1.
    10030    2    1    2    0    0  0.00000000000E+00  0.00000000000E+00 -0.43184562419E+03  0.28932762581E+04  0.28608664531E+04 0.  0.
        4    1    3    3  502    0 -0.69513099347E+03  0.36405950196E+02  0.10478759599E+04  0.12580056167E+04  0.12699999809E+01 0. -1.
       -4    1    3    3    0  502  0.69513099347E+03 -0.36405950196E+02 -0.14797215841E+04  0.16352706414E+04  0.12699999809E+01 0.  1.
</event>
<event>
 5   0  0.1918901E-05  0.2887605E+04  0.7818609E-02  0.8276575E-01
        2   -1    0    0  501    0  0.00000000000E+00  0.00000000000E+00  0.20027650493E+04  0.20027650493E+04  0.25500000920E-02 0. -1.
       -2   -1    0    0    0  501  0.00000000000E+00  0.00000000000E+00 -0.10408439909E+04  0.10408439909E+04  0.25500000920E-02 0.  1.
    10030    2    1    2    0    0  0.00000000000E+00  0.00000000000E+00  0.96192105840E+03  0.30436090402E+04  0.28876052132E+04 0.  0.
        1    1    3    3  502    0 -0.38962848948E+03 -0.12268857442E+04 -0.20820358011E+03  0.13039968251E+04  0.50400001928E-02 0.  1.
       -1    1    3    3    0  502  0.38962848948E+03  0.12268857442E+04  0.11701246385E+04  0.17396122151E+04  0.50400001928E-02 0. -1.
</event>
<event>
 5   0  0.1976233E-05  0.2922138E+04  0.7818609E-02  0.8266321E-01
       -2   -1    0    0    0  501  0.00000000000E+00  0.00000000000E+00  0.94082187943E+03  0.94082187944E+03  0.25500000920E-02 0. -1.
        2   -1    0    0  501    0  0.00000000000E+00  0.00000000000E+00 -0.22689981805E+04  0.22689981805E+04  0.25500000920E-02 0.  1.
    10030    2    1    2    0    0  0.00000000000E+00  0.00000000000E+00 -0.13281763011E+04  0.32098200600E+04  0.29221383490E+04 0.  0.
        2    1    3    3  502    0 -0.13622061344E+04 -0.59930171375E+02 -0.87506030175E+02  0.13663288343E+04  0.25500000920E-02 0. -1.
       -2    1    3    3    0  502  0.13622061344E+04  0.59930171375E+02 -0.12406702709E+04  0.18434912257E+04  0.25500000920E-02 0.  1.
</event>
<event>
 5   0  0.8055928E-06  0.2912259E+04  0.7818609E-02  0.8269239E-01
        1   -1    0    0  501    0  0.00000000000E+00  0.00000000000E+00  0.15532760516E+04  0.15532760516E+04  0.50400001928E-02 0. -1.
       -1   -1    0    0    0  501  0.00000000000E+00  0.00000000000E+00 -0.13650591064E+04  0.13650591064E+04  0.50400001928E-02 0.  1.
    10030    2    1    2    0    0  0.00000000000E+00  0.00000000000E+00  0.18821694515E+03  0.29183351580E+04  0.29122593421E+04 0.  0.
        2    1    3    3  502    0 -0.67761152044E+03  0.31810514104E+03 -0.11574830079E+04  0.13784466500E+04  0.25500000920E-02 0.  1.
       -2    1    3    3    0  502  0.67761152044E+03 -0.31810514104E+03  0.13456999530E+04  0.15398885080E+04  0.25500000920E-02 0. -1.
</event>
<event>
 5   0  0.1960961E-05  0.2876599E+04  0.7818609E-02  0.8279874E-01
        2   -1    0    0  501    0  0.00000000000E+00  0.00000000000E+00  0.21937701017E+04  0.21937701017E+04  0.25500000920E-02 0.  1.
       -2   -1    0    0    0  501  0.00000000000E+00  0.00000000000E+00 -0.94299079218E+03  0.94299079218E+03  0.25500000920E-02 0. -1.
    10030    2    1    2    0    0  0.00000000000E+00  0.00000000000E+00  0.12507793096E+04  0.31367608939E+04  0.28765986902E+04 0.  0.
        5    1    3    3  502    0  0.45676941780E+03  0.28736378635E+03  0.20791836458E+04  0.21480789021E+04  0.46999998093E+01 0.  1.
       -5    1    3    3    0  502 -0.45676941780E+03 -0.28736378635E+03 -0.82840433621E+03  0.98868199184E+03  0.46999998093E+01 0. -1.
</event>
<event>
 5   0  0.8234888E-06  0.2915399E+04  0.7818609E-02  0.8268310E-01
       -1   -1    0    0    0  501  0.00000000000E+00  0.00000000000E+00  0.13473871687E+04  0.13473871687E+04  0.50400001928E-02 0. -1.
        1   -1    0    0  501    0  0.00000000000E+00  0.00000000000E+00 -0.15770437627E+04  0.15770437627E+04  0.50400001928E-02 0.  1.
    10030    2    1    2    0    0  0.00000000000E+00  0.00000000000E+00 -0.22965659393E+03  0.29244309314E+04  0.29153994789E+04 0.  0.
        3    1    3    3  502    0  0.43347610895E+03  0.78919522659E+03 -0.12647468162E+04  0.15525189732E+04  0.10100000352E+00 0.  1.
       -3    1    3    3    0  502 -0.43347610895E+03 -0.78919522659E+03  0.10350902223E+04  0.13719119582E+04  0.10100000352E+00 0. -1.
</event>
<event>
 5   0  0.8234888E-06  0.2899727E+04  0.7818609E-02  0.8272959E-01
        1   -1    0    0  501    0  0.00000000000E+00  0.00000000000E+00  0.16788853573E+04  0.16788853573E+04  0.50400001928E-02 0.  1.
       -1   -1    0    0    0  501  0.00000000000E+00  0.00000000000E+00 -0.12520829019E+04  0.12520829019E+04  0.50400001928E-02 0. -1.
    10030    2    1    2    0    0  0.00000000000E+00  0.00000000000E+00  0.42680245540E+03  0.29309682592E+04  0.28997266423E+04 0.  0.
        3    1    3    3  502    0 -0.35926224219E+03  0.70041231824E+03  0.14440810760E+04  0.16446935698E+04  0.10100000352E+00 0.  1.
       -3    1    3    3    0  502  0.35926224219E+03 -0.70041231824E+03 -0.10172786206E+04  0.12862746893E+04  0.10100000352E+00 0. -1.
</event>
<event>
 5   0  0.7305460E-06  0.2904126E+04  0.7818609E-02  0.8271651E-01
       -1   -1    0    0    0  501  0.00000000000E+00  0.00000000000E+00  0.11187196797E+04  0.11187196797E+04  0.50400001928E-02 0. -1.
        1   -1    0    0  501    0  0.00000000000E+00  0.00000000000E+00 -0.18847317457E+04  0.18847317457E+04  0.50400001928E-02 0.  1.
    10030    2    1    2    0    0  0.00000000000E+00  0.00000000000E+00 -0.76601206601E+03  0.30034514254E+04  0.29041256824E+04 0.  0.
        4    1    3    3  502    0 -0.10273996430E+04 -0.67981541426E+03 -0.11779202245E+04  0.17044637550E+04  0.12699999809E+01 0.  1.
       -4    1    3    3    0  502  0.10273996430E+04  0.67981541426E+03  0.41190815848E+03  0.12989876704E+04  0.12699999809E+01 0. -1.
</event>
<event>
 5   0  0.1829810E-05  0.2904948E+04  0.7818609E-02  0.8271407E-01
        2   -1    0    0  501    0  0.00000000000E+00  0.00000000000E+00  0.15807184937E+04  0.15807184937E+04  0.25500000920E-02 0. -1.
       -2   -1    0    0    0  501  0.00000000000E+00  0.00000000000E+00 -0.13346344769E+04  0.13346344769E+04  0.25500000920E-02 0.  1.
    10030    2    1    2    0    0  0.00000000000E+00  0.00000000000E+00  0.24608401674E+03  0.29153529706E+04  0.29049484677E+04 0.  0.
        4    1    3    3  502    0 -0.10305141717E+04 -0.27280071322E+02 -0.90384131383E+03  0.13709975908E+04  0.12699999809E+01 0.  1.
       -4    1    3    3    0  502  0.10305141717E+04  0.27280071322E+02  0.11499253306E+04  0.15443553798E+04  0.12699999809E+01 0. -1.
</event>
<event>
 5   0  0.1976233E-05  0.2851919E+04  0.7818609E-02  0.8287328E-01
        2   -1    0    0  501    0  0.00000000000E+00  0.00000000000E+00  0.27002871994E+04  0.27002871994E+04  0.25500000920E-02 0. -1.
       -2   -1    0    0    0  501  0.00000000000E+00  0.00000000000E+00 -0.75301646692E+03  0.75301646692E+03  0.25500000920E-02 0.  1.
    10030    2    1    2    0    0  0.00000000000E+00  0.00000000000E+00  0.19472707324E+04  0.34533036663E+04  0.28519191619E+04 0.  0.
        2    1    3    3  502    0  0.12787404081E+04  0.62994872998E+03  0.92917329808E+03  0.17015802807E+04  0.25500000920E-02 0.  1.
       -2    1    3    3    0  502 -0.12787404081E+04 -0.62994872998E+03  0.10180974344E+04  0.17517233856E+04  0.25500000920E-02 0. -1.
</event>
<event>
 5   0  0.1829810E-05  0.2829657E+04  0.7818609E-02  0.8294120E-01
        2   -1    0    0  501    0  0.00000000000E+00  0.00000000000E+00  0.23089209042E+04  0.23089209042E+04  0.25500000920E-02 0. -1.
       -2   -1    0    0    0  501  0.00000000000E+00  0.00000000000E+00 -0.86695908488E+03  0.86695908488E+03  0.25500000920E-02 0.  1.
    10030    2    1    2    0    0  0.00000000000E+00  0.00000000000E+00  0.14419618194E+04  0.31758799891E+04  0.28296571907E+04 0.  0.
        4    1    3    3  502    0 -0.18252439825E+03 -0.61520607298E+03  0.21361921339E+04  0.22304959345E+04  0.12699999809E+01 0. -1.
       -4    1    3    3    0  502  0.18252439825E+03  0.61520607298E+03 -0.69423031452E+03  0.94538405459E+03  0.12699999809E+01 0.  1.
</event>
<event>
 5   0  0.1918901E-05  0.2847809E+04  0.7818609E-02  0.8288577E-01
        2   -1    0    0  501    0  0.00000000000E+00  0.00000000000E+00  0.14226090248E+04  0.14226090248E+04  0.25500000920E-02 0. -1.
       -2   -1    0    0    0  501  0.00000000000E+00  0.00000000000E+00 -0.14252011364E+04  0.14252011364E+04  0.25500000920E-02 0.  1.
    10030    2    1    2    0    0  0.00000000000E+00  0.00000000000E+00 -0.25921115996E+01  0.28478101613E+04  0.28478089816E+04 0.  0.
        1    1    3    3  502    0 -0.10266251827E+03 -0.21687565961E+03  0.14022462437E+04  0.14226275593E+04  0.50400001928E-02 0. -1.
       -1    1    3    3    0  502  0.10266251827E+03  0.21687565961E+03 -0.14048383553E+04  0.14251826020E+04  0.50400001928E-02 0.  1.
</event>
<event>
 5   0  0.1937947E-05  0.2926001E+04  0.7818609E-02  0.8265183E-01
        2   -1    0    0  501    0  0.00000000000E+00  0.00000000000E+00  0.24277582259E+04  0.24277582259E+04  0.25500000920E-02 0. -1.
       -2   -1    0    0    0  501  0.00000000000E+00  0.00000000000E+00 -0.88162408519E+03  0.88162408520E+03  0.25500000920E-02 0.  1.
    10030    2    1    2    0    0  0.00000000000E+00  0.00000000000E+00  0.15461341407E+04  0.33093823111E+04  0.29260007689E+04 0.  0.
        3    1    3    3  502    0 -0.49465279348E+03  0.16700195195E+03  0.23188111205E+04  0.23768584436E+04  0.10100000352E+00 0. -1.
       -3    1    3    3    0  502  0.49465279348E+03 -0.16700195195E+03 -0.77267697983E+03  0.93252386748E+03  0.10100000352E+00 0.  1.
</event>
<event>
 5   0  0.8122088E-06  0.1947402E+04  0.7818609E-02  0.8631614E-01
       -1   -1    0    0    0  501  0.00000000000E+00  0.00000000000E+00  0.39244870305E+03  0.39244870309E+03  0.50400001928E-02 0. -1.
        1   -1    0    0  501    0  0.00000000000E+00  0.00000000000E+00 -0.24158413718E+04  0.24158413718E+04  0.50400001928E-02 0.  1.
    10030    2    1    2    0    0  0.00000000000E+00  0.00000000000E+00 -0.20233926687E+04  0.28082900749E+04  0.19474021805E+04 0.  0.
        1    1    3    3  502    0  0.23142098919E+03 -0.31433175293E+03  0.27468634975E+03  0.47729730347E+03  0.50400001928E-02 0. -1.
       -1    1    3    3    0  502 -0.23142098919E+03  0.31433175293E+03 -0.22980790185E+04  0.23309927714E+04  0.50400001928E-02 0.  1.
</event>
<event>
 5   0  0.1976233E-05  0.3455696E+04  0.7818609E-02  0.8124370E-01
       -2   -1    0    0    0  501  0.00000000000E+00  0.00000000000E+00  0.18002961422E+04  0.18002961422E+04  0.25500000920E-02 0.  1.
        2   -1    0    0  501    0  0.00000000000E+00  0.00000000000E+00 -0.16583157594E+04  0.16583157594E+04  0.25500000920E-02 0. -1.
    10030    2    1    2    0    0  0.00000000000E+00  0.00000000000E+00  0.14198038285E+03  0.34586119016E+04  0.34556964359E+04 0.  0.
        2    1    3    3  502    0 -0.11172868819E+04 -0.81695950760E+03 -0.96414862533E+03  0.16868121962E+04  0.25500000920E-02 0. -1.
       -2    1    3    3    0  502  0.11172868819E+04  0.81695950760E+03  0.11061290082E+04  0.17717997054E+04  0.25500000920E-02 0.  1.
</event>
<event>
 5   0  0.8055928E-06  0.2927984E+04  0.7818609E-02  0.8264600E-01
        1   -1    0    0  501    0  0.00000000000E+00  0.00000000000E+00  0.17065777133E+04  0.17065777133E+04  0.50400001928E-02 0. -1.
       -1   -1    0    0    0  501  0.00000000000E+00  0.00000000000E+00 -0.12558890877E+04  0.12558890877E+04  0.50400001928E-02 0.  1.
    10030    2    1    2    0    0  0.00000000000E+00  0.00000000000E+00  0.45068862559E+03  0.29624668010E+04  0.29279838302E+04 0.  0.
        2    1    3    3  502    0  0.81586338480E+03 -0.82596329139E+03 -0.67702462622E+03  0.13439534091E+04  0.25500000920E-02 0.  1.
       -2    1    3    3    0  502 -0.81586338480E+03  0.82596329139E+03  0.11277132518E+04  0.16185133919E+04  0.25500000920E-02 0. -1.
</event>
<event>
 5   0  0.1829810E-05  0.1486910E+04  0.7818609E-02  0.8893204E-01
        2   -1    0    0  501    0  0.00000000000E+00  0.00000000000E+00  0.82981870754E+03  0.82981870754E+03  0.25500000920E-02 0. -1.
       -2   -1    0    0    0  501  0.00000000000E+00  0.00000000000E+00 -0.66607974212E+03  0.66607974212E+03  0.25500000920E-02 0.  1.
    10030    2    1    2    0    0  0.00000000000E+00  0.00000000000E+00  0.16373896542E+03  0.14958984497E+04  0.14869101260E+04 0.  0.
        4    1    3    3  502    0  0.24614326086E+03  0.12392086023E+03  0.77653674577E+03  0.82398653805E+03  0.12699999809E+01 0. -1.
       -4    1    3    3    0  502 -0.24614326086E+03 -0.12392086023E+03 -0.61279778035E+03  0.67191191161E+03  0.12699999809E+01 0.  1.
</event>
<event>
 5   0  0.1829810E-05  0.2881402E+04  0.7818609E-02  0.8278432E-01
       -2   -1    0    0    0  501  0.00000000000E+00  0.00000000000E+00  0.87084570517E+03  0.87084570518E+03  0.25500000920E-02 0. -1.
        2   -1    0    0  501    0  0.00000000000E+00  0.00000000000E+00 -0.23834531957E+04  0.23834531957E+04  0.25500000920E-02 0.  1.
    10030    2    1    2    0    0  0.00000000000E+00  0.00000000000E+00 -0.15126074905E+04  0.32542989009E+04  0.28814024217E+04 0.  0.
        4    1    3    3  502    0 -0.85924951716E+03  0.82477755021E+03  0.15918485198E+03  0.12016277169E+04  0.12699999809E+01 0. -1.
       -4    1    3    3    0  502  0.85924951716E+03 -0.82477755021E+03 -0.16717923425E+04  0.20526711839E+04  0.12699999809E+01 0.  1.
</event>
<event>
 5   0  0.8122088E-06  0.2857428E+04  0.7818609E-02  0.8285658E-01
       -1   -1    0    0    0  501  0.00000000000E+00  0.00000000000E+00  0.11480028967E+04  0.11480028967E+04  0.50400001928E-02 0.  1.
        1   -1    0    0  501    0  0.00000000000E+00  0.00000000000E+00 -0.17780651908E+04  0.17780651908E+04  0.50400001928E-02 0. -1.
    10030    2    1    2    0    0  0.00000000000E+00  0.00000000000E+00 -0.63006229417E+03  0.29260680875E+04  0.28574282070E+04 0.  0.
        1    1    3    3  502    0 -0.34027444924E+03 -0.75484881033E+03 -0.15073197088E+04  0.17197663015E+04  0.50400001928E-02 0. -1.
       -1    1    3    3    0  502  0.34027444924E+03  0.75484881033E+03  0.87725741464E+03  0.12063017860E+04  0.50400001928E-02 0.  1.
</event>
<event>
 5   0  0.8234888E-06  0.2826632E+04  0.7818609E-02  0.8295048E-01
       -1   -1    0    0    0  501  0.00000000000E+00  0.00000000000E+00  0.16802945367E+04  0.16802945367E+04  0.50400001928E-02 0. -1.
        1   -1    0    0  501    0  0.00000000000E+00  0.00000000000E+00 -0.11887568052E+04  0.11887568052E+04  0.50400001928E-02 0.  1.
    10030    2    1    2    0    0  0.00000000000E+00  0.00000000000E+00  0.49153773151E+03  0.28690513419E+04  0.28266316104E+04 0.  0.
        3    1    3    3  502    0 -0.37950103248E+03  0.64856223143E+02  0.16260420989E+04  0.16709997849E+04  0.10100000352E+00 0. -1.
       -3    1    3    3    0  502  0.37950103248E+03 -0.64856223143E+02 -0.11345043674E+04  0.11980515570E+04  0.10100000352E+00 0.  1.
</event>
<event>
 5   0  0.1937947E-05  0.2902748E+04  0.7818609E-02  0.8272060E-01
        2   -1    0    0  501    0  0.00000000000E+00  0.00000000000E+00  0.96528471357E+03  0.96528471357E+03  0.25500000920E-02 0.  1.
       -2   -1    0    0    0  501  0.00000000000E+00  0.00000000000E+00 -0.21822441242E+04  0.21822441242E+04  0.25500000920E-02 0. -1.
    10030    2    1    2    0    0  0.00000000000E+00  0.00000000000E+00 -0.12169594106E+04  0.31475288378E+04  0.29027482801E+04 0.  0.
        3    1    3    3  502    0 -0.89409734483E+03  0.87107200359E+03 -0.14114021123E+04  0.18842060477E+04  0.10100000352E+00 0. -1.
       -3    1    3    3    0  502  0.89409734483E+03 -0.87107200359E+03  0.19444270165E+03  0.12633227901E+04  0.10100000352E+00 0.  1.
</event>
<event>
 5   0  0.7971153E-06  0.2861481E+04  0.7818609E-02  0.8284431E-01
        1   -1    0    0  501    0  0.00000000000E+00  0.00000000000E+00  0.12413978856E+04  0.12413978856E+04  0.50400001928E-02 0. -1.
       -1   -1    0    0    0  501  0.00000000000E+00  0.00000000000E+00 -0.16489624565E+04  0.16489624565E+04  0.50400001928E-02 0.  1.
    10030    2    1    2    0    0  0.00000000000E+00  0.00000000000E+00 -0.40756457090E+03  0.28903603420E+04  0.28614810898E+04 0.  0.
        5    1    3    3  502    0 -0.14921371861E+03 -0.11552697823E+04  0.63531420363E+03  0.13268606675E+04  0.46999998093E+01 0. -1.
       -5    1    3    3    0  502  0.14921371861E+03  0.11552697823E+04 -0.10428787745E+04  0.15634996745E+04  0.46999998093E+01 0.  1.
</event>
<event>
 5   0  0.7305460E-06  0.2828858E+04  0.7818609E-02  0.8294365E-01
        1   -1    0    0  501    0  0.00000000000E+00  0.00000000000E+00  0.23829859778E+04  0.23829859778E+04  0.50400001928E-02 0.  1.
       -1   -1    0    0    0  501  0.00000000000E+00  0.00000000000E+00 -0.83953861192E+03  0.83953861193E+03  0.50400001928E-02 0. -1.
    10030    2    1    2    0    0  0.00000000000E+00  0.00000000000E+00  0.15434473659E+04  0.32225245898E+04  0.28288575362E+04 0.  0.
        4    1    3    3  502    0 -0.12329685214E+03 -0.12990521101E+04  0.14999980609E+03  0.13134839372E+04  0.12699999809E+01 0. -1.
       -4    1    3    3    0  502  0.12329685214E+03  0.12990521101E+04  0.13934475598E+04  0.19090406526E+04  0.12699999809E+01 0.  1.
</event>
<event>
 5   0  0.1829810E-05  0.3223147E+04  0.7818609E-02  0.8182731E-01
       -2   -1    0    0    0  501  0.00000000000E+00  0.00000000000E+00  0.17853068974E+04  0.17853068974E+04  0.25500000920E-02 0. -1.
        2   -1    0    0  501    0  0.00000000000E+00  0.00000000000E+00 -0.14547470000E+04  0.14547470000E+04  0.25500000920E-02 0.  1.
    10030    2    1    2    0    0  0.00000000000E+00  0.00000000000E+00  0.33055989742E+03  0.32400538974E+04  0.32231474388E+04 0.  0.
        4    1    3    3  502    0  0.76514209616E+03  0.73268197718E+03 -0.10555460855E+04  0.14954746599E+04  0.12699999809E+01 0.  1.
       -4    1    3    3    0  502 -0.76514209616E+03 -0.73268197718E+03  0.13861059829E+04  0.17445792375E+04  0.12699999809E+01 0. -1.
</event>
<event>
 5   0  0.1918901E-05  0.2913225E+04  0.7818609E-02  0.8268954E-01
        2   -1    0    0  501    0  0.00000000000E+00  0.00000000000E+00  0.12724325105E+04  0.12724325105E+04  0.25500000920E-02 0. -1.
       -2   -1    0    0    0  501  0.00000000000E+00  0.00000000000E+00 -0.16674518507E+04  0.16674518507E+04  0.25500000920E-02 0.  1.
    10030    2    1    2    0    0  0.00000000000E+00  0.00000000000E+00 -0.39501934020E+03  0.29398843611E+04  0.29132249789E+04 0.  0.
        1    1    3    3  502    0  0.96422473142E+03  0.10916757957E+04 -0.18205387696E+03  0.14678654536E+04  0.50400001928E-02 0.  1.
       -1    1    3    3    0  502 -0.96422473142E+03 -0.10916757957E+04 -0.21296546324E+03  0.14720189076E+04  0.50400001928E-02 0. -1.
</event>
<event>
 5   0  0.8055928E-06  0.2921538E+04  0.7818609E-02  0.8266498E-01
        1   -1    0    0  501    0  0.00000000000E+00  0.00000000000E+00  0.20766009304E+04  0.20766009304E+04  0.50400001928E-02 0. -1.
       -1   -1    0    0    0  501  0.00000000000E+00  0.00000000000E+00 -0.10275669438E+04  0.10275669439E+04  0.50400001928E-02 0.  1.
    10030    2    1    2    0    0  0.00000000000E+00  0.00000000000E+00  0.10490339866E+04  0.31041678743E+04  0.29215382740E+04 0.  0.
        2    1    3    3  502    0  0.68773625132E+03 -0.11251895984E+04 -0.14310359363E+03  0.13264657637E+04  0.25500000920E-02 0.  1.
       -2    1    3    3    0  502 -0.68773625132E+03  0.11251895984E+04  0.11921375802E+04  0.17777021106E+04  0.25500000920E-02 0. -1.
</event>
<event>
 5   0  0.1976233E-05  0.2879829E+04  0.7818609E-02  0.8278904E-01
        2   -1    0    0  501    0  0.00000000000E+00  0.00000000000E+00  0.11802342665E+04  0.11802342665E+04  0.25500000920E-02 0.  1.
       -2   -1    0    0    0  501  0.00000000000E+00  0.00000000000E+00 -0.17567310468E+04  0.17567310468E+04  0.25500000920E-02 0. -1.
    10030    2    1    2    0    0  0.00000000000E+00  0.00000000000E+00 -0.57649678038E+03  0.29369653133E+04  0.28798292855E+04 0.  0.
        2    1    3    3  502    0  0.77395969816E+03  0.73213441027E+03  0.69963914755E+03  0.12745702593E+04  0.25500000920E-02 0.  1.
       -2    1    3    3    0  502 -0.77395969816E+03 -0.73213441027E+03 -0.12761359279E+04  0.16623950540E+04  0.25500000920E-02 0. -1.
</event>
<event>
 5   0  0.1918901E-05  0.2957181E+04  0.7818609E-02  0.8256065E-01
        2   -1    0    0  501    0  0.00000000000E+00  0.00000000000E+00  0.24146058725E+04  0.24146058725E+04  0.25500000920E-02 0.  1.
       -2   -1    0    0    0  501  0.00000000000E+00  0.00000000000E+00 -0.90541892457E+03  0.90541892458E+03  0.25500000920E-02 0. -1.
    10030    2    1    2    0    0  0.00000000000E+00  0.00000000000E+00  0.15091869480E+04  0.33200247971E+04  0.29571809903E+04 0.  0.
        1    1    3    3  502    0 -0.12594033025E+04  0.56041338059E+03  0.15411202850E+03  0.13870509554E+04  0.50400001928E-02 0. -1.
       -1    1    3    3    0  502  0.12594033025E+04 -0.56041338059E+03  0.13550749195E+04  0.19329738417E+04  0.50400001928E-02 0.  1.
</event>
<event>
 5   0  0.1937947E-05  0.2947432E+04  0.7818609E-02  0.8258903E-01
       -2   -1    0    0    0  501  0.00000000000E+00  0.00000000000E+00  0.12263164621E+04  0.12263164621E+04  0.25500000920E-02 0. -1.
        2   -1    0    0  501    0  0.00000000000E+00  0.00000000000E+00 -0.17710267986E+04  0.17710267986E+04  0.25500000920E-02 0.  1.
    10030    2    1    2    0    0  0.00000000000E+00  0.00000000000E+00 -0.54471033650E+03  0.29973432607E+04  0.29474323185E+04 0.  0.
        3    1    3    3  502    0  0.97191289001E+02 -0.12152703264E+04  0.56962122734E+03  0.13456583763E+04  0.10100000352E+00 0. -1.
       -3    1    3    3    0  502 -0.97191289001E+02  0.12152703264E+04 -0.11143315638E+04  0.16516848844E+04  0.10100000352E+00 0.  1.
</event>
<event>
 5   0  0.1976233E-05  0.4282565E+04  0.7818609E-02  0.7949850E-01
        2   -1    0    0  501    0  0.00000000000E+00  0.00000000000E+00  0.23957676910E+04  0.23957676910E+04  0.25500000920E-02 0. -1.
       -2   -1    0    0    0  501  0.00000000000E+00  0.00000000000E+00 -0.19138294874E+04  0.19138294874E+04  0.25500000920E-02 0.  1.
    10030    2    1    2    0    0  0.00000000000E+00  0.00000000000E+00  0.48193820366E+03  0.43095971784E+04  0.42825650501E+04 0.  0.
        2    1    3    3  502    0 -0.11758696004E+04  0.14698247581E+04 -0.78627633436E+03  0.20399226972E+04  0.25500000920E-02 0.  1.
       -2    1    3    3    0  502  0.11758696004E+04 -0.14698247581E+04  0.12682145380E+04  0.22696744813E+04  0.25500000920E-02 0. -1.
</event>
<event>
 5   0  0.7971153E-06  0.2999399E+04  0.7818609E-02  0.8243902E-01
        1   -1    0    0  501    0  0.00000000000E+00  0.00000000000E+00  0.30153546061E+04  0.30153546062E+04  0.50400001928E-02 0.  1.
       -1   -1    0    0    0  501  0.00000000000E+00  0.00000000000E+00 -0.74588209808E+03  0.74588209810E+03  0.50400001928E-02 0. -1.
    10030    2    1    2    0    0  0.00000000000E+00  0.00000000000E+00  0.22694725081E+04  0.37612367043E+04  0.29993992866E+04 0.  0.
        5    1    3    3  502    0  0.49995355029E+02  0.12525892762E+04  0.10249246329E+03  0.12577782894E+04  0.46999998093E+01 0. -1.
       -5    1    3    3    0  502 -0.49995355029E+02 -0.12525892762E+04  0.21669800448E+04  0.25034584148E+04  0.46999998093E+01 0.  1.
</event>
<event>
 5   0  0.1829810E-05  0.2883018E+04  0.7818609E-02  0.8277948E-01
       -2   -1    0    0    0  501  0.00000000000E+00  0.00000000000E+00  0.16350363347E+04  0.16350363347E+04  0.25500000920E-02 0.  1.
        2   -1    0    0  501    0  0.00000000000E+00  0.00000000000E+00 -0.12708877457E+04  0.12708877457E+04  0.25500000920E-02 0. -1.
    10030    2    1    2    0    0  0.00000000000E+00  0.00000000000E+00  0.36414858902E+03  0.29059240804E+04  0.28830176146E+04 0.  0.
        4    1    3    3  502    0  0.73323510720E+03 -0.35834508630E+03  0.13797496332E+04  0.16030457219E+04  0.12699999809E+01 0.  1.
       -4    1    3    3    0  502 -0.73323510720E+03  0.35834508630E+03 -0.10156010441E+04  0.13028783585E+04  0.12699999809E+01 0. -1.
</event>
<event>
 5   0  0.8234888E-06  0.1443318E+04  0.7818609E-02  0.8923046E-01
       -1   -1    0    0    0  501  0.00000000000E+00  0.00000000000E+00  0.26877353237E+03  0.26877353242E+03  0.50400001928E-02 0. -1.
        1   -1    0    0  501    0  0.00000000000E+00  0.00000000000E+00 -0.19376609817E+04  0.19376609817E+04  0.50400001928E-02 0.  1.
    10030    2    1    2    0    0  0.00000000000E+00  0.00000000000E+00 -0.16688874493E+04  0.22064345141E+04  0.14433183802E+04 0.  0.
        3    1    3    3  502    0 -0.12423431846E+02 -0.48069873803E+03 -0.11816739155E+02  0.48100443234E+03  0.10100000352E+00 0. -1.
       -3    1    3    3    0  502  0.12423431846E+02  0.48069873803E+03 -0.16570707102E+04  0.17254300818E+04  0.10100000352E+00 0.  1.
</event>
<event>
 5   0  0.8122088E-06  0.2787028E+04  0.7818609E-02  0.8307307E-01
       -1   -1    0    0    0  501  0.00000000000E+00  0.00000000000E+00  0.15146680478E+04  0.15146680478E+04  0.50400001928E-02 0.  1.
        1   -1    0    0  501    0  0.00000000000E+00  0.00000000000E+00 -0.12820509865E+04  0.12820509865E+04  0.50400001928E-02 0. -1.
    10030    2    1    2    0    0  0.00000000000E+00  0.00000000000E+00  0.23261706132E+03  0.27967190343E+04  0.27870282847E+04 0.  0.
        1    1    3    3  502    0  0.24698263554E+03  0.65107231783E+03  0.13275623603E+04  0.14991055352E+04  0.50400001928E-02 0.  1.
       -1    1    3    3    0  502 -0.24698263554E+03 -0.65107231783E+03 -0.10949452989E+04  0.12976134991E+04  0.50400001928E-02 0. -1.
</event>
<event>
 5   0  0.1937947E-05  0.2878330E+04  0.7818609E-02  0.8279354E-01
       -2   -1    0    0    0  501  0.00000000000E+00  0.00000000000E+00  0.12960571969E+04  0.12960571969E+04  0.25500000920E-02 0.  1.
        2   -1    0    0  501    0  0.00000000000E+00  0.00000000000E+00 -0.15980741874E+04  0.15980741874E+04  0.25500000920E-02 0. -1.
    10030    2    1    2    0    0  0.00000000000E+00  0.00000000000E+00 -0.30201699050E+03  0.28941313844E+04  0.28783297600E+04 0.  0.
        3    1    3    3  502    0  0.80269419541E+01 -0.25507854956E+03 -0.15751407021E+04  0.15956809643E+04  0.10100000352E+00 0. -1.
       -3    1    3    3    0  502 -0.80269419541E+01  0.25507854956E+03  0.12731237116E+04  0.12984504201E+04  0.10100000352E+00 0.  1.
</event>
<event>
 5   0  0.6578125E-06  0.2803948E+04  0.7818609E-02  0.8302044E-01
        3   -1    0    0  501    0  0.00000000000E+00  0.00000000000E+00  0.16940650214E+04  0.16940650244E+04  0.10100000352E+00 0.  1.
       -3   -1    0    0    0  501  0.00000000000E+00  0.00000000000E+00 -0.11602452893E+04  0.11602452936E+04  0.10100000352E+00 0. -1.
    10030    2    1    2    0    0  0.00000000000E+00  0.00000000000E+00  0.53381973218E+03  0.28543103181E+04  0.28039479106E+04 0.  0.
        5    1    3    3  502    0 -0.54373081392E+03 -0.12468798617E+04 -0.78532090997E+02  0.13625498035E+04  0.46999998093E+01 0. -1.
       -5    1    3    3    0  502  0.54373081392E+03  0.12468798617E+04  0.61235182318E+03  0.14917605146E+04  0.46999998093E+01 0.  1.
</event>
<event>
 5   0  0.8234888E-06  0.2916780E+04  0.7818609E-02  0.8267903E-01
       -1   -1    0    0    0  501  0.00000000000E+00  0.00000000000E+00  0.99399391920E+03  0.99399391921E+03  0.50400001928E-02 0. -1.
        1   -1    0    0  501    0  0.00000000000E+00  0.00000000000E+00 -0.21397521897E+04  0.21397521897E+04  0.50400001928E-02 0.  1.
    10030    2    1    2    0    0  0.00000000000E+00  0.00000000000E+00 -0.11457582705E+04  0.31337461089E+04  0.29167795016E+04 0.  0.
        3    1    3    3  502    0  0.85640677256E+03 -0.93056104121E+03  0.20745646421E+03  0.12815672461E+04  0.10100000352E+00 0. -1.
       -3    1    3    3    0  502 -0.85640677256E+03  0.93056104121E+03 -0.13532147347E+04  0.18521788628E+04  0.10100000352E+00 0.  1.
</event>
<event>
 5   0  0.7305460E-06  0.2879214E+04  0.7818609E-02  0.8279089E-01
       -1   -1    0    0    0  501  0.00000000000E+00  0.00000000000E+00  0.20401442782E+04  0.20401442782E+04  0.50400001928E-02 0.  1.
        1   -1    0    0  501    0  0.00000000000E+00  0.00000000000E+00 -0.10158439260E+04  0.10158439260E+04  0.50400001928E-02 0. -1.
    10030    2    1    2    0    0  0.00000000000E+00  0.00000000000E+00  0.10243003522E+04  0.30559882042E+04  0.28792139019E+04 0.  0.
        4    1    3    3  502    0  0.11646664267E+04 -0.81362630176E+03  0.75886708054E+03  0.16106882080E+04  0.12699999809E+01 0.  1.
       -4    1    3    3    0  502 -0.11646664267E+04  0.81362630176E+03  0.26543327167E+03  0.14452999962E+04  0.12699999809E+01 0. -1.
</event>
<event>
 5   0  0.7971153E-06  0.1739279E+04  0.7818609E-02  0.8739274E-01
        1   -1    0    0  501    0  0.00000000000E+00  0.00000000000E+00  0.19980639507E+04  0.19980639507E+04  0.50400001928E-02 0. -1.
       -1   -1    0    0    0  501  0.00000000000E+00  0.00000000000E+00 -0.37850263575E+03  0.37850263578E+03  0.50400001928E-02 0.  1.
    10030    2    1    2    0    0  0.00000000000E+00  0.00000000000E+00  0.16195613150E+04  0.23765665865E+04  0.17392785536E+04 0.  0.
        5    1    3    3  502    0 -0.11450802997E+03 -0.23992010776E+03 -0.32160025872E+03  0.41727995811E+03  0.46999998093E+01 0.  1.
       -5    1    3    3    0  502  0.11450802997E+03  0.23992010776E+03  0.19411615737E+04  0.19592866284E+04  0.46999998093E+01 0. -1.
</event>
<event>
 5   0  0.7305460E-06  0.2877697E+04  0.7818609E-02  0.8279544E-01
       -1   -1    0    0    0  501  0.00000000000E+00  0.00000000000E+00  0.13366430753E+04  0.13366430753E+04  0.50400001928E-02 0. -1.
        1   -1    0    0  501    0  0.00000000000E+00  0.00000000000E+00 -0.15488689218E+04  0.15488689218E+04  0.50400001928E-02 0.  1.
    10030    2    1    2    0    0  0.00000000000E+00  0.00000000000E+00 -0.21222584656E+03  0.28855119971E+04  0.28776969395E+04 0.  0.
        4    1    3    3  502    0  0.88963975982E+03 -0.10348272252E+04 -0.56337440543E+03  0.14763870163E+04  0.12699999809E+01 0.  1.
       -4    1    3    3    0  502 -0.88963975982E+03  0.10348272252E+04  0.35114855887E+03  0.14091249808E+04  0.12699999809E+01 0. -1.
</event>
<event>
 5   0  0.1918901E-05  0.2971555E+04  0.7818609E-02  0.8251901E-01
        2   -1    0    0  501    0  0.00000000000E+00  0.00000000000E+00  0.21668889095E+04  0.21668889095E+04  0.25500000920E-02 0.  1.
       -2   -1    0    0    0  501  0.00000000000E+00  0.00000000000E+00 -0.10187576050E+04  0.10187576050E+04  0.25500000920E-02 0. -1.
    10030    2    1    2    0    0  0.00000000000E+00  0.00000000000E+00  0.11481313046E+04  0.31856465145E+04  0.29715548494E+04 0.  0.
        1    1    3    3  502    0 -0.86364234319E+03  0.56713781805E+02  0.18687327688E+04  0.20594311620E+04  0.50400001928E-02 0.  1.
       -1    1    3    3    0  502  0.86364234319E+03 -0.56713781805E+02 -0.72060146421E+03  0.11262153525E+04  0.50400001928E-02 0. -1.
</event>
<event>
 5   0  0.7305460E-06  0.2582555E+04  0.7818609E-02  0.8374151E-01
       -1   -1    0    0    0  501  0.00000000000E+00  0.00000000000E+00  0.99144822090E+03  0.99144822091E+03  0.50400001928E-02 0. -1.
        1   -1    0    0  501    0  0.00000000000E+00  0.00000000000E+00 -0.16817791545E+04  0.16817791545E+04  0.50400001928E-02 0.  1.
    10030    2    1    2    0    0  0.00000000000E+00  0.00000000000E+00 -0.69033093363E+03  0.26732273754E+04  0.25825545111E+04 0.  0.
        4    1    3    3  502    0 -0.68319565446E+03 -0.11711965939E+03 -0.14728756353E+04  0.16278321679E+04  0.12699999809E+01 0.  1.
       -4    1    3    3    0  502  0.68319565446E+03  0.11711965939E+03  0.78254470169E+03  0.10453952075E+04  0.12699999809E+01 0. -1.
</event>
<event>
 5   0  0.1937947E-05  0.2792875E+04  0.7818609E-02  0.8305484E-01
        2   -1    0    0  501    0  0.00000000000E+00  0.00000000000E+00  0.20322955048E+04  0.20322955048E+04  0.25500000920E-02 0.  1.
       -2   -1    0    0    0  501  0.00000000000E+00  0.00000000000E+00 -0.95952488416E+03  0.95952488416E+03  0.25500000920E-02 0. -1.
    10030    2    1    2    0    0  0.00000000000E+00  0.00000000000E+00  0.10727706206E+04  0.29918203889E+04  0.27928752989E+04 0.  0.
        3    1    3    3  502    0  0.35110789162E+03 -0.12739684383E+04  0.52826186000E+02  0.13225214363E+04  0.10100000352E+00 0.  1.
       -3    1    3    3    0  502 -0.35110789162E+03  0.12739684383E+04  0.10199444346E+04  0.16692989526E+04  0.10100000352E+00 0. -1.
</event>
<event>
 5   0  0.1829810E-05  0.2813717E+04  0.7818609E-02  0.8299023E-01
        2   -1    0    0  501    0  0.00000000000E+00  0.00000000000E+00  0.18771337999E+04  0.18771337999E+04  0.25500000920E-02 0. -1.
       -2   -1    0    0    0  501  0.00000000000E+00  0.00000000000E+00 -0.10544001748E+04  0.10544001748E+04  0.25500000920E-02 0.  1.
    10030    2    1    2    0    0  0.00000000000E+00  0.00000000000E+00  0.82273362507E+03  0.29315339747E+04  0.28137165506E+04 0.  0.
        4    1    3    3  502    0 -0.26514863494E+03  0.10595908942E+04  0.13351805200E+04  0.17250348679E+04  0.12699999809E+01 0. -1.
       -4    1    3    3    0  502  0.26514863494E+03 -0.10595908942E+04 -0.51244689491E+03  0.12064991068E+04  0.12699999809E+01 0.  1.
</event>
<event>
 5   0  0.7305460E-06  0.2883726E+04  0.7818609E-02  0.8277736E-01
        1   -1    0    0  501    0  0.00000000000E+00  0.00000000000E+00  0.12369885153E+04  0.12369885153E+04  0.50400001928E-02 0. -1.
       -1   -1    0    0    0  501  0.00000000000E+00  0.00000000000E+00 -0.16806700172E+04  0.16806700172E+04  0.50400001928E-02 0.  1.
    10030    2    1    2    0    0  0.00000000000E+00  0.00000000000E+00 -0.44368150189E+03  0.29176585325E+04  0.28837264151E+04 0.  0.
        4    1    3    3  502    0 -0.85724930577E+03  0.11565959841E+04 -0.14104337579E+03  0.14465425986E+04  0.12699999809E+01 0.  1.
       -4    1    3    3    0  502  0.85724930577E+03 -0.11565959841E+04 -0.30263812611E+03  0.14711159339E+04  0.12699999809E+01 0. -1.
</event>
<event>
 5   0  0.8122088E-06  0.2222091E+04  0.7818609E-02  0.8509289E-01
        1   -1    0    0  501    0  0.00000000000E+00  0.00000000000E+00  0.16722628960E+04  0.16722628960E+04  0.50400001928E-02 0. -1.
       -1   -1    0    0    0  501  0.00000000000E+00  0.00000000000E+00 -0.73817456340E+03  0.73817456342E+03  0.50400001928E-02 0.  1.
    10030    2    1    2    0    0  0.00000000000E+00  0.00000000000E+00  0.93408833259E+03  0.24104374594E+04  0.22220908471E+04 0.  0.
        1    1    3    3  502    0  0.58938963484E+03  0.17085841606E+03 -0.53766307166E+03  0.81587641138E+03  0.50400001928E-02 0.  1.
       -1    1    3    3    0  502 -0.58938963484E+03 -0.17085841606E+03  0.14717514043E+04  0.15945610480E+04  0.50400001928E-02 0. -1.
</event>
<event>
 5   0  0.1976233E-05  0.1479994E+04  0.7818609E-02  0.8897867E-01
        2   -1    0    0  501    0  0.00000000000E+00  0.00000000000E+00  0.36521477887E+03  0.36521477888E+03  0.25500000920E-02 0. -1.
       -2   -1    0    0    0  501  0.00000000000E+00  0.00000000000E+00 -0.14993785967E+04  0.14993785967E+04  0.25500000920E-02 0.  1.
    10030    2    1    2    0    0  0.00000000000E+00  0.00000000000E+00 -0.11341638178E+04  0.18645933756E+04  0.14799935441E+04 0.  0.
        2    1    3    3  502    0 -0.45664940965E+03  0.56010115409E+03 -0.36647724783E+03  0.81027622409E+03  0.25500000920E-02 0.  1.
       -2    1    3    3    0  502  0.45664940965E+03 -0.56010115409E+03 -0.76768656998E+03  0.10543171515E+04  0.25500000920E-02 0. -1.
</event>
<event>
 5   0  0.1937947E-05  0.2919848E+04  0.7818609E-02  0.8266997E-01
       -2   -1    0    0    0  501  0.00000000000E+00  0.00000000000E+00  0.97992484439E+03  0.97992484439E+03  0.25500000920E-02 0.  1.
        2   -1    0    0  501    0  0.00000000000E+00  0.00000000000E+00 -0.21750423176E+04  0.21750423176E+04  0.25500000920E-02 0. -1.
    10030    2    1    2    0    0  0.00000000000E+00  0.00000000000E+00 -0.11951174732E+04  0.31549671620E+04  0.29198479444E+04 0.  0.
        3    1    3    3  502    0 -0.56708517205E+03  0.10062420678E+04  0.36724089574E+03  0.12120126142E+04  0.10100000352E+00 0.  1.
       -3    1    3    3    0  502  0.56708517205E+03 -0.10062420678E+04 -0.15623583690E+04  0.19429545478E+04  0.10100000352E+00 0. -1.
</event>
<event>
 5   0  0.7305460E-06  0.2899088E+04  0.7818609E-02  0.8273149E-01
        1   -1    0    0  501    0  0.00000000000E+00  0.00000000000E+00  0.13063124032E+04  0.13063124032E+04  0.50400001928E-02 0. -1.
       -1   -1    0    0    0  501  0.00000000000E+00  0.00000000000E+00 -0.16084806649E+04  0.16084806649E+04  0.50400001928E-02 0.  1.
    10030    2    1    2    0    0  0.00000000000E+00  0.00000000000E+00 -0.30216826170E+03  0.29147930681E+04  0.28990883001E+04 0.  0.
        4    1    3    3  502    0 -0.20168217247E+03  0.10513474467E+04 -0.11337061750E+04  0.15592621513E+04  0.12699999809E+01 0.  1.
       -4    1    3    3    0  502  0.20168217247E+03 -0.10513474467E+04  0.83153791329E+03  0.13555309168E+04  0.12699999809E+01 0. -1.
</event>
<event>
 5   0  0.8055928E-06  0.2884768E+04  0.7818609E-02  0.8277424E-01
        1   -1    0    0  501    0  0.00000000000E+00  0.00000000000E+00  0.21540215381E+04  0.21540215381E+04  0.50400001928E-02 0. -1.
       -1   -1    0    0    0  501  0.00000000000E+00  0.00000000000E+00 -0.96585473052E+03  0.96585473054E+03  0.50400001928E-02 0.  1.
    10030    2    1    2    0    0  0.00000000000E+00  0.00000000000E+00  0.11881668076E+04  0.31198762687E+04  0.28847682002E+04 0.  0.
        2    1    3    3  502    0  0.94063289562E+02  0.14299635282E+04  0.41694080670E+03  0.14924755378E+04  0.25500000920E-02 0.  1.
       -2    1    3    3    0  502 -0.94063289562E+02 -0.14299635282E+04  0.77122600091E+03  0.16274007309E+04  0.25500000920E-02 0. -1.
</event>
<event>
 5   0  0.8122088E-06  0.1589997E+04  0.7818609E-02  0.8826717E-01
       -1   -1    0    0    0  501  0.00000000000E+00  0.00000000000E+00  0.29276941517E+03  0.29276941521E+03  0.50400001928E-02 0.  1.
        1   -1    0    0  501    0  0.00000000000E+00  0.00000000000E+00 -0.21587717602E+04  0.21587717602E+04  0.50400001928E-02 0. -1.
    10030    2    1    2    0    0  0.00000000000E+00  0.00000000000E+00 -0.18660023450E+04  0.24515411754E+04  0.15899966613E+04 0.  0.
        1    1    3    3  502    0 -0.22308037178E+03  0.92677653057E+02  0.23481214365E+03  0.33688387091E+03  0.50400001928E-02 0.  1.
       -1    1    3    3    0  502  0.22308037178E+03 -0.92677653057E+02 -0.21008144886E+04  0.21146573045E+04  0.50400001928E-02 0. -1.
</event>
<event>
 5   0  0.1976233E-05  0.2744679E+04  0.7818609E-02  0.8320652E-01
       -2   -1    0    0    0  501  0.00000000000E+00  0.00000000000E+00  0.72859051928E+03  0.72859051929E+03  0.25500000920E-02 0. -1.
        2   -1    0    0  501    0  0.00000000000E+00  0.00000000000E+00 -0.25848758028E+04  0.25848758028E+04  0.25500000920E-02 0.  1.
    10030    2    1    2    0    0  0.00000000000E+00  0.00000000000E+00 -0.18562852835E+04  0.33134663220E+04  0.27446792187E+04 0.  0.
        2    1    3    3  502    0 -0.66443131945E+02 -0.26229382755E+03  0.69606908664E+03  0.74680982528E+03  0.25500000920E-02 0. -1.
       -2    1    3    3    0  502  0.66443131945E+02  0.26229382755E+03 -0.25523543701E+04  0.25666564968E+04  0.25500000920E-02 0.  1.
</event>
<event>
 5   0  0.7971153E-06  0.2934115E+04  0.7818609E-02  0.8262799E-01
        1   -1    0    0  501    0  0.00000000000E+00  0.00000000000E+00  0.10670725034E+04  0.10670725034E+04  0.50400001928E-02 0.  1.
       -1   -1    0    0    0  501  0.00000000000E+00  0.00000000000E+00 -0.20169740817E+04  0.20169740817E+04  0.50400001928E-02 0. -1.
    10030    2    1    2    0    0  0.00000000000E+00  0.00000000000E+00 -0.94990157831E+03  0.30840465852E+04  0.29341149144E+04 0.  0.
        5    1    3    3  502    0 -0.20452035043E+03 -0.20286764872E+03  0.10370445911E+04  0.10763212487E+04  0.46999998093E+01 0.  1.
       -5    1    3    3    0  502  0.20452035043E+03  0.20286764872E+03 -0.19869461694E+04  0.20077253364E+04  0.46999998093E+01 0. -1.
</event>
<event>
 5   0  0.8234888E-06  0.2894785E+04  0.7818609E-02  0.8274431E-01
        1   -1    0    0  501    0  0.00000000000E+00  0.00000000000E+00  0.24351490974E+04  0.24351490974E+04  0.50400001928E-02 0. -1.
       -1   -1    0    0    0  501  0.00000000000E+00  0.00000000000E+00 -0.86029425005E+03  0.86029425006E+03  0.50400001928E-02 0.  1.
    10030    2    1    2    0    0  0.00000000000E+00  0.00000000000E+00  0.15748548474E+04  0.32954433475E+04  0.28947848048E+04 0.  0.
        3    1    3    3  502    0  0.50840615427E+03 -0.84731053764E+03  0.19914147796E+04  0.22230935202E+04  0.10100000352E+00 0. -1.
       -3    1    3    3    0  502 -0.50840615427E+03  0.84731053764E+03 -0.41655993218E+03  0.10723498273E+04  0.10100000352E+00 0.  1.
</event>
<event>
 5   0  0.1937947E-05  0.2088342E+04  0.7818609E-02  0.8566396E-01
        2   -1    0    0  501    0  0.00000000000E+00  0.00000000000E+00  0.11707786114E+04  0.11707786114E+04  0.25500000920E-02 0. -1.
       -2   -1    0    0    0  501  0.00000000000E+00  0.00000000000E+00 -0.93125505295E+03  0.93125505296E+03  0.25500000920E-02 0.  1.
    10030    2    1    2    0    0  0.00000000000E+00  0.00000000000E+00  0.23952355849E+03  0.21020336644E+04  0.20883424028E+04 0.  0.
        3    1    3    3  502    0  0.45494055133E+03 -0.44360071216E+03  0.95377166114E+03  0.11460509975E+04  0.10100000352E+00 0. -1.
       -3    1    3    3    0  502 -0.45494055133E+03  0.44360071216E+03 -0.71424810265E+03  0.95598266690E+03  0.10100000352E+00 0.  1.
</event>
<event>
 5   0  0.1937947E-05  0.2837389E+04  0.7818609E-02  0.8291754E-01
       -2   -1    0    0    0  501  0.00000000000E+00  0.00000000000E+00  0.32776146773E+04  0.32776146773E+04  0.25500000920E-02 0.  1.
        2   -1    0    0  501    0  0.00000000000E+00  0.00000000000E+00 -0.61407282704E+03  0.61407282704E+03  0.25500000920E-02 0. -1.
    10030    2    1    2    0    0  0.00000000000E+00  0.00000000000E+00  0.26635418503E+04  0.38916875044E+04  0.28373890187E+04 0.  0.
        3    1    3    3  502    0  0.20790901609E+02  0.97926945833E+03  0.27394177652E+04  0.29092629026E+04  0.10100000352E+00 0.  1.
       -3    1    3    3    0  502 -0.20790901609E+02 -0.97926945833E+03 -0.75875914910E+02  0.98242460183E+03  0.10100000352E+00 0. -1.
</event>
<event>
 5   0  0.8122088E-06  0.2865972E+04  0.7818609E-02  0.8283074E-01
        1   -1    0    0  501    0  0.00000000000E+00  0.00000000000E+00  0.26795898060E+04  0.26795898060E+04  0.50400001928E-02 0.  1.
       -1   -1    0    0    0  501  0.00000000000E+00  0.00000000000E+00 -0.76632944205E+03  0.76632944206E+03  0.50400001928E-02 0. -1.
    10030    2    1    2    0    0  0.00000000000E+00  0.00000000000E+00  0.19132603639E+04  0.34459192481E+04  0.28659717800E+04 0.  0.
        1    1    3    3  502    0 -0.52839170367E+03  0.13154586375E+04  0.70494009592E+03  0.15832150070E+04  0.50400001928E-02 0. -1.
       -1    1    3    3    0  502  0.52839170367E+03 -0.13154586375E+04  0.12083202680E+04  0.18627042411E+04  0.50400001928E-02 0.  1.
</event>
<event>
 5   0  0.1918901E-05  0.1957807E+04  0.7818609E-02  0.8626605E-01
       -2   -1    0    0    0  501  0.00000000000E+00  0.00000000000E+00  0.12678797221E+04  0.12678797221E+04  0.25500000920E-02 0.  1.
        2   -1    0    0  501    0  0.00000000000E+00  0.00000000000E+00 -0.75579100627E+03  0.75579100628E+03  0.25500000920E-02 0. -1.
    10030    2    1    2    0    0  0.00000000000E+00  0.00000000000E+00  0.51208871582E+03  0.20236707284E+04  0.19578070293E+04 0.  0.
        1    1    3    3  502    0 -0.86704126150E+03  0.28075502073E+03  0.62537153473E+03  0.11052933942E+04  0.50400001928E-02 0. -1.
       -1    1    3    3    0  502  0.86704126150E+03 -0.28075502073E+03 -0.11328281892E+03  0.91837733416E+03  0.50400001928E-02 0.  1.
</event>
<event>
 5   0  0.8055928E-06  0.1820064E+04  0.7818609E-02  0.8695702E-01
        1   -1    0    0  501    0  0.00000000000E+00  0.00000000000E+00  0.16974377041E+04  0.16974377041E+04  0.50400001928E-02 0. -1.
       -1   -1    0    0    0  501  0.00000000000E+00  0.00000000000E+00 -0.48788707941E+03  0.48788707943E+03  0.50400001928E-02 0.  1.
    10030    2    1    2    0    0  0.00000000000E+00  0.00000000000E+00  0.12095506247E+04  0.21853247836E+04  0.18200636516E+04 0.  0.
        2    1    3    3  502    0  0.61648090636E+03 -0.66871509270E+03  0.56817229151E+03  0.10724030660E+04  0.25500000920E-02 0. -1.
       -2    1    3    3    0  502 -0.61648090636E+03  0.66871509270E+03  0.64137833319E+03  0.11129217176E+04  0.25500000920E-02 0.  1.
</event>
<event>
 5   0  0.8122088E-06  0.2904958E+04  0.7818609E-02  0.8271404E-01
       -1   -1    0    0    0  501  0.00000000000E+00  0.00000000000E+00  0.10390586407E+04  0.10390586408E+04  0.50400001928E-02 0. -1.
        1   -1    0    0  501    0  0.00000000000E+00  0.00000000000E+00 -0.20303907699E+04  0.20303907699E+04  0.50400001928E-02 0.  1.
    10030    2    1    2    0    0  0.00000000000E+00  0.00000000000E+00 -0.99133212915E+03  0.30694494107E+04  0.29049578817E+04 0.  0.
        1    1    3    3  502    0 -0.10104397900E+04 -0.24949106999E+03  0.57484658927E+03  0.11889840051E+04  0.50400001928E-02 0. -1.
       -1    1    3    3    0  502  0.10104397900E+04  0.24949106999E+03 -0.15661787184E+04  0.18804654055E+04  0.50400001928E-02 0.  1.
</event>
<event>
 5   0  0.1960961E-05  0.2842613E+04  0.7818609E-02  0.8290159E-01
        2   -1    0    0  501    0  0.00000000000E+00  0.00000000000E+00  0.20677187020E+04  0.20677187020E+04  0.25500000920E-02 0. -1.
       -2   -1    0    0    0  501  0.00000000000E+00  0.00000000000E+00 -0.97697655144E+03  0.97697655144E+03  0.25500000920E-02 0.  1.
    10030    2    1    2    0    0  0.00000000000E+00  0.00000000000E+00  0.10907421505E+04  0.30446952534E+04  0.28426133658E+04 0.  0.
        5    1    3    3  502    0  0.40094282215E+03 -0.13572845130E+04  0.40524971332E+03  0.14721500657E+04  0.46999998093E+01 0.  1.
       -5    1    3    3    0  502 -0.40094282215E+03  0.13572845130E+04  0.68549243722E+03  0.15725451877E+04  0.46999998093E+01 0. -1.
</event>
<event>
 5   0  0.1918901E-05  0.2908537E+04  0.7818609E-02  0.8270342E-01
        2   -1    0    0  501    0  0.00000000000E+00  0.00000000000E+00  0.13495056467E+04  0.13495056467E+04  0.25500000920E-02 0. -1.
       -2   -1    0    0    0  501  0.00000000000E+00  0.00000000000E+00 -0.15671642049E+04  0.15671642049E+04  0.25500000920E-02 0.  1.
    10030    2    1    2    0    0  0.00000000000E+00  0.00000000000E+00 -0.21765855821E+03  0.29166698515E+04  0.29085370506E+04 0.  0.
        1    1    3    3  502    0 -0.67139618454E+03 -0.67538717884E+02 -0.14006715623E+04  0.15547395732E+04  0.50400001928E-02 0.  1.
       -1    1    3    3    0  502  0.67139618454E+03  0.67538717884E+02  0.11830130041E+04  0.13619302783E+04  0.50400001928E-02 0. -1.
</event>
<event>
 5   0  0.8055928E-06  0.3035776E+04  0.7818609E-02  0.8233588E-01
        1   -1    0    0  501    0  0.00000000000E+00  0.00000000000E+00  0.17215002089E+04  0.17215002089E+04  0.50400001928E-02 0. -1.
       -1   -1    0    0    0  501  0.00000000000E+00  0.00000000000E+00 -0.13383579091E+04  0.13383579091E+04  0.50400001928E-02 0.  1.
    10030    2    1    2    0    0  0.00000000000E+00  0.00000000000E+00  0.38314229981E+03  0.30598581180E+04  0.30357756307E+04 0.  0.
        2    1    3    3  502    0  0.66133353262E+01 -0.34610019942E+03  0.16811835550E+04  0.17164519305E+04  0.25500000920E-02 0. -1.
       -2    1    3    3    0  502 -0.66133353262E+01  0.34610019942E+03 -0.12980412552E+04  0.13434061874E+04  0.25500000920E-02 0.  1.
</event>
<event>
 5   0  0.8055928E-06  0.2665351E+04  0.7818609E-02  0.8346336E-01
        1   -1    0    0  501    0  0.00000000000E+00  0.00000000000E+00  0.11414722532E+04  0.11414722532E+04  0.50400001928E-02 0. -1.
       -1   -1    0    0    0  501  0.00000000000E+00  0.00000000000E+00 -0.15559065087E+04  0.15559065087E+04  0.50400001928E-02 0.  1.
    10030    2    1    2    0    0  0.00000000000E+00  0.00000000000E+00 -0.41443425552E+03  0.26973787620E+04  0.26653510901E+04 0.  0.
        2    1    3    3  502    0  0.78139749095E+03 -0.10516237669E+04 -0.45413567236E+03  0.13866267684E+04  0.25500000920E-02 0. -1.
       -2    1    3    3    0  502 -0.78139749095E+03  0.10516237669E+04  0.39701416838E+02  0.13107519935E+04  0.25500000920E-02 0.  1.
</event>
<event>
 5   0  0.1976233E-05  0.1961429E+04  0.7818609E-02  0.8624869E-01
        2   -1    0    0  501    0  0.00000000000E+00  0.00000000000E+00  0.13903926625E+04  0.13903926625E+04  0.25500000920E-02 0.  1.
       -2   -1    0    0    0  501  0.00000000000E+00  0.00000000000E+00 -0.69174802101E+03  0.69174802102E+03  0.25500000920E-02 0. -1.
    10030    2    1    2    0    0  0.00000000000E+00  0.00000000000E+00  0.69864464146E+03  0.20821406835E+04  0.19614294509E+04 0.  0.
        2    1    3    3  502    0  0.15919318517E+03  0.23237294424E+03  0.13465293131E+04  0.13756746877E+04  0.25500000920E-02 0.  1.
       -2    1    3    3    0  502 -0.15919318517E+03 -0.23237294424E+03 -0.64788467164E+03  0.70646599576E+03  0.25500000920E-02 0. -1.
</event>
<event>
 5   0  0.8234888E-06  0.2927482E+04  0.7818609E-02  0.8264748E-01
       -1   -1    0    0    0  501  0.00000000000E+00  0.00000000000E+00  0.22611887138E+04  0.22611887138E+04  0.50400001928E-02 0. -1.
        1   -1    0    0  501    0  0.00000000000E+00  0.00000000000E+00 -0.94752692028E+03  0.94752692029E+03  0.50400001928E-02 0.  1.
    10030    2    1    2    0    0  0.00000000000E+00  0.00000000000E+00  0.13136617935E+04  0.32087156341E+04  0.29274816332E+04 0.  0.
        3    1    3    3  502    0  0.19026947652E+03  0.11287056847E+04 -0.34315108588E+03  0.11949609510E+04  0.10100000352E+00 0. -1.
       -3    1    3    3    0  502 -0.19026947652E+03 -0.11287056847E+04  0.16568128794E+04  0.20137546832E+04  0.10100000352E+00 0.  1.
</event>
<event>
 5   0  0.1960961E-05  0.2864612E+04  0.7818609E-02  0.8283485E-01
        2   -1    0    0  501    0  0.00000000000E+00  0.00000000000E+00  0.15053681565E+04  0.15053681565E+04  0.25500000920E-02 0.  1.
       -2   -1    0    0    0  501  0.00000000000E+00  0.00000000000E+00 -0.13627903167E+04  0.13627903167E+04  0.25500000920E-02 0. -1.
    10030    2    1    2    0    0  0.00000000000E+00  0.00000000000E+00  0.14257783984E+03  0.28681584732E+04  0.28646124671E+04 0.  0.
        5    1    3    3  502    0 -0.48404620081E+03  0.45195028175E+03  0.13428686076E+04  0.14972902086E+04  0.46999998093E+01 0.  1.
       -5    1    3    3    0  502  0.48404620081E+03 -0.45195028175E+03 -0.12002907677E+04  0.13708682645E+04  0.46999998093E+01 0. -1.
</event>
<event>
 5   0  0.8234888E-06  0.3014062E+04  0.7818609E-02  0.8239727E-01
        1   -1    0    0  501    0  0.00000000000E+00  0.00000000000E+00  0.87352891791E+03  0.87352891792E+03  0.50400001928E-02 0. -1.
       -1   -1    0    0    0  501  0.00000000000E+00  0.00000000000E+00 -0.25999625587E+04  0.25999625587E+04  0.50400001928E-02 0.  1.
    10030    2    1    2    0    0  0.00000000000E+00  0.00000000000E+00 -0.17264336408E+04  0.34734914766E+04  0.30140620302E+04 0.  0.
        3    1    3    3  502    0 -0.23961784373E+03  0.47768680321E+03  0.76066152204E+03  0.92962753526E+03  0.10100000352E+00 0. -1.
       -3    1    3    3    0  502  0.23961784373E+03 -0.47768680321E+03 -0.24870951628E+04  0.25438639413E+04  0.10100000352E+00 0.  1.
</event>
<event>
 5   0  0.1976233E-05  0.2885297E+04  0.7818609E-02  0.8277265E-01
       -2   -1    0    0    0  501  0.00000000000E+00  0.00000000000E+00  0.14094503117E+04  0.14094503117E+04  0.25500000920E-02 0. -1.
        2   -1    0    0  501    0  0.00000000000E+00  0.00000000000E+00 -0.14766288916E+04  0.14766288916E+04  0.25500000920E-02 0.  1.
    10030    2    1    2    0    0  0.00000000000E+00  0.00000000000E+00 -0.67178579875E+02  0.28860792033E+04  0.28852972474E+04 0.  0.
        2    1    3    3  502    0  0.10919271948E+04 -0.74329324850E+03 -0.61378545245E+03  0.14565446899E+04  0.25500000920E-02 0.  1.
       -2    1    3    3    0  502 -0.10919271948E+04  0.74329324850E+03  0.54660687258E+03  0.14295345134E+04  0.25500000920E-02 0. -1.
</event>
<event>
 5   0  0.1976233E-05  0.2896106E+04  0.7818609E-02  0.8274037E-01
       -2   -1    0    0    0  501  0.00000000000E+00  0.00000000000E+00  0.14657884365E+04  0.14657884365E+04  0.25500000920E-02 0.  1.
        2   -1    0    0  501    0  0.00000000000E+00  0.00000000000E+00 -0.14305318725E+04  0.14305318725E+04  0.25500000920E-02 0. -1.
    10030    2    1    2    0    0  0.00000000000E+00  0.00000000000E+00  0.35256563935E+02  0.28963203090E+04  0.28961057141E+04 0.  0.
        2    1    3    3  502    0 -0.51795985341E+03  0.50571232621E+03 -0.12365897234E+04  0.14328927073E+04  0.25500000920E-02 0. -1.
       -2    1    3    3    0  502  0.51795985341E+03 -0.50571232621E+03  0.12718462874E+04  0.14634276017E+04  0.25500000920E-02 0.  1.
</event>
<event>
 5   0  0.8122088E-06  0.2864331E+04  0.7818609E-02  0.8283570E-01
       -1   -1    0    0    0  501  0.00000000000E+00  0.00000000000E+00  0.18246469520E+04  0.18246469520E+04  0.50400001928E-02 0.  1.
        1   -1    0    0  501    0  0.00000000000E+00  0.00000000000E+00 -0.11241065702E+04  0.11241065702E+04  0.50400001928E-02 0. -1.
    10030    2    1    2    0    0  0.00000000000E+00  0.00000000000E+00  0.70054038183E+03  0.29487535222E+04  0.28643307260E+04 0.  0.
        1    1    3    3  502    0  0.64838665399E+03 -0.48652404879E+03 -0.86520088819E+03  0.11856152327E+04  0.50400001928E-02 0. -1.
       -1    1    3    3    0  502 -0.64838665399E+03  0.48652404879E+03  0.15657412700E+04  0.17631382895E+04  0.50400001928E-02 0.  1.
</event>
<event>
 5   0  0.1937947E-05  0.2873737E+04  0.7818609E-02  0.8280735E-01
       -2   -1    0    0    0  501  0.00000000000E+00  0.00000000000E+00  0.15329601483E+04  0.15329601483E+04  0.25500000920E-02 0. -1.
        2   -1    0    0  501    0  0.00000000000E+00  0.00000000000E+00 -0.13468003263E+04  0.13468003263E+04  0.25500000920E-02 0.  1.
    10030    2    1    2    0    0  0.00000000000E+00  0.00000000000E+00  0.18615982204E+03  0.28797604746E+04  0.28737370985E+04 0.  0.
        3    1    3    3  502    0 -0.11137909310E+04  0.70081279789E+02 -0.81388595429E+03  0.13812501513E+04  0.10100000352E+00 0.  1.
       -3    1    3    3    0  502  0.11137909310E+04 -0.70081279789E+02  0.10000457763E+04  0.14985103232E+04  0.10100000352E+00 0. -1.
</event>
<event>
 5   0  0.1976233E-05  0.2894299E+04  0.7818609E-02  0.8274576E-01
       -2   -1    0    0    0  501  0.00000000000E+00  0.00000000000E+00  0.10900551765E+04  0.10900551765E+04  0.25500000920E-02 0. -1.
        2   -1    0    0  501    0  0.00000000000E+00  0.00000000000E+00 -0.19212249347E+04  0.19212249347E+04  0.25500000920E-02 0.  1.
    10030    2    1    2    0    0  0.00000000000E+00  0.00000000000E+00 -0.83116975818E+03  0.30112801112E+04  0.28942986614E+04 0.  0.
        2    1    3    3  502    0 -0.76924265081E+02  0.57984079216E+03  0.96158751987E+03  0.11255146579E+04  0.25500000920E-02 0. -1.
       -2    1    3    3    0  502  0.76924265081E+02 -0.57984079216E+03 -0.17927572781E+04  0.18857654533E+04  0.25500000920E-02 0.  1.
</event>
<event>
 5   0  0.8234888E-06  0.2975762E+04  0.7818609E-02  0.8250686E-01
       -1   -1    0    0    0  501  0.00000000000E+00  0.00000000000E+00  0.74906203735E+03  0.74906203736E+03  0.50400001928E-02 0. -1.
        1   -1    0    0  501    0  0.00000000000E+00  0.00000000000E+00 -0.29554152717E+04  0.29554152717E+04  0.50400001928E-02 0.  1.
    10030    2    1    2    0    0  0.00000000000E+00  0.00000000000E+00 -0.22063532344E+04  0.37044773091E+04  0.29757616737E+04 0.  0.
        3    1    3    3  502    0 -0.91205221633E+03 -0.80330744834E+03 -0.34715836063E+02  0.12158730614E+04  0.10100000352E+00 0. -1.
       -3    1    3    3    0  502  0.91205221633E+03  0.80330744834E+03 -0.21716373983E+04  0.24886042477E+04  0.10100000352E+00 0.  1.
</event>
<event>
 5   0  0.8234888E-06  0.1684195E+04  0.7818609E-02  0.8770430E-01
        1   -1    0    0  501    0  0.00000000000E+00  0.00000000000E+00  0.10519931154E+04  0.10519931154E+04  0.50400001928E-02 0. -1.
       -1   -1    0    0    0  501  0.00000000000E+00  0.00000000000E+00 -0.67408034532E+03  0.67408034534E+03  0.50400001928E-02 0.  1.
    10030    2    1    2    0    0  0.00000000000E+00  0.00000000000E+00  0.37791277009E+03  0.17260734608E+04  0.16841946236E+04 0.  0.
        3    1    3    3  502    0  0.51949875659E+03  0.23852740561E+03 -0.44476678379E+03  0.72428708638E+03  0.10100000352E+00 0.  1.
       -3    1    3    3    0  502 -0.51949875659E+03 -0.23852740561E+03  0.82267955388E+03  0.10017863744E+04  0.10100000352E+00 0. -1.
</event>
<event>
 5   0  0.7305460E-06  0.1711935E+04  0.7818609E-02  0.8754586E-01
       -1   -1    0    0    0  501  0.00000000000E+00  0.00000000000E+00  0.70166233696E+03  0.70166233698E+03  0.50400001928E-02 0. -1.
        1   -1    0    0  501    0  0.00000000000E+00  0.00000000000E+00 -0.10442065604E+04  0.10442065604E+04  0.50400001928E-02 0.  1.
    10030    2    1    2    0    0  0.00000000000E+00  0.00000000000E+00 -0.34254422344E+03  0.17458688974E+04  0.17119350636E+04 0.  0.
        4    1    3    3  502    0 -0.60443551736E+03 -0.12617336393E+03  0.43328257834E+03  0.75431917516E+03  0.12699999809E+01 0.  1.
       -4    1    3    3    0  502  0.60443551736E+03  0.12617336393E+03 -0.77582680179E+03  0.99154972225E+03  0.12699999809E+01 0. -1.
</event>
<event>
 5   0  0.1937947E-05  0.2836442E+04  0.7818609E-02  0.8292043E-01
       -2   -1    0    0    0  501  0.00000000000E+00  0.00000000000E+00  0.99141737371E+03  0.99141737372E+03  0.25500000920E-02 0. -1.
        2   -1    0    0  501    0  0.00000000000E+00  0.00000000000E+00 -0.20287628355E+04  0.20287628355E+04  0.25500000920E-02 0.  1.
    10030    2    1    2    0    0  0.00000000000E+00  0.00000000000E+00 -0.10373454617E+04  0.30201802092E+04  0.28364419417E+04 0.  0.
        3    1    3    3  502    0  0.11266272426E+04 -0.60234041681E+03 -0.11743958385E+04  0.17353122247E+04  0.10100000352E+00 0.  1.
       -3    1    3    3    0  502 -0.11266272426E+04  0.60234041681E+03  0.13705037677E+03  0.12848679845E+04  0.10100000352E+00 0. -1.
</event>
<event>
 5   0  0.1976233E-05  0.2851549E+04  0.7818609E-02  0.8287441E-01
       -2   -1    0    0    0  501  0.00000000000E+00  0.00000000000E+00  0.10111053716E+04  0.10111053716E+04  0.25500000920E-02 0. -1.
        2   -1    0    0  501    0  0.00000000000E+00  0.00000000000E+00 -0.20105059060E+04  0.20105059060E+04  0.25500000920E-02 0.  1.
    10030    2    1    2    0    0  0.00000000000E+00  0.00000000000E+00 -0.99940053436E+03  0.30216112776E+04  0.28515492780E+04 0.  0.
        2    1    3    3  502    0  0.54066503792E+03  0.10281503708E+04  0.37629551557E+03  0.12210692786E+04  0.25500000920E-02 0. -1.
       -2    1    3    3    0  502 -0.54066503792E+03 -0.10281503708E+04 -0.13756960499E+04  0.18005419990E+04  0.25500000920E-02 0.  1.
</event>
<event>
 5   0  0.1829810E-05  0.2787215E+04  0.7818609E-02  0.8307249E-01
       -2   -1    0    0    0  501  0.00000000000E+00  0.00000000000E+00  0.99214840372E+03  0.99214840372E+03  0.25500000920E-02 0.  1.
        2   -1    0    0  501    0  0.00000000000E+00  0.00000000000E+00 -0.19575109326E+04  0.19575109326E+04  0.25500000920E-02 0. -1.
    10030    2    1    2    0    0  0.00000000000E+00  0.00000000000E+00 -0.96536252891E+03  0.29496593364E+04  0.27872146290E+04 0.  0.
        4    1    3    3  502    0  0.87407333189E+03  0.10577612278E+04 -0.74033922537E+03  0.15591557928E+04  0.12699999809E+01 0. -1.
       -4    1    3    3    0  502 -0.87407333189E+03 -0.10577612278E+04 -0.22502330354E+03  0.13905035436E+04  0.12699999809E+01 0.  1.
</event>
<event>
 5   0  0.8055928E-06  0.2822675E+04  0.7818609E-02  0.8296263E-01
       -1   -1    0    0    0  501  0.00000000000E+00  0.00000000000E+00  0.10933585004E+04  0.10933585004E+04  0.50400001928E-02 0. -1.
        1   -1    0    0  501    0  0.00000000000E+00  0.00000000000E+00 -0.18217941767E+04  0.18217941767E+04  0.50400001928E-02 0.  1.
    10030    2    1    2    0    0  0.00000000000E+00  0.00000000000E+00 -0.72843567626E+03  0.29151526771E+04  0.28226754324E+04 0.  0.
        2    1    3    3  502    0  0.28320078026E+03 -0.84961623320E+03 -0.14907450166E+04  0.17390719163E+04  0.25500000920E-02 0.  1.
       -2    1    3    3    0  502 -0.28320078026E+03  0.84961623320E+03  0.76230934031E+03  0.11760807608E+04  0.25500000920E-02 0. -1.
</event>
<event>
 5   0  0.1918901E-05  0.2930638E+04  0.7818609E-02  0.8263820E-01
        2   -1    0    0  501    0  0.00000000000E+00  0.00000000000E+00  0.18714670342E+04  0.18714670342E+04  0.25500000920E-02 0.  1.
       -2   -1    0    0    0  501  0.00000000000E+00  0.00000000000E+00 -0.11473139936E+04  0.11473139936E+04  0.25500000920E-02 0. -1.
    10030    2    1    2    0    0  0.00000000000E+00  0.00000000000E+00  0.72415304059E+03  0.30187810278E+04  0.29306383720E+04 0.  0.
        1    1    3    3  502    0 -0.97800883277E+03  0.51211947093E+03 -0.63043426710E+03  0.12713044461E+04  0.50400001928E-02 0. -1.
       -1    1    3    3    0  502  0.97800883277E+03 -0.51211947093E+03  0.13545873077E+04  0.17474765817E+04  0.50400001928E-02 0.  1.
</event>
<event>
 5   0  0.1976233E-05  0.1555239E+04  0.7818609E-02  0.8848528E-01
        2   -1    0    0  501    0  0.00000000000E+00  0.00000000000E+00  0.12145935356E+04  0.12145935356E+04  0.25500000920E-02 0. -1.
       -2   -1    0    0    0  501  0.00000000000E+00  0.00000000000E+00 -0.49785562584E+03  0.49785562585E+03  0.25500000920E-02 0.  1.
    10030    2    1    2    0    0  0.00000000000E+00  0.00000000000E+00  0.71673790979E+03  0.17124491615E+04  0.15552391775E+04 0.  0.
        2    1    3    3  502    0  0.40862070465E+02  0.34554236743E+02 -0.49582576368E+03  0.49870521555E+03  0.25500000920E-02 0.  1.
       -2    1    3    3    0  502 -0.40862070465E+02 -0.34554236743E+02  0.12125636735E+04  0.12137439459E+04  0.25500000920E-02 0. -1.
</event>
<event>
 5   0  0.8122088E-06  0.2854802E+04  0.7818609E-02  0.8286454E-01
       -1   -1    0    0    0  501  0.00000000000E+00  0.00000000000E+00  0.15996971536E+04  0.15996971536E+04  0.50400001928E-02 0. -1.
        1   -1    0    0  501    0  0.00000000000E+00  0.00000000000E+00 -0.12736619979E+04  0.12736619979E+04  0.50400001928E-02 0.  1.
    10030    2    1    2    0    0  0.00000000000E+00  0.00000000000E+00  0.32603515573E+03  0.28733591516E+04  0.28548019005E+04 0.  0.
        1    1    3    3  502    0  0.39994533327E+03  0.11682563102E+04  0.88369882555E+03  0.15184540462E+04  0.50400001928E-02 0. -1.
       -1    1    3    3    0  502 -0.39994533327E+03 -0.11682563102E+04 -0.55766366981E+03  0.13549051054E+04  0.50400001928E-02 0.  1.
</event>
<event>
 5   0  0.8234888E-06  0.2927435E+04  0.7818609E-02  0.8264761E-01
        1   -1    0    0  501    0  0.00000000000E+00  0.00000000000E+00  0.20542575679E+04  0.20542575679E+04  0.50400001928E-02 0. -1.
       -1   -1    0    0    0  501  0.00000000000E+00  0.00000000000E+00 -0.10429409866E+04  0.10429409866E+04  0.50400001928E-02 0.  1.
    10030    2    1    2    0    0  0.00000000000E+00  0.00000000000E+00  0.10113165813E+04  0.30971985545E+04  0.29274353380E+04 0.  0.
        3    1    3    3  502    0 -0.68712482062E+02  0.84759810313E+03  0.17660999033E+04  0.19601665308E+04  0.10100000352E+00 0. -1.
       -3    1    3    3    0  502  0.68712482062E+02 -0.84759810313E+03 -0.75478332200E+03  0.11370320237E+04  0.10100000352E+00 0.  1.
</event>
<event>
 5   0  0.7305460E-06  0.2471771E+04  0.7818609E-02  0.8413112E-01
        1   -1    0    0  501    0  0.00000000000E+00  0.00000000000E+00  0.17205198473E+04  0.17205198473E+04  0.50400001928E-02 0. -1.
       -1   -1    0    0    0  501  0.00000000000E+00  0.00000000000E+00 -0.88776269131E+03  0.88776269133E+03  0.50400001928E-02 0.  1.
    10030    2    1    2    0    0  0.00000000000E+00  0.00000000000E+00  0.83275715599E+03  0.26082825386E+04  0.24717712921E+04 0.  0.
        4    1    3    3  502    0  0.34656796977E+02  0.73808491070E+03 -0.62901183323E+03  0.97037514818E+03  0.12699999809E+01 0.  1.
       -4    1    3    3    0  502 -0.34656796977E+02 -0.73808491070E+03  0.14617689892E+04  0.16379073905E+04  0.12699999809E+01 0. -1.
</event>
<event>
 5   0  0.8122088E-06  0.2705010E+04  0.7818609E-02  0.8333381E-01
        1   -1    0    0  501    0  0.00000000000E+00  0.00000000000E+00  0.13347780152E+04  0.13347780153E+04  0.50400001928E-02 0. -1.
       -1   -1    0    0    0  501  0.00000000000E+00  0.00000000000E+00 -0.13704678206E+04  0.13704678206E+04  0.50400001928E-02 0.  1.
    10030    2    1    2    0    0  0.00000000000E+00  0.00000000000E+00 -0.35689805364E+02  0.27052458359E+04  0.27050104011E+04 0.  0.
        1    1    3    3  502    0 -0.96756217894E+03  0.19471423492E+03 -0.94268488043E+03  0.13648241598E+04  0.50400001928E-02 0.  1.
       -1    1    3    3    0  502  0.96756217894E+03 -0.19471423492E+03  0.90699507507E+03  0.13404216760E+04  0.50400001928E-02 0. -1.
</event>
<event>
 5   0  0.1937947E-05  0.2923725E+04  0.7818609E-02  0.8265853E-01
       -2   -1    0    0    0  501  0.00000000000E+00  0.00000000000E+00  0.15292964203E+04  0.15292964203E+04  0.25500000920E-02 0.  1.
        2   -1    0    0  501    0  0.00000000000E+00  0.00000000000E+00 -0.13974020779E+04  0.13974020779E+04  0.25500000920E-02 0. -1.
    10030    2    1    2    0    0  0.00000000000E+00  0.00000000000E+00  0.13189434238E+03  0.29266984982E+04  0.29237250182E+04 0.  0.
        3    1    3    3  502    0  0.10365132115E+04 -0.10217554233E+04 -0.70933268679E+02  0.14571806070E+04  0.10100000352E+00 0.  1.
       -3    1    3    3    0  502 -0.10365132115E+04  0.10217554233E+04  0.20282761106E+03  0.14695178912E+04  0.10100000352E+00 0. -1.
</event>
<event>
 5   0  0.8055928E-06  0.2935544E+04  0.7818609E-02  0.8262380E-01
       -1   -1    0    0    0  501  0.00000000000E+00  0.00000000000E+00  0.11018352445E+04  0.11018352446E+04  0.50400001928E-02 0.  1.
        1   -1    0    0  501    0  0.00000000000E+00  0.00000000000E+00 -0.19552421775E+04  0.19552421775E+04  0.50400001928E-02 0. -1.
    10030    2    1    2    0    0  0.00000000000E+00  0.00000000000E+00 -0.85340693299E+03  0.30570774221E+04  0.29355440674E+04 0.  0.
        2    1    3    3  502    0  0.76674005378E+03 -0.10531298207E+04  0.27759602430E+03  0.13319280318E+04  0.25500000920E-02 0.  1.
       -2    1    3    3    0  502 -0.76674005378E+03  0.10531298207E+04 -0.11310029573E+04  0.17251493903E+04  0.25500000920E-02 0. -1.
</event>
<event>
 5   0  0.1918901E-05  0.2943947E+04  0.7818609E-02  0.8259921E-01
        2   -1    0    0  501    0  0.00000000000E+00  0.00000000000E+00  0.20137970058E+04  0.20137970058E+04  0.25500000920E-02 0.  1.
       -2   -1    0    0    0  501  0.00000000000E+00  0.00000000000E+00 -0.10759306946E+04  0.10759306946E+04  0.25500000920E-02 0. -1.
    10030    2    1    2    0    0  0.00000000000E+00  0.00000000000E+00  0.93786631124E+03  0.30897277004E+04  0.29439470180E+04 0.  0.
        1    1    3    3  502    0  0.87494754083E+03 -0.47692262127E+03 -0.66809712278E+03  0.11997258651E+04  0.50400001928E-02 0. -1.
       -1    1    3    3    0  502 -0.87494754083E+03  0.47692262127E+03  0.16059634340E+04  0.18900018353E+04  0.50400001928E-02 0.  1.
</event>
<event>
 5   0  0.8055928E-06  0.2892918E+04  0.7818609E-02  0.8274988E-01
       -1   -1    0    0    0  501  0.00000000000E+00  0.00000000000E+00  0.14626715581E+04  0.14626715581E+04  0.50400001928E-02 0.  1.
        1   -1    0    0  501    0  0.00000000000E+00  0.00000000000E+00 -0.14304261387E+04  0.14304261387E+04  0.50400001928E-02 0. -1.
    10030    2    1    2    0    0  0.00000000000E+00  0.00000000000E+00  0.32245419386E+02  0.28930976968E+04  0.28929179933E+04 0.  0.
        2    1    3    3  502    0  0.14415858592E+04 -0.10121909182E+03 -0.45756289249E+02  0.14458591675E+04  0.25500000920E-02 0.  1.
       -2    1    3    3    0  502 -0.14415858592E+04  0.10121909182E+03  0.78001708635E+02  0.14472385293E+04  0.25500000920E-02 0. -1.
</event>
<event>
 5   0  0.8234888E-06  0.2684697E+04  0.7818609E-02  0.8339987E-01
       -1   -1    0    0    0  501  0.00000000000E+00  0.00000000000E+00  0.82462031809E+03  0.82462031810E+03  0.50400001928E-02 0.  1.
        1   -1    0    0  501    0  0.00000000000E+00  0.00000000000E+00 -0.21851268839E+04  0.21851268839E+04  0.50400001928E-02 0. -1.
    10030    2    1    2    0    0  0.00000000000E+00  0.00000000000E+00 -0.13605065658E+04  0.30097472020E+04  0.26846973953E+04 0.  0.
        3    1    3    3  502    0 -0.54380869486E+03 -0.10867816752E+04 -0.13194407834E+04  0.17938077648E+04  0.10100000352E+00 0. -1.
       -3    1    3    3    0  502  0.54380869486E+03  0.10867816752E+04 -0.41065782427E+02  0.12159394372E+04  0.10100000352E+00 0.  1.
</event>
<event>
 5   0  0.1829810E-05  0.2837903E+04  0.7818609E-02  0.8291597E-01
       -2   -1    0    0    0  501  0.00000000000E+00  0.00000000000E+00  0.13321097616E+04  0.13321097616E+04  0.25500000920E-02 0.  1.
        2   -1    0    0  501    0  0.00000000000E+00  0.00000000000E+00 -0.15114540608E+04  0.15114540608E+04  0.25500000920E-02 0. -1.
    10030    2    1    2    0    0  0.00000000000E+00  0.00000000000E+00 -0.17934429917E+03  0.28435638224E+04  0.28379025414E+04 0.  0.
        4    1    3    3  502    0 -0.96134229190E+03  0.62989263095E+03 -0.92348444513E+03  0.14743706664E+04  0.12699999809E+01 0. -1.
       -4    1    3    3    0  502  0.96134229190E+03 -0.62989263095E+03  0.74414014595E+03  0.13691931560E+04  0.12699999809E+01 0.  1.
</event>
<event>
 5   0  0.7305460E-06  0.3089657E+04  0.7818609E-02  0.8218582E-01
       -1   -1    0    0    0  501  0.00000000000E+00  0.00000000000E+00  0.11783545677E+04  0.11783545677E+04  0.50400001928E-02 0. -1.
        1   -1    0    0  501    0  0.00000000000E+00  0.00000000000E+00 -0.20252776333E+04  0.20252776333E+04  0.50400001928E-02 0.  1.
    10030    2    1    2    0    0  0.00000000000E+00  0.00000000000E+00 -0.84692306560E+03  0.32036322010E+04  0.30896570360E+04 0.  0.
        4    1    3    3  502    0  0.15265074560E+04 -0.19634235637E+03 -0.28544147211E+03  0.15653286495E+04  0.12699999809E+01 0. -1.
       -4    1    3    3    0  502 -0.15265074560E+04  0.19634235637E+03 -0.56148159349E+03  0.16383035515E+04  0.12699999809E+01 0.  1.
</event>
<event>
 5   0  0.1976233E-05  0.2547183E+04  0.7818609E-02  0.8386367E-01
       -2   -1    0    0    0  501  0.00000000000E+00  0.00000000000E+00  0.91378407779E+03  0.91378407779E+03  0.25500000920E-02 0.  1.
        2   -1    0    0  501    0  0.00000000000E+00  0.00000000000E+00 -0.17750747261E+04  0.17750747261E+04  0.25500000920E-02 0. -1.
    10030    2    1    2    0    0  0.00000000000E+00  0.00000000000E+00 -0.86129064827E+03  0.26888588039E+04  0.25471827744E+04 0.  0.
        2    1    3    3  502    0 -0.11094445411E+04  0.55952539763E+03 -0.13563917206E+03  0.12499335364E+04  0.25500000920E-02 0.  1.
       -2    1    3    3    0  502  0.11094445411E+04 -0.55952539763E+03 -0.72565147621E+03  0.14389252675E+04  0.25500000920E-02 0. -1.
</event>
<event>
 5   0  0.7971153E-06  0.2749070E+04  0.7818609E-02  0.8319257E-01
        1   -1    0    0  501    0  0.00000000000E+00  0.00000000000E+00  0.13429497783E+04  0.13429497783E+04  0.50400001928E-02 0.  1.
       -1   -1    0    0    0  501  0.00000000000E+00  0.00000000000E+00 -0.14068635652E+04  0.14068635652E+04  0.50400001928E-02 0. -1.
    10030    2    1    2    0    0  0.00000000000E+00  0.00000000000E+00 -0.63913786836E+02  0.27498133435E+04  0.27490704706E+04 0.  0.
        5    1    3    3  502    0  0.65920973605E+03  0.98352876265E+03 -0.73031367454E+03  0.13911385468E+04  0.46999998093E+01 0. -1.
       -5    1    3    3    0  502 -0.65920973605E+03 -0.98352876265E+03  0.66639988771E+03  0.13586747968E+04  0.46999998093E+01 0.  1.
</event>
<event>
 5   0  0.1937947E-05  0.2926313E+04  0.7818609E-02  0.8265091E-01
       -2   -1    0    0    0  501  0.00000000000E+00  0.00000000000E+00  0.95046432109E+03  0.95046432110E+03  0.25500000920E-02 0.  1.
        2   -1    0    0  501    0  0.00000000000E+00  0.00000000000E+00 -0.22524019274E+04  0.22524019275E+04  0.25500000920E-02 0. -1.
    10030    2    1    2    0    0  0.00000000000E+00  0.00000000000E+00 -0.13019376064E+04  0.32028662485E+04  0.29263134957E+04 0.  0.
        3    1    3    3  502    0 -0.12953019807E+04 -0.75645253510E+02 -0.13911153451E+04  0.19022963331E+04  0.10100000352E+00 0. -1.
       -3    1    3    3    0  502  0.12953019807E+04  0.75645253510E+02  0.89177738706E+02  0.13005699154E+04  0.10100000352E+00 0.  1.
</event>
<event>
 5   0  0.8055928E-06  0.2816312E+04  0.7818609E-02  0.8298222E-01
       -1   -1    0    0    0  501  0.00000000000E+00  0.00000000000E+00  0.13406886974E+04  0.13406886974E+04  0.50400001928E-02 0. -1.
        1   -1    0    0  501    0  0.00000000000E+00  0.00000000000E+00 -0.14790181022E+04  0.14790181023E+04  0.50400001928E-02 0.  1.
    10030    2    1    2    0    0  0.00000000000E+00  0.00000000000E+00 -0.13832940481E+03  0.28197067997E+04  0.28163116681E+04 0.  0.
        2    1    3    3  502    0  0.10724770898E+04 -0.90866407206E+03  0.14753696492E+02  0.14057365242E+04  0.25500000920E-02 0.  1.
       -2    1    3    3    0  502 -0.10724770898E+04  0.90866407206E+03 -0.15308310130E+03  0.14139702755E+04  0.25500000920E-02 0. -1.
</event>
<event>
 5   0  0.1976233E-05  0.2862227E+04  0.7818609E-02  0.8284205E-01
       -2   -1    0    0    0  501  0.00000000000E+00  0.00000000000E+00  0.11655149077E+04  0.11655149077E+04  0.25500000920E-02 0. -1.
        2   -1    0    0  501    0  0.00000000000E+00  0.00000000000E+00 -0.17572374110E+04  0.17572374110E+04  0.25500000920E-02 0.  1.
    10030    2    1    2    0    0  0.00000000000E+00  0.00000000000E+00 -0.59172250332E+03  0.29227523187E+04  0.28622273837E+04 0.  0.
        2    1    3    3  502    0 -0.13648733991E+04  0.38239888554E+02 -0.73358016129E+03  0.15499940444E+04  0.25500000920E-02 0.  1.
       -2    1    3    3    0  502  0.13648733991E+04 -0.38239888554E+02  0.14185765797E+03  0.13727582743E+04  0.25500000920E-02 0. -1.
</event>
<event>
 5   0  0.1918901E-05  0.2775790E+04  0.7818609E-02  0.8310824E-01
        2   -1    0    0  501    0  0.00000000000E+00  0.00000000000E+00  0.14573381263E+04  0.14573381263E+04  0.25500000920E-02 0. -1.
       -2   -1    0    0    0  501  0.00000000000E+00  0.00000000000E+00 -0.13217606921E+04  0.13217606921E+04  0.25500000920E-02 0.  1.
    10030    2    1    2    0    0  0.00000000000E+00  0.00000000000E+00  0.13557743425E+03  0.27790988184E+04  0.27757897978E+04 0.  0.
        1    1    3    3  502    0 -0.55448076968E+03 -0.31637213682E+03 -0.11660407162E+04  0.13293574406E+04  0.50400001928E-02 0.  1.
       -1    1    3    3    0  502  0.55448076968E+03  0.31637213682E+03  0.13016181505E+04  0.14497413778E+04  0.50400001928E-02 0. -1.
</event>
<event>
 5   0  0.8234888E-06  0.2824581E+04  0.7818609E-02  0.8295677E-01
        1   -1    0    0  501    0  0.00000000000E+00  0.00000000000E+00  0.32477173984E+04  0.32477173984E+04  0.50400001928E-02 0.  1.
       -1   -1    0    0    0  501  0.00000000000E+00  0.00000000000E+00 -0.61414331059E+03  0.61414331061E+03  0.50400001928E-02 0. -1.
    10030    2    1    2    0    0  0.00000000000E+00  0.00000000000E+00  0.26335740878E+04  0.38618607090E+04  0.28245806166E+04 0.  0.
        3    1    3    3  502    0 -0.15674897676E+03 -0.13798131625E+04  0.96524772366E+03  0.16912001015E+04  0.10100000352E+00 0.  1.
       -3    1    3    3    0  502  0.15674897676E+03  0.13798131625E+04  0.16683263641E+04  0.21706606074E+04  0.10100000352E+00 0. -1.
</event>
<event>
 5   0  0.7305460E-06  0.2874579E+04  0.7818609E-02  0.8280482E-01
        1   -1    0    0  501    0  0.00000000000E+00  0.00000000000E+00  0.18348083898E+04  0.18348083898E+04  0.50400001928E-02 0.  1.
       -1   -1    0    0    0  501  0.00000000000E+00  0.00000000000E+00 -0.11258943491E+04  0.11258943491E+04  0.50400001928E-02 0. -1.
    10030    2    1    2    0    0  0.00000000000E+00  0.00000000000E+00  0.70891404068E+03  0.29607027388E+04  0.28745785066E+04 0.  0.
        4    1    3    3  502    0  0.37728638984E+03  0.35945658428E+03 -0.10251692992E+04  0.11500120699E+04  0.12699999809E+01 0. -1.
       -4    1    3    3    0  502 -0.37728638984E+03 -0.35945658428E+03  0.17340833399E+04  0.18106906689E+04  0.12699999809E+01 0.  1.
</event>
<event>
 5   0  0.1976233E-05  0.2755619E+04  0.7818609E-02  0.8317181E-01
        2   -1    0    0  501    0  0.00000000000E+00  0.00000000000E+00  0.24141242826E+04  0.24141242826E+04  0.25500000920E-02 0. -1.
       -2   -1    0    0    0  501  0.00000000000E+00  0.00000000000E+00 -0.78635507155E+03  0.78635507155E+03  0.25500000920E-02 0.  1.
    10030    2    1    2    0    0  0.00000000000E+00  0.00000000000E+00  0.16277692111E+04  0.32004793542E+04  0.27556188945E+04 0.  0.
        2    1    3    3  502    0 -0.23044593296E+03 -0.70120676726E+03  0.21651325657E+04  0.22874866744E+04  0.25500000920E-02 0. -1.
       -2    1    3    3    0  502  0.23044593296E+03  0.70120676726E+03 -0.53736335461E+03  0.91299267979E+03  0.25500000920E-02 0.  1.
</event>
<event>
 5   0  0.1829810E-05  0.2828000E+04  0.7818609E-02  0.8294628E-01
       -2   -1    0    0    0  501  0.00000000000E+00  0.00000000000E+00  0.11560676650E+04  0.11560676650E+04  0.25500000920E-02 0. -1.
        2   -1    0    0  501    0  0.00000000000E+00  0.00000000000E+00 -0.17294794929E+04  0.17294794929E+04  0.25500000920E-02 0.  1.
    10030    2    1    2    0    0  0.00000000000E+00  0.00000000000E+00 -0.57341182789E+03  0.28855471579E+04  0.28279995184E+04 0.  0.
        4    1    3    3  502    0  0.78730587070E+03  0.11687846276E+04 -0.40519682824E+03  0.14663199249E+04  0.12699999809E+01 0. -1.
       -4    1    3    3    0  502 -0.78730587070E+03 -0.11687846276E+04 -0.16821499965E+03  0.14192272329E+04  0.12699999809E+01 0.  1.
</event>
<event>
 5   0  0.1937947E-05  0.1469675E+04  0.7818609E-02  0.8904873E-01
       -2   -1    0    0    0  501  0.00000000000E+00  0.00000000000E+00  0.33802023362E+03  0.33802023363E+03  0.25500000920E-02 0.  1.
        2   -1    0    0  501    0  0.00000000000E+00  0.00000000000E+00 -0.15974957379E+04  0.15974957379E+04  0.25500000920E-02 0. -1.
    10030    2    1    2    0    0  0.00000000000E+00  0.00000000000E+00 -0.12594755043E+04  0.19355159716E+04  0.14696746341E+04 0.  0.
        3    1    3    3  502    0  0.17802506671E+03  0.48356477165E+03 -0.13196812961E+04  0.14167168194E+04  0.10100000352E+00 0. -1.
       -3    1    3    3    0  502 -0.17802506671E+03 -0.48356477165E+03  0.60205791801E+02  0.51879915220E+03  0.10100000352E+00 0.  1.
</event>
<event>
 5   0  0.1960961E-05  0.2724367E+04  0.7818609E-02  0.8327142E-01
       -2   -1    0    0    0  501  0.00000000000E+00  0.00000000000E+00  0.78551917484E+03  0.78551917484E+03  0.25500000920E-02 0.  1.
        2   -1    0    0  501    0  0.00000000000E+00  0.00000000000E+00 -0.23621879336E+04  0.23621879336E+04  0.25500000920E-02 0. -1.
    10030    2    1    2    0    0  0.00000000000E+00  0.00000000000E+00 -0.15766687588E+04  0.31477071085E+04  0.27243670211E+04 0.  0.
        5    1    3    3  502    0 -0.20525752714E+03  0.13267744752E+04 -0.52219137914E+03  0.14405440247E+04  0.46999998093E+01 0.  1.
       -5    1    3    3    0  502  0.20525752714E+03 -0.13267744752E+04 -0.10544773796E+04  0.17071630838E+04  0.46999998093E+01 0. -1.
</event>
<event>
 5   0  0.7305460E-06  0.2859511E+04  0.7818609E-02  0.8285027E-01
       -1   -1    0    0    0  501  0.00000000000E+00  0.00000000000E+00  0.75515354995E+03  0.75515354996E+03  0.50400001928E-02 0.  1.
        1   -1    0    0  501    0  0.00000000000E+00  0.00000000000E+00 -0.27069992267E+04  0.27069992267E+04  0.50400001928E-02 0. -1.
    10030    2    1    2    0    0  0.00000000000E+00  0.00000000000E+00 -0.19518456767E+04  0.34621527766E+04  0.28595105006E+04 0.  0.
        4    1    3    3  502    0  0.19865924732E+03  0.11508586751E+04 -0.19745218470E+04  0.22940530342E+04  0.12699999809E+01 0. -1.
       -4    1    3    3    0  502 -0.19865924732E+03 -0.11508586751E+04  0.22676170281E+02  0.11680997424E+04  0.12699999809E+01 0.  1.
</event>
<event>
 5   0  0.7971153E-06  0.2929787E+04  0.7818609E-02  0.8264070E-01
        1   -1    0    0  501    0  0.00000000000E+00  0.00000000000E+00  0.76205148714E+03  0.76205148716E+03  0.50400001928E-02 0.  1.
       -1   -1    0    0    0  501  0.00000000000E+00  0.00000000000E+00 -0.28159682755E+04  0.28159682755E+04  0.50400001928E-02 0. -1.
    10030    2    1    2    0    0  0.00000000000E+00  0.00000000000E+00 -0.20539167883E+04  0.35780197626E+04  0.29297868947E+04 0.  0.
        5    1    3    3  502    0  0.30835131522E+03  0.13862598652E+04 -0.14657510527E+04  0.20408932324E+04  0.46999998093E+01 0. -1.
       -5    1    3    3    0  502 -0.30835131522E+03 -0.13862598652E+04 -0.58816573560E+03  0.15371265302E+04  0.46999998093E+01 0.  1.
</event>
<event>
 5   0  0.8122088E-06  0.2880487E+04  0.7818609E-02  0.8278707E-01
        1   -1    0    0  501    0  0.00000000000E+00  0.00000000000E+00  0.14165697257E+04  0.14165697257E+04  0.50400001928E-02 0. -1.
       -1   -1    0    0    0  501  0.00000000000E+00  0.00000000000E+00 -0.14643133633E+04  0.14643133633E+04  0.50400001928E-02 0.  1.
    10030    2    1    2    0    0  0.00000000000E+00  0.00000000000E+00 -0.47743637670E+02  0.28808830890E+04  0.28804874444E+04 0.  0.
        1    1    3    3  502    0 -0.11350119623E+04  0.18861915702E+03 -0.89028904654E+03  0.14548003050E+04  0.50400001928E-02 0.  1.
       -1    1    3    3    0  502  0.11350119623E+04 -0.18861915702E+03  0.84254540887E+03  0.14260827840E+04  0.50400001928E-02 0. -1.
</event>
<event>
 5   0  0.1829810E-05  0.2913542E+04  0.7818609E-02  0.8268860E-01
        2   -1    0    0  501    0  0.00000000000E+00  0.00000000000E+00  0.24151052273E+04  0.24151052273E+04  0.25500000920E-02 0.  1.
       -2   -1    0    0    0  501  0.00000000000E+00  0.00000000000E+00 -0.87871210831E+03  0.87871210831E+03  0.25500000920E-02 0. -1.
    10030    2    1    2    0    0  0.00000000000E+00  0.00000000000E+00  0.15363931190E+04  0.32938173356E+04  0.29135423155E+04 0.  0.
        4    1    3    3  502    0  0.11981066920E+04  0.76386391278E+03  0.40496198284E+03  0.14774787792E+04  0.12699999809E+01 0. -1.
       -4    1    3    3    0  502 -0.11981066920E+04 -0.76386391278E+03  0.11314311361E+04  0.18163385564E+04  0.12699999809E+01 0.  1.
</event>
<event>
 5   0  0.1829810E-05  0.2460088E+04  0.7818609E-02  0.8417344E-01
        2   -1    0    0  501    0  0.00000000000E+00  0.00000000000E+00  0.13879260883E+04  0.13879260883E+04  0.25500000920E-02 0.  1.
       -2   -1    0    0    0  501  0.00000000000E+00  0.00000000000E+00 -0.10901217710E+04  0.10901217710E+04  0.25500000920E-02 0. -1.
    10030    2    1    2    0    0  0.00000000000E+00  0.00000000000E+00  0.29780431726E+03  0.24780478593E+04  0.24600881654E+04 0.  0.
        4    1    3    3  502    0 -0.62386679295E+03 -0.16519258801E+03 -0.90588543401E+03  0.11122627383E+04  0.12699999809E+01 0. -1.
       -4    1    3    3    0  502  0.62386679295E+03  0.16519258801E+03  0.12036897513E+04  0.13657851210E+04  0.12699999809E+01 0.  1.
</event>
<event>
 5   0  0.6578125E-06  0.2722065E+04  0.7818609E-02  0.8327881E-01
       -3   -1    0    0    0  501  0.00000000000E+00  0.00000000000E+00  0.20891899655E+04  0.20891899680E+04  0.10100000352E+00 0.  1.
        3   -1    0    0  501    0  0.00000000000E+00  0.00000000000E+00 -0.88666374525E+03  0.88666375100E+03  0.10100000352E+00 0. -1.
    10030    2    1    2    0    0  0.00000000000E+00  0.00000000000E+00  0.12025262203E+04  0.29758537190E+04  0.27220646661E+04 0.  0.
        3    1    3    3  502    0 -0.11451452616E+04  0.66641856466E+03  0.94163942738E+03  0.16254710686E+04  0.10100000352E+00 0. -1.
       -3    1    3    3    0  502  0.11451452616E+04 -0.66641856466E+03  0.26088679289E+03  0.13503826504E+04  0.10100000352E+00 0.  1.
</event>
<event>
 5   0  0.1976233E-05  0.2927792E+04  0.7818609E-02  0.8264656E-01
        2   -1    0    0  501    0  0.00000000000E+00  0.00000000000E+00  0.15648368156E+04  0.15648368156E+04  0.25500000920E-02 0.  1.
       -2   -1    0    0    0  501  0.00000000000E+00  0.00000000000E+00 -0.13694660773E+04  0.13694660773E+04  0.25500000920E-02 0. -1.
    10030    2    1    2    0    0  0.00000000000E+00  0.00000000000E+00  0.19537073832E+03  0.29343028929E+04  0.29277916151E+04 0.  0.
        2    1    3    3  502    0  0.25521241820E+03 -0.13287603595E+04 -0.46235381164E+03  0.14298631118E+04  0.25500000920E-02 0. -1.
       -2    1    3    3    0  502 -0.25521241820E+03  0.13287603595E+04  0.65772454996E+03  0.15044397811E+04  0.25500000920E-02 0.  1.
</event>
<event>
 5   0  0.8055928E-06  0.2897758E+04  0.7818609E-02  0.8273545E-01
        1   -1    0    0  501    0  0.00000000000E+00  0.00000000000E+00  0.12024369766E+04  0.12024369766E+04  0.50400001928E-02 0. -1.
       -1   -1    0    0    0  501  0.00000000000E+00  0.00000000000E+00 -0.17458297556E+04  0.17458297556E+04  0.50400001928E-02 0.  1.
    10030    2    1    2    0    0  0.00000000000E+00  0.00000000000E+00 -0.54339277898E+03  0.29482667322E+04  0.28977579285E+04 0.  0.
        2    1    3    3  502    0  0.32227754730E+02  0.21116046571E+03 -0.17297215437E+04  0.17428608634E+04  0.25500000920E-02 0.  1.
       -2    1    3    3    0  502 -0.32227754730E+02 -0.21116046571E+03  0.11863287647E+04  0.12054058688E+04  0.25500000920E-02 0. -1.
</event>
<event>
 5   0  0.8234888E-06  0.2940931E+04  0.7818609E-02  0.8260802E-01
        1   -1    0    0  501    0  0.00000000000E+00  0.00000000000E+00  0.12507484518E+04  0.12507484518E+04  0.50400001928E-02 0. -1.
       -1   -1    0    0    0  501  0.00000000000E+00  0.00000000000E+00 -0.17287801671E+04  0.17287801671E+04  0.50400001928E-02 0.  1.
    10030    2    1    2    0    0  0.00000000000E+00  0.00000000000E+00 -0.47803171529E+03  0.29795286189E+04  0.29409312249E+04 0.  0.
        3    1    3    3  502    0 -0.33451971847E+03 -0.10988931010E+04 -0.11691056066E+04  0.16389867050E+04  0.10100000352E+00 0.  1.
       -3    1    3    3    0  502  0.33451971847E+03  0.10988931010E+04  0.69107389132E+03  0.13405419139E+04  0.10100000352E+00 0. -1.
</event>
<event>
 5   0  0.1937947E-05  0.2879428E+04  0.7818609E-02  0.8279025E-01
       -2   -1    0    0    0  501  0.00000000000E+00  0.00000000000E+00  0.12263949947E+04  0.12263949947E+04  0.25500000920E-02 0. -1.
        2   -1    0    0  501    0  0.00000000000E+00  0.00000000000E+00 -0.16901374911E+04  0.16901374911E+04  0.25500000920E-02 0.  1.
    10030    2    1    2    0    0  0.00000000000E+00  0.00000000000E+00 -0.46374249647E+03  0.29165324858E+04  0.28794278317E+04 0.  0.
        3    1    3    3  502    0  0.93023871559E+03 -0.58779840618E+03 -0.11722339343E+04  0.16077883695E+04  0.10100000352E+00 0.  1.
       -3    1    3    3    0  502 -0.93023871559E+03  0.58779840618E+03  0.70849143782E+03  0.13087441163E+04  0.10100000352E+00 0. -1.
</event>
<event>
 5   0  0.1918901E-05  0.2886970E+04  0.7818609E-02  0.8276765E-01
       -2   -1    0    0    0  501  0.00000000000E+00  0.00000000000E+00  0.10539357537E+04  0.10539357537E+04  0.25500000920E-02 0.  1.
        2   -1    0    0  501    0  0.00000000000E+00  0.00000000000E+00 -0.19770176842E+04  0.19770176842E+04  0.25500000920E-02 0. -1.
    10030    2    1    2    0    0  0.00000000000E+00  0.00000000000E+00 -0.92308193051E+03  0.30309534379E+04  0.28869704696E+04 0.  0.
        1    1    3    3  502    0 -0.95877850824E+03  0.10789654561E+04 -0.44572512754E+03  0.15106599792E+04  0.50400001928E-02 0.  1.
       -1    1    3    3    0  502  0.95877850824E+03 -0.10789654561E+04 -0.47735680297E+03  0.15202934588E+04  0.50400001928E-02 0. -1.
</event>
<event>
 5   0  0.7305460E-06  0.2657601E+04  0.7818609E-02  0.8348895E-01
        1   -1    0    0  501    0  0.00000000000E+00  0.00000000000E+00  0.16271176904E+04  0.16271176904E+04  0.50400001928E-02 0. -1.
       -1   -1    0    0    0  501  0.00000000000E+00  0.00000000000E+00 -0.10851770467E+04  0.10851770467E+04  0.50400001928E-02 0.  1.
    10030    2    1    2    0    0  0.00000000000E+00  0.00000000000E+00  0.54194064372E+03  0.27122947371E+04  0.26576010008E+04 0.  0.
        4    1    3    3  502    0  0.92740212434E+03  0.61573707643E+03 -0.46956749744E+03  0.12081813171E+04  0.12699999809E+01 0.  1.
       -4    1    3    3    0  502 -0.92740212434E+03 -0.61573707643E+03  0.10115081412E+04  0.15041134199E+04  0.12699999809E+01 0. -1.
</event>
<event>
 5   0  0.7305460E-06  0.3032351E+04  0.7818609E-02  0.8234553E-01
        1   -1    0    0  501    0  0.00000000000E+00  0.00000000000E+00  0.17015820238E+04  0.17015820238E+04  0.50400001928E-02 0.  1.
       -1   -1    0    0    0  501  0.00000000000E+00  0.00000000000E+00 -0.13509706976E+04  0.13509706976E+04  0.50400001928E-02 0. -1.
    10030    2    1    2    0    0  0.00000000000E+00  0.00000000000E+00  0.35061132621E+03  0.30525527213E+04  0.30323505428E+04 0.  0.
        4    1    3    3  502    0 -0.51506803479E+03  0.88922050826E+02  0.16080175294E+04  0.16908353555E+04  0.12699999809E+01 0.  1.
       -4    1    3    3    0  502  0.51506803479E+03 -0.88922050826E+02 -0.12574062032E+04  0.13617173658E+04  0.12699999809E+01 0. -1.
</event>
<event>
 5   0  0.7971153E-06  0.2887133E+04  0.7818609E-02  0.8276716E-01
        1   -1    0    0  501    0  0.00000000000E+00  0.00000000000E+00  0.14500796063E+04  0.14500796063E+04  0.50400001928E-02 0.  1.
       -1   -1    0    0    0  501  0.00000000000E+00  0.00000000000E+00 -0.14370826430E+04  0.14370826430E+04  0.50400001928E-02 0. -1.
    10030    2    1    2    0    0  0.00000000000E+00  0.00000000000E+00  0.12996963283E+02  0.28871622493E+04  0.28871329954E+04 0.  0.
        5    1    3    3  502    0  0.37681971921E+03  0.12807128796E+04 -0.54272795202E+03  0.14411087053E+04  0.46999998093E+01 0.  1.
       -5    1    3    3    0  502 -0.37681971921E+03 -0.12807128796E+04  0.55572491530E+03  0.14460535440E+04  0.46999998093E+01 0. -1.
</event>
<event>
 5   0  0.1829810E-05  0.2767823E+04  0.7818609E-02  0.8313328E-01
        2   -1    0    0  501    0  0.00000000000E+00  0.00000000000E+00  0.14653101407E+04  0.14653101407E+04  0.25500000920E-02 0.  1.
       -2   -1    0    0    0  501  0.00000000000E+00  0.00000000000E+00 -0.13070346217E+04  0.13070346217E+04  0.25500000920E-02 0. -1.
    10030    2    1    2    0    0  0.00000000000E+00  0.00000000000E+00  0.15827551896E+03  0.27723447624E+04  0.27678230329E+04 0.  0.
        4    1    3    3  502    0  0.10928283008E+04 -0.73823699229E+03 -0.34100180649E+03  0.13621862562E+04  0.12699999809E+01 0. -1.
       -4    1    3    3    0  502 -0.10928283008E+04  0.73823699229E+03  0.49927732545E+03  0.14101585061E+04  0.12699999809E+01 0.  1.
</event>
<event>
 5   0  0.7971153E-06  0.2973030E+04  0.7818609E-02  0.8251475E-01
        1   -1    0    0  501    0  0.00000000000E+00  0.00000000000E+00  0.14937795779E+04  0.14937795779E+04  0.50400001928E-02 0. -1.
       -1   -1    0    0    0  501  0.00000000000E+00  0.00000000000E+00 -0.14792857132E+04  0.14792857132E+04  0.50400001928E-02 0.  1.
    10030    2    1    2    0    0  0.00000000000E+00  0.00000000000E+00  0.14493864677E+02  0.29730652911E+04  0.29730299617E+04 0.  0.
        5    1    3    3  502    0 -0.91814991003E+03  0.76436753444E+03 -0.87732432516E+03  0.14822203097E+04  0.46999998093E+01 0.  1.
       -5    1    3    3    0  502  0.91814991003E+03 -0.76436753444E+03  0.89181818983E+03  0.14908449814E+04  0.46999998093E+01 0. -1.
</event>
<event>
 5   0  0.1937947E-05  0.2856637E+04  0.7818609E-02  0.8285897E-01
        2   -1    0    0  501    0  0.00000000000E+00  0.00000000000E+00  0.11889196696E+04  0.11889196696E+04  0.25500000920E-02 0.  1.
       -2   -1    0    0    0  501  0.00000000000E+00  0.00000000000E+00 -0.17159224932E+04  0.17159224932E+04  0.25500000920E-02 0. -1.
    10030    2    1    2    0    0  0.00000000000E+00  0.00000000000E+00 -0.52700282362E+03  0.29048421628E+04  0.28566371864E+04 0.  0.
        3    1    3    3  502    0  0.62572903089E+03  0.10157476919E+04  0.53512651915E+03  0.13075322540E+04  0.10100000352E+00 0. -1.
       -3    1    3    3    0  502 -0.62572903089E+03 -0.10157476919E+04 -0.10621293428E+04  0.15973099088E+04  0.10100000352E+00 0.  1.
</event>
<event>
 5   0  0.1937947E-05  0.2932205E+04  0.7818609E-02  0.8263360E-01
        2   -1    0    0  501    0  0.00000000000E+00  0.00000000000E+00  0.16144361588E+04  0.16144361588E+04  0.25500000920E-02 0. -1.
       -2   -1    0    0    0  501  0.00000000000E+00  0.00000000000E+00 -0.13313977715E+04  0.13313977715E+04  0.25500000920E-02 0.  1.
    10030    2    1    2    0    0  0.00000000000E+00  0.00000000000E+00  0.28303838728E+03  0.29458339303E+04  0.29322051115E+04 0.  0.
        3    1    3    3  502    0  0.45281579915E+03  0.59713195434E+03  0.14074744996E+04  0.15945510954E+04  0.10100000352E+00 0. -1.
       -3    1    3    3    0  502 -0.45281579915E+03 -0.59713195434E+03 -0.11244361123E+04  0.13512828348E+04  0.10100000352E+00 0.  1.
</event>
<event>
 5   0  0.7971153E-06  0.2394735E+04  0.7818609E-02  0.8441477E-01
        1   -1    0    0  501    0  0.00000000000E+00  0.00000000000E+00  0.13922394930E+04  0.13922394931E+04  0.50400001928E-02 0. -1.
       -1   -1    0    0    0  501  0.00000000000E+00  0.00000000000E+00 -0.10297719468E+04  0.10297719468E+04  0.50400001928E-02 0.  1.
    10030    2    1    2    0    0  0.00000000000E+00  0.00000000000E+00  0.36246754629E+03  0.24220114398E+04  0.23947352030E+04 0.  0.
        5    1    3    3  502    0  0.89637378936E+03  0.76795684369E+03  0.38457952619E+03  0.12414375482E+04  0.46999998093E+01 0. -1.
       -5    1    3    3    0  502 -0.89637378936E+03 -0.76795684369E+03 -0.22111979903E+02  0.11805738917E+04  0.46999998093E+01 0.  1.
</event>
<event>
 5   0  0.1937947E-05  0.2915565E+04  0.7818609E-02  0.8268261E-01
        2   -1    0    0  501    0  0.00000000000E+00  0.00000000000E+00  0.18676933245E+04  0.18676933245E+04  0.25500000920E-02 0. -1.
       -2   -1    0    0    0  501  0.00000000000E+00  0.00000000000E+00 -0.11378365920E+04  0.11378365920E+04  0.25500000920E-02 0.  1.
    10030    2    1    2    0    0  0.00000000000E+00  0.00000000000E+00  0.72985673253E+03  0.30055299165E+04  0.29155649931E+04 0.  0.
        3    1    3    3  502    0  0.41638364702E+03 -0.13806182009E+04  0.58517457400E+03  0.15562490965E+04  0.10100000352E+00 0. -1.
       -3    1    3    3    0  502 -0.41638364702E+03  0.13806182009E+04  0.14468215852E+03  0.14492808200E+04  0.10100000352E+00 0.  1.
</event>
<event>
 5   0  0.1976233E-05  0.2203665E+04  0.7818609E-02  0.8516904E-01
        2   -1    0    0  501    0  0.00000000000E+00  0.00000000000E+00  0.91859719370E+03  0.91859719371E+03  0.25500000920E-02 0.  1.
       -2   -1    0    0    0  501  0.00000000000E+00  0.00000000000E+00 -0.13216181080E+04  0.13216181080E+04  0.25500000920E-02 0. -1.
    10030    2    1    2    0    0  0.00000000000E+00  0.00000000000E+00 -0.40302091433E+03  0.22402153017E+04  0.22036648431E+04 0.  0.
        2    1    3    3  502    0  0.32729350804E+03 -0.98909621630E+02 -0.12663235114E+04  0.13116704575E+04  0.25500000920E-02 0. -1.
       -2    1    3    3    0  502 -0.32729350804E+03  0.98909621630E+02  0.86330259705E+03  0.92854484422E+03  0.25500000920E-02 0.  1.
</event>
<event>
 5   0  0.1918901E-05  0.2873954E+04  0.7818609E-02  0.8280669E-01
       -2   -1    0    0    0  501  0.00000000000E+00  0.00000000000E+00  0.11579857020E+04  0.11579857020E+04  0.25500000920E-02 0. -1.
        2   -1    0    0  501    0  0.00000000000E+00  0.00000000000E+00 -0.17831849850E+04  0.17831849850E+04  0.25500000920E-02 0.  1.
    10030    2    1    2    0    0  0.00000000000E+00  0.00000000000E+00 -0.62519928297E+03  0.29411706870E+04  0.28739538734E+04 0.  0.
        1    1    3    3  502    0  0.91470801625E+03 -0.10573835667E+04 -0.65225348946E+03  0.15427849418E+04  0.50400001928E-02 0.  1.
       -1    1    3    3    0  502 -0.91470801625E+03  0.10573835667E+04  0.27054206488E+02  0.13983857452E+04  0.50400001928E-02 0. -1.
</event>
<event>
 5   0  0.8122088E-06  0.3165265E+04  0.7818609E-02  0.8198051E-01
        1   -1    0    0  501    0  0.00000000000E+00  0.00000000000E+00  0.21238538522E+04  0.21238538522E+04  0.50400001928E-02 0. -1.
       -1   -1    0    0    0  501  0.00000000000E+00  0.00000000000E+00 -0.11793304352E+04  0.11793304352E+04  0.50400001928E-02 0.  1.
    10030    2    1    2    0    0  0.00000000000E+00  0.00000000000E+00  0.94452341700E+03  0.33031842874E+04  0.31652649102E+04 0.  0.
        1    1    3    3  502    0 -0.12044407106E+04  0.41653006625E+03 -0.50700263276E+03  0.13715780660E+04  0.50400001928E-02 0.  1.
       -1    1    3    3    0  502  0.12044407106E+04 -0.41653006625E+03  0.14515260498E+04  0.19316062214E+04  0.50400001928E-02 0. -1.
</event>
<event>
 5   0  0.1829810E-05  0.2910939E+04  0.7818609E-02  0.8269630E-01
       -2   -1    0    0    0  501  0.00000000000E+00  0.00000000000E+00  0.82848350441E+03  0.82848350441E+03  0.25500000920E-02 0. -1.
        2   -1    0    0  501    0  0.00000000000E+00  0.00000000000E+00 -0.25569503878E+04  0.25569503878E+04  0.25500000920E-02 0.  1.
    10030    2    1    2    0    0  0.00000000000E+00  0.00000000000E+00 -0.17284668834E+04  0.33854338923E+04  0.29109388300E+04 0.  0.
        4    1    3    3  502    0 -0.50074823188E+03 -0.94959720429E+03 -0.20072398938E+04  0.22762902377E+04  0.12699999809E+01 0.  1.
       -4    1    3    3    0  502  0.50074823188E+03  0.94959720429E+03  0.27877301040E+03  0.11091436545E+04  0.12699999809E+01 0. -1.
</event>
<event>
 5   0  0.1829810E-05  0.2904482E+04  0.7818609E-02  0.8271545E-01
       -2   -1    0    0    0  501  0.00000000000E+00  0.00000000000E+00  0.10406241994E+04  0.10406241994E+04  0.25500000920E-02 0. -1.
        2   -1    0    0  501    0  0.00000000000E+00  0.00000000000E+00 -0.20266718071E+04  0.20266718071E+04  0.25500000920E-02 0.  1.
    10030    2    1    2    0    0  0.00000000000E+00  0.00000000000E+00 -0.98604760775E+03  0.30672960065E+04  0.29044818654E+04 0.  0.
        4    1    3    3  502    0  0.30620166730E+03 -0.89013604873E+03 -0.16608617310E+04  0.19090743696E+04  0.12699999809E+01 0.  1.
       -4    1    3    3    0  502 -0.30620166730E+03  0.89013604873E+03  0.67481412324E+03  0.11582216369E+04  0.12699999809E+01 0. -1.
</event>
<event>
 5   0  0.1937947E-05  0.2728664E+04  0.7818609E-02  0.8325764E-01
       -2   -1    0    0    0  501  0.00000000000E+00  0.00000000000E+00  0.96523551553E+03  0.96523551553E+03  0.25500000920E-02 0. -1.
        2   -1    0    0  501    0  0.00000000000E+00  0.00000000000E+00 -0.19284427606E+04  0.19284427606E+04  0.25500000920E-02 0.  1.
    10030    2    1    2    0    0  0.00000000000E+00  0.00000000000E+00 -0.96320724507E+03  0.28936782761E+04  0.27286637332E+04 0.  0.
        3    1    3    3  502    0  0.11943024231E+04 -0.33367568609E+03 -0.10849601989E+04  0.16476760557E+04  0.10100000352E+00 0. -1.
       -3    1    3    3    0  502 -0.11943024231E+04  0.33367568609E+03  0.12175295381E+03  0.12460022204E+04  0.10100000352E+00 0.  1.
</event>
<event>
 5   0  0.7305460E-06  0.2905661E+04  0.7818609E-02  0.8271195E-01
       -1   -1    0    0    0  501  0.00000000000E+00  0.00000000000E+00  0.91299983911E+03  0.91299983912E+03  0.50400001928E-02 0. -1.
        1   -1    0    0  501    0  0.00000000000E+00  0.00000000000E+00 -0.23118472227E+04  0.23118472227E+04  0.50400001928E-02 0.  1.
    10030    2    1    2    0    0  0.00000000000E+00  0.00000000000E+00 -0.13988473836E+04  0.32248470619E+04  0.29056607802E+04 0.  0.
        4    1    3    3  502    0 -0.89187632482E+03  0.78617436177E+02 -0.19692637959E+04  0.21632442282E+04  0.12699999809E+01 0.  1.
       -4    1    3    3    0  502  0.89187632482E+03 -0.78617436177E+02  0.57041641232E+03  0.10616028336E+04  0.12699999809E+01 0. -1.
</event>
<event>
 5   0  0.8055928E-06  0.1821895E+04  0.7818609E-02  0.8694742E-01
       -1   -1    0    0    0  501  0.00000000000E+00  0.00000000000E+00  0.90981944754E+03  0.90981944756E+03  0.50400001928E-02 0.  1.
        1   -1    0    0  501    0  0.00000000000E+00  0.00000000000E+00 -0.91207679356E+03  0.91207679358E+03  0.50400001928E-02 0. -1.
    10030    2    1    2    0    0  0.00000000000E+00  0.00000000000E+00 -0.22573460200E+01  0.18218962411E+04  0.18218948427E+04 0.  0.
        2    1    3    3  502    0 -0.41655641458E+03  0.78669208581E+02  0.80517034818E+03  0.90994910874E+03  0.25500000920E-02 0.  1.
       -2    1    3    3    0  502  0.41655641458E+03 -0.78669208581E+02 -0.80742769420E+03  0.91194713239E+03  0.25500000920E-02 0. -1.
</event>
<event>
 5   0  0.1937947E-05  0.2752772E+04  0.7818609E-02  0.8318082E-01
       -2   -1    0    0    0  501  0.00000000000E+00  0.00000000000E+00  0.16194091366E+04  0.16194091366E+04  0.25500000920E-02 0. -1.
        2   -1    0    0  501    0  0.00000000000E+00  0.00000000000E+00 -0.11698334766E+04  0.11698334766E+04  0.25500000920E-02 0.  1.
    10030    2    1    2    0    0  0.00000000000E+00  0.00000000000E+00  0.44957565999E+03  0.27892426132E+04  0.27527724354E+04 0.  0.
        3    1    3    3  502    0  0.15874451477E+03  0.61867241965E+02 -0.11591077466E+04  0.11715622711E+04  0.10100000352E+00 0.  1.
       -3    1    3    3    0  502 -0.15874451477E+03 -0.61867241965E+02  0.16086834066E+04  0.16176803421E+04  0.10100000352E+00 0. -1.
</event>
<event>
 5   0  0.1829810E-05  0.2836893E+04  0.7818609E-02  0.8291905E-01
        2   -1    0    0  501    0  0.00000000000E+00  0.00000000000E+00  0.30040683450E+04  0.30040683450E+04  0.25500000920E-02 0. -1.
       -2   -1    0    0    0  501  0.00000000000E+00  0.00000000000E+00 -0.66975521592E+03  0.66975521593E+03  0.25500000920E-02 0.  1.
    10030    2    1    2    0    0  0.00000000000E+00  0.00000000000E+00  0.23343131290E+04  0.36738235609E+04  0.28368929786E+04 0.  0.
        4    1    3    3  502    0  0.13018121716E+04 -0.55173166128E+03  0.13140486384E+04  0.19302456303E+04  0.12699999809E+01 0. -1.
       -4    1    3    3    0  502 -0.13018121716E+04  0.55173166128E+03  0.10202644906E+04  0.17435779306E+04  0.12699999809E+01 0.  1.
</event>
<event>
 5   0  0.1829810E-05  0.2012187E+04  0.7818609E-02  0.8600944E-01
        2   -1    0    0  501    0  0.00000000000E+00  0.00000000000E+00  0.17362975681E+04  0.17362975681E+04  0.25500000920E-02 0. -1.
       -2   -1    0    0    0  501  0.00000000000E+00  0.00000000000E+00 -0.58297825339E+03  0.58297825339E+03  0.25500000920E-02 0.  1.
    10030    2    1    2    0    0  0.00000000000E+00  0.00000000000E+00  0.11533193147E+04  0.23192758214E+04  0.20121865953E+04 0.  0.
        4    1    3    3  502    0  0.86323807782E+03 -0.50656555920E+03  0.45892659237E+03  0.11010921282E+04  0.12699999809E+01 0.  1.
       -4    1    3    3    0  502 -0.86323807782E+03  0.50656555920E+03  0.69439272230E+03  0.12181836932E+04  0.12699999809E+01 0. -1.
</event>
<event>
 5   0  0.8234888E-06  0.2938460E+04  0.7818609E-02  0.8261526E-01
        1   -1    0    0  501    0  0.00000000000E+00  0.00000000000E+00  0.25256396789E+04  0.25256396789E+04  0.50400001928E-02 0. -1.
       -1   -1    0    0    0  501  0.00000000000E+00  0.00000000000E+00 -0.85468903681E+03  0.85468903682E+03  0.50400001928E-02 0.  1.
    10030    2    1    2    0    0  0.00000000000E+00  0.00000000000E+00  0.16709506421E+04  0.33803287157E+04  0.29384598310E+04 0.  0.
        3    1    3    3  502    0  0.12549547942E+04 -0.39093346990E+03  0.15906117439E+04  0.20634403901E+04  0.10100000352E+00 0. -1.
       -3    1    3    3    0  502 -0.12549547942E+04  0.39093346990E+03  0.80338898224E+02  0.13168883257E+04  0.10100000352E+00 0.  1.
</event>
<event>
 5   0  0.8122088E-06  0.2598758E+04  0.7818609E-02  0.8368623E-01
       -1   -1    0    0    0  501  0.00000000000E+00  0.00000000000E+00  0.11483560323E+04  0.11483560323E+04  0.50400001928E-02 0. -1.
        1   -1    0    0  501    0  0.00000000000E+00  0.00000000000E+00 -0.14702629597E+04  0.14702629597E+04  0.50400001928E-02 0.  1.
    10030    2    1    2    0    0  0.00000000000E+00  0.00000000000E+00 -0.32190692741E+03  0.26186189919E+04  0.25987576561E+04 0.  0.
        1    1    3    3  502    0  0.27625825345E+03 -0.12011621799E+04 -0.57552969280E+03  0.13602733668E+04  0.50400001928E-02 0.  1.
       -1    1    3    3    0  502 -0.27625825345E+03  0.12011621799E+04  0.25362276539E+03  0.12583456251E+04  0.50400001928E-02 0. -1.
</event>
<event>
 5   0  0.8055928E-06  0.2984394E+04  0.7818609E-02  0.8248201E-01
        1   -1    0    0  501    0  0.00000000000E+00  0.00000000000E+00  0.26081727090E+04  0.26081727090E+04  0.50400001928E-02 0. -1.
       -1   -1    0    0    0  501  0.00000000000E+00  0.00000000000E+00 -0.85372091484E+03  0.85372091486E+03  0.50400001928E-02 0.  1.
    10030    2    1    2    0    0  0.00000000000E+00  0.00000000000E+00  0.17544517942E+04  0.34618936239E+04  0.29843938019E+04 0.  0.
        2    1    3    3  502    0 -0.47409213629E+03  0.29039999326E+03 -0.72909247529E+03  0.91688131582E+03  0.25500000920E-02 0.  1.
       -2    1    3    3    0  502  0.47409213629E+03 -0.29039999326E+03  0.24835442695E+04  0.25450123081E+04  0.25500000920E-02 0. -1.
</event>
<event>
 5   0  0.1918901E-05  0.2500584E+04  0.7818609E-02  0.8402777E-01
       -2   -1    0    0    0  501  0.00000000000E+00  0.00000000000E+00  0.15374733852E+04  0.15374733852E+04  0.25500000920E-02 0. -1.
        2   -1    0    0  501    0  0.00000000000E+00  0.00000000000E+00 -0.10167528921E+04  0.10167528921E+04  0.25500000920E-02 0.  1.
    10030    2    1    2    0    0  0.00000000000E+00  0.00000000000E+00  0.52072049310E+03  0.25542262773E+04  0.25005843405E+04 0.  0.
        1    1    3    3  502    0  0.30551734828E+03  0.72383635896E+03 -0.73310364467E+03  0.10745793961E+04  0.50400001928E-02 0.  1.
       -1    1    3    3    0  502 -0.30551734828E+03 -0.72383635896E+03  0.12538241378E+04  0.14796468812E+04  0.50400001928E-02 0. -1.
</event>
<event>
 5   0  0.1829810E-05  0.2415167E+04  0.7818609E-02  0.8433847E-01
        2   -1    0    0  501    0  0.00000000000E+00  0.00000000000E+00  0.12659117418E+04  0.12659117418E+04  0.25500000920E-02 0.  1.
       -2   -1    0    0    0  501  0.00000000000E+00  0.00000000000E+00 -0.11519427702E+04  0.11519427702E+04  0.25500000920E-02 0. -1.
    10030    2    1    2    0    0  0.00000000000E+00  0.00000000000E+00  0.11396897165E+03  0.24178545120E+04  0.24151669745E+04 0.  0.
        4    1    3    3  502    0  0.64367088672E+03 -0.36100508956E+03 -0.89991353260E+03  0.11638225226E+04  0.12699999809E+01 0. -1.
       -4    1    3    3    0  502 -0.64367088672E+03  0.36100508956E+03  0.10138825042E+04  0.12540319894E+04  0.12699999809E+01 0.  1.
</event>
<event>
 5   0  0.7971153E-06  0.2901268E+04  0.7818609E-02  0.8272500E-01
        1   -1    0    0  501    0  0.00000000000E+00  0.00000000000E+00  0.17733971927E+04  0.17733971927E+04  0.50400001928E-02 0. -1.
       -1   -1    0    0    0  501  0.00000000000E+00  0.00000000000E+00 -0.11866142106E+04  0.11866142106E+04  0.50400001928E-02 0.  1.
    10030    2    1    2    0    0  0.00000000000E+00  0.00000000000E+00  0.58678298208E+03  0.29600114033E+04  0.29012675229E+04 0.  0.
        5    1    3    3  502    0  0.39248811029E+03  0.74677676209E+03  0.14973674964E+04  0.17186779682E+04  0.46999998093E+01 0. -1.
       -5    1    3    3    0  502 -0.39248811029E+03 -0.74677676209E+03 -0.91058451437E+03  0.12413334350E+04  0.46999998093E+01 0.  1.
</event>
<event>
 5   0  0.1829810E-05  0.2947694E+04  0.7818609E-02  0.8258827E-01
       -2   -1    0    0    0  501  0.00000000000E+00  0.00000000000E+00  0.15680821896E+04  0.15680821896E+04  0.25500000920E-02 0.  1.
        2   -1    0    0  501    0  0.00000000000E+00  0.00000000000E+00 -0.13852753163E+04  0.13852753163E+04  0.25500000920E-02 0. -1.
    10030    2    1    2    0    0  0.00000000000E+00  0.00000000000E+00  0.18280687327E+03  0.29533575059E+04  0.29476943880E+04 0.  0.
        4    1    3    3  502    0  0.11597553690E+04 -0.87000582046E+03  0.35701895480E+03  0.14931198178E+04  0.12699999809E+01 0. -1.
       -4    1    3    3    0  502 -0.11597553690E+04  0.87000582046E+03 -0.17421208152E+03  0.14602376881E+04  0.12699999809E+01 0.  1.
</event>
<event>
 5   0  0.8234888E-06  0.2850439E+04  0.7818609E-02  0.8287778E-01
        1   -1    0    0  501    0  0.00000000000E+00  0.00000000000E+00  0.15931397900E+04  0.15931397900E+04  0.50400001928E-02 0. -1.
       -1   -1    0    0    0  501  0.00000000000E+00  0.00000000000E+00 -0.12749985155E+04  0.12749985156E+04  0.50400001928E-02 0.  1.
    10030    2    1    2    0    0  0.00000000000E+00  0.00000000000E+00  0.31814127444E+03  0.28681383056E+04  0.28504391713E+04 0.  0.
        3    1    3    3  502    0  0.11948436690E+04 -0.64031613269E+03 -0.28365539556E+03  0.13849608430E+04  0.10100000352E+00 0.  1.
       -3    1    3    3    0  502 -0.11948436690E+04  0.64031613269E+03  0.60179667000E+03  0.14831774625E+04  0.10100000352E+00 0. -1.
</event>
<event>
 5   0  0.6578125E-06  0.1566849E+04  0.7818609E-02  0.8841177E-01
        3   -1    0    0  501    0  0.00000000000E+00  0.00000000000E+00  0.99459956922E+03  0.99459957435E+03  0.10100000352E+00 0. -1.
       -3   -1    0    0    0  501  0.00000000000E+00  0.00000000000E+00 -0.61708652019E+03  0.61708652846E+03  0.10100000352E+00 0.  1.
    10030    2    1    2    0    0  0.00000000000E+00  0.00000000000E+00  0.37751304903E+03  0.16116861028E+04  0.15668490648E+04 0.  0.
        4    1    3    3  502    0  0.60198649105E+03  0.34758611896E+03 -0.18289789986E+03  0.71878863387E+03  0.12699999809E+01 0.  1.
       -4    1    3    3    0  502 -0.60198649105E+03 -0.34758611896E+03  0.56041094889E+03  0.89289746894E+03  0.12699999809E+01 0. -1.
</event>
<event>
 5   0  0.7971153E-06  0.1731323E+04  0.7818609E-02  0.8743699E-01
        1   -1    0    0  501    0  0.00000000000E+00  0.00000000000E+00  0.64329596736E+03  0.64329596738E+03  0.50400001928E-02 0.  1.
       -1   -1    0    0    0  501  0.00000000000E+00  0.00000000000E+00 -0.11648908183E+04  0.11648908183E+04  0.50400001928E-02 0. -1.
    10030    2    1    2    0    0  0.00000000000E+00  0.00000000000E+00 -0.52159485094E+03  0.18081867857E+04  0.17313226919E+04 0.  0.
        5    1    3    3  502    0 -0.41244953312E+03  0.35330490233E+03 -0.96482309660E+03  0.11071786979E+04  0.46999998093E+01 0. -1.
       -5    1    3    3    0  502  0.41244953312E+03 -0.35330490233E+03  0.44322824566E+03  0.70100808777E+03  0.46999998093E+01 0.  1.
</event>
<event>
 5   0  0.1960961E-05  0.2585532E+04  0.7818609E-02  0.8373132E-01
       -2   -1    0    0    0  501  0.00000000000E+00  0.00000000000E+00  0.84854600663E+03  0.84854600664E+03  0.25500000920E-02 0.  1.
        2   -1    0    0  501    0  0.00000000000E+00  0.00000000000E+00 -0.19695388463E+04  0.19695388463E+04  0.25500000920E-02 0. -1.
    10030    2    1    2    0    0  0.00000000000E+00  0.00000000000E+00 -0.11209928397E+04  0.28180848529E+04  0.25855323034E+04 0.  0.
        5    1    3    3  502    0  0.42265378789E+03 -0.12103767842E+04 -0.74148633083E+03  0.14810375596E+04  0.46999998093E+01 0. -1.
       -5    1    3    3    0  502 -0.42265378789E+03  0.12103767842E+04 -0.37950650883E+03  0.13370472933E+04  0.46999998093E+01 0.  1.
</event>
<event>
 5   0  0.1960961E-05  0.2165139E+04  0.7818609E-02  0.8533080E-01
       -2   -1    0    0    0  501  0.00000000000E+00  0.00000000000E+00  0.73451493186E+03  0.73451493186E+03  0.25500000920E-02 0. -1.
        2   -1    0    0  501    0  0.00000000000E+00  0.00000000000E+00 -0.15955522224E+04  0.15955522224E+04  0.25500000920E-02 0.  1.
    10030    2    1    2    0    0  0.00000000000E+00  0.00000000000E+00 -0.86103729058E+03  0.23300671543E+04  0.21651391936E+04 0.  0.
        5    1    3    3  502    0 -0.55633087309E+03 -0.15945013777E+03 -0.14150896002E+04  0.15288652830E+04  0.46999998093E+01 0.  1.
       -5    1    3    3    0  502  0.55633087309E+03  0.15945013777E+03  0.55405230966E+03  0.80120187133E+03  0.46999998093E+01 0. -1.
</event>
<event>
 5   0  0.1829810E-05  0.2363413E+04  0.7818609E-02  0.8453330E-01
       -2   -1    0    0    0  501  0.00000000000E+00  0.00000000000E+00  0.76832411205E+03  0.76832411205E+03  0.25500000920E-02 0.  1.
        2   -1    0    0  501    0  0.00000000000E+00  0.00000000000E+00 -0.18175014452E+04  0.18175014452E+04  0.25500000920E-02 0. -1.
    10030    2    1    2    0    0  0.00000000000E+00  0.00000000000E+00 -0.10491773332E+04  0.25858255573E+04  0.23634129424E+04 0.  0.
        4    1    3    3  502    0  0.47635421062E+03 -0.10201886722E+04 -0.13203411071E+03  0.11336370143E+04  0.12699999809E+01 0.  1.
       -4    1    3    3    0  502 -0.47635421062E+03  0.10201886722E+04 -0.91714322247E+03  0.14521885430E+04  0.12699999809E+01 0. -1.
</event>
<event>
 5   0  0.8122088E-06  0.2921106E+04  0.7818609E-02  0.8266626E-01
       -1   -1    0    0    0  501  0.00000000000E+00  0.00000000000E+00  0.21129209525E+04  0.21129209526E+04  0.50400001928E-02 0.  1.
        1   -1    0    0  501    0  0.00000000000E+00  0.00000000000E+00 -0.10096044843E+04  0.10096044843E+04  0.50400001928E-02 0. -1.
    10030    2    1    2    0    0  0.00000000000E+00  0.00000000000E+00  0.11033164682E+04  0.31225254369E+04  0.29211055912E+04 0.  0.
        1    1    3    3  502    0  0.87083264225E+03  0.44131747975E+03  0.17128898310E+04  0.19715735294E+04  0.50400001928E-02 0.  1.
       -1    1    3    3    0  502 -0.87083264225E+03 -0.44131747975E+03 -0.60957336273E+03  0.11509519075E+04  0.50400001928E-02 0. -1.
</event>
<event>
 5   0  0.1960961E-05  0.2867966E+04  0.7818609E-02  0.8282473E-01
       -2   -1    0    0    0  501  0.00000000000E+00  0.00000000000E+00  0.90148761643E+03  0.90148761643E+03  0.25500000920E-02 0.  1.
        2   -1    0    0  501    0  0.00000000000E+00  0.00000000000E+00 -0.22810151873E+04  0.22810151873E+04  0.25500000920E-02 0. -1.
    10030    2    1    2    0    0  0.00000000000E+00  0.00000000000E+00 -0.13795275709E+04  0.31825028037E+04  0.28679657908E+04 0.  0.
        5    1    3    3  502    0  0.12481631672E+04  0.52761765187E+02 -0.14709525521E+04  0.19298752800E+04  0.46999998093E+01 0. -1.
       -5    1    3    3    0  502 -0.12481631672E+04 -0.52761765187E+02  0.91424981258E+02  0.12526275237E+04  0.46999998093E+01 0.  1.
</event>
<event>
 5   0  0.7971153E-06  0.1987523E+04  0.7818609E-02  0.8612477E-01
       -1   -1    0    0    0  501  0.00000000000E+00  0.00000000000E+00  0.75987780586E+03  0.75987780588E+03  0.50400001928E-02 0. -1.
        1   -1    0    0  501    0  0.00000000000E+00  0.00000000000E+00 -0.12996320782E+04  0.12996320782E+04  0.50400001928E-02 0.  1.
    10030    2    1    2    0    0  0.00000000000E+00  0.00000000000E+00 -0.53975427234E+03  0.20595098841E+04  0.19875226510E+04 0.  0.
        5    1    3    3  502    0  0.83102912584E+03  0.47017524866E+03  0.15535640717E+02  0.95495424947E+03  0.46999998093E+01 0.  1.
       -5    1    3    3    0  502 -0.83102912584E+03 -0.47017524866E+03 -0.55528991306E+03  0.11045556346E+04  0.46999998093E+01 0. -1.
</event>
<event>
 5   0  0.1937947E-05  0.2901689E+04  0.7818609E-02  0.8272375E-01
        2   -1    0    0  501    0  0.00000000000E+00  0.00000000000E+00  0.23202056978E+04  0.23202056978E+04  0.25500000920E-02 0. -1.
       -2   -1    0    0    0  501  0.00000000000E+00  0.00000000000E+00 -0.90722531320E+03  0.90722531320E+03  0.25500000920E-02 0.  1.
    10030    2    1    2    0    0  0.00000000000E+00  0.00000000000E+00  0.14129803846E+04  0.32274310110E+04  0.29016887089E+04 0.  0.
        3    1    3    3  502    0  0.10119309375E+04 -0.46891880356E+03 -0.32561252598E+03  0.11618573896E+04  0.10100000352E+00 0.  1.
       -3    1    3    3    0  502 -0.10119309375E+04  0.46891880356E+03  0.17385929106E+04  0.20655736214E+04  0.10100000352E+00 0. -1.
</event>
<event>
 5   0  0.1960961E-05  0.2948934E+04  0.7818609E-02  0.8258465E-01
       -2   -1    0    0    0  501  0.00000000000E+00  0.00000000000E+00  0.30341277347E+04  0.30341277347E+04  0.25500000920E-02 0.  1.
        2   -1    0    0  501    0  0.00000000000E+00  0.00000000000E+00 -0.71653298718E+03  0.71653298718E+03  0.25500000920E-02 0. -1.
    10030    2    1    2    0    0  0.00000000000E+00  0.00000000000E+00  0.23175947476E+04  0.37506607219E+04  0.29489337797E+04 0.  0.
        5    1    3    3  502    0  0.89386340660E+03  0.11653675148E+04  0.99317426934E+03  0.17729891295E+04  0.46999998093E+01 0. -1.
       -5    1    3    3    0  502 -0.89386340660E+03 -0.11653675148E+04  0.13244204782E+04  0.19776715924E+04  0.46999998093E+01 0.  1.
</event>
<event>
 5   0  0.7305460E-06  0.2766755E+04  0.7818609E-02  0.8313664E-01
        1   -1    0    0  501    0  0.00000000000E+00  0.00000000000E+00  0.13143661714E+04  0.13143661714E+04  0.50400001928E-02 0. -1.
       -1   -1    0    0    0  501  0.00000000000E+00  0.00000000000E+00 -0.14560127525E+04  0.14560127525E+04  0.50400001928E-02 0.  1.
    10030    2    1    2    0    0  0.00000000000E+00  0.00000000000E+00 -0.14164658114E+03  0.27703789239E+04  0.27667554334E+04 0.  0.
        4    1    3    3  502    0  0.10468193340E+04 -0.65350111378E+02  0.83237296916E+03  0.13390099805E+04  0.12699999809E+01 0. -1.
       -4    1    3    3    0  502 -0.10468193340E+04  0.65350111378E+02 -0.97401955030E+03  0.14313689435E+04  0.12699999809E+01 0.  1.
</event>
<event>
 5   0  0.1937947E-05  0.1615420E+04  0.7818609E-02  0.8811130E-01
        2   -1    0    0  501    0  0.00000000000E+00  0.00000000000E+00  0.20324068021E+04  0.20324068021E+04  0.25500000920E-02 0. -1.
       -2   -1    0    0    0  501  0.00000000000E+00  0.00000000000E+00 -0.32099654156E+03  0.32099654157E+03  0.25500000920E-02 0.  1.
    10030    2    1    2    0    0  0.00000000000E+00  0.00000000000E+00  0.17114102605E+04  0.23534033436E+04  0.16154201367E+04 0.  0.
        3    1    3    3  502    0 -0.58145527733E+03 -0.38856237764E+03  0.14444629029E+04  0.16048501640E+04  0.10100000352E+00 0. -1.
       -3    1    3    3    0  502  0.58145527733E+03  0.38856237764E+03  0.26694735766E+03  0.74855317968E+03  0.10100000352E+00 0.  1.
</event>
<event>
 5   0  0.1976233E-05  0.2871801E+04  0.7818609E-02  0.8281317E-01
       -2   -1    0    0    0  501  0.00000000000E+00  0.00000000000E+00  0.11104296724E+04  0.11104296724E+04  0.25500000920E-02 0.  1.
        2   -1    0    0  501    0  0.00000000000E+00  0.00000000000E+00 -0.18567685662E+04  0.18567685662E+04  0.25500000920E-02 0. -1.
    10030    2    1    2    0    0  0.00000000000E+00  0.00000000000E+00 -0.74633889377E+03  0.29671982385E+04  0.28718014629E+04 0.  0.
        2    1    3    3  502    0  0.33752610023E+03 -0.13730691481E+04 -0.63161486132E+03  0.15486058526E+04  0.25500000920E-02 0. -1.
       -2    1    3    3    0  502 -0.33752610023E+03  0.13730691481E+04 -0.11472403245E+03  0.14185923859E+04  0.25500000920E-02 0.  1.
</event>
<event>
 5   0  0.1829810E-05  0.1566182E+04  0.7818609E-02  0.8841597E-01
       -2   -1    0    0    0  501  0.00000000000E+00  0.00000000000E+00  0.93483887198E+03  0.93483887199E+03  0.25500000920E-02 0.  1.
        2   -1    0    0  501    0  0.00000000000E+00  0.00000000000E+00 -0.65597546801E+03  0.65597546802E+03  0.25500000920E-02 0. -1.
    10030    2    1    2    0    0  0.00000000000E+00  0.00000000000E+00  0.27886340397E+03  0.15908143400E+04  0.15661818114E+04 0.  0.
        4    1    3    3  502    0 -0.54150250489E+03  0.19829213056E+03  0.67756137500E+03  0.88973915371E+03  0.12699999809E+01 0.  1.
       -4    1    3    3    0  502  0.54150250489E+03 -0.19829213056E+03 -0.39869797103E+03  0.70107518630E+03  0.12699999809E+01 0. -1.
</event>
<event>
 5   0  0.1937947E-05  0.2900635E+04  0.7818609E-02  0.8272688E-01
        2   -1    0    0  501    0  0.00000000000E+00  0.00000000000E+00  0.13525930993E+04  0.13525930993E+04  0.25500000920E-02 0. -1.
       -2   -1    0    0    0  501  0.00000000000E+00  0.00000000000E+00 -0.15551028746E+04  0.15551028746E+04  0.25500000920E-02 0.  1.
    10030    2    1    2    0    0  0.00000000000E+00  0.00000000000E+00 -0.20250977531E+03  0.29076959740E+04  0.29006353904E+04 0.  0.
        3    1    3    3  502    0  0.10274978434E+04 -0.10220379573E+04 -0.45369725702E+02  0.14499558017E+04  0.10100000352E+00 0. -1.
       -3    1    3    3    0  502 -0.10274978434E+04  0.10220379573E+04 -0.15714004961E+03  0.14577401723E+04  0.10100000352E+00 0.  1.
</event>
<event>
 5   0  0.1918901E-05  0.2754329E+04  0.7818609E-02  0.8317589E-01
       -2   -1    0    0    0  501  0.00000000000E+00  0.00000000000E+00  0.99308401816E+03  0.99308401817E+03  0.25500000920E-02 0. -1.
        2   -1    0    0  501    0  0.00000000000E+00  0.00000000000E+00 -0.19097902127E+04  0.19097902127E+04  0.25500000920E-02 0.  1.
    10030    2    1    2    0    0  0.00000000000E+00  0.00000000000E+00 -0.91670619455E+03  0.29028742309E+04  0.27543290568E+04 0.  0.
        1    1    3    3  502    0 -0.11009144417E+03 -0.10005933362E+04  0.53216031964E+03  0.11386403103E+04  0.50400001928E-02 0. -1.
       -1    1    3    3    0  502  0.11009144417E+03  0.10005933362E+04 -0.14488665142E+04  0.17642339206E+04  0.50400001928E-02 0.  1.
</event>
<event>
 5   0  0.1918901E-05  0.2654099E+04  0.7818609E-02  0.8350054E-01
       -2   -1    0    0    0  501  0.00000000000E+00  0.00000000000E+00  0.10389843822E+04  0.10389843822E+04  0.25500000920E-02 0. -1.
        2   -1    0    0  501    0  0.00000000000E+00  0.00000000000E+00 -0.16949829941E+04  0.16949829941E+04  0.25500000920E-02 0.  1.
    10030    2    1    2    0    0  0.00000000000E+00  0.00000000000E+00 -0.65599861189E+03  0.27339673763E+04  0.26540993643E+04 0.  0.
        1    1    3    3  502    0  0.42368211187E+03 -0.12218856699E+04 -0.63452704855E+03  0.14405331297E+04  0.50400001928E-02 0.  1.
       -1    1    3    3    0  502 -0.42368211187E+03  0.12218856699E+04 -0.21471563335E+02  0.12934342466E+04  0.50400001928E-02 0. -1.
</event>
<event>
 5   0  0.8122088E-06  0.1716293E+04  0.7818609E-02  0.8752126E-01
       -1   -1    0    0    0  501  0.00000000000E+00  0.00000000000E+00  0.12398060396E+04  0.12398060396E+04  0.50400001928E-02 0. -1.
        1   -1    0    0  501    0  0.00000000000E+00  0.00000000000E+00 -0.59397625452E+03  0.59397625454E+03  0.50400001928E-02 0.  1.
    10030    2    1    2    0    0  0.00000000000E+00  0.00000000000E+00  0.64582978509E+03  0.18337822942E+04  0.17162929211E+04 0.  0.
        1    1    3    3  502    0 -0.76974568617E+03 -0.12299908349E+03 -0.60507486806E+02  0.78185571041E+03  0.50400001928E-02 0.  1.
       -1    1    3    3    0  502  0.76974568617E+03  0.12299908349E+03  0.70633727190E+03  0.10519265838E+04  0.50400001928E-02 0. -1.
</event>
<event>
 5   0  0.8055928E-06  0.2899042E+04  0.7818609E-02  0.8273162E-01
        1   -1    0    0  501    0  0.00000000000E+00  0.00000000000E+00  0.12631479839E+04  0.12631479839E+04  0.50400001928E-02 0. -1.
       -1   -1    0    0    0  501  0.00000000000E+00  0.00000000000E+00 -0.16633931647E+04  0.16633931647E+04  0.50400001928E-02 0.  1.
    10030    2    1    2    0    0  0.00000000000E+00  0.00000000000E+00 -0.40024518077E+03  0.29265411486E+04  0.28990424091E+04 0.  0.
        2    1    3    3  502    0  0.75066037630E+03 -0.36887824849E+03 -0.13952227268E+04  0.16267171298E+04  0.25500000920E-02 0.  1.
       -2    1    3    3    0  502 -0.75066037630E+03  0.36887824849E+03  0.99497754608E+03  0.12998240188E+04  0.25500000920E-02 0. -1.
</event>
<event>
 5   0  0.1918901E-05  0.2908210E+04  0.7818609E-02  0.8270439E-01
        2   -1    0    0  501    0  0.00000000000E+00  0.00000000000E+00  0.16561995352E+04  0.16561995352E+04  0.25500000920E-02 0. -1.
       -2   -1    0    0    0  501  0.00000000000E+00  0.00000000000E+00 -0.12766708676E+04  0.12766708676E+04  0.25500000920E-02 0.  1.
    10030    2    1    2    0    0  0.00000000000E+00  0.00000000000E+00  0.37952866759E+03  0.29328704027E+04  0.29082102382E+04 0.  0.
        1    1    3    3  502    0 -0.80839756694E+03 -0.15961898726E+03 -0.10184921084E+04  0.13100805404E+04  0.50400001928E-02 0.  1.
       -1    1    3    3    0  502  0.80839756694E+03  0.15961898726E+03  0.13980207760E+04  0.16227898624E+04  0.50400001928E-02 0. -1.
</event>
<event>
 5   0  0.7971153E-06  0.2308947E+04  0.7818609E-02  0.8474402E-01
        1   -1    0    0  501    0  0.00000000000E+00  0.00000000000E+00  0.69768598882E+03  0.69768598884E+03  0.50400001928E-02 0. -1.
       -1   -1    0    0    0  501  0.00000000000E+00  0.00000000000E+00 -0.19103287168E+04  0.19103287168E+04  0.50400001928E-02 0.  1.
    10030    2    1    2    0    0  0.00000000000E+00  0.00000000000E+00 -0.12126427280E+04  0.26080147057E+04  0.23089474483E+04 0.  0.
        5    1    3    3  502    0 -0.63070304543E+03  0.38841708966E+03  0.39388806074E+03  0.83894222772E+03  0.46999998093E+01 0. -1.
       -5    1    3    3    0  502  0.63070304543E+03 -0.38841708966E+03 -0.16065307888E+04  0.17690724780E+04  0.46999998093E+01 0.  1.
</event>
<event>
 5   0  0.1960961E-05  0.1716259E+04  0.7818609E-02  0.8752145E-01
       -2   -1    0    0    0  501  0.00000000000E+00  0.00000000000E+00  0.61868152495E+03  0.61868152495E+03  0.25500000920E-02 0. -1.
        2   -1    0    0  501    0  0.00000000000E+00  0.00000000000E+00 -0.11902503636E+04  0.11902503636E+04  0.25500000920E-02 0.  1.
    10030    2    1    2    0    0  0.00000000000E+00  0.00000000000E+00 -0.57156883866E+03  0.18089318886E+04  0.17162586169E+04 0.  0.
        5    1    3    3  502    0 -0.99512760947E+02 -0.84558751127E+03 -0.17303729568E+03  0.86884119637E+03  0.46999998093E+01 0.  1.
       -5    1    3    3    0  502  0.99512760947E+02  0.84558751127E+03 -0.39853154298E+03  0.94009069220E+03  0.46999998093E+01 0. -1.
</event>
<event>
 5   0  0.8234888E-06  0.2850150E+04  0.7818609E-02  0.8287866E-01
        1   -1    0    0  501    0  0.00000000000E+00  0.00000000000E+00  0.14611212254E+04  0.14611212254E+04  0.50400001928E-02 0.  1.
       -1   -1    0    0    0  501  0.00000000000E+00  0.00000000000E+00 -0.13899181293E+04  0.13899181293E+04  0.50400001928E-02 0. -1.
    10030    2    1    2    0    0  0.00000000000E+00  0.00000000000E+00  0.71203096098E+02  0.28510393547E+04  0.28501500875E+04 0.  0.
        3    1    3    3  502    0  0.22979595518E+03  0.13052706176E+04  0.55950277789E+03  0.14386038144E+04  0.10100000352E+00 0.  1.
       -3    1    3    3    0  502 -0.22979595518E+03 -0.13052706176E+04 -0.48829968179E+03  0.14124355403E+04  0.10100000352E+00 0. -1.
</event>
<event>
 5   0  0.1976233E-05  0.2735458E+04  0.7818609E-02  0.8323591E-01
        2   -1    0    0  501    0  0.00000000000E+00  0.00000000000E+00  0.82560996072E+03  0.82560996073E+03  0.25500000920E-02 0.  1.
       -2   -1    0    0    0  501  0.00000000000E+00  0.00000000000E+00 -0.22658180912E+04  0.22658180912E+04  0.25500000920E-02 0. -1.
    10030    2    1    2    0    0  0.00000000000E+00  0.00000000000E+00 -0.14402081305E+04  0.30914280520E+04  0.27354575378E+04 0.  0.
        2    1    3    3  502    0  0.10881376869E+04 -0.82769714075E+03 -0.67552751634E+03  0.15249470836E+04  0.25500000920E-02 0.  1.
       -2    1    3    3    0  502 -0.10881376869E+04  0.82769714075E+03 -0.76468061418E+03  0.15664809683E+04  0.25500000920E-02 0. -1.
</event>
<event>
 5   0  0.7305460E-06  0.2899397E+04  0.7818609E-02  0.8273057E-01
        1   -1    0    0  501    0  0.00000000000E+00  0.00000000000E+00  0.16216160993E+04  0.16216160993E+04  0.50400001928E-02 0. -1.
       -1   -1    0    0    0  501  0.00000000000E+00  0.00000000000E+00 -0.12960069239E+04  0.12960069240E+04  0.50400001928E-02 0.  1.
    10030    2    1    2    0    0  0.00000000000E+00  0.00000000000E+00  0.32560917537E+03  0.29176230233E+04  0.28993969668E+04 0.  0.
        4    1    3    3  502    0 -0.10775027409E+04  0.82361337993E+03 -0.35254060111E+03  0.14012985565E+04  0.12699999809E+01 0.  1.
       -4    1    3    3    0  502  0.10775027409E+04 -0.82361337993E+03  0.67814977648E+03  0.15163244667E+04  0.12699999809E+01 0. -1.
</event>
<event>
 5   0  0.7971153E-06  0.2624684E+04  0.7818609E-02  0.8359865E-01
        1   -1    0    0  501    0  0.00000000000E+00  0.00000000000E+00  0.16366690408E+04  0.16366690408E+04  0.50400001928E-02 0.  1.
       -1   -1    0    0    0  501  0.00000000000E+00  0.00000000000E+00 -0.10522848452E+04  0.10522848452E+04  0.50400001928E-02 0. -1.
    10030    2    1    2    0    0  0.00000000000E+00  0.00000000000E+00  0.58438419559E+03  0.26889538861E+04  0.26246843836E+04 0.  0.
        5    1    3    3  502    0  0.71069459086E+03 -0.11689906747E+03  0.14160812892E+04  0.15887292095E+04  0.46999998093E+01 0.  1.
       -5    1    3    3    0  502 -0.71069459086E+03  0.11689906747E+03 -0.83169709361E+03  0.11002246766E+04  0.46999998093E+01 0. -1.
</event>
<event>
 5   0  0.8122088E-06  0.2941782E+04  0.7818609E-02  0.8260554E-01
        1   -1    0    0  501    0  0.00000000000E+00  0.00000000000E+00  0.11301986125E+04  0.11301986125E+04  0.50400001928E-02 0.  1.
       -1   -1    0    0    0  501  0.00000000000E+00  0.00000000000E+00 -0.19142829458E+04  0.19142829458E+04  0.50400001928E-02 0. -1.
    10030    2    1    2    0    0  0.00000000000E+00  0.00000000000E+00 -0.78408433327E+03  0.30444815583E+04  0.29417817249E+04 0.  0.
        1    1    3    3  502    0 -0.13628765272E+04  0.35715432066E+03  0.45234624197E+02  0.14096232860E+04  0.50400001928E-02 0.  1.
       -1    1    3    3    0  502  0.13628765272E+04 -0.35715432066E+03 -0.82931895746E+03  0.16348582723E+04  0.50400001928E-02 0. -1.
</event>
<event>
 5   0  0.8055928E-06  0.2881949E+04  0.7818609E-02  0.8278268E-01
       -1   -1    0    0    0  501  0.00000000000E+00  0.00000000000E+00  0.97721272309E+03  0.97721272311E+03  0.50400001928E-02 0. -1.
        1   -1    0    0  501    0  0.00000000000E+00  0.00000000000E+00 -0.21248267274E+04  0.21248267274E+04  0.50400001928E-02 0.  1.
    10030    2    1    2    0    0  0.00000000000E+00  0.00000000000E+00 -0.11476140043E+04  0.31020394505E+04  0.28819491407E+04 0.  0.
        2    1    3    3  502    0  0.44094490545E+03 -0.12345844013E+04 -0.12176307715E+04  0.17892053402E+04  0.25500000920E-02 0.  1.
       -2    1    3    3    0  502 -0.44094490545E+03  0.12345844013E+04  0.70016767251E+02  0.13128341103E+04  0.25500000920E-02 0. -1.
</event>
<event>
 5   0  0.1937947E-05  0.2538201E+04  0.7818609E-02  0.8389501E-01
       -2   -1    0    0    0  501  0.00000000000E+00  0.00000000000E+00  0.94293139110E+03  0.94293139110E+03  0.25500000920E-02 0.  1.
        2   -1    0    0  501    0  0.00000000000E+00  0.00000000000E+00 -0.17080952057E+04  0.17080952057E+04  0.25500000920E-02 0. -1.
    10030    2    1    2    0    0  0.00000000000E+00  0.00000000000E+00 -0.76516381465E+03  0.26510265968E+04  0.25382014014E+04 0.  0.
        3    1    3    3  502    0  0.62150034515E+03  0.21058395477E+03  0.75198610718E+03  0.99804378492E+03  0.10100000352E+00 0.  1.
       -3    1    3    3    0  502 -0.62150034515E+03 -0.21058395477E+03 -0.15171499218E+04  0.16529828119E+04  0.10100000352E+00 0. -1.
</event>
<event>
 5   0  0.1918901E-05  0.1959516E+04  0.7818609E-02  0.8625786E-01
        2   -1    0    0  501    0  0.00000000000E+00  0.00000000000E+00  0.21713766515E+04  0.21713766515E+04  0.25500000920E-02 0. -1.
       -2   -1    0    0    0  501  0.00000000000E+00  0.00000000000E+00 -0.44208176974E+03  0.44208176974E+03  0.25500000920E-02 0.  1.
    10030    2    1    2    0    0  0.00000000000E+00  0.00000000000E+00  0.17292948818E+04  0.26134584212E+04  0.19595163004E+04 0.  0.
        1    1    3    3  502    0 -0.29055341733E+03 -0.93458350305E+03  0.80413652202E+03  0.12666898431E+04  0.50400001928E-02 0.  1.
       -1    1    3    3    0  502  0.29055341733E+03  0.93458350305E+03  0.92515835975E+03  0.13467685782E+04  0.50400001928E-02 0. -1.
</event>
<event>
 5   0  0.8055928E-06  0.2879815E+04  0.7818609E-02  0.8278909E-01
        1   -1    0    0  501    0  0.00000000000E+00  0.00000000000E+00  0.24281700936E+04  0.24281700936E+04  0.50400001928E-02 0.  1.
       -1   -1    0    0    0  501  0.00000000000E+00  0.00000000000E+00 -0.85386666637E+03  0.85386666638E+03  0.50400001928E-02 0. -1.
    10030    2    1    2    0    0  0.00000000000E+00  0.00000000000E+00  0.15743034272E+04  0.32820367600E+04  0.28798149268E+04 0.  0.
        2    1    3    3  502    0  0.10093152554E+04 -0.96507199537E+03  0.11872588634E+04  0.18329388559E+04  0.25500000920E-02 0.  1.
       -2    1    3    3    0  502 -0.10093152554E+04  0.96507199537E+03  0.38704456385E+03  0.14490979040E+04  0.25500000920E-02 0. -1.
</event>
<event>
 5   0  0.7305460E-06  0.2857452E+04  0.7818609E-02  0.8285650E-01
        1   -1    0    0  501    0  0.00000000000E+00  0.00000000000E+00  0.12376373457E+04  0.12376373457E+04  0.50400001928E-02 0. -1.
       -1   -1    0    0    0  501  0.00000000000E+00  0.00000000000E+00 -0.16493186122E+04  0.16493186122E+04  0.50400001928E-02 0.  1.
    10030    2    1    2    0    0  0.00000000000E+00  0.00000000000E+00 -0.41168126649E+03  0.28869559579E+04  0.28574522284E+04 0.  0.
        4    1    3    3  502    0  0.12692801965E+03 -0.14189532321E+04 -0.96474625381E+02  0.14278823352E+04  0.12699999809E+01 0.  1.
       -4    1    3    3    0  502 -0.12692801965E+03  0.14189532321E+04 -0.31520664111E+03  0.14590736227E+04  0.12699999809E+01 0. -1.
</event>
<event>
 5   0  0.8234888E-06  0.2964855E+04  0.7818609E-02  0.8253839E-01
       -1   -1    0    0    0  501  0.00000000000E+00  0.00000000000E+00  0.11802292729E+04  0.11802292729E+04  0.50400001928E-02 0. -1.
        1   -1    0    0  501    0  0.00000000000E+00  0.00000000000E+00 -0.18620034273E+04  0.18620034273E+04  0.50400001928E-02 0.  1.
    10030    2    1    2    0    0  0.00000000000E+00  0.00000000000E+00 -0.68177415438E+03  0.30422327002E+04  0.29648547696E+04 0.  0.
        3    1    3    3  502    0  0.71305326847E+02 -0.14682884039E+04 -0.53728685057E+03  0.15651301724E+04  0.10100000352E+00 0.  1.
       -3    1    3    3    0  502 -0.71305326847E+02  0.14682884039E+04 -0.14448730381E+03  0.14771025278E+04  0.10100000352E+00 0. -1.
</event>
<event>
 5   0  0.7305460E-06  0.2804134E+04  0.7818609E-02  0.8301986E-01
       -1   -1    0    0    0  501  0.00000000000E+00  0.00000000000E+00  0.10624545614E+04  0.10624545614E+04  0.50400001928E-02 0. -1.
        1   -1    0    0  501    0  0.00000000000E+00  0.00000000000E+00 -0.18502356273E+04  0.18502356273E+04  0.50400001928E-02 0.  1.
    10030    2    1    2    0    0  0.00000000000E+00  0.00000000000E+00 -0.78778106593E+03  0.29126901887E+04  0.28041335787E+04 0.  0.
        4    1    3    3  502    0  0.46280995264E+03  0.11829310938E+04  0.22261051843E+03  0.12896030710E+04  0.12699999809E+01 0. -1.
       -4    1    3    3    0  502 -0.46280995264E+03 -0.11829310938E+04 -0.10103915844E+04  0.16230871177E+04  0.12699999809E+01 0.  1.
</event>
<event>
 5   0  0.1976233E-05  0.2914426E+04  0.7818609E-02  0.8268598E-01
       -2   -1    0    0    0  501  0.00000000000E+00  0.00000000000E+00  0.10562816499E+04  0.10562816499E+04  0.25500000920E-02 0. -1.
        2   -1    0    0  501    0  0.00000000000E+00  0.00000000000E+00 -0.20103249695E+04  0.20103249695E+04  0.25500000920E-02 0.  1.
    10030    2    1    2    0    0  0.00000000000E+00  0.00000000000E+00 -0.95404331958E+03  0.30666066193E+04  0.29144257586E+04 0.  0.
        2    1    3    3  502    0 -0.84681004941E+03 -0.45642916099E+03 -0.16287322655E+04  0.18916087417E+04  0.25500000920E-02 0.  1.
       -2    1    3    3    0  502  0.84681004941E+03  0.45642916099E+03  0.67468894593E+03  0.11749978777E+04  0.25500000920E-02 0. -1.
</event>
<event>
 5   0  0.1918901E-05  0.2901792E+04  0.7818609E-02  0.8272344E-01
        2   -1    0    0  501    0  0.00000000000E+00  0.00000000000E+00  0.24841746285E+04  0.24841746285E+04  0.25500000920E-02 0.  1.
       -2   -1    0    0    0  501  0.00000000000E+00  0.00000000000E+00 -0.84740414668E+03  0.84740414669E+03  0.25500000920E-02 0. -1.
    10030    2    1    2    0    0  0.00000000000E+00  0.00000000000E+00  0.16367704818E+04  0.33315787752E+04  0.29017924676E+04 0.  0.
        1    1    3    3  502    0 -0.57249734843E+03  0.13327904697E+04  0.85498514735E+03  0.16837705462E+04  0.50400001928E-02 0.  1.
       -1    1    3    3    0  502  0.57249734843E+03 -0.13327904697E+04  0.78178533449E+03  0.16478082290E+04  0.50400001928E-02 0. -1.
</event>
<event>
 5   0  0.8122088E-06  0.2913764E+04  0.7818609E-02  0.8268794E-01
       -1   -1    0    0    0  501  0.00000000000E+00  0.00000000000E+00  0.21399541016E+04  0.21399541016E+04  0.50400001928E-02 0. -1.
        1   -1    0    0  501    0  0.00000000000E+00  0.00000000000E+00 -0.99184602170E+03  0.99184602171E+03  0.50400001928E-02 0.  1.
    10030    2    1    2    0    0  0.00000000000E+00  0.00000000000E+00  0.11481080799E+04  0.31318001233E+04  0.29137638630E+04 0.  0.
        1    1    3    3  502    0  0.29658872516E+03 -0.64701101362E+03 -0.79225577255E+03  0.10650151796E+04  0.50400001928E-02 0.  1.
       -1    1    3    3    0  502 -0.29658872516E+03  0.64701101362E+03  0.19403638525E+04  0.20667849437E+04  0.50400001928E-02 0. -1.
</event>
<event>
 5   0  0.1976233E-05  0.2804577E+04  0.7818609E-02  0.8301849E-01
       -2   -1    0    0    0  501  0.00000000000E+00  0.00000000000E+00  0.11775405037E+04  0.11775405037E+04  0.25500000920E-02 0. -1.
        2   -1    0    0  501    0  0.00000000000E+00  0.00000000000E+00 -0.16699325165E+04  0.16699325165E+04  0.25500000920E-02 0.  1.
    10030    2    1    2    0    0  0.00000000000E+00  0.00000000000E+00 -0.49239201282E+03  0.28474730202E+04  0.28045770994E+04 0.  0.
        2    1    3    3  502    0  0.60502172498E+02 -0.30583336264E+03 -0.16343008939E+04  0.16637710090E+04  0.25500000920E-02 0.  1.
       -2    1    3    3    0  502 -0.60502172498E+02  0.30583336264E+03  0.11419088811E+04  0.11837020112E+04  0.25500000920E-02 0. -1.
</event>
<event>
 5   0  0.8234888E-06  0.3004928E+04  0.7818609E-02  0.8242325E-01
       -1   -1    0    0    0  501  0.00000000000E+00  0.00000000000E+00  0.86854994826E+03  0.86854994827E+03  0.50400001928E-02 0.  1.
        1   -1    0    0  501    0  0.00000000000E+00  0.00000000000E+00 -0.25990420909E+04  0.25990420910E+04  0.50400001928E-02 0. -1.
    10030    2    1    2    0    0  0.00000000000E+00  0.00000000000E+00 -0.17304921427E+04  0.34675920392E+04  0.30049278685E+04 0.  0.
        3    1    3    3  502    0 -0.64446137633E+03  0.64233379623E+03  0.51444604019E+03  0.10452645167E+04  0.10100000352E+00 0.  1.
       -3    1    3    3    0  502  0.64446137633E+03 -0.64233379623E+03 -0.22449381829E+04  0.24223275225E+04  0.10100000352E+00 0. -1.
</event>
<event>
 5   0  0.1918901E-05  0.2936891E+04  0.7818609E-02  0.8261985E-01
        2   -1    0    0  501    0  0.00000000000E+00  0.00000000000E+00  0.15794177824E+04  0.15794177824E+04  0.25500000920E-02 0. -1.
       -2   -1    0    0    0  501  0.00000000000E+00  0.00000000000E+00 -0.13652699044E+04  0.13652699044E+04  0.25500000920E-02 0.  1.
    10030    2    1    2    0    0  0.00000000000E+00  0.00000000000E+00  0.21414787805E+03  0.29446876868E+04  0.29368905767E+04 0.  0.
        1    1    3    3  502    0  0.60356781697E+03 -0.16262803592E+02 -0.12350510597E+04  0.13747398694E+04  0.50400001928E-02 0.  1.
       -1    1    3    3    0  502 -0.60356781697E+03  0.16262803592E+02  0.14491989377E+04  0.15699478174E+04  0.50400001928E-02 0. -1.
</event>
<event>
 5   0  0.8234888E-06  0.2662895E+04  0.7818609E-02  0.8347146E-01
        1   -1    0    0  501    0  0.00000000000E+00  0.00000000000E+00  0.14794576989E+04  0.14794576989E+04  0.50400001928E-02 0.  1.
       -1   -1    0    0    0  501  0.00000000000E+00  0.00000000000E+00 -0.11982448116E+04  0.11982448116E+04  0.50400001928E-02 0. -1.
    10030    2    1    2    0    0  0.00000000000E+00  0.00000000000E+00  0.28121288731E+03  0.26777025105E+04  0.26628950499E+04 0.  0.
        3    1    3    3  502    0  0.80310545254E+03 -0.83104936564E+03  0.80544182090E+03  0.14086724080E+04  0.10100000352E+00 0.  1.
       -3    1    3    3    0  502 -0.80310545254E+03  0.83104936564E+03 -0.52422893359E+03  0.12690301025E+04  0.10100000352E+00 0. -1.
</event>
<event>
 5   0  0.1960961E-05  0.2846918E+04  0.7818609E-02  0.8288849E-01
        2   -1    0    0  501    0  0.00000000000E+00  0.00000000000E+00  0.20034996052E+04  0.20034996052E+04  0.25500000920E-02 0. -1.
       -2   -1    0    0    0  501  0.00000000000E+00  0.00000000000E+00 -0.10113478800E+04  0.10113478800E+04  0.25500000920E-02 0.  1.
    10030    2    1    2    0    0  0.00000000000E+00  0.00000000000E+00  0.99215172514E+03  0.30148474852E+04  0.28469176864E+04 0.  0.
        5    1    3    3  502    0  0.12606729502E+04  0.57161993617E+03  0.14458269529E+03  0.13917513731E+04  0.46999998093E+01 0.  1.
       -5    1    3    3    0  502 -0.12606729502E+04 -0.57161993617E+03  0.84756902985E+03  0.16230961121E+04  0.46999998093E+01 0. -1.
</event>
<event>
 5   0  0.1918901E-05  0.2873104E+04  0.7818609E-02  0.8280925E-01
        2   -1    0    0  501    0  0.00000000000E+00  0.00000000000E+00  0.25417099220E+04  0.25417099220E+04  0.25500000920E-02 0. -1.
       -2   -1    0    0    0  501  0.00000000000E+00  0.00000000000E+00 -0.81192629034E+03  0.81192629034E+03  0.25500000920E-02 0.  1.
    10030    2    1    2    0    0  0.00000000000E+00  0.00000000000E+00  0.17297836317E+04  0.33536362124E+04  0.28731036237E+04 0.  0.
        1    1    3    3  502    0 -0.24614103462E+03  0.40907236087E+03 -0.71661868523E+03  0.86108532992E+03  0.50400001928E-02 0.  1.
       -1    1    3    3    0  502  0.24614103462E+03 -0.40907236087E+03  0.24464023169E+04  0.24925508824E+04  0.50400001928E-02 0. -1.
</event>
<event>
 5   0  0.8055928E-06  0.3054870E+04  0.7818609E-02  0.8228234E-01
       -1   -1    0    0    0  501  0.00000000000E+00  0.00000000000E+00  0.88591051602E+03  0.88591051603E+03  0.50400001928E-02 0. -1.
        1   -1    0    0  501    0  0.00000000000E+00  0.00000000000E+00 -0.26335147571E+04  0.26335147571E+04  0.50400001928E-02 0.  1.
    10030    2    1    2    0    0  0.00000000000E+00  0.00000000000E+00 -0.17476042411E+04  0.35194252732E+04  0.30548704833E+04 0.  0.
        2    1    3    3  502    0 -0.88179154282E+03  0.12055828378E+04 -0.50573035846E+03  0.15769430869E+04  0.25500000920E-02 0. -1.
       -2    1    3    3    0  502  0.88179154282E+03 -0.12055828378E+04 -0.12418738827E+04  0.19424821863E+04  0.25500000920E-02 0.  1.
</event>
<event>
 5   0  0.1976233E-05  0.2905276E+04  0.7818609E-02  0.8271309E-01
        2   -1    0    0  501    0  0.00000000000E+00  0.00000000000E+00  0.10197786691E+04  0.10197786691E+04  0.25500000920E-02 0. -1.
       -2   -1    0    0    0  501  0.00000000000E+00  0.00000000000E+00 -0.20692307930E+04  0.20692307930E+04  0.25500000920E-02 0.  1.
    10030    2    1    2    0    0  0.00000000000E+00  0.00000000000E+00 -0.10494521240E+04  0.30890094621E+04  0.29052761825E+04 0.  0.
        2    1    3    3  502    0 -0.50277271451E+03  0.13605868790E+04 -0.44113902708E+03  0.15161070869E+04  0.25500000920E-02 0.  1.
       -2    1    3    3    0  502  0.50277271451E+03 -0.13605868790E+04 -0.60831309690E+03  0.15729023751E+04  0.25500000920E-02 0. -1.
</event>
<event>
 5   0  0.1918901E-05  0.2874856E+04  0.7818609E-02  0.8280398E-01
       -2   -1    0    0    0  501  0.00000000000E+00  0.00000000000E+00  0.10325957988E+04  0.10325957988E+04  0.25500000920E-02 0.  1.
        2   -1    0    0  501    0  0.00000000000E+00  0.00000000000E+00 -0.20009760787E+04  0.20009760787E+04  0.25500000920E-02 0. -1.
    10030    2    1    2    0    0  0.00000000000E+00  0.00000000000E+00 -0.96838027998E+03  0.30335718775E+04  0.28748561650E+04 0.  0.
        1    1    3    3  502    0 -0.62175546070E+03 -0.36161367897E+03 -0.17974285477E+04  0.19359994034E+04  0.50400001928E-02 0. -1.
       -1    1    3    3    0  502  0.62175546070E+03  0.36161367897E+03  0.82904826772E+03  0.10975724741E+04  0.50400001928E-02 0.  1.
</event>
<event>
 5   0  0.8055928E-06  0.1607844E+04  0.7818609E-02  0.8815744E-01
        1   -1    0    0  501    0  0.00000000000E+00  0.00000000000E+00  0.10832441204E+04  0.10832441204E+04  0.50400001928E-02 0.  1.
       -1   -1    0    0    0  501  0.00000000000E+00  0.00000000000E+00 -0.59662473049E+03  0.59662473051E+03  0.50400001928E-02 0. -1.
    10030    2    1    2    0    0  0.00000000000E+00  0.00000000000E+00  0.48661938991E+03  0.16798688509E+04  0.16078435638E+04 0.  0.
        2    1    3    3  502    0 -0.64816014874E+03  0.13590665151E+03 -0.23285614325E+03  0.70200012806E+03  0.25500000920E-02 0. -1.
       -2    1    3    3    0  502  0.64816014874E+03 -0.13590665151E+03  0.71947553316E+03  0.97786872286E+03  0.25500000920E-02 0.  1.
</event>
<event>
 5   0  0.7305460E-06  0.1534540E+04  0.7818609E-02  0.8861804E-01
       -1   -1    0    0    0  501  0.00000000000E+00  0.00000000000E+00  0.31190567526E+03  0.31190567530E+03  0.50400001928E-02 0. -1.
        1   -1    0    0  501    0  0.00000000000E+00  0.00000000000E+00 -0.18874400179E+04  0.18874400179E+04  0.50400001928E-02 0.  1.
    10030    2    1    2    0    0  0.00000000000E+00  0.00000000000E+00 -0.15755343427E+04  0.21993456932E+04  0.15345400006E+04 0.  0.
        4    1    3    3  502    0 -0.37947967960E+03 -0.13805594790E+03 -0.17228178684E+04  0.17695104669E+04  0.12699999809E+01 0.  1.
       -4    1    3    3    0  502  0.37947967960E+03  0.13805594790E+03  0.14728352568E+03  0.42983522635E+03  0.12699999809E+01 0. -1.
</event>
<event>
 5   0  0.1960961E-05  0.2837198E+04  0.7818609E-02  0.8291812E-01
        2   -1    0    0  501    0  0.00000000000E+00  0.00000000000E+00  0.31657499173E+04  0.31657499173E+04  0.25500000920E-02 0. -1.
       -2   -1    0    0    0  501  0.00000000000E+00  0.00000000000E+00 -0.63568605899E+03  0.63568605900E+03  0.25500000920E-02 0.  1.
    10030    2    1    2    0    0  0.00000000000E+00  0.00000000000E+00  0.25300638583E+04  0.38014359763E+04  0.28371979760E+04 0.  0.
        5    1    3    3  502    0 -0.86800200778E+03 -0.23919979313E+03  0.27338444445E+04  0.28782931684E+04  0.46999998093E+01 0. -1.
       -5    1    3    3    0  502  0.86800200778E+03  0.23919979313E+03 -0.20378058616E+03  0.92314280793E+03  0.46999998093E+01 0.  1.
</event>
<event>
 5   0  0.7971153E-06  0.3124494E+04  0.7818609E-02  0.8209048E-01
       -1   -1    0    0    0  501  0.00000000000E+00  0.00000000000E+00  0.13346130567E+04  0.13346130567E+04  0.50400001928E-02 0.  1.
        1   -1    0    0  501    0  0.00000000000E+00  0.00000000000E+00 -0.18287066042E+04  0.18287066043E+04  0.50400001928E-02 0. -1.
    10030    2    1    2    0    0  0.00000000000E+00  0.00000000000E+00 -0.49409354758E+03  0.31633196609E+04  0.31244940140E+04 0.  0.
        5    1    3    3  502    0  0.26554684092E+03  0.12440768815E+04 -0.11651511369E+04  0.17250628028E+04  0.46999998093E+01 0. -1.
       -5    1    3    3    0  502 -0.26554684092E+03 -0.12440768815E+04  0.67105758934E+03  0.14382568581E+04  0.46999998093E+01 0.  1.
</event>
<event>
 5   0  0.8234888E-06  0.2857748E+04  0.7818609E-02  0.8285561E-01
        1   -1    0    0  501    0  0.00000000000E+00  0.00000000000E+00  0.15754870234E+04  0.15754870234E+04  0.50400001928E-02 0.  1.
       -1   -1    0    0    0  501  0.00000000000E+00  0.00000000000E+00 -0.12959044278E+04  0.12959044278E+04  0.50400001928E-02 0. -1.
    10030    2    1    2    0    0  0.00000000000E+00  0.00000000000E+00  0.27958259561E+03  0.28713914512E+04  0.28577477913E+04 0.  0.
        3    1    3    3  502    0 -0.21062826129E+03 -0.96841442074E+02 -0.12768827258E+04  0.12977565392E+04  0.10100000352E+00 0. -1.
       -3    1    3    3    0  502  0.21062826129E+03  0.96841442074E+02  0.15564653214E+04  0.15736349120E+04  0.10100000352E+00 0.  1.
</event>
<event>
 5   0  0.1937947E-05  0.2949304E+04  0.7818609E-02  0.8258357E-01
       -2   -1    0    0    0  501  0.00000000000E+00  0.00000000000E+00  0.82253688443E+03  0.82253688444E+03  0.25500000920E-02 0.  1.
        2   -1    0    0  501    0  0.00000000000E+00  0.00000000000E+00 -0.26437699752E+04  0.26437699752E+04  0.25500000920E-02 0. -1.
    10030    2    1    2    0    0  0.00000000000E+00  0.00000000000E+00 -0.18212330908E+04  0.34663068597E+04  0.29493038627E+04 0.  0.
        3    1    3    3  502    0 -0.30347406641E+03  0.13537908233E+04 -0.32325953904E+03  0.14245500489E+04  0.10100000352E+00 0.  1.
       -3    1    3    3    0  502  0.30347406641E+03 -0.13537908233E+04 -0.14979735518E+04  0.20417568107E+04  0.10100000352E+00 0. -1.
</event>
<event>
 5   0  0.1960961E-05  0.2932851E+04  0.7818609E-02  0.8263170E-01
       -2   -1    0    0    0  501  0.00000000000E+00  0.00000000000E+00  0.15146177963E+04  0.15146177963E+04  0.25500000920E-02 0. -1.
        2   -1    0    0  501    0  0.00000000000E+00  0.00000000000E+00 -0.14197665219E+04  0.14197665219E+04  0.25500000920E-02 0.  1.
    10030    2    1    2    0    0  0.00000000000E+00  0.00000000000E+00  0.94851274448E+02  0.29343843182E+04  0.29328509275E+04 0.  0.
        5    1    3    3  502    0  0.56124650623E+03  0.13196474314E+04 -0.25918942374E+03  0.14572811092E+04  0.46999998093E+01 0.  1.
       -5    1    3    3    0  502 -0.56124650623E+03 -0.13196474314E+04  0.35404069819E+03  0.14771032090E+04  0.46999998093E+01 0. -1.
</event>
<event>
 5   0  0.7971153E-06  0.2850808E+04  0.7818609E-02  0.8287666E-01
       -1   -1    0    0    0  501  0.00000000000E+00  0.00000000000E+00  0.17670937890E+04  0.17670937890E+04  0.50400001928E-02 0.  1.
        1   -1    0    0  501    0  0.00000000000E+00  0.00000000000E+00 -0.11497840496E+04  0.11497840496E+04  0.50400001928E-02 0. -1.
    10030    2    1    2    0    0  0.00000000000E+00  0.00000000000E+00  0.61730973938E+03  0.29168778386E+04  0.28508077822E+04 0.  0.
        5    1    3    3  502    0  0.46233892583E+03 -0.98806573310E+03 -0.63006259772E+03  0.12597746395E+04  0.46999998093E+01 0. -1.
       -5    1    3    3    0  502 -0.46233892583E+03  0.98806573310E+03  0.12473723371E+04  0.16571031991E+04  0.46999998093E+01 0.  1.
</event>
<event>
 5   0  0.8055928E-06  0.3040266E+04  0.7818609E-02  0.8232325E-01
       -1   -1    0    0    0  501  0.00000000000E+00  0.00000000000E+00  0.93773387341E+03  0.93773387343E+03  0.50400001928E-02 0. -1.
        1   -1    0    0  501    0  0.00000000000E+00  0.00000000000E+00 -0.24642434854E+04  0.24642434854E+04  0.50400001928E-02 0.  1.
    10030    2    1    2    0    0  0.00000000000E+00  0.00000000000E+00 -0.15265096120E+04  0.34019773589E+04  0.30402661651E+04 0.  0.
        2    1    3    3  502    0  0.96724270999E+02  0.14432045634E+04 -0.12864387649E+04  0.19357478380E+04  0.25500000920E-02 0. -1.
       -2    1    3    3    0  502 -0.96724270999E+02 -0.14432045634E+04 -0.24007084708E+03  0.14662295209E+04  0.25500000920E-02 0.  1.
</event>
<event>
 5   0  0.1829810E-05  0.2894358E+04  0.7818609E-02  0.8274558E-01
       -2   -1    0    0    0  501  0.00000000000E+00  0.00000000000E+00  0.11252219487E+04  0.11252219487E+04  0.25500000920E-02 0. -1.
        2   -1    0    0  501    0  0.00000000000E+00  0.00000000000E+00 -0.18612571314E+04  0.18612571314E+04  0.25500000920E-02 0.  1.
    10030    2    1    2    0    0  0.00000000000E+00  0.00000000000E+00 -0.73603518271E+03  0.29864790800E+04  0.28943582199E+04 0.  0.
        4    1    3    3  502    0 -0.51091511537E+03 -0.45189015514E+02 -0.17643247074E+04  0.18373675703E+04  0.12699999809E+01 0.  1.
       -4    1    3    3    0  502  0.51091511537E+03  0.45189015514E+02  0.10282895247E+04  0.11491115097E+04  0.12699999809E+01 0. -1.
</event>
<event>
 5   0  0.1960961E-05  0.2774147E+04  0.7818609E-02  0.8311340E-01
        2   -1    0    0  501    0  0.00000000000E+00  0.00000000000E+00  0.19596755431E+04  0.19596755431E+04  0.25500000920E-02 0. -1.
       -2   -1    0    0    0  501  0.00000000000E+00  0.00000000000E+00 -0.98178122901E+03  0.98178122902E+03  0.25500000920E-02 0.  1.
    10030    2    1    2    0    0  0.00000000000E+00  0.00000000000E+00  0.97789431405E+03  0.29414567721E+04  0.27741468333E+04 0.  0.
        5    1    3    3  502    0 -0.10770057754E+03  0.30886135966E+03 -0.94029299929E+03  0.99557408986E+03  0.46999998093E+01 0.  1.
       -5    1    3    3    0  502  0.10770057754E+03 -0.30886135966E+03  0.19181873133E+04  0.19458826822E+04  0.46999998093E+01 0. -1.
</event>
<event>
 5   0  0.8122088E-06  0.2865843E+04  0.7818609E-02  0.8283113E-01
       -1   -1    0    0    0  501  0.00000000000E+00  0.00000000000E+00  0.26973605396E+04  0.26973605396E+04  0.50400001928E-02 0. -1.
        1   -1    0    0  501    0  0.00000000000E+00  0.00000000000E+00 -0.76121241520E+03  0.76121241522E+03  0.50400001928E-02 0.  1.
    10030    2    1    2    0    0  0.00000000000E+00  0.00000000000E+00  0.19361481244E+04  0.34585729548E+04  0.28658432135E+04 0.  0.
        1    1    3    3  502    0  0.33607113050E+03  0.80666701591E+03 -0.40240850864E+03  0.96207488647E+03  0.50400001928E-02 0.  1.
       -1    1    3    3    0  502 -0.33607113050E+03 -0.80666701591E+03  0.23385566330E+04  0.24964980683E+04  0.50400001928E-02 0. -1.
</event>
<event>
 5   0  0.1976233E-05  0.2882984E+04  0.7818609E-02  0.8277958E-01
        2   -1    0    0  501    0  0.00000000000E+00  0.00000000000E+00  0.20316019129E+04  0.20316019129E+04  0.25500000920E-02 0. -1.
       -2   -1    0    0    0  501  0.00000000000E+00  0.00000000000E+00 -0.10227883528E+04  0.10227883528E+04  0.25500000920E-02 0.  1.
    10030    2    1    2    0    0  0.00000000000E+00  0.00000000000E+00  0.10088135601E+04  0.30543902657E+04  0.28829837142E+04 0.  0.
        2    1    3    3  502    0 -0.10289909807E+04  0.30808640340E+01  0.15739138843E+04  0.18804352808E+04  0.25500000920E-02 0. -1.
       -2    1    3    3    0  502  0.10289909807E+04 -0.30808640340E+01 -0.56510032425E+03  0.11739549849E+04  0.25500000920E-02 0.  1.
</event>
<event>
 5   0  0.8055928E-06  0.3060540E+04  0.7818609E-02  0.8226651E-01
        1   -1    0    0  501    0  0.00000000000E+00  0.00000000000E+00  0.11336605082E+04  0.11336605082E+04  0.50400001928E-02 0.  1.
       -1   -1    0    0    0  501  0.00000000000E+00  0.00000000000E+00 -0.20656329710E+04  0.20656329710E+04  0.50400001928E-02 0. -1.
    10030    2    1    2    0    0  0.00000000000E+00  0.00000000000E+00 -0.93197246277E+03  0.31992934792E+04  0.30605401639E+04 0.  0.
        2    1    3    3  502    0  0.51803030560E+03  0.29312704939E+03 -0.19396684646E+04  0.20289387909E+04  0.25500000920E-02 0. -1.
       -2    1    3    3    0  502 -0.51803030560E+03 -0.29312704939E+03  0.10076960018E+04  0.11703546884E+04  0.25500000920E-02 0.  1.
</event>
<event>
 5   0  0.1918901E-05  0.3208023E+04  0.7818609E-02  0.8186701E-01
       -2   -1    0    0    0  501  0.00000000000E+00  0.00000000000E+00  0.20653123350E+04  0.20653123350E+04  0.25500000920E-02 0. -1.
        2   -1    0    0  501    0  0.00000000000E+00  0.00000000000E+00 -0.12457454309E+04  0.12457454309E+04  0.25500000920E-02 0.  1.
    10030    2    1    2    0    0  0.00000000000E+00  0.00000000000E+00  0.81956690412E+03  0.33110577660E+04  0.32080233196E+04 0.  0.
        1    1    3    3  502    0  0.38402703215E+03  0.13921864506E+04  0.11301938910E+04  0.18338478961E+04  0.50400001928E-02 0. -1.
       -1    1    3    3    0  502 -0.38402703215E+03 -0.13921864506E+04 -0.31062698689E+03  0.14772098699E+04  0.50400001928E-02 0.  1.
</event>
<event>
 5   0  0.8234888E-06  0.2947128E+04  0.7818609E-02  0.8258992E-01
       -1   -1    0    0    0  501  0.00000000000E+00  0.00000000000E+00  0.15281272743E+04  0.15281272743E+04  0.50400001928E-02 0.  1.
        1   -1    0    0  501    0  0.00000000000E+00  0.00000000000E+00 -0.14209493716E+04  0.14209493716E+04  0.50400001928E-02 0. -1.
    10030    2    1    2    0    0  0.00000000000E+00  0.00000000000E+00  0.10717790272E+03  0.29490766459E+04  0.29471284262E+04 0.  0.
        3    1    3    3  502    0  0.70353874177E+03  0.12759381134E+04 -0.16657160344E+03  0.14665370570E+04  0.10100000352E+00 0. -1.
       -3    1    3    3    0  502 -0.70353874177E+03 -0.12759381134E+04  0.27374950616E+03  0.14825395889E+04  0.10100000352E+00 0.  1.
</event>
<event>
 5   0  0.8234888E-06  0.2960730E+04  0.7818609E-02  0.8255034E-01
        1   -1    0    0  501    0  0.00000000000E+00  0.00000000000E+00  0.22219026910E+04  0.22219026910E+04  0.50400001928E-02 0.  1.
       -1   -1    0    0    0  501  0.00000000000E+00  0.00000000000E+00 -0.98630806832E+03  0.98630806834E+03  0.50400001928E-02 0. -1.
    10030    2    1    2    0    0  0.00000000000E+00  0.00000000000E+00  0.12355946227E+04  0.32082107594E+04  0.29607300121E+04 0.  0.
        3    1    3    3  502    0  0.11890067326E+03  0.14618831897E+04  0.40042866298E+03  0.15203890801E+04  0.10100000352E+00 0.  1.
       -3    1    3    3    0  502 -0.11890067326E+03 -0.14618831897E+04  0.83516595971E+03  0.16878216793E+04  0.10100000352E+00 0. -1.
</event>
<event>
 5   0  0.1829810E-05  0.1552366E+04  0.7818609E-02  0.8850358E-01
        2   -1    0    0  501    0  0.00000000000E+00  0.00000000000E+00  0.48869669066E+03  0.48869669067E+03  0.25500000920E-02 0. -1.
       -2   -1    0    0    0  501  0.00000000000E+00  0.00000000000E+00 -0.12327896452E+04  0.12327896452E+04  0.25500000920E-02 0.  1.
    10030    2    1    2    0    0  0.00000000000E+00  0.00000000000E+00 -0.74409295449E+03  0.17214863358E+04  0.15523662195E+04 0.  0.
        4    1    3    3  502    0  0.83260575654E+01  0.66180151181E+03 -0.82169267543E+03  0.10550976400E+04  0.12699999809E+01 0.  1.
       -4    1    3    3    0  502 -0.83260575654E+01 -0.66180151181E+03  0.77599720941E+02  0.66638869578E+03  0.12699999809E+01 0. -1.
</event>
<event>
 5   0  0.1918901E-05  0.1639225E+04  0.7818609E-02  0.8796806E-01
        2   -1    0    0  501    0  0.00000000000E+00  0.00000000000E+00  0.17287205485E+04  0.17287205485E+04  0.25500000920E-02 0.  1.
       -2   -1    0    0    0  501  0.00000000000E+00  0.00000000000E+00 -0.38859063137E+03  0.38859063138E+03  0.25500000920E-02 0. -1.
    10030    2    1    2    0    0  0.00000000000E+00  0.00000000000E+00  0.13401299172E+04  0.21173111799E+04  0.16392249503E+04 0.  0.
        1    1    3    3  502    0  0.70288409237E+03  0.14924946161E+03  0.11793160209E+04  0.13809807117E+04  0.50400001928E-02 0. -1.
       -1    1    3    3    0  502 -0.70288409237E+03 -0.14924946161E+03  0.16081389629E+03  0.73633046817E+03  0.50400001928E-02 0.  1.
</event>
<event>
 5   0  0.1960961E-05  0.2944905E+04  0.7818609E-02  0.8259641E-01
        2   -1    0    0  501    0  0.00000000000E+00  0.00000000000E+00  0.12768925785E+04  0.12768925785E+04  0.25500000920E-02 0.  1.
       -2   -1    0    0    0  501  0.00000000000E+00  0.00000000000E+00 -0.16979634817E+04  0.16979634817E+04  0.25500000920E-02 0. -1.
    10030    2    1    2    0    0  0.00000000000E+00  0.00000000000E+00 -0.42107090315E+03  0.29748560602E+04  0.29449054099E+04 0.  0.
        5    1    3    3  502    0 -0.34298116804E+03  0.13228074367E+04  0.34334682674E+03  0.14090297122E+04  0.46999998093E+01 0.  1.
       -5    1    3    3    0  502  0.34298116804E+03 -0.13228074367E+04 -0.76441772990E+03  0.15658263480E+04  0.46999998093E+01 0. -1.
</event>
<event>
 5   0  0.7305460E-06  0.2843607E+04  0.7818609E-02  0.8289857E-01
       -1   -1    0    0    0  501  0.00000000000E+00  0.00000000000E+00  0.97718607998E+03  0.97718607999E+03  0.50400001928E-02 0.  1.
        1   -1    0    0  501    0  0.00000000000E+00  0.00000000000E+00 -0.20687211640E+04  0.20687211640E+04  0.50400001928E-02 0. -1.
    10030    2    1    2    0    0  0.00000000000E+00  0.00000000000E+00 -0.10915350841E+04  0.30459072440E+04  0.28436072337E+04 0.  0.
        4    1    3    3  502    0  0.88161031758E+03 -0.89622751810E+03  0.16560577608E+03  0.12680250006E+04  0.12699999809E+01 0.  1.
       -4    1    3    3    0  502 -0.88161031758E+03  0.89622751810E+03 -0.12571408601E+04  0.17778822434E+04  0.12699999809E+01 0. -1.
</event>
<event>
 5   0  0.7971153E-06  0.2702871E+04  0.7818609E-02  0.8334074E-01
        1   -1    0    0  501    0  0.00000000000E+00  0.00000000000E+00  0.85962781923E+03  0.85962781925E+03  0.50400001928E-02 0. -1.
       -1   -1    0    0    0  501  0.00000000000E+00  0.00000000000E+00 -0.21246149054E+04  0.21246149055E+04  0.50400001928E-02 0.  1.
    10030    2    1    2    0    0  0.00000000000E+00  0.00000000000E+00 -0.12649870862E+04  0.29842427247E+04  0.27028711238E+04 0.  0.
        5    1    3    3  502    0 -0.12879890825E+04  0.55665162145E+02 -0.18490142547E+03  0.13023920739E+04  0.46999998093E+01 0. -1.
       -5    1    3    3    0  502  0.12879890825E+04 -0.55665162145E+02 -0.10800856607E+04  0.16818506508E+04  0.46999998093E+01 0.  1.
</event>
<event>
 5   0  0.1976233E-05  0.2779654E+04  0.7818609E-02  0.8309613E-01
        2   -1    0    0  501    0  0.00000000000E+00  0.00000000000E+00  0.13559723040E+04  0.13559723040E+04  0.25500000920E-02 0. -1.
       -2   -1    0    0    0  501  0.00000000000E+00  0.00000000000E+00 -0.14245265383E+04  0.14245265383E+04  0.25500000920E-02 0.  1.
    10030    2    1    2    0    0  0.00000000000E+00  0.00000000000E+00 -0.68554234358E+02  0.27804988423E+04  0.27796535988E+04 0.  0.
        2    1    3    3  502    0  0.51613967919E+03 -0.11160470599E+04  0.61372950591E+03  0.13742725766E+04  0.25500000920E-02 0.  1.
       -2    1    3    3    0  502 -0.51613967919E+03  0.11160470599E+04 -0.68228374027E+03  0.14062262658E+04  0.25500000920E-02 0. -1.
</event>
<event>
 5   0  0.7305460E-06  0.1638955E+04  0.7818609E-02  0.8796968E-01
       -1   -1    0    0    0  501  0.00000000000E+00  0.00000000000E+00  0.51871542568E+03  0.51871542570E+03  0.50400001928E-02 0. -1.
        1   -1    0    0  501    0  0.00000000000E+00  0.00000000000E+00 -0.12946271791E+04  0.12946271791E+04  0.50400001928E-02 0.  1.
    10030    2    1    2    0    0  0.00000000000E+00  0.00000000000E+00 -0.77591175343E+03  0.18133426048E+04  0.16389546526E+04 0.  0.
        4    1    3    3  502    0  0.11490081186E+03 -0.61308651921E+03  0.20006755640E+03  0.65506176550E+03  0.12699999809E+01 0. -1.
       -4    1    3    3    0  502 -0.11490081186E+03  0.61308651921E+03 -0.97597930983E+03  0.11582808393E+04  0.12699999809E+01 0.  1.
</event>
<event>
 5   0  0.1960961E-05  0.1606035E+04  0.7818609E-02  0.8816849E-01
       -2   -1    0    0    0  501  0.00000000000E+00  0.00000000000E+00  0.52095089080E+03  0.52095089080E+03  0.25500000920E-02 0.  1.
        2   -1    0    0  501    0  0.00000000000E+00  0.00000000000E+00 -0.12378075384E+04  0.12378075384E+04  0.25500000920E-02 0. -1.
    10030    2    1    2    0    0  0.00000000000E+00  0.00000000000E+00 -0.71685664759E+03  0.17587584292E+04  0.16060347938E+04 0.  0.
        5    1    3    3  502    0  0.23644245515E+03 -0.65651237348E+03 -0.79358346658E+03  0.10567451630E+04  0.46999998093E+01 0. -1.
       -5    1    3    3    0  502 -0.23644245515E+03  0.65651237348E+03  0.76726818990E+02  0.70201326617E+03  0.46999998093E+01 0.  1.
</event>
<event>
 5   0  0.7971153E-06  0.2985107E+04  0.7818609E-02  0.8247997E-01
       -1   -1    0    0    0  501  0.00000000000E+00  0.00000000000E+00  0.14841387914E+04  0.14841387914E+04  0.50400001928E-02 0.  1.
        1   -1    0    0  501    0  0.00000000000E+00  0.00000000000E+00 -0.15010157537E+04  0.15010157537E+04  0.50400001928E-02 0. -1.
    10030    2    1    2    0    0  0.00000000000E+00  0.00000000000E+00 -0.16876962271E+02  0.29851545451E+04  0.29851068366E+04 0.  0.
        5    1    3    3  502    0 -0.10379733540E+04 -0.40858627216E+03 -0.10001005324E+04  0.14981837638E+04  0.46999998093E+01 0. -1.
       -5    1    3    3    0  502  0.10379733540E+04  0.40858627216E+03  0.98322357009E+03  0.14869707812E+04  0.46999998093E+01 0.  1.
</event>
<event>
 5   0  0.8122088E-06  0.1490706E+04  0.7818609E-02  0.8890657E-01
       -1   -1    0    0    0  501  0.00000000000E+00  0.00000000000E+00  0.39771532482E+03  0.39771532485E+03  0.50400001928E-02 0.  1.
        1   -1    0    0  501    0  0.00000000000E+00  0.00000000000E+00 -0.13968558271E+04  0.13968558271E+04  0.50400001928E-02 0. -1.
    10030    2    1    2    0    0  0.00000000000E+00  0.00000000000E+00 -0.99914050224E+03  0.17945711519E+04  0.14907058315E+04 0.  0.
        1    1    3    3  502    0 -0.54910900835E+03 -0.48924787578E+03 -0.35377742653E+03  0.81611436364E+03  0.50400001928E-02 0.  1.
       -1    1    3    3    0  502  0.54910900835E+03  0.48924787578E+03 -0.64536307571E+03  0.97845678827E+03  0.50400001928E-02 0. -1.
</event>
<event>
 5   0  0.1976233E-05  0.2934265E+04  0.7818609E-02  0.8262755E-01
       -2   -1    0    0    0  501  0.00000000000E+00  0.00000000000E+00  0.21212209749E+04  0.21212209749E+04  0.25500000920E-02 0. -1.
        2   -1    0    0  501    0  0.00000000000E+00  0.00000000000E+00 -0.10147351521E+04  0.10147351521E+04  0.25500000920E-02 0.  1.
    10030    2    1    2    0    0  0.00000000000E+00  0.00000000000E+00  0.11064858228E+04  0.31359561270E+04  0.29342648065E+04 0.  0.
        2    1    3    3  502    0  0.68813709633E+03 -0.84473019232E+03  0.16033143861E+04  0.19384836295E+04  0.25500000920E-02 0. -1.
       -2    1    3    3    0  502 -0.68813709633E+03  0.84473019232E+03 -0.49682856321E+03  0.11974724976E+04  0.25500000920E-02 0.  1.
</event>
<event>
 5   0  0.7971153E-06  0.2713001E+04  0.7818609E-02  0.8330799E-01
        1   -1    0    0  501    0  0.00000000000E+00  0.00000000000E+00  0.27093115238E+04  0.27093115238E+04  0.50400001928E-02 0. -1.
       -1   -1    0    0    0  501  0.00000000000E+00  0.00000000000E+00 -0.67917404788E+03  0.67917404790E+03  0.50400001928E-02 0.  1.
    10030    2    1    2    0    0  0.00000000000E+00  0.00000000000E+00  0.20301374759E+04  0.33884855717E+04  0.27130013451E+04 0.  0.
        5    1    3    3  502    0  0.41984578631E+03 -0.12869066490E+04  0.90566505988E+03  0.16286959502E+04  0.46999998093E+01 0.  1.
       -5    1    3    3    0  502 -0.41984578631E+03  0.12869066490E+04  0.11244724161E+04  0.17597896215E+04  0.46999998093E+01 0. -1.
</event>
<event>
 5   0  0.1918901E-05  0.2893502E+04  0.7818609E-02  0.8274813E-01
       -2   -1    0    0    0  501  0.00000000000E+00  0.00000000000E+00  0.23006100099E+04  0.23006100099E+04  0.25500000920E-02 0.  1.
        2   -1    0    0  501    0  0.00000000000E+00  0.00000000000E+00 -0.90979729098E+03  0.90979729099E+03  0.25500000920E-02 0. -1.
    10030    2    1    2    0    0  0.00000000000E+00  0.00000000000E+00  0.13908127190E+04  0.32104073009E+04  0.28935022064E+04 0.  0.
        1    1    3    3  502    0 -0.27715062109E+03 -0.57474971499E+03 -0.74523955474E+03  0.98108699697E+03  0.50400001928E-02 0. -1.
       -1    1    3    3    0  502  0.27715062109E+03  0.57474971499E+03  0.21360522737E+04  0.22293203040E+04  0.50400001928E-02 0.  1.
</event>
<event>
 5   0  0.8122088E-06  0.2933054E+04  0.7818609E-02  0.8263110E-01
       -1   -1    0    0    0  501  0.00000000000E+00  0.00000000000E+00  0.13648155802E+04  0.13648155802E+04  0.50400001928E-02 0. -1.
        1   -1    0    0  501    0  0.00000000000E+00  0.00000000000E+00 -0.15758183808E+04  0.15758183808E+04  0.50400001928E-02 0.  1.
    10030    2    1    2    0    0  0.00000000000E+00  0.00000000000E+00 -0.21100280062E+03  0.29406339610E+04  0.29330540245E+04 0.  0.
        1    1    3    3  502    0  0.24974757304E+03 -0.14273413591E+04  0.12096788734E+03  0.14540668608E+04  0.50400001928E-02 0. -1.
       -1    1    3    3    0  502 -0.24974757304E+03  0.14273413591E+04 -0.33197068797E+03  0.14865671002E+04  0.50400001928E-02 0.  1.
</event>
<event>
 5   0  0.8055928E-06  0.2929965E+04  0.7818609E-02  0.8264017E-01
       -1   -1    0    0    0  501  0.00000000000E+00  0.00000000000E+00  0.22739660009E+04  0.22739660009E+04  0.50400001928E-02 0.  1.
        1   -1    0    0  501    0  0.00000000000E+00  0.00000000000E+00 -0.94380208883E+03  0.94380208885E+03  0.50400001928E-02 0. -1.
    10030    2    1    2    0    0  0.00000000000E+00  0.00000000000E+00  0.13301639121E+04  0.32177680897E+04  0.29299650930E+04 0.  0.
        2    1    3    3  502    0  0.12635340918E+04  0.74090019817E+03  0.63556523011E+03  0.15966823937E+04  0.25500000920E-02 0. -1.
       -2    1    3    3    0  502 -0.12635340918E+04 -0.74090019817E+03  0.69459868195E+03  0.16210856960E+04  0.25500000920E-02 0.  1.
</event>
<event>
 5   0  0.1829810E-05  0.2387402E+04  0.7818609E-02  0.8444235E-01
       -2   -1    0    0    0  501  0.00000000000E+00  0.00000000000E+00  0.83336376004E+03  0.83336376004E+03  0.25500000920E-02 0. -1.
        2   -1    0    0  501    0  0.00000000000E+00  0.00000000000E+00 -0.17098439919E+04  0.17098439919E+04  0.25500000920E-02 0.  1.
    10030    2    1    2    0    0  0.00000000000E+00  0.00000000000E+00 -0.87648023189E+03  0.25432077520E+04  0.23874019504E+04 0.  0.
        4    1    3    3  502    0  0.88083329011E+03 -0.74084406844E+03 -0.77544748813E+03  0.13878175811E+04  0.12699999809E+01 0.  1.
       -4    1    3    3    0  502 -0.88083329011E+03  0.74084406844E+03 -0.10103274376E+03  0.11553901709E+04  0.12699999809E+01 0. -1.
</event>
<event>
 5   0  0.1976233E-05  0.3081843E+04  0.7818609E-02  0.8220739E-01
        2   -1    0    0  501    0  0.00000000000E+00  0.00000000000E+00  0.19950433723E+04  0.19950433723E+04  0.25500000920E-02 0. -1.
       -2   -1    0    0    0  501  0.00000000000E+00  0.00000000000E+00 -0.11901695190E+04  0.11901695190E+04  0.25500000920E-02 0.  1.
    10030    2    1    2    0    0  0.00000000000E+00  0.00000000000E+00  0.80487385333E+03  0.31852128913E+04  0.30818434813E+04 0.  0.
        2    1    3    3  502    0 -0.60936768476E+03 -0.20295416473E+03  0.18501036201E+04  0.19584184368E+04  0.25500000920E-02 0. -1.
       -2    1    3    3    0  502  0.60936768476E+03  0.20295416473E+03 -0.10452297668E+04  0.12267944545E+04  0.25500000920E-02 0.  1.
</event>
<event>
 5   0  0.1829810E-05  0.2103284E+04  0.7818609E-02  0.8559798E-01
       -2   -1    0    0    0  501  0.00000000000E+00  0.00000000000E+00  0.95449004432E+03  0.95449004432E+03  0.25500000920E-02 0. -1.
        2   -1    0    0  501    0  0.00000000000E+00  0.00000000000E+00 -0.11586827556E+04  0.11586827556E+04  0.25500000920E-02 0.  1.
    10030    2    1    2    0    0  0.00000000000E+00  0.00000000000E+00 -0.20419271124E+03  0.21131727999E+04  0.21032842458E+04 0.  0.
        4    1    3    3  502    0 -0.51624237595E+03 -0.72022716275E+03 -0.67107698557E+03  0.11115661430E+04  0.12699999809E+01 0.  1.
       -4    1    3    3    0  502  0.51624237595E+03  0.72022716275E+03  0.46688427433E+03  0.10016066569E+04  0.12699999809E+01 0. -1.
</event>
<event>
 5   0  0.8055928E-06  0.2802677E+04  0.7818609E-02  0.8302438E-01
       -1   -1    0    0    0  501  0.00000000000E+00  0.00000000000E+00  0.99902309635E+03  0.99902309636E+03  0.50400001928E-02 0.  1.
        1   -1    0    0  501    0  0.00000000000E+00  0.00000000000E+00 -0.19656691835E+04  0.19656691835E+04  0.50400001928E-02 0. -1.
    10030    2    1    2    0    0  0.00000000000E+00  0.00000000000E+00 -0.96664608713E+03  0.29646922798E+04  0.28026765166E+04 0.  0.
        2    1    3    3  502    0 -0.11603294132E+04 -0.29975280872E+03  0.28497794170E+03  0.12318394866E+04  0.25500000920E-02 0.  1.
       -2    1    3    3    0  502  0.11603294132E+04  0.29975280872E+03 -0.12516240288E+04  0.17328527932E+04  0.25500000920E-02 0. -1.
</event>
<event>
 5   0  0.1918901E-05  0.2647002E+04  0.7818609E-02  0.8352409E-01
        2   -1    0    0  501    0  0.00000000000E+00  0.00000000000E+00  0.16704668727E+04  0.16704668727E+04  0.25500000920E-02 0.  1.
       -2   -1    0    0    0  501  0.00000000000E+00  0.00000000000E+00 -0.10486019587E+04  0.10486019587E+04  0.25500000920E-02 0. -1.
    10030    2    1    2    0    0  0.00000000000E+00  0.00000000000E+00  0.62186491406E+03  0.27190688314E+04  0.26470019529E+04 0.  0.
        1    1    3    3  502    0 -0.10023766465E+04  0.43560294728E+03  0.10776765430E+04  0.15348927000E+04  0.50400001928E-02 0.  1.
       -1    1    3    3    0  502  0.10023766465E+04 -0.43560294728E+03 -0.45581162891E+03  0.11841761314E+04  0.50400001928E-02 0. -1.
</event>
<event>
 5   0  0.7305460E-06  0.2773536E+04  0.7818609E-02  0.8311532E-01
        1   -1    0    0  501    0  0.00000000000E+00  0.00000000000E+00  0.11737960976E+04  0.11737960976E+04  0.50400001928E-02 0.  1.
       -1   -1    0    0    0  501  0.00000000000E+00  0.00000000000E+00 -0.16383815402E+04  0.16383815402E+04  0.50400001928E-02 0. -1.
    10030    2    1    2    0    0  0.00000000000E+00  0.00000000000E+00 -0.46458544255E+03  0.28121776378E+04  0.27735362686E+04 0.  0.
        4    1    3    3  502    0 -0.11155205420E+04 -0.76505588904E+03  0.77625149312E+02  0.13548888772E+04  0.12699999809E+01 0.  1.
       -4    1    3    3    0  502  0.11155205420E+04  0.76505588904E+03 -0.54221059186E+03  0.14572887606E+04  0.12699999809E+01 0. -1.
</event>
<event>
 5   0  0.8055928E-06  0.2870001E+04  0.7818609E-02  0.8281859E-01
       -1   -1    0    0    0  501  0.00000000000E+00  0.00000000000E+00  0.13069396249E+04  0.13069396249E+04  0.50400001928E-02 0. -1.
        1   -1    0    0  501    0  0.00000000000E+00  0.00000000000E+00 -0.15756093982E+04  0.15756093982E+04  0.50400001928E-02 0.  1.
    10030    2    1    2    0    0  0.00000000000E+00  0.00000000000E+00 -0.26866977332E+03  0.28825490231E+04  0.28700009448E+04 0.  0.
        2    1    3    3  502    0  0.10784856748E+04 -0.67877056042E+03 -0.79704207819E+03  0.15030425472E+04  0.25500000920E-02 0.  1.
       -2    1    3    3    0  502 -0.10784856748E+04  0.67877056042E+03  0.52837230488E+03  0.13795064758E+04  0.25500000920E-02 0. -1.
</event>
<event>
 5   0  0.8122088E-06  0.2824163E+04  0.7818609E-02  0.8295806E-01
        1   -1    0    0  501    0  0.00000000000E+00  0.00000000000E+00  0.20000272582E+04  0.20000272582E+04  0.50400001928E-02 0. -1.
       -1   -1    0    0    0  501  0.00000000000E+00  0.00000000000E+00 -0.99697346889E+03  0.99697346890E+03  0.50400001928E-02 0.  1.
    10030    2    1    2    0    0  0.00000000000E+00  0.00000000000E+00  0.10030537893E+04  0.29970007271E+04  0.28241629652E+04 0.  0.
        1    1    3    3  502    0 -0.51338350898E+03  0.65624138535E+03  0.17113683633E+04  0.19034172055E+04  0.50400001928E-02 0. -1.
       -1    1    3    3    0  502  0.51338350898E+03 -0.65624138535E+03 -0.70831457397E+03  0.10935835217E+04  0.50400001928E-02 0.  1.
</event>
<event>
 5   0  0.1829810E-05  0.2947947E+04  0.7818609E-02  0.8258753E-01
        2   -1    0    0  501    0  0.00000000000E+00  0.00000000000E+00  0.16420220359E+04  0.16420220359E+04  0.25500000920E-02 0. -1.
       -2   -1    0    0    0  501  0.00000000000E+00  0.00000000000E+00 -0.13231235700E+04  0.13231235700E+04  0.25500000920E-02 0.  1.
    10030    2    1    2    0    0  0.00000000000E+00  0.00000000000E+00  0.31889846582E+03  0.29651456059E+04  0.29479471218E+04 0.  0.
        4    1    3    3  502    0 -0.12383134715E+03  0.29681145233E+03 -0.12874021334E+04  0.13269653751E+04  0.12699999809E+01 0.  1.
       -4    1    3    3    0  502  0.12383134715E+03 -0.29681145233E+03  0.16063005992E+04  0.16381802308E+04  0.12699999809E+01 0. -1.
</event>
<event>
 5   0  0.8234888E-06  0.1527868E+04  0.7818609E-02  0.8866130E-01
       -1   -1    0    0    0  501  0.00000000000E+00  0.00000000000E+00  0.82767032643E+03  0.82767032644E+03  0.50400001928E-02 0. -1.
        1   -1    0    0  501    0  0.00000000000E+00  0.00000000000E+00 -0.70510592524E+03  0.70510592525E+03  0.50400001928E-02 0.  1.
    10030    2    1    2    0    0  0.00000000000E+00  0.00000000000E+00  0.12256440119E+03  0.15327762517E+04  0.15278681243E+04 0.  0.
        3    1    3    3  502    0  0.10820545686E+03  0.63782738212E+03 -0.34630245582E+03  0.73379669622E+03  0.10100000352E+00 0.  1.
       -3    1    3    3    0  502 -0.10820545686E+03 -0.63782738212E+03  0.46886685701E+03  0.79897955548E+03  0.10100000352E+00 0. -1.
</event>
<event>
 5   0  0.7971153E-06  0.2794575E+04  0.7818609E-02  0.8304954E-01
       -1   -1    0    0    0  501  0.00000000000E+00  0.00000000000E+00  0.10231926283E+04  0.10231926283E+04  0.50400001928E-02 0. -1.
        1   -1    0    0  501    0  0.00000000000E+00  0.00000000000E+00 -0.19081575461E+04  0.19081575461E+04  0.50400001928E-02 0.  1.
    10030    2    1    2    0    0  0.00000000000E+00  0.00000000000E+00 -0.88496491780E+03  0.29313501744E+04  0.27945752699E+04 0.  0.
        5    1    3    3  502    0  0.11816646441E+04  0.73864217355E+03 -0.54979836702E+03  0.14980734048E+04  0.46999998093E+01 0.  1.
       -5    1    3    3    0  502 -0.11816646441E+04 -0.73864217355E+03 -0.33516655077E+03  0.14332767696E+04  0.46999998093E+01 0. -1.
</event>
<event>
 5   0  0.8234888E-06  0.1455057E+04  0.7818609E-02  0.8914902E-01
        1   -1    0    0  501    0  0.00000000000E+00  0.00000000000E+00  0.11963318421E+04  0.11963318421E+04  0.50400001928E-02 0. -1.
       -1   -1    0    0    0  501  0.00000000000E+00  0.00000000000E+00 -0.44243378858E+03  0.44243378861E+03  0.50400001928E-02 0.  1.
    10030    2    1    2    0    0  0.00000000000E+00  0.00000000000E+00  0.75389805352E+03  0.16387656307E+04  0.14550568777E+04 0.  0.
        3    1    3    3  502    0  0.31131839800E+02 -0.37760379953E+03 -0.32254877373E+03  0.49758571373E+03  0.10100000352E+00 0.  1.
       -3    1    3    3    0  502 -0.31131839800E+02  0.37760379953E+03  0.10764468273E+04  0.11411799170E+04  0.10100000352E+00 0. -1.
</event>
<event>
 5   0  0.1976233E-05  0.3125243E+04  0.7818609E-02  0.8208844E-01
        2   -1    0    0  501    0  0.00000000000E+00  0.00000000000E+00  0.17920025654E+04  0.17920025654E+04  0.25500000920E-02 0.  1.
       -2   -1    0    0    0  501  0.00000000000E+00  0.00000000000E+00 -0.13626014971E+04  0.13626014971E+04  0.25500000920E-02 0. -1.
    10030    2    1    2    0    0  0.00000000000E+00  0.00000000000E+00  0.42940106832E+03  0.31546040626E+04  0.31252426329E+04 0.  0.
        2    1    3    3  502    0 -0.43948733545E+02 -0.12920836474E+04 -0.67125485069E+03  0.14567068057E+04  0.25500000920E-02 0. -1.
       -2    1    3    3    0  502  0.43948733545E+02  0.12920836474E+04  0.11006559190E+04  0.16978972569E+04  0.25500000920E-02 0.  1.
</event>
<event>
 5   0  0.1976233E-05  0.1903094E+04  0.7818609E-02  0.8653318E-01
        2   -1    0    0  501    0  0.00000000000E+00  0.00000000000E+00  0.25594136742E+04  0.25594136742E+04  0.25500000920E-02 0. -1.
       -2   -1    0    0    0  501  0.00000000000E+00  0.00000000000E+00 -0.35376905993E+03  0.35376905994E+03  0.25500000920E-02 0.  1.
    10030    2    1    2    0    0  0.00000000000E+00  0.00000000000E+00  0.22056446143E+04  0.29131827342E+04  0.19030936598E+04 0.  0.
        2    1    3    3  502    0 -0.11727195899E+03 -0.17700720192E+03 -0.31704232173E+03  0.38157580593E+03  0.25500000920E-02 0.  1.
       -2    1    3    3    0  502  0.11727195899E+03  0.17700720192E+03  0.25226869360E+04  0.25316069282E+04  0.25500000920E-02 0. -1.
</event>
<event>
 5   0  0.1829810E-05  0.2916323E+04  0.7818609E-02  0.8268037E-01
        2   -1    0    0  501    0  0.00000000000E+00  0.00000000000E+00  0.19774426977E+04  0.19774426977E+04  0.25500000920E-02 0. -1.
       -2   -1    0    0    0  501  0.00000000000E+00  0.00000000000E+00 -0.10752448798E+04  0.10752448798E+04  0.25500000920E-02 0.  1.
    10030    2    1    2    0    0  0.00000000000E+00  0.00000000000E+00  0.90219781790E+03  0.30526875775E+04  0.29163231205E+04 0.  0.
        4    1    3    3  502    0  0.72759189126E+03 -0.56681146759E+03  0.16333196686E+04  0.18757398414E+04  0.12699999809E+01 0. -1.
       -4    1    3    3    0  502 -0.72759189126E+03  0.56681146759E+03 -0.73112185066E+03  0.11769477361E+04  0.12699999809E+01 0.  1.
</event>
<event>
 5   0  0.6578125E-06  0.2890873E+04  0.7818609E-02  0.8275598E-01
        3   -1    0    0  501    0  0.00000000000E+00  0.00000000000E+00  0.13072758690E+04  0.13072758729E+04  0.10100000352E+00 0.  1.
       -3   -1    0    0    0  501  0.00000000000E+00  0.00000000000E+00 -0.15981986442E+04  0.15981986473E+04  0.10100000352E+00 0. -1.
    10030    2    1    2    0    0  0.00000000000E+00  0.00000000000E+00 -0.29092277519E+03  0.29054745202E+04  0.28908729004E+04 0.  0.
        5    1    3    3  502    0  0.96412118575E+03 -0.16580735070E+03 -0.12149048711E+04  0.15598197569E+04  0.46999998093E+01 0. -1.
       -5    1    3    3    0  502 -0.96412118575E+03  0.16580735070E+03  0.92398209591E+03  0.13456547633E+04  0.46999998093E+01 0.  1.
</event>
<event>
 5   0  0.8234888E-06  0.2304637E+04  0.7818609E-02  0.8476095E-01
        1   -1    0    0  501    0  0.00000000000E+00  0.00000000000E+00  0.12464445621E+04  0.12464445621E+04  0.50400001928E-02 0. -1.
       -1   -1    0    0    0  501  0.00000000000E+00  0.00000000000E+00 -0.10653006741E+04  0.10653006741E+04  0.50400001928E-02 0.  1.
    10030    2    1    2    0    0  0.00000000000E+00  0.00000000000E+00  0.18114388799E+03  0.23117452361E+04  0.23046372662E+04 0.  0.
        3    1    3    3  502    0  0.42065899900E+03 -0.24225453551E+02  0.11663989746E+04  0.12401723446E+04  0.10100000352E+00 0. -1.
       -3    1    3    3    0  502 -0.42065899900E+03  0.24225453551E+02 -0.98525508663E+03  0.10715728916E+04  0.10100000352E+00 0.  1.
</event>
<event>
 5   0  0.7305460E-06  0.1626772E+04  0.7818609E-02  0.8804268E-01
       -1   -1    0    0    0  501  0.00000000000E+00  0.00000000000E+00  0.86417529850E+03  0.86417529852E+03  0.50400001928E-02 0.  1.
        1   -1    0    0  501    0  0.00000000000E+00  0.00000000000E+00 -0.76558187765E+03  0.76558187767E+03  0.50400001928E-02 0. -1.
    10030    2    1    2    0    0  0.00000000000E+00  0.00000000000E+00  0.98593420850E+02  0.16297571762E+04  0.16267722000E+04 0.  0.
        4    1    3    3  502    0  0.38085633125E+03  0.48335058810E+03 -0.48357775932E+03  0.78264193491E+03  0.12699999809E+01 0. -1.
       -4    1    3    3    0  502 -0.38085633125E+03 -0.48335058810E+03  0.58217118017E+03  0.84711524127E+03  0.12699999809E+01 0.  1.
</event>
<event>
 5   0  0.1960961E-05  0.2967626E+04  0.7818609E-02  0.8253036E-01
        2   -1    0    0  501    0  0.00000000000E+00  0.00000000000E+00  0.20496372259E+04  0.20496372259E+04  0.25500000920E-02 0.  1.
       -2   -1    0    0    0  501  0.00000000000E+00  0.00000000000E+00 -0.10741909311E+04  0.10741909311E+04  0.25500000920E-02 0. -1.
    10030    2    1    2    0    0  0.00000000000E+00  0.00000000000E+00  0.97544629476E+03  0.31238281570E+04  0.29676264726E+04 0.  0.
        5    1    3    3  502    0  0.12464519432E+03  0.59148817452E+03 -0.93869854723E+03  0.11164997705E+04  0.46999998093E+01 0. -1.
       -5    1    3    3    0  502 -0.12464519432E+03 -0.59148817452E+03  0.19141448420E+04  0.20073283865E+04  0.46999998093E+01 0.  1.
</event>
<event>
 5   0  0.7971153E-06  0.1667576E+04  0.7818609E-02  0.8780076E-01
       -1   -1    0    0    0  501  0.00000000000E+00  0.00000000000E+00  0.18228791839E+04  0.18228791839E+04  0.50400001928E-02 0.  1.
        1   -1    0    0  501    0  0.00000000000E+00  0.00000000000E+00 -0.38137621780E+03  0.38137621783E+03  0.50400001928E-02 0. -1.
    10030    2    1    2    0    0  0.00000000000E+00  0.00000000000E+00  0.14415029661E+04  0.22042554018E+04  0.16675764075E+04 0.  0.
        5    1    3    3  502    0  0.48912807615E+03 -0.53879020707E+03  0.12587215957E+04  0.14539406135E+04  0.46999998093E+01 0.  1.
       -5    1    3    3    0  502 -0.48912807615E+03  0.53879020707E+03  0.18278137042E+03  0.75031478826E+03  0.46999998093E+01 0. -1.
</event>
<event>
 5   0  0.8055928E-06  0.2796198E+04  0.7818609E-02  0.8304450E-01
        1   -1    0    0  501    0  0.00000000000E+00  0.00000000000E+00  0.20430449460E+04  0.20430449460E+04  0.50400001928E-02 0.  1.
       -1   -1    0    0    0  501  0.00000000000E+00  0.00000000000E+00 -0.95674876581E+03  0.95674876583E+03  0.50400001928E-02 0. -1.
    10030    2    1    2    0    0  0.00000000000E+00  0.00000000000E+00  0.10862961802E+04  0.29997937118E+04  0.27961979405E+04 0.  0.
        2    1    3    3  502    0  0.94508313793E+03 -0.89691746527E+03  0.10870515892E+04  0.16968571639E+04  0.25500000920E-02 0.  1.
       -2    1    3    3    0  502 -0.94508313793E+03  0.89691746527E+03 -0.75540908467E+00  0.13029365479E+04  0.25500000920E-02 0. -1.
</event>
<event>
 5   0  0.1937947E-05  0.2913396E+04  0.7818609E-02  0.8268903E-01
       -2   -1    0    0    0  501  0.00000000000E+00  0.00000000000E+00  0.16281997848E+04  0.16281997848E+04  0.25500000920E-02 0.  1.
        2   -1    0    0  501    0  0.00000000000E+00  0.00000000000E+00 -0.13032604877E+04  0.13032604877E+04  0.25500000920E-02 0. -1.
    10030    2    1    2    0    0  0.00000000000E+00  0.00000000000E+00  0.32493929708E+03  0.29314602725E+04  0.29133955760E+04 0.  0.
        3    1    3    3  502    0 -0.13352591857E+04 -0.10654437042E+03 -0.41353042433E+03  0.14018830971E+04  0.10100000352E+00 0. -1.
       -3    1    3    3    0  502  0.13352591857E+04  0.10654437042E+03  0.73846972142E+03  0.15295771754E+04  0.10100000352E+00 0.  1.
</event>
<event>
 5   0  0.8234888E-06  0.2591530E+04  0.7818609E-02  0.8371084E-01
        1   -1    0    0  501    0  0.00000000000E+00  0.00000000000E+00  0.16977462516E+04  0.16977462516E+04  0.50400001928E-02 0. -1.
       -1   -1    0    0    0  501  0.00000000000E+00  0.00000000000E+00 -0.98896201946E+03  0.98896201947E+03  0.50400001928E-02 0.  1.
    10030    2    1    2    0    0  0.00000000000E+00  0.00000000000E+00  0.70878423211E+03  0.26867082711E+04  0.25915297116E+04 0.  0.
        3    1    3    3  502    0  0.95905174926E+03 -0.77442135786E+02 -0.54537028031E+03  0.11059865709E+04  0.10100000352E+00 0.  1.
       -3    1    3    3    0  502 -0.95905174926E+03  0.77442135786E+02  0.12541545124E+04  0.15807217002E+04  0.10100000352E+00 0. -1.
</event>
<event>
 5   0  0.8234888E-06  0.2874375E+04  0.7818609E-02  0.8280543E-01
        1   -1    0    0  501    0  0.00000000000E+00  0.00000000000E+00  0.18342921916E+04  0.18342921916E+04  0.50400001928E-02 0.  1.
       -1   -1    0    0    0  501  0.00000000000E+00  0.00000000000E+00 -0.11260514513E+04  0.11260514513E+04  0.50400001928E-02 0. -1.
    10030    2    1    2    0    0  0.00000000000E+00  0.00000000000E+00  0.70824074029E+03  0.29603436429E+04  0.28743746342E+04 0.  0.
        3    1    3    3  502    0 -0.90559231105E+03 -0.10799687360E+04  0.64373809526E+03  0.15494607611E+04  0.10100000352E+00 0.  1.
       -3    1    3    3    0  502  0.90559231105E+03  0.10799687360E+04  0.64502645024E+02  0.14108828818E+04  0.10100000352E+00 0. -1.
</event>
<event>
 5   0  0.8234888E-06  0.2925555E+04  0.7818609E-02  0.8265315E-01
       -1   -1    0    0    0  501  0.00000000000E+00  0.00000000000E+00  0.12711976868E+04  0.12711976868E+04  0.50400001928E-02 0.  1.
        1   -1    0    0  501    0  0.00000000000E+00  0.00000000000E+00 -0.16832298428E+04  0.16832298428E+04  0.50400001928E-02 0. -1.
    10030    2    1    2    0    0  0.00000000000E+00  0.00000000000E+00 -0.41203215600E+03  0.29544275297E+04  0.29255549098E+04 0.  0.
        3    1    3    3  502    0  0.67983754772E+03  0.25253273565E+02  0.11017160889E+04  0.12948340318E+04  0.10100000352E+00 0.  1.
       -3    1    3    3    0  502 -0.67983754772E+03 -0.25253273565E+02 -0.15137482449E+04  0.16595934979E+04  0.10100000352E+00 0. -1.
</event>
<event>
 5   0  0.1960961E-05  0.2909673E+04  0.7818609E-02  0.8270005E-01
        2   -1    0    0  501    0  0.00000000000E+00  0.00000000000E+00  0.22553382929E+04  0.22553382929E+04  0.25500000920E-02 0.  1.
       -2   -1    0    0    0  501  0.00000000000E+00  0.00000000000E+00 -0.93846186291E+03  0.93846186291E+03  0.25500000920E-02 0. -1.
    10030    2    1    2    0    0  0.00000000000E+00  0.00000000000E+00  0.13168764300E+04  0.31938001558E+04  0.29096728173E+04 0.  0.
        5    1    3    3  502    0  0.11115959240E+04  0.56769321051E+03 -0.16194412646E+03  0.12586377834E+04  0.46999998093E+01 0.  1.
       -5    1    3    3    0  502 -0.11115959240E+04 -0.56769321051E+03  0.14788205565E+04  0.19351623725E+04  0.46999998093E+01 0. -1.
</event>
<event>
 5   0  0.7305460E-06  0.2070717E+04  0.7818609E-02  0.8574254E-01
       -1   -1    0    0    0  501  0.00000000000E+00  0.00000000000E+00  0.13908740231E+04  0.13908740231E+04  0.50400001928E-02 0. -1.
        1   -1    0    0  501    0  0.00000000000E+00  0.00000000000E+00 -0.77071465164E+03  0.77071465165E+03  0.50400001928E-02 0.  1.
    10030    2    1    2    0    0  0.00000000000E+00  0.00000000000E+00  0.62015937145E+03  0.21615886747E+04  0.20707167727E+04 0.  0.
        4    1    3    3  502    0  0.26219063188E+02  0.13612950715E+03 -0.76098154148E+03  0.77350707907E+03  0.12699999809E+01 0.  1.
       -4    1    3    3    0  502 -0.26219063188E+02 -0.13612950715E+03  0.13811409129E+04  0.13880815957E+04  0.12699999809E+01 0. -1.
</event>
<event>
 5   0  0.7305460E-06  0.2206550E+04  0.7818609E-02  0.8515707E-01
        1   -1    0    0  501    0  0.00000000000E+00  0.00000000000E+00  0.77432412641E+03  0.77432412642E+03  0.50400001928E-02 0. -1.
       -1   -1    0    0    0  501  0.00000000000E+00  0.00000000000E+00 -0.15719719486E+04  0.15719719486E+04  0.50400001928E-02 0.  1.
    10030    2    1    2    0    0  0.00000000000E+00  0.00000000000E+00 -0.79764782215E+03  0.23462960750E+04  0.22065500727E+04 0.  0.
        4    1    3    3  502    0 -0.50567676906E+02  0.35433519149E+03 -0.15085189351E+04  0.15504004348E+04  0.12699999809E+01 0.  1.
       -4    1    3    3    0  502  0.50567676906E+02 -0.35433519149E+03  0.71087111296E+03  0.79589564015E+03  0.12699999809E+01 0. -1.
</event>
<event>
 5   0  0.1937947E-05  0.2818769E+04  0.7818609E-02  0.8297465E-01
       -2   -1    0    0    0  501  0.00000000000E+00  0.00000000000E+00  0.12738000245E+04  0.12738000245E+04  0.25500000920E-02 0. -1.
        2   -1    0    0  501    0  0.00000000000E+00  0.00000000000E+00 -0.15594009590E+04  0.15594009590E+04  0.25500000920E-02 0.  1.
    10030    2    1    2    0    0  0.00000000000E+00  0.00000000000E+00 -0.28560093457E+03  0.28332009835E+04  0.28187692206E+04 0.  0.
        3    1    3    3  502    0 -0.10609695356E+04  0.91093900943E+03 -0.31948080243E+03  0.14344107598E+04  0.10100000352E+00 0.  1.
       -3    1    3    3    0  502  0.10609695356E+04 -0.91093900943E+03  0.33879867862E+02  0.13987902238E+04  0.10100000352E+00 0. -1.
</event>
<event>
 5   0  0.1829810E-05  0.1531901E+04  0.7818609E-02  0.8863512E-01
       -2   -1    0    0    0  501  0.00000000000E+00  0.00000000000E+00  0.40146269658E+03  0.40146269659E+03  0.25500000920E-02 0. -1.
        2   -1    0    0  501    0  0.00000000000E+00  0.00000000000E+00 -0.14613566052E+04  0.14613566052E+04  0.25500000920E-02 0.  1.
    10030    2    1    2    0    0  0.00000000000E+00  0.00000000000E+00 -0.10598939087E+04  0.18628193018E+04  0.15319009934E+04 0.  0.
        4    1    3    3  502    0 -0.15145718034E+03  0.38604697335E+03 -0.13130352238E+04  0.13769657421E+04  0.12699999809E+01 0.  1.
       -4    1    3    3    0  502  0.15145718034E+03 -0.38604697335E+03  0.25314131518E+03  0.48585355968E+03  0.12699999809E+01 0. -1.
</event>
<event>
 5   0  0.1829810E-05  0.2958164E+04  0.7818609E-02  0.8255779E-01
        2   -1    0    0  501    0  0.00000000000E+00  0.00000000000E+00  0.22960455021E+04  0.22960455021E+04  0.25500000920E-02 0.  1.
       -2   -1    0    0    0  501  0.00000000000E+00  0.00000000000E+00 -0.95280512884E+03  0.95280512885E+03  0.25500000920E-02 0. -1.
    10030    2    1    2    0    0  0.00000000000E+00  0.00000000000E+00  0.13432403732E+04  0.32488506309E+04  0.29581642486E+04 0.  0.
        4    1    3    3  502    0 -0.31426870988E+03  0.11886583016E+04 -0.23137134948E+03  0.12510826088E+04  0.12699999809E+01 0. -1.
       -4    1    3    3    0  502  0.31426870988E+03 -0.11886583016E+04  0.15746117227E+04  0.19977680221E+04  0.12699999809E+01 0.  1.
</event>
<event>
 5   0  0.7971153E-06  0.2873684E+04  0.7818609E-02  0.8280751E-01
        1   -1    0    0  501    0  0.00000000000E+00  0.00000000000E+00  0.11381964945E+04  0.11381964945E+04  0.50400001928E-02 0.  1.
       -1   -1    0    0    0  501  0.00000000000E+00  0.00000000000E+00 -0.18138473200E+04  0.18138473200E+04  0.50400001928E-02 0. -1.
    10030    2    1    2    0    0  0.00000000000E+00  0.00000000000E+00 -0.67565082550E+03  0.29520438145E+04  0.28736838109E+04 0.  0.
        5    1    3    3  502    0 -0.46504638979E+03  0.50188468607E+03 -0.16357396525E+04  0.17730828192E+04  0.46999998093E+01 0. -1.
       -5    1    3    3    0  502  0.46504638979E+03 -0.50188468607E+03  0.96008882704E+03  0.11789609954E+04  0.46999998093E+01 0.  1.
</event>
<event>
 5   0  0.8234888E-06  0.2947988E+04  0.7818609E-02  0.8258741E-01
       -1   -1    0    0    0  501  0.00000000000E+00  0.00000000000E+00  0.17233244628E+04  0.17233244628E+04  0.50400001928E-02 0. -1.
        1   -1    0    0  501    0  0.00000000000E+00  0.00000000000E+00 -0.12607365811E+04  0.12607365811E+04  0.50400001928E-02 0.  1.
    10030    2    1    2    0    0  0.00000000000E+00  0.00000000000E+00  0.46258788163E+03  0.29840610439E+04  0.29479879181E+04 0.  0.
        3    1    3    3  502    0 -0.72087114060E+03 -0.11189533666E+04 -0.40965750599E+03  0.13926704996E+04  0.10100000352E+00 0.  1.
       -3    1    3    3    0  502  0.72087114060E+03  0.11189533666E+04  0.87224538763E+03  0.15913905443E+04  0.10100000352E+00 0. -1.
</event>
<event>
 5   0  0.1829810E-05  0.2085509E+04  0.7818609E-02  0.8567654E-01
       -2   -1    0    0    0  501  0.00000000000E+00  0.00000000000E+00  0.54936707429E+03  0.54936707430E+03  0.25500000920E-02 0.  1.
        2   -1    0    0  501    0  0.00000000000E+00  0.00000000000E+00 -0.19792531732E+04  0.19792531732E+04  0.25500000920E-02 0. -1.
    10030    2    1    2    0    0  0.00000000000E+00  0.00000000000E+00 -0.14298860989E+04  0.25286202475E+04  0.20855085951E+04 0.  0.
        4    1    3    3  502    0  0.12971630585E+03 -0.89068078107E+03 -0.76583482147E+02  0.90333007058E+03  0.12699999809E+01 0.  1.
       -4    1    3    3    0  502 -0.12971630585E+03  0.89068078107E+03 -0.13533026168E+04  0.16252901769E+04  0.12699999809E+01 0. -1.
</event>
<event>
 5   0  0.1960961E-05  0.2778625E+04  0.7818609E-02  0.8309935E-01
        2   -1    0    0  501    0  0.00000000000E+00  0.00000000000E+00  0.26828500951E+04  0.26828500951E+04  0.25500000920E-02 0. -1.
       -2   -1    0    0    0  501  0.00000000000E+00  0.00000000000E+00 -0.71945486475E+03  0.71945486476E+03  0.25500000920E-02 0.  1.
    10030    2    1    2    0    0  0.00000000000E+00  0.00000000000E+00  0.19633952303E+04  0.34023049598E+04  0.27786252373E+04 0.  0.
        5    1    3    3  502    0  0.13191183477E+04  0.56984886715E+02  0.15109786004E+04  0.20065888750E+04  0.46999998093E+01 0. -1.
       -5    1    3    3    0  502 -0.13191183477E+04 -0.56984886715E+02  0.45241662997E+03  0.13957160849E+04  0.46999998093E+01 0.  1.
</event>
<event>
 5   0  0.7971153E-06  0.2867830E+04  0.7818609E-02  0.8282514E-01
       -1   -1    0    0    0  501  0.00000000000E+00  0.00000000000E+00  0.96048742055E+03  0.96048742056E+03  0.50400001928E-02 0.  1.
        1   -1    0    0  501    0  0.00000000000E+00  0.00000000000E+00 -0.21406968928E+04  0.21406968928E+04  0.50400001928E-02 0. -1.
    10030    2    1    2    0    0  0.00000000000E+00  0.00000000000E+00 -0.11802094722E+04  0.31011843133E+04  0.28678301461E+04 0.  0.
        5    1    3    3  502    0  0.32448872720E+03 -0.13941237279E+04 -0.68196671034E+03  0.15855518241E+04  0.46999998093E+01 0.  1.
       -5    1    3    3    0  502 -0.32448872720E+03  0.13941237279E+04 -0.49824276187E+03  0.15156324893E+04  0.46999998093E+01 0. -1.
</event>
<event>
 5   0  0.8234888E-06  0.2999975E+04  0.7818609E-02  0.8243738E-01
        1   -1    0    0  501    0  0.00000000000E+00  0.00000000000E+00  0.20833544030E+04  0.20833544030E+04  0.50400001928E-02 0. -1.
       -1   -1    0    0    0  501  0.00000000000E+00  0.00000000000E+00 -0.10799713694E+04  0.10799713694E+04  0.50400001928E-02 0.  1.
    10030    2    1    2    0    0  0.00000000000E+00  0.00000000000E+00  0.10033830336E+04  0.31633257723E+04  0.29999754049E+04 0.  0.
        3    1    3    3  502    0  0.91898114250E+03  0.11851208014E+04  0.46961397439E+03  0.15714881321E+04  0.10100000352E+00 0.  1.
       -3    1    3    3    0  502 -0.91898114250E+03 -0.11851208014E+04  0.53376905919E+03  0.15918376403E+04  0.10100000352E+00 0. -1.
</event>
<event>
 5   0  0.1976233E-05  0.2979445E+04  0.7818609E-02  0.8249625E-01
       -2   -1    0    0    0  501  0.00000000000E+00  0.00000000000E+00  0.11543057281E+04  0.11543057281E+04  0.25500000920E-02 0. -1.
        2   -1    0    0  501    0  0.00000000000E+00  0.00000000000E+00 -0.19226048370E+04  0.19226048370E+04  0.25500000920E-02 0.  1.
    10030    2    1    2    0    0  0.00000000000E+00  0.00000000000E+00 -0.76829910892E+03  0.30769105652E+04  0.29794454359E+04 0.  0.
        2    1    3    3  502    0 -0.12869529693E+04  0.38224041318E+03 -0.10509637095E+04  0.17049575940E+04  0.25500000920E-02 0. -1.
       -2    1    3    3    0  502  0.12869529693E+04 -0.38224041318E+03  0.28266460059E+03  0.13719529712E+04  0.25500000920E-02 0.  1.
</event>
<event>
 5   0  0.1960961E-05  0.2867488E+04  0.7818609E-02  0.8282617E-01
       -2   -1    0    0    0  501  0.00000000000E+00  0.00000000000E+00  0.10973476698E+04  0.10973476698E+04  0.25500000920E-02 0.  1.
        2   -1    0    0  501    0  0.00000000000E+00  0.00000000000E+00 -0.18732637356E+04  0.18732637356E+04  0.25500000920E-02 0. -1.
    10030    2    1    2    0    0  0.00000000000E+00  0.00000000000E+00 -0.77591606580E+03  0.29706114055E+04  0.28674878171E+04 0.  0.
        5    1    3    3  502    0  0.96466191469E+03 -0.12549515845E+03 -0.14790577305E+04  0.17702981401E+04  0.46999998093E+01 0. -1.
       -5    1    3    3    0  502 -0.96466191469E+03  0.12549515845E+03  0.70314166474E+03  0.12003132654E+04  0.46999998093E+01 0.  1.
</event>
<event>
 5   0  0.1918901E-05  0.2965749E+04  0.7818609E-02  0.8253580E-01
       -2   -1    0    0    0  501  0.00000000000E+00  0.00000000000E+00  0.76485005672E+03  0.76485005672E+03  0.25500000920E-02 0. -1.
        2   -1    0    0  501    0  0.00000000000E+00  0.00000000000E+00 -0.28749639209E+04  0.28749639209E+04  0.25500000920E-02 0.  1.
    10030    2    1    2    0    0  0.00000000000E+00  0.00000000000E+00 -0.21101138642E+04  0.36398139777E+04  0.29657486866E+04 0.  0.
        1    1    3    3  502    0 -0.13757228772E+04  0.29075015520E+03 -0.47710259371E+03  0.14848488046E+04  0.50400001928E-02 0.  1.
       -1    1    3    3    0  502  0.13757228772E+04 -0.29075015520E+03 -0.16330112705E+04  0.21549651731E+04  0.50400001928E-02 0. -1.
</event>
<event>
 5   0  0.1829810E-05  0.2905046E+04  0.7818609E-02  0.8271378E-01
       -2   -1    0    0    0  501  0.00000000000E+00  0.00000000000E+00  0.10330891129E+04  0.10330891129E+04  0.25500000920E-02 0.  1.
        2   -1    0    0  501    0  0.00000000000E+00  0.00000000000E+00 -0.20422462401E+04  0.20422462401E+04  0.25500000920E-02 0. -1.
    10030    2    1    2    0    0  0.00000000000E+00  0.00000000000E+00 -0.10091571272E+04  0.30753353530E+04  0.29050455118E+04 0.  0.
        4    1    3    3  502    0 -0.36066238209E+03  0.10258914599E+04  0.51482782794E+03  0.12031541658E+04  0.12699999809E+01 0.  1.
       -4    1    3    3    0  502  0.36066238209E+03 -0.10258914599E+04 -0.15239849551E+04  0.18721811872E+04  0.12699999809E+01 0. -1.
</event>
<event>
 5   0  0.1960961E-05  0.1758966E+04  0.7818609E-02  0.8728431E-01
       -2   -1    0    0    0  501  0.00000000000E+00  0.00000000000E+00  0.83554893542E+03  0.83554893542E+03  0.25500000920E-02 0. -1.
        2   -1    0    0  501    0  0.00000000000E+00  0.00000000000E+00 -0.92572684212E+03  0.92572684212E+03  0.25500000920E-02 0.  1.
    10030    2    1    2    0    0  0.00000000000E+00  0.00000000000E+00 -0.90177906702E+02  0.17612757775E+04  0.17589656932E+04 0.  0.
        5    1    3    3  502    0 -0.70181204192E+02 -0.32236955662E+02  0.83213430395E+03  0.83572376569E+03  0.46999998093E+01 0. -1.
       -5    1    3    3    0  502  0.70181204192E+02  0.32236955662E+02 -0.92231221065E+03  0.92555201185E+03  0.46999998093E+01 0.  1.
</event>
<event>
 5   0  0.1937947E-05  0.2797494E+04  0.7818609E-02  0.8304047E-01
        2   -1    0    0  501    0  0.00000000000E+00  0.00000000000E+00  0.11146642609E+04  0.11146642609E+04  0.25500000920E-02 0. -1.
       -2   -1    0    0    0  501  0.00000000000E+00  0.00000000000E+00 -0.17552308556E+04  0.17552308556E+04  0.25500000920E-02 0.  1.
    10030    2    1    2    0    0  0.00000000000E+00  0.00000000000E+00 -0.64056659466E+03  0.28698951165E+04  0.27974939530E+04 0.  0.
        3    1    3    3  502    0  0.40763988947E+03  0.38697934932E+03 -0.16342798470E+04  0.17282343374E+04  0.10100000352E+00 0.  1.
       -3    1    3    3    0  502 -0.40763988947E+03 -0.38697934932E+03  0.99371325239E+03  0.11416607791E+04  0.10100000352E+00 0. -1.
</event>
<event>
 5   0  0.7305460E-06  0.2848518E+04  0.7818609E-02  0.8288362E-01
        1   -1    0    0  501    0  0.00000000000E+00  0.00000000000E+00  0.13599052894E+04  0.13599052894E+04  0.50400001928E-02 0.  1.
       -1   -1    0    0    0  501  0.00000000000E+00  0.00000000000E+00 -0.14916585378E+04  0.14916585378E+04  0.50400001928E-02 0. -1.
    10030    2    1    2    0    0  0.00000000000E+00  0.00000000000E+00 -0.13175324844E+03  0.28515638272E+04  0.28485184469E+04 0.  0.
        4    1    3    3  502    0  0.94502917288E+03  0.44417775057E+03 -0.10354877477E+04  0.14705816877E+04  0.12699999809E+01 0.  1.
       -4    1    3    3    0  502 -0.94502917288E+03 -0.44417775057E+03  0.90373449924E+03  0.13809821395E+04  0.12699999809E+01 0. -1.
</event>
<event>
 5   0  0.1960961E-05  0.2558273E+04  0.7818609E-02  0.8382515E-01
       -2   -1    0    0    0  501  0.00000000000E+00  0.00000000000E+00  0.97549572389E+03  0.97549572389E+03  0.25500000920E-02 0. -1.
        2   -1    0    0  501    0  0.00000000000E+00  0.00000000000E+00 -0.16772908812E+04  0.16772908812E+04  0.25500000920E-02 0.  1.
    10030    2    1    2    0    0  0.00000000000E+00  0.00000000000E+00 -0.70179515732E+03  0.26527866051E+04  0.25582729193E+04 0.  0.
        5    1    3    3  502    0 -0.25598988746E+03  0.82054471471E+03  0.63138131619E+03  0.10665312502E+04  0.46999998093E+01 0. -1.
       -5    1    3    3    0  502  0.25598988746E+03 -0.82054471471E+03 -0.13331764735E+04  0.15862553549E+04  0.46999998093E+01 0.  1.
</event>
<event>
 5   0  0.7971153E-06  0.2889737E+04  0.7818609E-02  0.8275937E-01
        1   -1    0    0  501    0  0.00000000000E+00  0.00000000000E+00  0.14430300823E+04  0.14430300824E+04  0.50400001928E-02 0.  1.
       -1   -1    0    0    0  501  0.00000000000E+00  0.00000000000E+00 -0.14467095283E+04  0.14467095283E+04  0.50400001928E-02 0. -1.
    10030    2    1    2    0    0  0.00000000000E+00  0.00000000000E+00 -0.36794459396E+01  0.28897396107E+04  0.28897372682E+04 0.  0.
        5    1    3    3  502    0  0.53852523876E+03  0.13220969715E+04 -0.22471530566E+03  0.14451535882E+04  0.46999998093E+01 0.  1.
       -5    1    3    3    0  502 -0.53852523876E+03 -0.13220969715E+04  0.22103585972E+03  0.14445860224E+04  0.46999998093E+01 0. -1.
</event>
<event>
 5   0  0.7971153E-06  0.2740215E+04  0.7818609E-02  0.8322073E-01
       -1   -1    0    0    0  501  0.00000000000E+00  0.00000000000E+00  0.13308321771E+04  0.13308321771E+04  0.50400001928E-02 0. -1.
        1   -1    0    0  501    0  0.00000000000E+00  0.00000000000E+00 -0.14105414115E+04  0.14105414115E+04  0.50400001928E-02 0.  1.
    10030    2    1    2    0    0  0.00000000000E+00  0.00000000000E+00 -0.79709234435E+02  0.27413735886E+04  0.27402145154E+04 0.  0.
        5    1    3    3  502    0 -0.13422451734E+04  0.24646175863E+03 -0.16158724184E+03  0.13742263390E+04  0.46999998093E+01 0.  1.
       -5    1    3    3    0  502  0.13422451734E+04 -0.24646175863E+03  0.81878007402E+02  0.13671472496E+04  0.46999998093E+01 0. -1.
</event>
<event>
 5   0  0.7971153E-06  0.3119840E+04  0.7818609E-02  0.8210314E-01
       -1   -1    0    0    0  501  0.00000000000E+00  0.00000000000E+00  0.82814715040E+03  0.82814715042E+03  0.50400001928E-02 0.  1.
        1   -1    0    0  501    0  0.00000000000E+00  0.00000000000E+00 -0.29383067782E+04  0.29383067782E+04  0.50400001928E-02 0. -1.
    10030    2    1    2    0    0  0.00000000000E+00  0.00000000000E+00 -0.21101596278E+04  0.37664539286E+04  0.31198399866E+04 0.  0.
        5    1    3    3  502    0 -0.11032555782E+04 -0.86945550603E+02 -0.23822936393E+04  0.26267998540E+04  0.46999998093E+01 0. -1.
       -5    1    3    3    0  502  0.11032555782E+04  0.86945550603E+02  0.27213401145E+03  0.11396540746E+04  0.46999998093E+01 0.  1.
</event>
<event>
 5   0  0.8122088E-06  0.2840036E+04  0.7818609E-02  0.8290946E-01
       -1   -1    0    0    0  501  0.00000000000E+00  0.00000000000E+00  0.16535403205E+04  0.16535403206E+04  0.50400001928E-02 0.  1.
        1   -1    0    0  501    0  0.00000000000E+00  0.00000000000E+00 -0.12194747623E+04  0.12194747623E+04  0.50400001928E-02 0. -1.
    10030    2    1    2    0    0  0.00000000000E+00  0.00000000000E+00  0.43406555823E+03  0.28730150829E+04  0.28400356965E+04 0.  0.
        1    1    3    3  502    0 -0.98926714996E+03 -0.81016306747E+03 -0.40774491504E+03  0.13421138572E+04  0.50400001928E-02 0.  1.
       -1    1    3    3    0  502  0.98926714996E+03  0.81016306747E+03  0.84181047327E+03  0.15309012257E+04  0.50400001928E-02 0. -1.
</event>
<event>
 5   0  0.1937947E-05  0.2888510E+04  0.7818609E-02  0.8276304E-01
        2   -1    0    0  501    0  0.00000000000E+00  0.00000000000E+00  0.27249345291E+04  0.27249345291E+04  0.25500000920E-02 0. -1.
       -2   -1    0    0    0  501  0.00000000000E+00  0.00000000000E+00 -0.76547629953E+03  0.76547629953E+03  0.25500000920E-02 0.  1.
    10030    2    1    2    0    0  0.00000000000E+00  0.00000000000E+00  0.19594582296E+04  0.34904108287E+04  0.28885102041E+04 0.  0.
        3    1    3    3  502    0 -0.11902873183E+03 -0.39518526370E+03 -0.69269924587E+03  0.80633211958E+03  0.10100000352E+00 0.  1.
       -3    1    3    3    0  502  0.11902873183E+03  0.39518526370E+03  0.26521574755E+04  0.26840787091E+04  0.10100000352E+00 0. -1.
</event>
<event>
 5   0  0.1960961E-05  0.2749090E+04  0.7818609E-02  0.8319250E-01
       -2   -1    0    0    0  501  0.00000000000E+00  0.00000000000E+00  0.78113330757E+03  0.78113330757E+03  0.25500000920E-02 0. -1.
        2   -1    0    0  501    0  0.00000000000E+00  0.00000000000E+00 -0.24187604283E+04  0.24187604283E+04  0.25500000920E-02 0.  1.
    10030    2    1    2    0    0  0.00000000000E+00  0.00000000000E+00 -0.16376271207E+04  0.31998937359E+04  0.27490902739E+04 0.  0.
        5    1    3    3  502    0 -0.11162124668E+04  0.51090633089E+03 -0.15385999313E+04  0.19683158763E+04  0.46999998093E+01 0.  1.
       -5    1    3    3    0  502  0.11162124668E+04 -0.51090633089E+03 -0.99027189386E+02  0.12315778596E+04  0.46999998093E+01 0. -1.
</event>
<event>
 5   0  0.7305460E-06  0.1478254E+04  0.7818609E-02  0.8899044E-01
        1   -1    0    0  501    0  0.00000000000E+00  0.00000000000E+00  0.64812047701E+03  0.64812047703E+03  0.50400001928E-02 0. -1.
       -1   -1    0    0    0  501  0.00000000000E+00  0.00000000000E+00 -0.84291232418E+03  0.84291232420E+03  0.50400001928E-02 0.  1.
    10030    2    1    2    0    0  0.00000000000E+00  0.00000000000E+00 -0.19479184717E+03  0.14910328012E+04  0.14782540210E+04 0.  0.
        4    1    3    3  502    0 -0.66147211677E+03 -0.14876544251E+03  0.19947919902E+03  0.70673197316E+03  0.12699999809E+01 0. -1.
       -4    1    3    3    0  502  0.66147211677E+03  0.14876544251E+03 -0.39427104619E+03  0.78430082807E+03  0.12699999809E+01 0.  1.
</event>
<event>
 5   0  0.1829810E-05  0.2919351E+04  0.7818609E-02  0.8267143E-01
        2   -1    0    0  501    0  0.00000000000E+00  0.00000000000E+00  0.15597651830E+04  0.15597651830E+04  0.25500000920E-02 0.  1.
       -2   -1    0    0    0  501  0.00000000000E+00  0.00000000000E+00 -0.13660082965E+04  0.13660082965E+04  0.25500000920E-02 0. -1.
    10030    2    1    2    0    0  0.00000000000E+00  0.00000000000E+00  0.19375688644E+03  0.29257734795E+04  0.29193507365E+04 0.  0.
        4    1    3    3  502    0 -0.96900503240E+03 -0.31679209165E+03 -0.95008374111E+03  0.13935525502E+04  0.12699999809E+01 0. -1.
       -4    1    3    3    0  502  0.96900503240E+03  0.31679209165E+03  0.11438406276E+04  0.15322209293E+04  0.12699999809E+01 0.  1.
</event>
<event>
 5   0  0.1976233E-05  0.1840264E+04  0.7818609E-02  0.8685176E-01
        2   -1    0    0  501    0  0.00000000000E+00  0.00000000000E+00  0.13644263670E+04  0.13644263670E+04  0.25500000920E-02 0.  1.
       -2   -1    0    0    0  501  0.00000000000E+00  0.00000000000E+00 -0.62051197759E+03  0.62051197759E+03  0.25500000920E-02 0. -1.
    10030    2    1    2    0    0  0.00000000000E+00  0.00000000000E+00  0.74391438938E+03  0.19849383446E+04  0.18402640063E+04 0.  0.
        2    1    3    3  502    0 -0.31939141051E+03 -0.66488502067E+03  0.96525480875E+03  0.12148250119E+04  0.25500000920E-02 0.  1.
       -2    1    3    3    0  502  0.31939141051E+03  0.66488502067E+03 -0.22134041937E+03  0.77011333262E+03  0.25500000920E-02 0. -1.
</event>
<event>
 5   0  0.8122088E-06  0.1910277E+04  0.7818609E-02  0.8649758E-01
        1   -1    0    0  501    0  0.00000000000E+00  0.00000000000E+00  0.13777382689E+04  0.13777382689E+04  0.50400001928E-02 0. -1.
       -1   -1    0    0    0  501  0.00000000000E+00  0.00000000000E+00 -0.66216445463E+03  0.66216445465E+03  0.50400001928E-02 0.  1.
    10030    2    1    2    0    0  0.00000000000E+00  0.00000000000E+00  0.71557381427E+03  0.20399027236E+04  0.19102767438E+04 0.  0.
        1    1    3    3  502    0  0.11725863480E+03  0.35781053142E+03 -0.57956504525E+03  0.69113935319E+03  0.50400001928E-02 0.  1.
       -1    1    3    3    0  502 -0.11725863480E+03 -0.35781053142E+03  0.12951388595E+04  0.13487633704E+04  0.50400001928E-02 0. -1.
</event>
<event>
 5   0  0.1960961E-05  0.2948270E+04  0.7818609E-02  0.8258659E-01
       -2   -1    0    0    0  501  0.00000000000E+00  0.00000000000E+00  0.11081246029E+04  0.11081246029E+04  0.25500000920E-02 0. -1.
        2   -1    0    0  501    0  0.00000000000E+00  0.00000000000E+00 -0.19610377406E+04  0.19610377406E+04  0.25500000920E-02 0.  1.
    10030    2    1    2    0    0  0.00000000000E+00  0.00000000000E+00 -0.85291313778E+03  0.30691623435E+04  0.29482701149E+04 0.  0.
        5    1    3    3  502    0  0.50399436292E+03 -0.10064695059E+04 -0.14173598899E+04  0.18099509196E+04  0.46999998093E+01 0.  1.
       -5    1    3    3    0  502 -0.50399436292E+03  0.10064695059E+04  0.56444675207E+03  0.12592114239E+04  0.46999998093E+01 0. -1.
</event>
<event>
 5   0  0.8234888E-06  0.2591454E+04  0.7818609E-02  0.8371110E-01
       -1   -1    0    0    0  501  0.00000000000E+00  0.00000000000E+00  0.10918118485E+04  0.10918118485E+04  0.50400001928E-02 0. -1.
        1   -1    0    0  501    0  0.00000000000E+00  0.00000000000E+00 -0.15377274677E+04  0.15377274677E+04  0.50400001928E-02 0.  1.
    10030    2    1    2    0    0  0.00000000000E+00  0.00000000000E+00 -0.44591561923E+03  0.26295393163E+04  0.25914544712E+04 0.  0.
        3    1    3    3  502    0 -0.66720294385E+03  0.62718685486E+03  0.70724034655E+03  0.11570272413E+04  0.10100000352E+00 0. -1.
       -3    1    3    3    0  502  0.66720294385E+03 -0.62718685486E+03 -0.11531559658E+04  0.14725120749E+04  0.10100000352E+00 0.  1.
</event>
<event>
 5   0  0.1829810E-05  0.2894381E+04  0.7818609E-02  0.8274551E-01
        2   -1    0    0  501    0  0.00000000000E+00  0.00000000000E+00  0.25664754709E+04  0.25664754709E+04  0.25500000920E-02 0.  1.
       -2   -1    0    0    0  501  0.00000000000E+00  0.00000000000E+00 -0.81604520917E+03  0.81604520917E+03  0.25500000920E-02 0. -1.
    10030    2    1    2    0    0  0.00000000000E+00  0.00000000000E+00  0.17504302618E+04  0.33825206801E+04  0.28943807714E+04 0.  0.
        4    1    3    3  502    0 -0.62685658633E+03  0.33773096406E+03  0.23475979328E+04  0.24532079103E+04  0.12699999809E+01 0.  1.
       -4    1    3    3    0  502  0.62685658633E+03 -0.33773096406E+03 -0.59716767107E+03  0.92931276983E+03  0.12699999809E+01 0. -1.
</event>
<event>
 5   0  0.1960961E-05  0.2918314E+04  0.7818609E-02  0.8267449E-01
        2   -1    0    0  501    0  0.00000000000E+00  0.00000000000E+00  0.12131179749E+04  0.12131179749E+04  0.25500000920E-02 0. -1.
       -2   -1    0    0    0  501  0.00000000000E+00  0.00000000000E+00 -0.17550970729E+04  0.17550970729E+04  0.25500000920E-02 0.  1.
    10030    2    1    2    0    0  0.00000000000E+00  0.00000000000E+00 -0.54197909793E+03  0.29682150478E+04  0.29183144497E+04 0.  0.
        5    1    3    3  502    0 -0.98693842836E+03 -0.44361710362E+03 -0.12666428933E+04  0.16659081322E+04  0.46999998093E+01 0.  1.
       -5    1    3    3    0  502  0.98693842836E+03  0.44361710362E+03  0.72466379534E+03  0.13023069155E+04  0.46999998093E+01 0. -1.
</event>
<event>
 5   0  0.8122088E-06  0.2917566E+04  0.7818609E-02  0.8267670E-01
       -1   -1    0    0    0  501  0.00000000000E+00  0.00000000000E+00  0.15179052934E+04  0.15179052934E+04  0.50400001928E-02 0. -1.
        1   -1    0    0  501    0  0.00000000000E+00  0.00000000000E+00 -0.14019637217E+04  0.14019637217E+04  0.50400001928E-02 0.  1.
    10030    2    1    2    0    0  0.00000000000E+00  0.00000000000E+00  0.11594157167E+03  0.29198690151E+04  0.29175662147E+04 0.  0.
        1    1    3    3  502    0  0.19529781123E+02  0.12814538128E+04  0.75532982999E+03  0.14876251002E+04  0.50400001928E-02 0. -1.
       -1    1    3    3    0  502 -0.19529781123E+02 -0.12814538128E+04 -0.63938825832E+03  0.14322439148E+04  0.50400001928E-02 0.  1.
</event>
<event>
 5   0  0.8122088E-06  0.2870639E+04  0.7818609E-02  0.8281667E-01
       -1   -1    0    0    0  501  0.00000000000E+00  0.00000000000E+00  0.12586498631E+04  0.12586498631E+04  0.50400001928E-02 0. -1.
        1   -1    0    0  501    0  0.00000000000E+00  0.00000000000E+00 -0.16367868328E+04  0.16367868328E+04  0.50400001928E-02 0.  1.
    10030    2    1    2    0    0  0.00000000000E+00  0.00000000000E+00 -0.37813696971E+03  0.28954366959E+04  0.28706386210E+04 0.  0.
        1    1    3    3  502    0  0.84118091979E+03  0.74095700070E+03  0.71507843172E+03  0.13296389661E+04  0.50400001928E-02 0. -1.
       -1    1    3    3    0  502 -0.84118091979E+03 -0.74095700070E+03 -0.10932154014E+04  0.15657977298E+04  0.50400001928E-02 0.  1.
</event>
<event>
 5   0  0.8234888E-06  0.2789482E+04  0.7818609E-02  0.8306541E-01
       -1   -1    0    0    0  501  0.00000000000E+00  0.00000000000E+00  0.12270316516E+04  0.12270316516E+04  0.50400001928E-02 0. -1.
        1   -1    0    0  501    0  0.00000000000E+00  0.00000000000E+00 -0.15853730574E+04  0.15853730574E+04  0.50400001928E-02 0.  1.
    10030    2    1    2    0    0  0.00000000000E+00  0.00000000000E+00 -0.35834140586E+03  0.28124047090E+04  0.27894823326E+04 0.  0.
        3    1    3    3  502    0 -0.25397857138E+03 -0.10396650432E+04  0.72254685846E+03  0.12913103770E+04  0.10100000352E+00 0. -1.
       -3    1    3    3    0  502  0.25397857138E+03  0.10396650432E+04 -0.10808882643E+04  0.15210943320E+04  0.10100000352E+00 0.  1.
</event>
<event>
 5   0  0.1829810E-05  0.2810790E+04  0.7818609E-02  0.8299926E-01
       -2   -1    0    0    0  501  0.00000000000E+00  0.00000000000E+00  0.14721068889E+04  0.14721068889E+04  0.25500000920E-02 0.  1.
        2   -1    0    0  501    0  0.00000000000E+00  0.00000000000E+00 -0.13417064214E+04  0.13417064214E+04  0.25500000920E-02 0. -1.
    10030    2    1    2    0    0  0.00000000000E+00  0.00000000000E+00  0.13040046756E+03  0.28138133103E+04  0.28107901137E+04 0.  0.
        4    1    3    3  502    0  0.11303311751E+04  0.74573757528E+03 -0.31118362051E+03  0.13894639093E+04  0.12699999809E+01 0. -1.
       -4    1    3    3    0  502 -0.11303311751E+04 -0.74573757528E+03  0.44158408808E+03  0.14243494011E+04  0.12699999809E+01 0.  1.
</event>
<event>
 5   0  0.1918901E-05  0.2922555E+04  0.7818609E-02  0.8266198E-01
        2   -1    0    0  501    0  0.00000000000E+00  0.00000000000E+00  0.11480025337E+04  0.11480025337E+04  0.25500000920E-02 0. -1.
       -2   -1    0    0    0  501  0.00000000000E+00  0.00000000000E+00 -0.18600410062E+04  0.18600410062E+04  0.25500000920E-02 0.  1.
    10030    2    1    2    0    0  0.00000000000E+00  0.00000000000E+00 -0.71203847251E+03  0.30080435399E+04  0.29225549014E+04 0.  0.
        1    1    3    3  502    0  0.54268844071E+03  0.10638511424E+04  0.51065793374E+03  0.12988693245E+04  0.50400001928E-02 0. -1.
       -1    1    3    3    0  502 -0.54268844071E+03 -0.10638511424E+04 -0.12226964063E+04  0.17091742154E+04  0.50400001928E-02 0.  1.
</event>
<event>
 5   0  0.1960961E-05  0.2889855E+04  0.7818609E-02  0.8275902E-01
       -2   -1    0    0    0  501  0.00000000000E+00  0.00000000000E+00  0.94405228757E+03  0.94405228758E+03  0.25500000920E-02 0. -1.
        2   -1    0    0  501    0  0.00000000000E+00  0.00000000000E+00 -0.22115460935E+04  0.22115460935E+04  0.25500000920E-02 0.  1.
    10030    2    1    2    0    0  0.00000000000E+00  0.00000000000E+00 -0.12674938059E+04  0.31555983811E+04  0.28898547705E+04 0.  0.
        5    1    3    3  502    0  0.13802715764E+04 -0.41892654198E+03 -0.72604144544E+03  0.16148706891E+04  0.46999998093E+01 0. -1.
       -5    1    3    3    0  502 -0.13802715764E+04  0.41892654198E+03 -0.54145236049E+03  0.15407276920E+04  0.46999998093E+01 0.  1.
</event>
<event>
 5   0  0.8055928E-06  0.2755742E+04  0.7818609E-02  0.8317142E-01
        1   -1    0    0  501    0  0.00000000000E+00  0.00000000000E+00  0.12344571879E+04  0.12344571879E+04  0.50400001928E-02 0.  1.
       -1   -1    0    0    0  501  0.00000000000E+00  0.00000000000E+00 -0.15379462086E+04  0.15379462086E+04  0.50400001928E-02 0. -1.
    10030    2    1    2    0    0  0.00000000000E+00  0.00000000000E+00 -0.30348902072E+03  0.27724033965E+04  0.27557421881E+04 0.  0.
        2    1    3    3  502    0  0.86117108363E+02 -0.11681092657E+04 -0.88182713328E+03  0.14661222685E+04  0.25500000920E-02 0. -1.
       -2    1    3    3    0  502 -0.86117108363E+02  0.11681092657E+04  0.57833811256E+03  0.13062811281E+04  0.25500000920E-02 0.  1.
</event>
<event>
 5   0  0.6578125E-06  0.2151933E+04  0.7818609E-02  0.8538705E-01
        3   -1    0    0  501    0  0.00000000000E+00  0.00000000000E+00  0.12255839211E+04  0.12255839253E+04  0.10100000352E+00 0.  1.
       -3   -1    0    0    0  501  0.00000000000E+00  0.00000000000E+00 -0.94461447516E+03  0.94461448056E+03  0.10100000352E+00 0. -1.
    10030    2    1    2    0    0  0.00000000000E+00  0.00000000000E+00  0.28096944595E+03  0.21701984058E+04  0.21519333845E+04 0.  0.
        4    1    3    3  502    0 -0.31237090829E+03  0.10264703358E+04  0.22170258682E+03  0.10956142499E+04  0.12699999809E+01 0.  1.
       -4    1    3    3    0  502  0.31237090829E+03 -0.10264703358E+04  0.59266859136E+02  0.10745841559E+04  0.12699999809E+01 0. -1.
</event>
<event>
 5   0  0.1829810E-05  0.3032445E+04  0.7818609E-02  0.8234526E-01
        2   -1    0    0  501    0  0.00000000000E+00  0.00000000000E+00  0.23920041501E+04  0.23920041501E+04  0.25500000920E-02 0.  1.
       -2   -1    0    0    0  501  0.00000000000E+00  0.00000000000E+00 -0.96109002020E+03  0.96109002021E+03  0.25500000920E-02 0. -1.
    10030    2    1    2    0    0  0.00000000000E+00  0.00000000000E+00  0.14309141299E+04  0.33530941703E+04  0.30324454270E+04 0.  0.
        4    1    3    3  502    0  0.13850848461E+04  0.60232898590E+03  0.86243917182E+03  0.17392708748E+04  0.12699999809E+01 0.  1.
       -4    1    3    3    0  502 -0.13850848461E+04 -0.60232898590E+03  0.56847495803E+03  0.16138232954E+04  0.12699999809E+01 0. -1.
</event>
<event>
 5   0  0.8234888E-06  0.2890135E+04  0.7818609E-02  0.8275819E-01
        1   -1    0    0  501    0  0.00000000000E+00  0.00000000000E+00  0.12774086722E+04  0.12774086722E+04  0.50400001928E-02 0. -1.
       -1   -1    0    0    0  501  0.00000000000E+00  0.00000000000E+00 -0.16347317508E+04  0.16347317508E+04  0.50400001928E-02 0.  1.
    10030    2    1    2    0    0  0.00000000000E+00  0.00000000000E+00 -0.35732307864E+03  0.29121404230E+04  0.28901353015E+04 0.  0.
        3    1    3    3  502    0 -0.11701989529E+04  0.83740282240E+03 -0.44943059134E+02  0.14396627956E+04  0.10100000352E+00 0.  1.
       -3    1    3    3    0  502  0.11701989529E+04 -0.83740282240E+03 -0.31238001950E+03  0.14724776274E+04  0.10100000352E+00 0. -1.
</event>
<event>
 5   0  0.1829810E-05  0.2511396E+04  0.7818609E-02  0.8398937E-01
        2   -1    0    0  501    0  0.00000000000E+00  0.00000000000E+00  0.10004870719E+04  0.10004870719E+04  0.25500000920E-02 0. -1.
       -2   -1    0    0    0  501  0.00000000000E+00  0.00000000000E+00 -0.15760099065E+04  0.15760099065E+04  0.25500000920E-02 0.  1.
    10030    2    1    2    0    0  0.00000000000E+00  0.00000000000E+00 -0.57552283460E+03  0.25764969784E+04  0.25113960553E+04 0.  0.
        4    1    3    3  502    0 -0.28539731745E+03  0.70020246942E+02  0.96471332717E+03  0.10084780019E+04  0.12699999809E+01 0. -1.
       -4    1    3    3    0  502  0.28539731745E+03 -0.70020246942E+02 -0.15402361618E+04  0.15680189765E+04  0.12699999809E+01 0.  1.
</event>
<event>
 5   0  0.8234888E-06  0.2926228E+04  0.7818609E-02  0.8265116E-01
        1   -1    0    0  501    0  0.00000000000E+00  0.00000000000E+00  0.10315949317E+04  0.10315949317E+04  0.50400001928E-02 0. -1.
       -1   -1    0    0    0  501  0.00000000000E+00  0.00000000000E+00 -0.20751390731E+04  0.20751390731E+04  0.50400001928E-02 0.  1.
    10030    2    1    2    0    0  0.00000000000E+00  0.00000000000E+00 -0.10435441414E+04  0.31067340048E+04  0.29262282552E+04 0.  0.
        3    1    3    3  502    0 -0.59536414473E+03 -0.27836376983E+03 -0.19096017251E+04  0.20195354941E+04  0.10100000352E+00 0.  1.
       -3    1    3    3    0  502  0.59536414473E+03  0.27836376983E+03  0.86605758373E+03  0.10871985107E+04  0.10100000352E+00 0. -1.
</event>
<event>
 5   0  0.8234888E-06  0.1602404E+04  0.7818609E-02  0.8819073E-01
       -1   -1    0    0    0  501  0.00000000000E+00  0.00000000000E+00  0.11296793361E+04  0.11296793361E+04  0.50400001928E-02 0. -1.
        1   -1    0    0  501    0  0.00000000000E+00  0.00000000000E+00 -0.56823597678E+03  0.56823597681E+03  0.50400001928E-02 0.  1.
    10030    2    1    2    0    0  0.00000000000E+00  0.00000000000E+00  0.56144335930E+03  0.16979153129E+04  0.16024037457E+04 0.  0.
        3    1    3    3  502    0 -0.15295954002E+03 -0.12949510326E+03  0.11026904338E+04  0.11207550159E+04  0.10100000352E+00 0. -1.
       -3    1    3    3    0  502  0.15295954002E+03  0.12949510326E+03 -0.54124707447E+03  0.57716029704E+03  0.10100000352E+00 0.  1.
</event>
<event>
 5   0  0.1829810E-05  0.2906628E+04  0.7818609E-02  0.8270908E-01
        2   -1    0    0  501    0  0.00000000000E+00  0.00000000000E+00  0.18072735753E+04  0.18072735753E+04  0.25500000920E-02 0. -1.
       -2   -1    0    0    0  501  0.00000000000E+00  0.00000000000E+00 -0.11686782210E+04  0.11686782210E+04  0.25500000920E-02 0.  1.
    10030    2    1    2    0    0  0.00000000000E+00  0.00000000000E+00  0.63859535432E+03  0.29759517962E+04  0.29066277827E+04 0.  0.
        4    1    3    3  502    0 -0.45528300142E+03 -0.13421302631E+04  0.64872205470E+03  0.15586655099E+04  0.12699999809E+01 0.  1.
       -4    1    3    3    0  502  0.45528300142E+03  0.13421302631E+04 -0.10126700375E+02  0.14172862864E+04  0.12699999809E+01 0. -1.
</event>
<event>
 5   0  0.1918901E-05  0.2846262E+04  0.7818609E-02  0.8289048E-01
        2   -1    0    0  501    0  0.00000000000E+00  0.00000000000E+00  0.14531105478E+04  0.14531105478E+04  0.25500000920E-02 0.  1.
       -2   -1    0    0    0  501  0.00000000000E+00  0.00000000000E+00 -0.13937701526E+04  0.13937701526E+04  0.25500000920E-02 0. -1.
    10030    2    1    2    0    0  0.00000000000E+00  0.00000000000E+00  0.59340395187E+02  0.28468807004E+04  0.28462621875E+04 0.  0.
        1    1    3    3  502    0  0.11047376036E+03 -0.17605365704E+03 -0.13785074587E+04  0.13940882883E+04  0.50400001928E-02 0. -1.
       -1    1    3    3    0  502 -0.11047376036E+03  0.17605365704E+03  0.14378478539E+04  0.14527924121E+04  0.50400001928E-02 0.  1.
</event>
<event>
 5   0  0.1829810E-05  0.2792180E+04  0.7818609E-02  0.8305700E-01
        2   -1    0    0  501    0  0.00000000000E+00  0.00000000000E+00  0.11302832320E+04  0.11302832320E+04  0.25500000920E-02 0.  1.
       -2   -1    0    0    0  501  0.00000000000E+00  0.00000000000E+00 -0.17244056634E+04  0.17244056634E+04  0.25500000920E-02 0. -1.
    10030    2    1    2    0    0  0.00000000000E+00  0.00000000000E+00 -0.59412243142E+03  0.28546888954E+04  0.27921796551E+04 0.  0.
        4    1    3    3  502    0  0.26248025126E+03  0.99369812477E+03 -0.12630593918E+04  0.16283895374E+04  0.12699999809E+01 0. -1.
       -4    1    3    3    0  502 -0.26248025126E+03 -0.99369812477E+03  0.66893696041E+03  0.12262993580E+04  0.12699999809E+01 0.  1.
</event>
<event>
 5   0  0.1829810E-05  0.3006633E+04  0.7818609E-02  0.8241839E-01
       -2   -1    0    0    0  501  0.00000000000E+00  0.00000000000E+00  0.23070855488E+04  0.23070855488E+04  0.25500000920E-02 0. -1.
        2   -1    0    0  501    0  0.00000000000E+00  0.00000000000E+00 -0.97957347486E+03  0.97957347486E+03  0.25500000920E-02 0.  1.
    10030    2    1    2    0    0  0.00000000000E+00  0.00000000000E+00  0.13275120739E+04  0.32866590236E+04  0.30066325401E+04 0.  0.
        4    1    3    3  502    0  0.23576879216E+03 -0.76632712197E+03  0.20538514721E+04  0.22048019556E+04  0.12699999809E+01 0. -1.
       -4    1    3    3    0  502 -0.23576879216E+03  0.76632712197E+03 -0.72633939821E+03  0.10818570680E+04  0.12699999809E+01 0.  1.
</event>
<event>
 5   0  0.8122088E-06  0.2705966E+04  0.7818609E-02  0.8333072E-01
        1   -1    0    0  501    0  0.00000000000E+00  0.00000000000E+00  0.90546080124E+03  0.90546080126E+03  0.50400001928E-02 0. -1.
       -1   -1    0    0    0  501  0.00000000000E+00  0.00000000000E+00 -0.20216919728E+04  0.20216919728E+04  0.50400001928E-02 0.  1.
    10030    2    1    2    0    0  0.00000000000E+00  0.00000000000E+00 -0.11162311715E+04  0.29271527740E+04  0.27059658782E+04 0.  0.
        1    1    3    3  502    0 -0.87219287143E+03  0.52325160464E+03 -0.15232622147E+04  0.18316223468E+04  0.50400001928E-02 0.  1.
       -1    1    3    3    0  502  0.87219287143E+03 -0.52325160464E+03  0.40703104318E+03  0.10955304272E+04  0.50400001928E-02 0. -1.
</event>
<event>
 5   0  0.8234888E-06  0.2821543E+04  0.7818609E-02  0.8296611E-01
        1   -1    0    0  501    0  0.00000000000E+00  0.00000000000E+00  0.12127981137E+04  0.12127981137E+04  0.50400001928E-02 0. -1.
       -1   -1    0    0    0  501  0.00000000000E+00  0.00000000000E+00 -0.16410613001E+04  0.16410613001E+04  0.50400001928E-02 0.  1.
    10030    2    1    2    0    0  0.00000000000E+00  0.00000000000E+00 -0.42826318636E+03  0.28538594138E+04  0.28215428753E+04 0.  0.
        3    1    3    3  502    0 -0.10454653032E+04  0.94276397644E+03 -0.12102058967E+03  0.14129570442E+04  0.10100000352E+00 0. -1.
       -3    1    3    3    0  502  0.10454653032E+04 -0.94276397644E+03 -0.30724259669E+03  0.14409023696E+04  0.10100000352E+00 0.  1.
</event>
<event>
 5   0  0.1976233E-05  0.2595342E+04  0.7818609E-02  0.8369785E-01
       -2   -1    0    0    0  501  0.00000000000E+00  0.00000000000E+00  0.81540187073E+03  0.81540187073E+03  0.25500000920E-02 0. -1.
        2   -1    0    0  501    0  0.00000000000E+00  0.00000000000E+00 -0.20651773583E+04  0.20651773583E+04  0.25500000920E-02 0.  1.
    10030    2    1    2    0    0  0.00000000000E+00  0.00000000000E+00 -0.12497754876E+04  0.28805792291E+04  0.25953415817E+04 0.  0.
        2    1    3    3  502    0  0.50248106136E+03 -0.47679056756E+02 -0.19517631000E+04  0.20159711575E+04  0.25500000920E-02 0.  1.
       -2    1    3    3    0  502 -0.50248106136E+03  0.47679056756E+02  0.70198761237E+03  0.86460807156E+03  0.25500000920E-02 0. -1.
</event>
<event>
 5   0  0.8055928E-06  0.2665264E+04  0.7818609E-02  0.8346364E-01
        1   -1    0    0  501    0  0.00000000000E+00  0.00000000000E+00  0.15655367391E+04  0.15655367391E+04  0.50400001928E-02 0.  1.
       -1   -1    0    0    0  501  0.00000000000E+00  0.00000000000E+00 -0.11343767148E+04  0.11343767148E+04  0.50400001928E-02 0. -1.
    10030    2    1    2    0    0  0.00000000000E+00  0.00000000000E+00  0.43116002436E+03  0.26999134539E+04  0.26652642819E+04 0.  0.
        2    1    3    3  502    0 -0.20698018744E+03  0.26433324633E+03 -0.10908351805E+04  0.11413300373E+04  0.25500000920E-02 0. -1.
       -2    1    3    3    0  502  0.20698018744E+03 -0.26433324633E+03  0.15219952048E+04  0.15585834166E+04  0.25500000920E-02 0.  1.
</event>
<event>
 5   0  0.7305460E-06  0.2899009E+04  0.7818609E-02  0.8273172E-01
       -1   -1    0    0    0  501  0.00000000000E+00  0.00000000000E+00  0.11018501893E+04  0.11018501893E+04  0.50400001928E-02 0. -1.
        1   -1    0    0  501    0  0.00000000000E+00  0.00000000000E+00 -0.19068502905E+04  0.19068502905E+04  0.50400001928E-02 0.  1.
    10030    2    1    2    0    0  0.00000000000E+00  0.00000000000E+00 -0.80500010123E+03  0.30087004798E+04  0.28990090401E+04 0.  0.
        4    1    3    3  502    0  0.25958718903E+03 -0.86427707016E+03 -0.15797488839E+04  0.18193318861E+04  0.12699999809E+01 0.  1.
       -4    1    3    3    0  502 -0.25958718903E+03  0.86427707016E+03  0.77474878264E+03  0.11893685938E+04  0.12699999809E+01 0. -1.
</event>
<event>
 5   0  0.7305460E-06  0.2926625E+04  0.7818609E-02  0.8265000E-01
        1   -1    0    0  501    0  0.00000000000E+00  0.00000000000E+00  0.11887753316E+04  0.11887753316E+04  0.50400001928E-02 0. -1.
       -1   -1    0    0    0  501  0.00000000000E+00  0.00000000000E+00 -0.18012516484E+04  0.18012516484E+04  0.50400001928E-02 0.  1.
    10030    2    1    2    0    0  0.00000000000E+00  0.00000000000E+00 -0.61247631680E+03  0.29900269800E+04  0.29266250362E+04 0.  0.
        4    1    3    3  502    0 -0.30782907560E+03  0.13090723017E+04 -0.89567080248E+03  0.16157527132E+04  0.12699999809E+01 0.  1.
       -4    1    3    3    0  502  0.30782907560E+03 -0.13090723017E+04  0.28319448568E+03  0.13742742668E+04  0.12699999809E+01 0. -1.
</event>
<event>
 5   0  0.1976233E-05  0.2954330E+04  0.7818609E-02  0.8256894E-01
        2   -1    0    0  501    0  0.00000000000E+00  0.00000000000E+00  0.13941424307E+04  0.13941424307E+04  0.25500000920E-02 0. -1.
       -2   -1    0    0    0  501  0.00000000000E+00  0.00000000000E+00 -0.15651321062E+04  0.15651321062E+04  0.25500000920E-02 0.  1.
    10030    2    1    2    0    0  0.00000000000E+00  0.00000000000E+00 -0.17098967546E+03  0.29592745369E+04  0.29543304344E+04 0.  0.
        2    1    3    3  502    0 -0.31808165654E+02 -0.73307189117E+03  0.11986845597E+04  0.14054361709E+04  0.25500000920E-02 0. -1.
       -2    1    3    3    0  502  0.31808165654E+02  0.73307189117E+03 -0.13696742351E+04  0.15538383659E+04  0.25500000920E-02 0.  1.
</event>
<event>
 5   0  0.8122088E-06  0.2922887E+04  0.7818609E-02  0.8266100E-01
        1   -1    0    0  501    0  0.00000000000E+00  0.00000000000E+00  0.14684876138E+04  0.14684876138E+04  0.50400001928E-02 0. -1.
       -1   -1    0    0    0  501  0.00000000000E+00  0.00000000000E+00 -0.14544327207E+04  0.14544327208E+04  0.50400001928E-02 0.  1.
    10030    2    1    2    0    0  0.00000000000E+00  0.00000000000E+00  0.14054893079E+02  0.29229203346E+04  0.29228865428E+04 0.  0.
        1    1    3    3  502    0  0.43339949078E+03  0.88929514521E+03 -0.10686873006E+04  0.14562875817E+04  0.50400001928E-02 0.  1.
       -1    1    3    3    0  502 -0.43339949078E+03 -0.88929514521E+03  0.10827421937E+04  0.14666327529E+04  0.50400001928E-02 0. -1.
</event>
<event>
 5   0  0.1976233E-05  0.2878439E+04  0.7818609E-02  0.8279322E-01
        2   -1    0    0  501    0  0.00000000000E+00  0.00000000000E+00  0.10936615144E+04  0.10936615144E+04  0.25500000920E-02 0.  1.
       -2   -1    0    0    0  501  0.00000000000E+00  0.00000000000E+00 -0.18939612549E+04  0.18939612549E+04  0.25500000920E-02 0. -1.
    10030    2    1    2    0    0  0.00000000000E+00  0.00000000000E+00 -0.80029974053E+03  0.29876227693E+04  0.28784388367E+04 0.  0.
        2    1    3    3  502    0  0.82846005694E+03  0.92897313031E+03  0.34976231254E+03  0.12929310956E+04  0.25500000920E-02 0. -1.
       -2    1    3    3    0  502 -0.82846005694E+03 -0.92897313031E+03 -0.11500620531E+04  0.16946916736E+04  0.25500000920E-02 0.  1.
</event>
<event>
 5   0  0.1976233E-05  0.2896305E+04  0.7818609E-02  0.8273978E-01
        2   -1    0    0  501    0  0.00000000000E+00  0.00000000000E+00  0.19882464160E+04  0.19882464160E+04  0.25500000920E-02 0. -1.
       -2   -1    0    0    0  501  0.00000000000E+00  0.00000000000E+00 -0.10547713348E+04  0.10547713348E+04  0.25500000920E-02 0.  1.
    10030    2    1    2    0    0  0.00000000000E+00  0.00000000000E+00  0.93347508115E+03  0.30430177508E+04  0.28963047672E+04 0.  0.
        2    1    3    3  502    0 -0.25148444548E+03  0.75029443674E+03  0.17410048271E+04  0.19124026710E+04  0.25500000920E-02 0. -1.
       -2    1    3    3    0  502  0.25148444548E+03 -0.75029443674E+03 -0.80752974591E+03  0.11306150798E+04  0.25500000920E-02 0.  1.
</event>
<event>
 5   0  0.1976233E-05  0.2912760E+04  0.7818609E-02  0.8269091E-01
        2   -1    0    0  501    0  0.00000000000E+00  0.00000000000E+00  0.21258388386E+04  0.21258388386E+04  0.25500000920E-02 0.  1.
       -2   -1    0    0    0  501  0.00000000000E+00  0.00000000000E+00 -0.99774388314E+03  0.99774388314E+03  0.25500000920E-02 0. -1.
    10030    2    1    2    0    0  0.00000000000E+00  0.00000000000E+00  0.11280949555E+04  0.31235827218E+04  0.29127599955E+04 0.  0.
        2    1    3    3  502    0 -0.11122683284E+04 -0.59084177482E+03  0.13482842488E+04  0.18450217486E+04  0.25500000920E-02 0.  1.
       -2    1    3    3    0  502  0.11122683284E+04  0.59084177482E+03 -0.22018929328E+03  0.12785609732E+04  0.25500000920E-02 0. -1.
</event>
<event>
 5   0  0.1918901E-05  0.1892032E+04  0.7818609E-02  0.8658833E-01
        2   -1    0    0  501    0  0.00000000000E+00  0.00000000000E+00  0.17982601998E+04  0.17982601998E+04  0.25500000920E-02 0. -1.
       -2   -1    0    0    0  501  0.00000000000E+00  0.00000000000E+00 -0.49767316262E+03  0.49767316262E+03  0.25500000920E-02 0.  1.
    10030    2    1    2    0    0  0.00000000000E+00  0.00000000000E+00  0.13005870371E+04  0.22959333624E+04  0.18920315440E+04 0.  0.
        1    1    3    3  502    0 -0.29032139121E+03 -0.65594463328E+03  0.13987195061E+04  0.15719307011E+04  0.50400001928E-02 0. -1.
       -1    1    3    3    0  502  0.29032139121E+03  0.65594463328E+03 -0.98132468965E+02  0.72400266133E+03  0.50400001928E-02 0.  1.
</event>
<event>
 5   0  0.8055928E-06  0.2748635E+04  0.7818609E-02  0.8319395E-01
        1   -1    0    0  501    0  0.00000000000E+00  0.00000000000E+00  0.13689734782E+04  0.13689734783E+04  0.50400001928E-02 0.  1.
       -1   -1    0    0    0  501  0.00000000000E+00  0.00000000000E+00 -0.13796827089E+04  0.13796827089E+04  0.50400001928E-02 0. -1.
    10030    2    1    2    0    0  0.00000000000E+00  0.00000000000E+00 -0.10709230674E+02  0.27486561872E+04  0.27486353246E+04 0.  0.
        2    1    3    3  502    0  0.70023481613E+03  0.83337566129E+03  0.83364236433E+03  0.13710592191E+04  0.25500000920E-02 0.  1.
       -2    1    3    3    0  502 -0.70023481613E+03 -0.83337566129E+03 -0.84435159501E+03  0.13775969681E+04  0.25500000920E-02 0. -1.
</event>
<event>
 5   0  0.1829810E-05  0.1572195E+04  0.7818609E-02  0.8837814E-01
        2   -1    0    0  501    0  0.00000000000E+00  0.00000000000E+00  0.10053802293E+04  0.10053802293E+04  0.25500000920E-02 0. -1.
       -2   -1    0    0    0  501  0.00000000000E+00  0.00000000000E+00 -0.61464274120E+03  0.61464274120E+03  0.25500000920E-02 0.  1.
    10030    2    1    2    0    0  0.00000000000E+00  0.00000000000E+00  0.39073748810E+03  0.16200229705E+04  0.15721954841E+04 0.  0.
        4    1    3    3  502    0  0.74543405254E+03 -0.15971135556E+03  0.39295285353E+03  0.85766730250E+03  0.12699999809E+01 0. -1.
       -4    1    3    3    0  502 -0.74543405254E+03  0.15971135556E+03 -0.22153654316E+01  0.76235566800E+03  0.12699999809E+01 0.  1.
</event>
<event>
 5   0  0.1960961E-05  0.2851916E+04  0.7818609E-02  0.8287329E-01
       -2   -1    0    0    0  501  0.00000000000E+00  0.00000000000E+00  0.10478957861E+04  0.10478957861E+04  0.25500000920E-02 0. -1.
        2   -1    0    0  501    0  0.00000000000E+00  0.00000000000E+00 -0.19404177460E+04  0.19404177460E+04  0.25500000920E-02 0.  1.
    10030    2    1    2    0    0  0.00000000000E+00  0.00000000000E+00 -0.89252195985E+03  0.29883135321E+04  0.28519155523E+04 0.  0.
        5    1    3    3  502    0 -0.14194860196E+04  0.81394473876E+02 -0.55992903064E+03  0.15281060924E+04  0.46999998093E+01 0.  1.
       -5    1    3    3    0  502  0.14194860196E+04 -0.81394473876E+02 -0.33259292921E+03  0.14602074397E+04  0.46999998093E+01 0. -1.
</event>
<event>
 5   0  0.8234888E-06  0.1544583E+04  0.7818609E-02  0.8855335E-01
       -1   -1    0    0    0  501  0.00000000000E+00  0.00000000000E+00  0.78546420702E+03  0.78546420704E+03  0.50400001928E-02 0. -1.
        1   -1    0    0  501    0  0.00000000000E+00  0.00000000000E+00 -0.75933991967E+03  0.75933991968E+03  0.50400001928E-02 0.  1.
    10030    2    1    2    0    0  0.00000000000E+00  0.00000000000E+00  0.26124287357E+02  0.15448041267E+04  0.15445832161E+04 0.  0.
        3    1    3    3  502    0 -0.47875207678E+03  0.45475909746E+03 -0.38752595159E+03  0.76562769091E+03  0.10100000352E+00 0.  1.
       -3    1    3    3    0  502  0.47875207678E+03 -0.45475909746E+03  0.41365023895E+03  0.77917643581E+03  0.10100000352E+00 0. -1.
</event>
<event>
 5   0  0.1960961E-05  0.2922163E+04  0.7818609E-02  0.8266314E-01
       -2   -1    0    0    0  501  0.00000000000E+00  0.00000000000E+00  0.14584131378E+04  0.14584131378E+04  0.25500000920E-02 0. -1.
        2   -1    0    0  501    0  0.00000000000E+00  0.00000000000E+00 -0.14637548550E+04  0.14637548550E+04  0.25500000920E-02 0.  1.
    10030    2    1    2    0    0  0.00000000000E+00  0.00000000000E+00 -0.53417171880E+01  0.29221679929E+04  0.29221631106E+04 0.  0.
        5    1    3    3  502    0  0.91188868720E+03  0.98787028429E+02 -0.11399666374E+04  0.14631629708E+04  0.46999998093E+01 0.  1.
       -5    1    3    3    0  502 -0.91188868720E+03 -0.98787028429E+02  0.11346249202E+04  0.14590050221E+04  0.46999998093E+01 0. -1.
</event>
<event>
 5   0  0.7971153E-06  0.2348976E+04  0.7818609E-02  0.8458857E-01
       -1   -1    0    0    0  501  0.00000000000E+00  0.00000000000E+00  0.12997912324E+04  0.12997912324E+04  0.50400001928E-02 0. -1.
        1   -1    0    0  501    0  0.00000000000E+00  0.00000000000E+00 -0.10612646374E+04  0.10612646374E+04  0.50400001928E-02 0.  1.
    10030    2    1    2    0    0  0.00000000000E+00  0.00000000000E+00  0.23852659497E+03  0.23610558698E+04  0.23489763480E+04 0.  0.
        5    1    3    3  502    0  0.11186394129E+04 -0.27719343715E+03  0.34672337964E+03  0.12035071789E+04  0.46999998093E+01 0. -1.
       -5    1    3    3    0  502 -0.11186394129E+04  0.27719343715E+03 -0.10819678468E+03  0.11575486909E+04  0.46999998093E+01 0.  1.
</event>
<event>
 5   0  0.1937947E-05  0.2908680E+04  0.7818609E-02  0.8270300E-01
       -2   -1    0    0    0  501  0.00000000000E+00  0.00000000000E+00  0.89795747607E+03  0.89795747607E+03  0.25500000920E-02 0.  1.
        2   -1    0    0  501    0  0.00000000000E+00  0.00000000000E+00 -0.23554618896E+04  0.23554618896E+04  0.25500000920E-02 0. -1.
    10030    2    1    2    0    0  0.00000000000E+00  0.00000000000E+00 -0.14575044136E+04  0.32534193657E+04  0.29086798472E+04 0.  0.
        3    1    3    3  502    0  0.12207406230E+03  0.13925578928E+04 -0.11775357135E+04  0.18277609057E+04  0.10100000352E+00 0. -1.
       -3    1    3    3    0  502 -0.12207406230E+03 -0.13925578928E+04 -0.27996870003E+03  0.14256584600E+04  0.10100000352E+00 0.  1.
</event>
<event>
 5   0  0.1976233E-05  0.2888331E+04  0.7818609E-02  0.8276358E-01
       -2   -1    0    0    0  501  0.00000000000E+00  0.00000000000E+00  0.16290547958E+04  0.16290547958E+04  0.25500000920E-02 0.  1.
        2   -1    0    0  501    0  0.00000000000E+00  0.00000000000E+00 -0.12802599125E+04  0.12802599125E+04  0.25500000920E-02 0. -1.
    10030    2    1    2    0    0  0.00000000000E+00  0.00000000000E+00  0.34879488335E+03  0.29093147083E+04  0.28883306946E+04 0.  0.
        2    1    3    3  502    0  0.18096542688E+03 -0.65317971026E+02 -0.12672936858E+04  0.12818144207E+04  0.25500000920E-02 0. -1.
       -2    1    3    3    0  502 -0.18096542688E+03  0.65317971026E+02  0.16160885691E+04  0.16275002876E+04  0.25500000920E-02 0.  1.
</event>
<event>
 5   0  0.8122088E-06  0.3075598E+04  0.7818609E-02  0.8222467E-01
        1   -1    0    0  501    0  0.00000000000E+00  0.00000000000E+00  0.25914674568E+04  0.25914674568E+04  0.50400001928E-02 0.  1.
       -1   -1    0    0    0  501  0.00000000000E+00  0.00000000000E+00 -0.91254321617E+03  0.91254321618E+03  0.50400001928E-02 0. -1.
    10030    2    1    2    0    0  0.00000000000E+00  0.00000000000E+00  0.16789242406E+04  0.35040106729E+04  0.30755981842E+04 0.  0.
        1    1    3    3  502    0  0.36129426019E+03 -0.82451493145E+03 -0.58099021890E+03  0.10714047084E+04  0.50400001928E-02 0. -1.
       -1    1    3    3    0  502 -0.36129426019E+03  0.82451493145E+03  0.22599144595E+04  0.24326059646E+04  0.50400001928E-02 0.  1.
</event>
<event>
 5   0  0.8234888E-06  0.2916243E+04  0.7818609E-02  0.8268061E-01
       -1   -1    0    0    0  501  0.00000000000E+00  0.00000000000E+00  0.17363839453E+04  0.17363839453E+04  0.50400001928E-02 0.  1.
        1   -1    0    0  501    0  0.00000000000E+00  0.00000000000E+00 -0.12244520463E+04  0.12244520463E+04  0.50400001928E-02 0. -1.
    10030    2    1    2    0    0  0.00000000000E+00  0.00000000000E+00  0.51193189900E+03  0.29608359916E+04  0.29162433884E+04 0.  0.
        3    1    3    3  502    0  0.73141626153E+03  0.67077513287E+03 -0.82864338477E+03  0.12928878125E+04  0.10100000352E+00 0. -1.
       -3    1    3    3    0  502 -0.73141626153E+03 -0.67077513287E+03  0.13405752838E+04  0.16679481791E+04  0.10100000352E+00 0.  1.
</event>
<event>
 5   0  0.1829810E-05  0.2993903E+04  0.7818609E-02  0.8245474E-01
        2   -1    0    0  501    0  0.00000000000E+00  0.00000000000E+00  0.19168427652E+04  0.19168427652E+04  0.25500000920E-02 0. -1.
       -2   -1    0    0    0  501  0.00000000000E+00  0.00000000000E+00 -0.11690391323E+04  0.11690391323E+04  0.25500000920E-02 0.  1.
    10030    2    1    2    0    0  0.00000000000E+00  0.00000000000E+00  0.74780363290E+03  0.30858818976E+04  0.29939032737E+04 0.  0.
        4    1    3    3  502    0 -0.71038080576E+03  0.12690570393E+04  0.73935916189E+03  0.16315024491E+04  0.12699999809E+01 0.  1.
       -4    1    3    3    0  502  0.71038080576E+03 -0.12690570393E+04  0.84444710106E+01  0.14543794485E+04  0.12699999809E+01 0. -1.
</event>
<event>
 5   0  0.1829810E-05  0.2765111E+04  0.7818609E-02  0.8314183E-01
        2   -1    0    0  501    0  0.00000000000E+00  0.00000000000E+00  0.16040287153E+04  0.16040287153E+04  0.25500000920E-02 0. -1.
       -2   -1    0    0    0  501  0.00000000000E+00  0.00000000000E+00 -0.11916614994E+04  0.11916614994E+04  0.25500000920E-02 0.  1.
    10030    2    1    2    0    0  0.00000000000E+00  0.00000000000E+00  0.41236721591E+03  0.27956902148E+04  0.27651106770E+04 0.  0.
        4    1    3    3  502    0  0.13612715825E+04  0.96766957919E+02 -0.17700316471E+02  0.13648219955E+04  0.12699999809E+01 0.  1.
       -4    1    3    3    0  502 -0.13612715825E+04 -0.96766957919E+02  0.43006753238E+03  0.14308682192E+04  0.12699999809E+01 0. -1.
</event>
<event>
 5   0  0.1918901E-05  0.2276302E+04  0.7818609E-02  0.8487324E-01
       -2   -1    0    0    0  501  0.00000000000E+00  0.00000000000E+00  0.10466819724E+04  0.10466819724E+04  0.25500000920E-02 0.  1.
        2   -1    0    0  501    0  0.00000000000E+00  0.00000000000E+00 -0.12376136481E+04  0.12376136481E+04  0.25500000920E-02 0. -1.
    10030    2    1    2    0    0  0.00000000000E+00  0.00000000000E+00 -0.19093167574E+03  0.22842956205E+04  0.22763021718E+04 0.  0.
        1    1    3    3  502    0  0.66382849218E+03  0.92038128483E+03 -0.78786597498E+01  0.11348268810E+04  0.50400001928E-02 0.  1.
       -1    1    3    3    0  502 -0.66382849218E+03 -0.92038128483E+03 -0.18305301599E+03  0.11494687395E+04  0.50400001928E-02 0. -1.
</event>
<event>
 5   0  0.1960961E-05  0.2870650E+04  0.7818609E-02  0.8281664E-01
       -2   -1    0    0    0  501  0.00000000000E+00  0.00000000000E+00  0.28379628075E+04  0.28379628075E+04  0.25500000920E-02 0.  1.
        2   -1    0    0  501    0  0.00000000000E+00  0.00000000000E+00 -0.72592820858E+03  0.72592820859E+03  0.25500000920E-02 0. -1.
    10030    2    1    2    0    0  0.00000000000E+00  0.00000000000E+00  0.21120345989E+04  0.35638910161E+04  0.28706495828E+04 0.  0.
        5    1    3    3  502    0 -0.24371453584E+03 -0.12784678265E+04  0.30467466215E+03  0.13366845170E+04  0.46999998093E+01 0. -1.
       -5    1    3    3    0  502  0.24371453584E+03  0.12784678265E+04  0.18073599368E+04  0.22272064990E+04  0.46999998093E+01 0.  1.
</event>
<event>
 5   0  0.8234888E-06  0.2038729E+04  0.7818609E-02  0.8588725E-01
        1   -1    0    0  501    0  0.00000000000E+00  0.00000000000E+00  0.73461435571E+03  0.73461435572E+03  0.50400001928E-02 0. -1.
       -1   -1    0    0    0  501  0.00000000000E+00  0.00000000000E+00 -0.14144884777E+04  0.14144884778E+04  0.50400001928E-02 0.  1.
    10030    2    1    2    0    0  0.00000000000E+00  0.00000000000E+00 -0.67987412204E+03  0.21491028335E+04  0.20387285663E+04 0.  0.
        3    1    3    3  502    0  0.12977590244E+03 -0.80739919866E+03  0.30158955788E+03  0.87160284676E+03  0.10100000352E+00 0. -1.
       -3    1    3    3    0  502 -0.12977590244E+03  0.80739919866E+03 -0.98146367992E+03  0.12774999867E+04  0.10100000352E+00 0.  1.
</event>
<event>
 5   0  0.8122088E-06  0.2737887E+04  0.7818609E-02  0.8322816E-01
        1   -1    0    0  501    0  0.00000000000E+00  0.00000000000E+00  0.11829831942E+04  0.11829831942E+04  0.50400001928E-02 0. -1.
       -1   -1    0    0    0  501  0.00000000000E+00  0.00000000000E+00 -0.15841362834E+04  0.15841362834E+04  0.50400001928E-02 0.  1.
    10030    2    1    2    0    0  0.00000000000E+00  0.00000000000E+00 -0.40115308917E+03  0.27671194776E+04  0.27378872151E+04 0.  0.
        1    1    3    3  502    0  0.71012469656E+03  0.93975641115E+03  0.50442941567E+03  0.12813540621E+04  0.50400001928E-02 0. -1.
       -1    1    3    3    0  502 -0.71012469656E+03 -0.93975641115E+03 -0.90558250484E+03  0.14857654156E+04  0.50400001928E-02 0.  1.
</event>
<event>
 5   0  0.1976233E-05  0.2881339E+04  0.7818609E-02  0.8278451E-01
       -2   -1    0    0    0  501  0.00000000000E+00  0.00000000000E+00  0.12725062822E+04  0.12725062822E+04  0.25500000920E-02 0.  1.
        2   -1    0    0  501    0  0.00000000000E+00  0.00000000000E+00 -0.16310560434E+04  0.16310560434E+04  0.25500000920E-02 0. -1.
    10030    2    1    2    0    0  0.00000000000E+00  0.00000000000E+00 -0.35854976121E+03  0.29035623257E+04  0.28813393149E+04 0.  0.
        2    1    3    3  502    0 -0.10756759257E+04 -0.49971868732E+03 -0.10033421593E+04  0.15535420665E+04  0.25500000920E-02 0. -1.
       -2    1    3    3    0  502  0.10756759257E+04  0.49971868732E+03  0.64479239808E+03  0.13500202592E+04  0.25500000920E-02 0.  1.
</event>
<event>
 5   0  0.7971153E-06  0.2859897E+04  0.7818609E-02  0.8284910E-01
       -1   -1    0    0    0  501  0.00000000000E+00  0.00000000000E+00  0.99680137013E+03  0.99680137014E+03  0.50400001928E-02 0.  1.
        1   -1    0    0  501    0  0.00000000000E+00  0.00000000000E+00 -0.20513147770E+04  0.20513147770E+04  0.50400001928E-02 0. -1.
    10030    2    1    2    0    0  0.00000000000E+00  0.00000000000E+00 -0.10545134069E+04  0.30481161472E+04  0.28598974669E+04 0.  0.
        5    1    3    3  502    0  0.38602565403E+03  0.87170261799E+02 -0.19917772879E+04  0.20307174384E+04  0.46999998093E+01 0. -1.
       -5    1    3    3    0  502 -0.38602565403E+03 -0.87170261799E+02  0.93726388096E+03  0.10173987088E+04  0.46999998093E+01 0.  1.
</event>
<event>
 5   0  0.8234888E-06  0.3089884E+04  0.7818609E-02  0.8218520E-01
        1   -1    0    0  501    0  0.00000000000E+00  0.00000000000E+00  0.18189411611E+04  0.18189411611E+04  0.50400001928E-02 0. -1.
       -1   -1    0    0    0  501  0.00000000000E+00  0.00000000000E+00 -0.13122173764E+04  0.13122173764E+04  0.50400001928E-02 0.  1.
    10030    2    1    2    0    0  0.00000000000E+00  0.00000000000E+00  0.50672378471E+03  0.31311585376E+04  0.30898842686E+04 0.  0.
        3    1    3    3  502    0 -0.27602059001E+03 -0.13082077719E+04  0.10378155957E+04  0.16925295157E+04  0.10100000352E+00 0. -1.
       -3    1    3    3    0  502  0.27602059001E+03  0.13082077719E+04 -0.53109181101E+03  0.14386290219E+04  0.10100000352E+00 0.  1.
</event>
<event>
 5   0  0.8055928E-06  0.2819099E+04  0.7818609E-02  0.8297363E-01
       -1   -1    0    0    0  501  0.00000000000E+00  0.00000000000E+00  0.10886755148E+04  0.10886755149E+04  0.50400001928E-02 0.  1.
        1   -1    0    0  501    0  0.00000000000E+00  0.00000000000E+00 -0.18249965848E+04  0.18249965848E+04  0.50400001928E-02 0. -1.
    10030    2    1    2    0    0  0.00000000000E+00  0.00000000000E+00 -0.73632106999E+03  0.29136720997E+04  0.28190985060E+04 0.  0.
        2    1    3    3  502    0  0.97498901254E+02  0.76190613819E+03  0.85336056267E+03  0.11481425212E+04  0.25500000920E-02 0.  1.
       -2    1    3    3    0  502 -0.97498901254E+02 -0.76190613819E+03 -0.15896816327E+04  0.17655295784E+04  0.25500000920E-02 0. -1.
</event>
<event>
 5   0  0.1976233E-05  0.2260619E+04  0.7818609E-02  0.8493612E-01
       -2   -1    0    0    0  501  0.00000000000E+00  0.00000000000E+00  0.57428699173E+03  0.57428699174E+03  0.25500000920E-02 0.  1.
        2   -1    0    0  501    0  0.00000000000E+00  0.00000000000E+00 -0.22246706338E+04  0.22246706338E+04  0.25500000920E-02 0. -1.
    10030    2    1    2    0    0  0.00000000000E+00  0.00000000000E+00 -0.16503836421E+04  0.27989576256E+04  0.22606188586E+04 0.  0.
        2    1    3    3  502    0  0.10921504010E+04 -0.22494033976E+03 -0.59619071120E+03  0.12644500856E+04  0.25500000920E-02 0.  1.
       -2    1    3    3    0  502 -0.10921504010E+04  0.22494033976E+03 -0.10541929309E+04  0.15345075400E+04  0.25500000920E-02 0. -1.
</event>
<event>
 5   0  0.1937947E-05  0.2956289E+04  0.7818609E-02  0.8256324E-01
       -2   -1    0    0    0  501  0.00000000000E+00  0.00000000000E+00  0.15703026151E+04  0.15703026151E+04  0.25500000920E-02 0.  1.
        2   -1    0    0  501    0  0.00000000000E+00  0.00000000000E+00 -0.13913954009E+04  0.13913954009E+04  0.25500000920E-02 0. -1.
    10030    2    1    2    0    0  0.00000000000E+00  0.00000000000E+00  0.17890721419E+03  0.29616980160E+04  0.29562894558E+04 0.  0.
        3    1    3    3  502    0 -0.34340191475E+03 -0.14151129914E+04 -0.16486545203E+03  0.14654863633E+04  0.10100000352E+00 0.  1.
       -3    1    3    3    0  502  0.34340191475E+03  0.14151129914E+04  0.34377266622E+03  0.14962116527E+04  0.10100000352E+00 0. -1.
</event>
<event>
 5   0  0.7971153E-06  0.3014672E+04  0.7818609E-02  0.8239554E-01
        1   -1    0    0  501    0  0.00000000000E+00  0.00000000000E+00  0.16166349266E+04  0.16166349266E+04  0.50400001928E-02 0. -1.
       -1   -1    0    0    0  501  0.00000000000E+00  0.00000000000E+00 -0.14054268953E+04  0.14054268953E+04  0.50400001928E-02 0.  1.
    10030    2    1    2    0    0  0.00000000000E+00  0.00000000000E+00  0.21120803129E+03  0.30220618219E+04  0.30146722579E+04 0.  0.
        5    1    3    3  502    0  0.21122670282E+03  0.12608422069E+04  0.90612285892E+03  0.15669781479E+04  0.46999998093E+01 0.  1.
       -5    1    3    3    0  502 -0.21122670282E+03 -0.12608422069E+04 -0.69491482764E+03  0.14550836740E+04  0.46999998093E+01 0. -1.
</event>
<event>
 5   0  0.8122088E-06  0.2848448E+04  0.7818609E-02  0.8288383E-01
        1   -1    0    0  501    0  0.00000000000E+00  0.00000000000E+00  0.15884315450E+04  0.15884315450E+04  0.50400001928E-02 0. -1.
       -1   -1    0    0    0  501  0.00000000000E+00  0.00000000000E+00 -0.12769920479E+04  0.12769920479E+04  0.50400001928E-02 0.  1.
    10030    2    1    2    0    0  0.00000000000E+00  0.00000000000E+00  0.31143949706E+03  0.28654235929E+04  0.28484483155E+04 0.  0.
        1    1    3    3  502    0  0.51720574340E+03 -0.11702092335E+04  0.78516670775E+03  0.15011256410E+04  0.50400001928E-02 0. -1.
       -1    1    3    3    0  502 -0.51720574340E+03  0.11702092335E+04 -0.47372721069E+03  0.13642979518E+04  0.50400001928E-02 0.  1.
</event>
<event>
 5   0  0.7971153E-06  0.2901870E+04  0.7818609E-02  0.8272321E-01
        1   -1    0    0  501    0  0.00000000000E+00  0.00000000000E+00  0.24912269766E+04  0.24912269766E+04  0.50400001928E-02 0. -1.
       -1   -1    0    0    0  501  0.00000000000E+00  0.00000000000E+00 -0.84505018519E+03  0.84505018521E+03  0.50400001928E-02 0.  1.
    10030    2    1    2    0    0  0.00000000000E+00  0.00000000000E+00  0.16461767914E+04  0.33362771618E+04  0.29018696166E+04 0.  0.
        5    1    3    3  502    0 -0.20894453753E+03  0.74420438770E+03 -0.58860539547E+03  0.97158447497E+03  0.46999998093E+01 0.  1.
       -5    1    3    3    0  502  0.20894453753E+03 -0.74420438770E+03  0.22347821869E+04  0.23646926869E+04  0.46999998093E+01 0. -1.
</event>
<event>
 5   0  0.1960961E-05  0.2851837E+04  0.7818609E-02  0.8287353E-01
       -2   -1    0    0    0  501  0.00000000000E+00  0.00000000000E+00  0.11028765152E+04  0.11028765152E+04  0.25500000920E-02 0.  1.
        2   -1    0    0  501    0  0.00000000000E+00  0.00000000000E+00 -0.18435824832E+04  0.18435824832E+04  0.25500000920E-02 0. -1.
    10030    2    1    2    0    0  0.00000000000E+00  0.00000000000E+00 -0.74070596801E+03  0.29464589984E+04  0.28518371795E+04 0.  0.
        5    1    3    3  502    0 -0.11053863748E+04 -0.88982470826E+03 -0.51483077569E+03  0.15095495575E+04  0.46999998093E+01 0. -1.
       -5    1    3    3    0  502  0.11053863748E+04  0.88982470826E+03 -0.22587519232E+03  0.14369094409E+04  0.46999998093E+01 0.  1.
</event>
<event>
 5   0  0.1976233E-05  0.2978323E+04  0.7818609E-02  0.8249948E-01
        2   -1    0    0  501    0  0.00000000000E+00  0.00000000000E+00  0.16441915271E+04  0.16441915271E+04  0.25500000920E-02 0.  1.
       -2   -1    0    0    0  501  0.00000000000E+00  0.00000000000E+00 -0.13487493492E+04  0.13487493492E+04  0.25500000920E-02 0. -1.
    10030    2    1    2    0    0  0.00000000000E+00  0.00000000000E+00  0.29544217793E+03  0.29929408762E+04  0.29783231873E+04 0.  0.
        2    1    3    3  502    0  0.21092848369E+03 -0.31828475308E+03 -0.12987204444E+04  0.13536878525E+04  0.25500000920E-02 0. -1.
       -2    1    3    3    0  502 -0.21092848369E+03  0.31828475308E+03  0.15941626223E+04  0.16392530237E+04  0.25500000920E-02 0.  1.
</event>
<event>
 5   0  0.1976233E-05  0.2886905E+04  0.7818609E-02  0.8276784E-01
       -2   -1    0    0    0  501  0.00000000000E+00  0.00000000000E+00  0.27026299657E+04  0.27026299657E+04  0.25500000920E-02 0. -1.
        2   -1    0    0  501    0  0.00000000000E+00  0.00000000000E+00 -0.77093602646E+03  0.77093602646E+03  0.25500000920E-02 0.  1.
    10030    2    1    2    0    0  0.00000000000E+00  0.00000000000E+00  0.19316939392E+04  0.34735659922E+04  0.28869047832E+04 0.  0.
        2    1    3    3  502    0 -0.11484754360E+04 -0.72150114577E+03  0.15601851434E+04  0.20673019644E+04  0.25500000920E-02 0.  1.
       -2    1    3    3    0  502  0.11484754360E+04  0.72150114577E+03  0.37150879582E+03  0.14062640277E+04  0.25500000920E-02 0. -1.
</event>
<event>
 5   0  0.1960961E-05  0.3185761E+04  0.7818609E-02  0.8192588E-01
       -2   -1    0    0    0  501  0.00000000000E+00  0.00000000000E+00  0.26781780265E+04  0.26781780265E+04  0.25500000920E-02 0. -1.
        2   -1    0    0  501    0  0.00000000000E+00  0.00000000000E+00 -0.94738576560E+03  0.94738576561E+03  0.25500000920E-02 0.  1.
    10030    2    1    2    0    0  0.00000000000E+00  0.00000000000E+00  0.17307922608E+04  0.36255637921E+04  0.31857606564E+04 0.  0.
        5    1    3    3  502    0 -0.10634305418E+04 -0.22614585986E+03  0.21902475538E+04  0.24452470026E+04  0.46999998093E+01 0. -1.
       -5    1    3    3    0  502  0.10634305418E+04  0.22614585986E+03 -0.45945529290E+03  0.11803167894E+04  0.46999998093E+01 0.  1.
</event>
<event>
 5   0  0.1918901E-05  0.3021490E+04  0.7818609E-02  0.8237621E-01
       -2   -1    0    0    0  501  0.00000000000E+00  0.00000000000E+00  0.13254153889E+04  0.13254153889E+04  0.25500000920E-02 0.  1.
        2   -1    0    0  501    0  0.00000000000E+00  0.00000000000E+00 -0.17219889259E+04  0.17219889259E+04  0.25500000920E-02 0. -1.
    10030    2    1    2    0    0  0.00000000000E+00  0.00000000000E+00 -0.39657353699E+03  0.30474043148E+04  0.30214901105E+04 0.  0.
        1    1    3    3  502    0  0.72893201994E+03 -0.88406041855E+03  0.79476226270E+03  0.13944718597E+04  0.50400001928E-02 0.  1.
       -1    1    3    3    0  502 -0.72893201994E+03  0.88406041855E+03 -0.11913357997E+04  0.16529324551E+04  0.50400001928E-02 0. -1.
</event>
<event>
 5   0  0.1976233E-05  0.2753713E+04  0.7818609E-02  0.8317784E-01
       -2   -1    0    0    0  501  0.00000000000E+00  0.00000000000E+00  0.14187823577E+04  0.14187823577E+04  0.25500000920E-02 0. -1.
        2   -1    0    0  501    0  0.00000000000E+00  0.00000000000E+00 -0.13361694596E+04  0.13361694596E+04  0.25500000920E-02 0.  1.
    10030    2    1    2    0    0  0.00000000000E+00  0.00000000000E+00  0.82612898086E+02  0.27549518174E+04  0.27537128799E+04 0.  0.
        2    1    3    3  502    0 -0.58151155247E+02  0.12982503807E+04  0.49637156910E+03  0.13911219725E+04  0.25500000920E-02 0. -1.
       -2    1    3    3    0  502  0.58151155247E+02 -0.12982503807E+04 -0.41375867101E+03  0.13638298448E+04  0.25500000920E-02 0.  1.
</event>
<event>
 5   0  0.1918901E-05  0.2865258E+04  0.7818609E-02  0.8283290E-01
        2   -1    0    0  501    0  0.00000000000E+00  0.00000000000E+00  0.12143978444E+04  0.12143978444E+04  0.25500000920E-02 0. -1.
       -2   -1    0    0    0  501  0.00000000000E+00  0.00000000000E+00 -0.16900765819E+04  0.16900765820E+04  0.25500000920E-02 0.  1.
    10030    2    1    2    0    0  0.00000000000E+00  0.00000000000E+00 -0.47567873752E+03  0.29044744264E+04  0.28652576555E+04 0.  0.
        1    1    3    3  502    0  0.12947184148E+03 -0.11965903248E+04 -0.10255426510E+04  0.15812428947E+04  0.50400001928E-02 0.  1.
       -1    1    3    3    0  502 -0.12947184148E+03  0.11965903248E+04  0.54986391343E+03  0.13232315317E+04  0.50400001928E-02 0. -1.
</event>
<event>
 5   0  0.7305460E-06  0.3086746E+04  0.7818609E-02  0.8219385E-01
        1   -1    0    0  501    0  0.00000000000E+00  0.00000000000E+00  0.26220186736E+04  0.26220186736E+04  0.50400001928E-02 0.  1.
       -1   -1    0    0    0  501  0.00000000000E+00  0.00000000000E+00 -0.90846042907E+03  0.90846042908E+03  0.50400001928E-02 0. -1.
    10030    2    1    2    0    0  0.00000000000E+00  0.00000000000E+00  0.17135582445E+04  0.35304791027E+04  0.30867459949E+04 0.  0.
        4    1    3    3  502    0  0.13716154593E+04  0.70703405053E+03  0.88856807816E+03  0.17806686832E+04  0.12699999809E+01 0.  1.
       -4    1    3    3    0  502 -0.13716154593E+04 -0.70703405053E+03  0.82499016638E+03  0.17498104195E+04  0.12699999809E+01 0. -1.
</event>
<event>
 5   0  0.7305460E-06  0.1837848E+04  0.7818609E-02  0.8686427E-01
        1   -1    0    0  501    0  0.00000000000E+00  0.00000000000E+00  0.18071864310E+04  0.18071864310E+04  0.50400001928E-02 0. -1.
       -1   -1    0    0    0  501  0.00000000000E+00  0.00000000000E+00 -0.46725732569E+03  0.46725732572E+03  0.50400001928E-02 0.  1.
    10030    2    1    2    0    0  0.00000000000E+00  0.00000000000E+00  0.13399291053E+04  0.22744437568E+04  0.18378477617E+04 0.  0.
        4    1    3    3  502    0 -0.13457133842E+03  0.19326291538E+03  0.17692058080E+04  0.17848111395E+04  0.12699999809E+01 0. -1.
       -4    1    3    3    0  502  0.13457133842E+03 -0.19326291538E+03 -0.42927670266E+03  0.48963261730E+03  0.12699999809E+01 0.  1.
</event>
<event>
 5   0  0.7305460E-06  0.2809465E+04  0.7818609E-02  0.8300336E-01
        1   -1    0    0  501    0  0.00000000000E+00  0.00000000000E+00  0.16888209927E+04  0.16888209927E+04  0.50400001928E-02 0. -1.
       -1   -1    0    0    0  501  0.00000000000E+00  0.00000000000E+00 -0.11684322664E+04  0.11684322664E+04  0.50400001928E-02 0.  1.
    10030    2    1    2    0    0  0.00000000000E+00  0.00000000000E+00  0.52038872636E+03  0.28572532591E+04  0.28094646750E+04 0.  0.
        4    1    3    3  502    0  0.10051882025E+04  0.89347761398E+03 -0.15237302743E+03  0.13534861364E+04  0.12699999809E+01 0.  1.
       -4    1    3    3    0  502 -0.10051882025E+04 -0.89347761398E+03  0.67276175378E+03  0.15037671227E+04  0.12699999809E+01 0. -1.
</event>
<event>
 5   0  0.1829810E-05  0.2332327E+04  0.7818609E-02  0.8465283E-01
        2   -1    0    0  501    0  0.00000000000E+00  0.00000000000E+00  0.16925132838E+04  0.16925132838E+04  0.25500000920E-02 0.  1.
       -2   -1    0    0    0  501  0.00000000000E+00  0.00000000000E+00 -0.80350188487E+03  0.80350188487E+03  0.25500000920E-02 0. -1.
    10030    2    1    2    0    0  0.00000000000E+00  0.00000000000E+00  0.88901139894E+03  0.24960151687E+04  0.23323272615E+04 0.  0.
        4    1    3    3  502    0  0.78910711588E+03  0.37728003672E+03 -0.38092726583E+03  0.95401124793E+03  0.12699999809E+01 0. -1.
       -4    1    3    3    0  502 -0.78910711588E+03 -0.37728003672E+03  0.12699386648E+04  0.15420039208E+04  0.12699999809E+01 0.  1.
</event>
<event>
 5   0  0.7971153E-06  0.2699589E+04  0.7818609E-02  0.8335138E-01
       -1   -1    0    0    0  501  0.00000000000E+00  0.00000000000E+00  0.11617245039E+04  0.11617245039E+04  0.50400001928E-02 0. -1.
        1   -1    0    0  501    0  0.00000000000E+00  0.00000000000E+00 -0.15683114096E+04  0.15683114096E+04  0.50400001928E-02 0.  1.
    10030    2    1    2    0    0  0.00000000000E+00  0.00000000000E+00 -0.40658690570E+03  0.27300359135E+04  0.26995894461E+04 0.  0.
        5    1    3    3  502    0  0.95287425072E+02 -0.40335078395E+03 -0.15023636941E+04  0.15584897522E+04  0.46999998093E+01 0.  1.
       -5    1    3    3    0  502 -0.95287425072E+02  0.40335078395E+03  0.10957767884E+04  0.11715461614E+04  0.46999998093E+01 0. -1.
</event>
<event>
 5   0  0.8055928E-06  0.2812336E+04  0.7818609E-02  0.8299449E-01
        1   -1    0    0  501    0  0.00000000000E+00  0.00000000000E+00  0.15785943216E+04  0.15785943216E+04  0.50400001928E-02 0.  1.
       -1   -1    0    0    0  501  0.00000000000E+00  0.00000000000E+00 -0.12525756043E+04  0.12525756043E+04  0.50400001928E-02 0. -1.
    10030    2    1    2    0    0  0.00000000000E+00  0.00000000000E+00  0.32601871730E+03  0.28311699259E+04  0.28123362077E+04 0.  0.
        2    1    3    3  502    0  0.80082473144E+03 -0.10725609933E+04 -0.27069054315E+03  0.13656429639E+04  0.25500000920E-02 0. -1.
       -2    1    3    3    0  502 -0.80082473144E+03  0.10725609933E+04  0.59670926045E+03  0.14655269620E+04  0.25500000920E-02 0.  1.
</event>
<event>
 5   0  0.7305460E-06  0.1689231E+04  0.7818609E-02  0.8767530E-01
       -1   -1    0    0    0  501  0.00000000000E+00  0.00000000000E+00  0.32767788615E+03  0.32767788618E+03  0.50400001928E-02 0. -1.
        1   -1    0    0  501    0  0.00000000000E+00  0.00000000000E+00 -0.21770639856E+04  0.21770639856E+04  0.50400001928E-02 0.  1.
    10030    2    1    2    0    0  0.00000000000E+00  0.00000000000E+00 -0.18493860994E+04  0.25047418718E+04  0.16892314523E+04 0.  0.
        4    1    3    3  502    0 -0.81922715750E+03  0.12898843454E+03 -0.68743611963E+03  0.10771913402E+04  0.12699999809E+01 0. -1.
       -4    1    3    3    0  502  0.81922715750E+03 -0.12898843454E+03 -0.11619499798E+04  0.14275505316E+04  0.12699999809E+01 0.  1.
</event>
<event>
 5   0  0.7305460E-06  0.2957700E+04  0.7818609E-02  0.8255914E-01
       -1   -1    0    0    0  501  0.00000000000E+00  0.00000000000E+00  0.22370262424E+04  0.22370262424E+04  0.50400001928E-02 0. -1.
        1   -1    0    0  501    0  0.00000000000E+00  0.00000000000E+00 -0.97763591275E+03  0.97763591276E+03  0.50400001928E-02 0.  1.
    10030    2    1    2    0    0  0.00000000000E+00  0.00000000000E+00  0.12593903297E+04  0.32146621552E+04  0.29576999120E+04 0.  0.
        4    1    3    3  502    0 -0.51775504513E+03  0.12925778226E+04  0.88250596146E+02  0.13952123476E+04  0.12699999809E+01 0.  1.
       -4    1    3    3    0  502  0.51775504513E+03 -0.12925778226E+04  0.11711397335E+04  0.18194498076E+04  0.12699999809E+01 0. -1.
</event>
<event>
 5   0  0.1937947E-05  0.2771103E+04  0.7818609E-02  0.8312296E-01
       -2   -1    0    0    0  501  0.00000000000E+00  0.00000000000E+00  0.16178341980E+04  0.16178341980E+04  0.25500000920E-02 0. -1.
        2   -1    0    0  501    0  0.00000000000E+00  0.00000000000E+00 -0.11866194908E+04  0.11866194908E+04  0.25500000920E-02 0.  1.
    10030    2    1    2    0    0  0.00000000000E+00  0.00000000000E+00  0.43121470717E+03  0.28044536887E+04  0.27711034569E+04 0.  0.
        3    1    3    3  502    0  0.60353564915E+03  0.24032190880E+03  0.14541594557E+04  0.15926674582E+04  0.10100000352E+00 0. -1.
       -3    1    3    3    0  502 -0.60353564915E+03 -0.24032190880E+03 -0.10229447486E+04  0.12117862305E+04  0.10100000352E+00 0.  1.
</event>
<event>
 5   0  0.8055928E-06  0.2841436E+04  0.7818609E-02  0.8290518E-01
        1   -1    0    0  501    0  0.00000000000E+00  0.00000000000E+00  0.19488230304E+04  0.19488230304E+04  0.50400001928E-02 0.  1.
       -1   -1    0    0    0  501  0.00000000000E+00  0.00000000000E+00 -0.10357222875E+04  0.10357222875E+04  0.50400001928E-02 0. -1.
    10030    2    1    2    0    0  0.00000000000E+00  0.00000000000E+00  0.91310074290E+03  0.29845453178E+04  0.28414358672E+04 0.  0.
        2    1    3    3  502    0 -0.90441071430E+03  0.43783153767E+03 -0.59841806519E+03  0.11695124524E+04  0.25500000920E-02 0. -1.
       -2    1    3    3    0  502  0.90441071430E+03 -0.43783153767E+03  0.15115188081E+04  0.18150328655E+04  0.25500000920E-02 0.  1.
</event>
<event>
 5   0  0.1937947E-05  0.1766101E+04  0.7818609E-02  0.8724537E-01
       -2   -1    0    0    0  501  0.00000000000E+00  0.00000000000E+00  0.39220775785E+03  0.39220775785E+03  0.25500000920E-02 0.  1.
        2   -1    0    0  501    0  0.00000000000E+00  0.00000000000E+00 -0.19881767406E+04  0.19881767406E+04  0.25500000920E-02 0. -1.
    10030    2    1    2    0    0  0.00000000000E+00  0.00000000000E+00 -0.15959689827E+04  0.23803844984E+04  0.17661011767E+04 0.  0.
        3    1    3    3  502    0 -0.52827136844E+03 -0.59118998271E+03 -0.13220800034E+04  0.15415809353E+04  0.10100000352E+00 0. -1.
       -3    1    3    3    0  502  0.52827136844E+03  0.59118998271E+03 -0.27388897932E+03  0.83880356316E+03  0.10100000352E+00 0.  1.
</event>
<event>
 5   0  0.7971153E-06  0.2934925E+04  0.7818609E-02  0.8262561E-01
       -1   -1    0    0    0  501  0.00000000000E+00  0.00000000000E+00  0.12063158072E+04  0.12063158072E+04  0.50400001928E-02 0.  1.
        1   -1    0    0  501    0  0.00000000000E+00  0.00000000000E+00 -0.17851432341E+04  0.17851432341E+04  0.50400001928E-02 0. -1.
    10030    2    1    2    0    0  0.00000000000E+00  0.00000000000E+00 -0.57882742695E+03  0.29914590413E+04  0.29349252129E+04 0.  0.
        5    1    3    3  502    0 -0.14468710438E+04 -0.21403209215E+03 -0.41078239735E+03  0.15192135537E+04  0.46999998093E+01 0.  1.
       -5    1    3    3    0  502  0.14468710438E+04  0.21403209215E+03 -0.16804502959E+03  0.14722454876E+04  0.46999998093E+01 0. -1.
</event>
<event>
 5   0  0.1937947E-05  0.3305196E+04  0.7818609E-02  0.8161574E-01
        2   -1    0    0  501    0  0.00000000000E+00  0.00000000000E+00  0.18928887708E+04  0.18928887708E+04  0.25500000920E-02 0. -1.
       -2   -1    0    0    0  501  0.00000000000E+00  0.00000000000E+00 -0.14428111093E+04  0.14428111093E+04  0.25500000920E-02 0.  1.
    10030    2    1    2    0    0  0.00000000000E+00  0.00000000000E+00  0.45007766149E+03  0.33356998801E+04  0.33051964826E+04 0.  0.
        3    1    3    3  502    0  0.10157794287E+04 -0.11010342565E+04  0.92933070315E+03  0.17628782850E+04  0.10100000352E+00 0. -1.
       -3    1    3    3    0  502 -0.10157794287E+04  0.11010342565E+04 -0.47925304166E+03  0.15728215951E+04  0.10100000352E+00 0.  1.
</event>
<event>
 5   0  0.8234888E-06  0.1597943E+04  0.7818609E-02  0.8821813E-01
       -1   -1    0    0    0  501  0.00000000000E+00  0.00000000000E+00  0.54747922576E+03  0.54747922579E+03  0.50400001928E-02 0.  1.
        1   -1    0    0  501    0  0.00000000000E+00  0.00000000000E+00 -0.11659907386E+04  0.11659907386E+04  0.50400001928E-02 0. -1.
    10030    2    1    2    0    0  0.00000000000E+00  0.00000000000E+00 -0.61851151284E+03  0.17134699644E+04  0.15979433117E+04 0.  0.
        3    1    3    3  502    0 -0.16505516828E+02  0.56815280032E+03  0.29284231615E+03  0.63939554966E+03  0.10100000352E+00 0.  1.
       -3    1    3    3    0  502  0.16505516828E+02 -0.56815280032E+03 -0.91135382899E+03  0.10740744147E+04  0.10100000352E+00 0. -1.
</event>
<event>
 5   0  0.7971153E-06  0.3055357E+04  0.7818609E-02  0.8228098E-01
       -1   -1    0    0    0  501  0.00000000000E+00  0.00000000000E+00  0.21870747717E+04  0.21870747717E+04  0.50400001928E-02 0. -1.
        1   -1    0    0  501    0  0.00000000000E+00  0.00000000000E+00 -0.10670883992E+04  0.10670883992E+04  0.50400001928E-02 0.  1.
    10030    2    1    2    0    0  0.00000000000E+00  0.00000000000E+00  0.11199863725E+04  0.32541631709E+04  0.30553573389E+04 0.  0.
        5    1    3    3  502    0  0.33817366512E+03  0.13588713828E+04 -0.90385098337E+02  0.14032406846E+04  0.46999998093E+01 0.  1.
       -5    1    3    3    0  502 -0.33817366512E+03 -0.13588713828E+04  0.12103714708E+04  0.18509224863E+04  0.46999998093E+01 0. -1.
</event>
<event>
 5   0  0.1937947E-05  0.2923291E+04  0.7818609E-02  0.8265981E-01
        2   -1    0    0  501    0  0.00000000000E+00  0.00000000000E+00  0.92949634458E+03  0.92949634459E+03  0.25500000920E-02 0. -1.
       -2   -1    0    0    0  501  0.00000000000E+00  0.00000000000E+00 -0.22984576182E+04  0.22984576182E+04  0.25500000920E-02 0.  1.
    10030    2    1    2    0    0  0.00000000000E+00  0.00000000000E+00 -0.13689612736E+04  0.32279539628E+04  0.29232912645E+04 0.  0.
        3    1    3    3  502    0 -0.91089498599E+03 -0.10746625212E+04 -0.11146710289E+04  0.17964188606E+04  0.10100000352E+00 0.  1.
       -3    1    3    3    0  502  0.91089498599E+03  0.10746625212E+04 -0.25429024471E+03  0.14315351022E+04  0.10100000352E+00 0. -1.
</event>
<event>
 5   0  0.8234888E-06  0.2851980E+04  0.7818609E-02  0.8287310E-01
       -1   -1    0    0    0  501  0.00000000000E+00  0.00000000000E+00  0.18492413123E+04  0.18492413123E+04  0.50400001928E-02 0.  1.
        1   -1    0    0  501    0  0.00000000000E+00  0.00000000000E+00 -0.10996116071E+04  0.10996116071E+04  0.50400001928E-02 0. -1.
    10030    2    1    2    0    0  0.00000000000E+00  0.00000000000E+00  0.74962970519E+03  0.29488529193E+04  0.28519798115E+04 0.  0.
        3    1    3    3  502    0 -0.96034756204E+02  0.14048306616E+04  0.60757305556E+03  0.15335960649E+04  0.10100000352E+00 0. -1.
       -3    1    3    3    0  502  0.96034756204E+02 -0.14048306616E+04  0.14205664963E+03  0.14152568545E+04  0.10100000352E+00 0.  1.
</event>
<event>
 5   0  0.8055928E-06  0.2901111E+04  0.7818609E-02  0.8272547E-01
       -1   -1    0    0    0  501  0.00000000000E+00  0.00000000000E+00  0.22765951629E+04  0.22765951629E+04  0.50400001928E-02 0.  1.
        1   -1    0    0  501    0  0.00000000000E+00  0.00000000000E+00 -0.92423626420E+03  0.92423626421E+03  0.50400001928E-02 0. -1.
    10030    2    1    2    0    0  0.00000000000E+00  0.00000000000E+00  0.13523588987E+04  0.32008314271E+04  0.29011113791E+04 0.  0.
        2    1    3    3  502    0 -0.22707879026E+02  0.12298749978E+04 -0.17201120260E+03  0.12420531437E+04  0.25500000920E-02 0. -1.
       -2    1    3    3    0  502  0.22707879026E+02 -0.12298749978E+04  0.15243701013E+04  0.19587782834E+04  0.25500000920E-02 0.  1.
</event>
<event>
 5   0  0.1976233E-05  0.3009333E+04  0.7818609E-02  0.8241071E-01
       -2   -1    0    0    0  501  0.00000000000E+00  0.00000000000E+00  0.17022997382E+04  0.17022997382E+04  0.25500000920E-02 0.  1.
        2   -1    0    0  501    0  0.00000000000E+00  0.00000000000E+00 -0.13299784180E+04  0.13299784180E+04  0.25500000920E-02 0. -1.
    10030    2    1    2    0    0  0.00000000000E+00  0.00000000000E+00  0.37232132020E+03  0.30322781561E+04  0.30093334230E+04 0.  0.
        2    1    3    3  502    0  0.22770339407E+03 -0.36559970185E+03  0.16388567953E+04  0.16945098327E+04  0.25500000920E-02 0.  1.
       -2    1    3    3    0  502 -0.22770339407E+03  0.36559970185E+03 -0.12665354751E+04  0.13377683235E+04  0.25500000920E-02 0. -1.
</event>
<event>
 5   0  0.1976233E-05  0.2968730E+04  0.7818609E-02  0.8252717E-01
        2   -1    0    0  501    0  0.00000000000E+00  0.00000000000E+00  0.20737952632E+04  0.20737952632E+04  0.25500000920E-02 0.  1.
       -2   -1    0    0    0  501  0.00000000000E+00  0.00000000000E+00 -0.10624671095E+04  0.10624671095E+04  0.25500000920E-02 0. -1.
    10030    2    1    2    0    0  0.00000000000E+00  0.00000000000E+00  0.10113281537E+04  0.31362623727E+04  0.29687298692E+04 0.  0.
        2    1    3    3  502    0  0.12112334279E+04 -0.54658886385E+03  0.12044231920E+04  0.17934550534E+04  0.25500000920E-02 0.  1.
       -2    1    3    3    0  502 -0.12112334279E+04  0.54658886385E+03 -0.19309503834E+03  0.13428073193E+04  0.25500000920E-02 0. -1.
</event>
<event>
 5   0  0.1829810E-05  0.2864414E+04  0.7818609E-02  0.8283545E-01
        2   -1    0    0  501    0  0.00000000000E+00  0.00000000000E+00  0.14314211642E+04  0.14314211642E+04  0.25500000920E-02 0.  1.
       -2   -1    0    0    0  501  0.00000000000E+00  0.00000000000E+00 -0.14329935131E+04  0.14329935131E+04  0.25500000920E-02 0. -1.
    10030    2    1    2    0    0  0.00000000000E+00  0.00000000000E+00 -0.15723489319E+01  0.28644146773E+04  0.28644142457E+04 0.  0.
        4    1    3    3  502    0 -0.11926177975E+04  0.39302158777E+03 -0.68956233078E+03  0.14325854251E+04  0.12699999809E+01 0. -1.
       -4    1    3    3    0  502  0.11926177975E+04 -0.39302158777E+03  0.68798998185E+03  0.14318292522E+04  0.12699999809E+01 0.  1.
</event>
<event>
 5   0  0.1918901E-05  0.1872040E+04  0.7818609E-02  0.8668901E-01
        2   -1    0    0  501    0  0.00000000000E+00  0.00000000000E+00  0.20789590177E+04  0.20789590177E+04  0.25500000920E-02 0. -1.
       -2   -1    0    0    0  501  0.00000000000E+00  0.00000000000E+00 -0.42142875937E+03  0.42142875938E+03  0.25500000920E-02 0.  1.
    10030    2    1    2    0    0  0.00000000000E+00  0.00000000000E+00  0.16575302583E+04  0.25003877771E+04  0.18720396573E+04 0.  0.
        1    1    3    3  502    0  0.19639314684E+03 -0.68542775656E+02 -0.39016710125E+03  0.44215240262E+03  0.50400001928E-02 0.  1.
       -1    1    3    3    0  502 -0.19639314684E+03  0.68542775656E+02  0.20476973596E+04  0.20582353745E+04  0.50400001928E-02 0. -1.
</event>
<event>
 5   0  0.1960961E-05  0.2705333E+04  0.7818609E-02  0.8333277E-01
        2   -1    0    0  501    0  0.00000000000E+00  0.00000000000E+00  0.19969373004E+04  0.19969373004E+04  0.25500000920E-02 0. -1.
       -2   -1    0    0    0  501  0.00000000000E+00  0.00000000000E+00 -0.91625642616E+03  0.91625642616E+03  0.25500000920E-02 0.  1.
    10030    2    1    2    0    0  0.00000000000E+00  0.00000000000E+00  0.10806808742E+04  0.29131937265E+04  0.27053329807E+04 0.  0.
        5    1    3    3  502    0  0.64819360621E+03  0.47898493549E+03  0.17101323126E+04  0.18905438731E+04  0.46999998093E+01 0. -1.
       -5    1    3    3    0  502 -0.64819360621E+03 -0.47898493549E+03 -0.62945143835E+03  0.10226498535E+04  0.46999998093E+01 0.  1.
</event>
<event>
 5   0  0.1829810E-05  0.2615227E+04  0.7818609E-02  0.8363047E-01
        2   -1    0    0  501    0  0.00000000000E+00  0.00000000000E+00  0.20724597675E+04  0.20724597675E+04  0.25500000920E-02 0.  1.
       -2   -1    0    0    0  501  0.00000000000E+00  0.00000000000E+00 -0.82503572338E+03  0.82503572339E+03  0.25500000920E-02 0. -1.
    10030    2    1    2    0    0  0.00000000000E+00  0.00000000000E+00  0.12474240442E+04  0.28974954909E+04  0.26152272127E+04 0.  0.
        4    1    3    3  502    0  0.13725313526E+03  0.64017106711E+03  0.18777793205E+04  0.19886463254E+04  0.12699999809E+01 0.  1.
       -4    1    3    3    0  502 -0.13725313526E+03 -0.64017106711E+03 -0.63035527634E+03  0.90884916549E+03  0.12699999809E+01 0. -1.
</event>
<event>
 5   0  0.1918901E-05  0.2926869E+04  0.7818609E-02  0.8264928E-01
        2   -1    0    0  501    0  0.00000000000E+00  0.00000000000E+00  0.15541870552E+04  0.15541870552E+04  0.25500000920E-02 0.  1.
       -2   -1    0    0    0  501  0.00000000000E+00  0.00000000000E+00 -0.13779808897E+04  0.13779808897E+04  0.25500000920E-02 0. -1.
    10030    2    1    2    0    0  0.00000000000E+00  0.00000000000E+00  0.17620616544E+03  0.29321679449E+04  0.29268686756E+04 0.  0.
        1    1    3    3  502    0  0.14146633574E+04  0.36911657289E+03  0.23794943863E+02  0.14622194290E+04  0.50400001928E-02 0.  1.
       -1    1    3    3    0  502 -0.14146633574E+04 -0.36911657289E+03  0.15241122158E+03  0.14699485159E+04  0.50400001928E-02 0. -1.
</event>
<event>
 5   0  0.8234888E-06  0.2916054E+04  0.7818609E-02  0.8268117E-01
        1   -1    0    0  501    0  0.00000000000E+00  0.00000000000E+00  0.19698431789E+04  0.19698431789E+04  0.50400001928E-02 0. -1.
       -1   -1    0    0    0  501  0.00000000000E+00  0.00000000000E+00 -0.10791936307E+04  0.10791936307E+04  0.50400001928E-02 0.  1.
    10030    2    1    2    0    0  0.00000000000E+00  0.00000000000E+00  0.89064954821E+03  0.30490368096E+04  0.29160536430E+04 0.  0.
        3    1    3    3  502    0 -0.80808292571E+03  0.11746170707E+04  0.12625465549E+03  0.14313153132E+04  0.10100000352E+00 0.  1.
       -3    1    3    3    0  502  0.80808292571E+03 -0.11746170707E+04  0.76439489272E+03  0.16177214964E+04  0.10100000352E+00 0. -1.
</event>
<event>
 5   0  0.1960961E-05  0.2964511E+04  0.7818609E-02  0.8253938E-01
       -2   -1    0    0    0  501  0.00000000000E+00  0.00000000000E+00  0.13889972831E+04  0.13889972831E+04  0.25500000920E-02 0. -1.
        2   -1    0    0  501    0  0.00000000000E+00  0.00000000000E+00 -0.15817751643E+04  0.15817751643E+04  0.25500000920E-02 0.  1.
    10030    2    1    2    0    0  0.00000000000E+00  0.00000000000E+00 -0.19277788111E+03  0.29707724474E+04  0.29645110259E+04 0.  0.
        5    1    3    3  502    0 -0.10985649623E+04  0.20943726340E+03 -0.10712490416E+04  0.15486463582E+04  0.46999998093E+01 0.  1.
       -5    1    3    3    0  502  0.10985649623E+04 -0.20943726340E+03  0.87847116048E+03  0.14221260892E+04  0.46999998093E+01 0. -1.
</event>
<event>
 5   0  0.7305460E-06  0.2854255E+04  0.7818609E-02  0.8286620E-01
       -1   -1    0    0    0  501  0.00000000000E+00  0.00000000000E+00  0.93904576076E+03  0.93904576077E+03  0.50400001928E-02 0.  1.
        1   -1    0    0  501    0  0.00000000000E+00  0.00000000000E+00 -0.21688958883E+04  0.21688958883E+04  0.50400001928E-02 0. -1.
    10030    2    1    2    0    0  0.00000000000E+00  0.00000000000E+00 -0.12298501276E+04  0.31079416491E+04  0.28542547115E+04 0.  0.
        4    1    3    3  502    0  0.45144410748E+03  0.13098270781E+04 -0.98776460155E+03  0.17015079423E+04  0.12699999809E+01 0. -1.
       -4    1    3    3    0  502 -0.45144410748E+03 -0.13098270781E+04 -0.24208552601E+03  0.14064337068E+04  0.12699999809E+01 0.  1.
</event>
<event>
 5   0  0.1918901E-05  0.2966937E+04  0.7818609E-02  0.8253236E-01
       -2   -1    0    0    0  501  0.00000000000E+00  0.00000000000E+00  0.82574615441E+03  0.82574615441E+03  0.25500000920E-02 0. -1.
        2   -1    0    0  501    0  0.00000000000E+00  0.00000000000E+00 -0.26650788114E+04  0.26650788114E+04  0.25500000920E-02 0.  1.
    10030    2    1    2    0    0  0.00000000000E+00  0.00000000000E+00 -0.18393326570E+04  0.34908249658E+04  0.29669368579E+04 0.  0.
        1    1    3    3  502    0 -0.46693989954E+03  0.83694662068E+03  0.41260262819E+03  0.10434334883E+04  0.50400001928E-02 0. -1.
       -1    1    3    3    0  502  0.46693989954E+03 -0.83694662068E+03 -0.22519352852E+04  0.24473914775E+04  0.50400001928E-02 0.  1.
</event>
<event>
 5   0  0.1976233E-05  0.2928360E+04  0.7818609E-02  0.8264489E-01
       -2   -1    0    0    0  501  0.00000000000E+00  0.00000000000E+00  0.11295137996E+04  0.11295137996E+04  0.25500000920E-02 0. -1.
        2   -1    0    0  501    0  0.00000000000E+00  0.00000000000E+00 -0.18980047640E+04  0.18980047640E+04  0.25500000920E-02 0.  1.
    10030    2    1    2    0    0  0.00000000000E+00  0.00000000000E+00 -0.76849096433E+03  0.30275185636E+04  0.29283596587E+04 0.  0.
        2    1    3    3  502    0 -0.10075798571E+04 -0.61873084794E+03  0.50858097232E+03  0.12871284458E+04  0.25500000920E-02 0. -1.
       -2    1    3    3    0  502  0.10075798571E+04  0.61873084794E+03 -0.12770719367E+04  0.17403901178E+04  0.25500000920E-02 0.  1.
</event>
<event>
 5   0  0.7971153E-06  0.2901040E+04  0.7818609E-02  0.8272568E-01
       -1   -1    0    0    0  501  0.00000000000E+00  0.00000000000E+00  0.23240201762E+04  0.23240201762E+04  0.50400001928E-02 0.  1.
        1   -1    0    0  501    0  0.00000000000E+00  0.00000000000E+00 -0.90533127557E+03  0.90533127558E+03  0.50400001928E-02 0. -1.
    10030    2    1    2    0    0  0.00000000000E+00  0.00000000000E+00  0.14186889007E+04  0.32293514518E+04  0.29010399174E+04 0.  0.
        5    1    3    3  502    0  0.24728266211E+03 -0.10573389840E+04  0.17798830568E+04  0.20849748746E+04  0.46999998093E+01 0.  1.
       -5    1    3    3    0  502 -0.24728266211E+03  0.10573389840E+04 -0.36119415613E+03  0.11443765772E+04  0.46999998093E+01 0. -1.
</event>
<event>
 5   0  0.1829810E-05  0.3087274E+04  0.7818609E-02  0.8219239E-01
        2   -1    0    0  501    0  0.00000000000E+00  0.00000000000E+00  0.19815282744E+04  0.19815282744E+04  0.25500000920E-02 0.  1.
       -2   -1    0    0    0  501  0.00000000000E+00  0.00000000000E+00 -0.12025141853E+04  0.12025141853E+04  0.25500000920E-02 0. -1.
    10030    2    1    2    0    0  0.00000000000E+00  0.00000000000E+00  0.77901408902E+03  0.31840424597E+04  0.30872744346E+04 0.  0.
        4    1    3    3  502    0 -0.17414981155E+03  0.10978486748E+04  0.14941601154E+04  0.18622878223E+04  0.12699999809E+01 0.  1.
       -4    1    3    3    0  502  0.17414981155E+03 -0.10978486748E+04 -0.71514602638E+03  0.13217546374E+04  0.12699999809E+01 0. -1.
</event>
<event>
 5   0  0.1960961E-05  0.3086436E+04  0.7818609E-02  0.8219470E-01
        2   -1    0    0  501    0  0.00000000000E+00  0.00000000000E+00  0.16705690583E+04  0.16705690583E+04  0.25500000920E-02 0.  1.
       -2   -1    0    0    0  501  0.00000000000E+00  0.00000000000E+00 -0.14255755159E+04  0.14255755159E+04  0.25500000920E-02 0. -1.
    10030    2    1    2    0    0  0.00000000000E+00  0.00000000000E+00  0.24499354240E+03  0.30961445742E+04  0.30864363575E+04 0.  0.
        5    1    3    3  502    0 -0.14484317313E+04 -0.53099690294E+03  0.16247266494E+03  0.15512355231E+04  0.46999998093E+01 0. -1.
       -5    1    3    3    0  502  0.14484317313E+04  0.53099690294E+03  0.82520877469E+02  0.15449090512E+04  0.46999998093E+01 0.  1.
</event>
<event>
 5   0  0.7305460E-06  0.2880206E+04  0.7818609E-02  0.8278791E-01
       -1   -1    0    0    0  501  0.00000000000E+00  0.00000000000E+00  0.14447054601E+04  0.14447054601E+04  0.50400001928E-02 0.  1.
        1   -1    0    0  501    0  0.00000000000E+00  0.00000000000E+00 -0.14355149071E+04  0.14355149071E+04  0.50400001928E-02 0. -1.
    10030    2    1    2    0    0  0.00000000000E+00  0.00000000000E+00  0.91905530122E+01  0.28802203672E+04  0.28802057040E+04 0.  0.
        4    1    3    3  502    0  0.45553516133E+03 -0.11299858038E+04  0.77239760392E+03  0.14425601795E+04  0.12699999809E+01 0.  1.
       -4    1    3    3    0  502 -0.45553516133E+03  0.11299858038E+04 -0.76320705091E+03  0.14376601877E+04  0.12699999809E+01 0. -1.
</event>
<event>
 5   0  0.1918901E-05  0.2956815E+04  0.7818609E-02  0.8256171E-01
        2   -1    0    0  501    0  0.00000000000E+00  0.00000000000E+00  0.22224808536E+04  0.22224808536E+04  0.25500000920E-02 0.  1.
       -2   -1    0    0    0  501  0.00000000000E+00  0.00000000000E+00 -0.98344533173E+03  0.98344533173E+03  0.25500000920E-02 0. -1.
    10030    2    1    2    0    0  0.00000000000E+00  0.00000000000E+00  0.12390355219E+04  0.32059261853E+04  0.29568147864E+04 0.  0.
        1    1    3    3  502    0  0.38520307530E+03  0.67037134353E+03 -0.74677019447E+03  0.10749162157E+04  0.50400001928E-02 0. -1.
       -1    1    3    3    0  502 -0.38520307530E+03 -0.67037134353E+03  0.19858057163E+04  0.21310099696E+04  0.50400001928E-02 0.  1.
</event>
<event>
 5   0  0.6578125E-06  0.3082111E+04  0.7818609E-02  0.8220665E-01
        3   -1    0    0  501    0  0.00000000000E+00  0.00000000000E+00  0.16118397586E+04  0.16118397618E+04  0.10100000352E+00 0. -1.
       -3   -1    0    0    0  501  0.00000000000E+00  0.00000000000E+00 -0.14733798904E+04  0.14733798939E+04  0.10100000352E+00 0.  1.
    10030    2    1    2    0    0  0.00000000000E+00  0.00000000000E+00  0.13845986816E+03  0.30852196556E+04  0.30821111577E+04 0.  0.
        4    1    3    3  502    0  0.99151770815E+03  0.97017718598E+03 -0.60263963472E+03  0.15124573647E+04  0.12699999809E+01 0.  1.
       -4    1    3    3    0  502 -0.99151770815E+03 -0.97017718598E+03  0.74109950288E+03  0.15727622910E+04  0.12699999809E+01 0. -1.
</event>
<event>
 5   0  0.8234888E-06  0.1538186E+04  0.7818609E-02  0.8859449E-01
       -1   -1    0    0    0  501  0.00000000000E+00  0.00000000000E+00  0.69050494139E+03  0.69050494141E+03  0.50400001928E-02 0.  1.
        1   -1    0    0  501    0  0.00000000000E+00  0.00000000000E+00 -0.85662574506E+03  0.85662574507E+03  0.50400001928E-02 0. -1.
    10030    2    1    2    0    0  0.00000000000E+00  0.00000000000E+00 -0.16612080367E+03  0.15471306865E+04  0.15381863475E+04 0.  0.
        3    1    3    3  502    0 -0.98901504807E+02 -0.17507824601E+03 -0.82971817345E+03  0.85373658551E+03  0.10100000352E+00 0. -1.
       -3    1    3    3    0  502  0.98901504807E+02  0.17507824601E+03  0.66359736978E+03  0.69339410097E+03  0.10100000352E+00 0.  1.
</event>
<event>
 5   0  0.8234888E-06  0.2851488E+04  0.7818609E-02  0.8287459E-01
       -1   -1    0    0    0  501  0.00000000000E+00  0.00000000000E+00  0.93748196267E+03  0.93748196269E+03  0.50400001928E-02 0.  1.
        1   -1    0    0  501    0  0.00000000000E+00  0.00000000000E+00 -0.21683037802E+04  0.21683037802E+04  0.50400001928E-02 0. -1.
    10030    2    1    2    0    0  0.00000000000E+00  0.00000000000E+00 -0.12308218176E+04  0.31057857429E+04  0.28514878107E+04 0.  0.
        3    1    3    3  502    0 -0.22058137165E+02  0.11855321741E+04  0.24688229973E+03  0.12111663707E+04  0.10100000352E+00 0.  1.
       -3    1    3    3    0  502  0.22058137165E+02 -0.11855321741E+04 -0.14777041173E+04  0.18946193723E+04  0.10100000352E+00 0. -1.
</event>
<event>
 5   0  0.8122088E-06  0.2858156E+04  0.7818609E-02  0.8285437E-01
        1   -1    0    0  501    0  0.00000000000E+00  0.00000000000E+00  0.19838779780E+04  0.19838779780E+04  0.50400001928E-02 0. -1.
       -1   -1    0    0    0  501  0.00000000000E+00  0.00000000000E+00 -0.10294300913E+04  0.10294300914E+04  0.50400001928E-02 0.  1.
    10030    2    1    2    0    0  0.00000000000E+00  0.00000000000E+00  0.95444788664E+03  0.30133080693E+04  0.28581558307E+04 0.  0.
        1    1    3    3  502    0 -0.46091422854E+03 -0.13421151164E+04  0.29908807301E+03  0.14502305290E+04  0.50400001928E-02 0.  1.
       -1    1    3    3    0  502  0.46091422854E+03  0.13421151164E+04  0.65535981362E+03  0.15630775403E+04  0.50400001928E-02 0. -1.
</event>
<event>
 5   0  0.1937947E-05  0.2816172E+04  0.7818609E-02  0.8298265E-01
       -2   -1    0    0    0  501  0.00000000000E+00  0.00000000000E+00  0.16864107599E+04  0.16864107599E+04  0.25500000920E-02 0.  1.
        2   -1    0    0  501    0  0.00000000000E+00  0.00000000000E+00 -0.11756958097E+04  0.11756958097E+04  0.25500000920E-02 0. -1.
    10030    2    1    2    0    0  0.00000000000E+00  0.00000000000E+00  0.51071495022E+03  0.28621065696E+04  0.28161719151E+04 0.  0.
        3    1    3    3  502    0  0.87731582189E+03  0.99125985536E+01  0.13746499015E+04  0.16307800811E+04  0.10100000352E+00 0.  1.
       -3    1    3    3    0  502 -0.87731582189E+03 -0.99125985536E+01 -0.86393495131E+03  0.12313264885E+04  0.10100000352E+00 0. -1.
</event>
<event>
 5   0  0.6578125E-06  0.2293914E+04  0.7818609E-02  0.8480325E-01
       -3   -1    0    0    0  501  0.00000000000E+00  0.00000000000E+00  0.90292266017E+03  0.90292266582E+03  0.10100000352E+00 0.  1.
        3   -1    0    0  501    0  0.00000000000E+00  0.00000000000E+00 -0.14569464419E+04  0.14569464454E+04  0.10100000352E+00 0. -1.
    10030    2    1    2    0    0  0.00000000000E+00  0.00000000000E+00 -0.55402378177E+03  0.23598691113E+04  0.22939136583E+04 0.  0.
        5    1    3    3  502    0 -0.53797955901E+03 -0.21352823328E+03 -0.12956697734E+04  0.14190837058E+04  0.46999998093E+01 0. -1.
       -5    1    3    3    0  502  0.53797955901E+03  0.21352823328E+03  0.74164599161E+03  0.94078540550E+03  0.46999998093E+01 0.  1.
</event>
<event>
 5   0  0.1937947E-05  0.2756425E+04  0.7818609E-02  0.8316926E-01
        2   -1    0    0  501    0  0.00000000000E+00  0.00000000000E+00  0.20659669637E+04  0.20659669637E+04  0.25500000920E-02 0. -1.
       -2   -1    0    0    0  501  0.00000000000E+00  0.00000000000E+00 -0.91940943520E+03  0.91940943520E+03  0.25500000920E-02 0.  1.
    10030    2    1    2    0    0  0.00000000000E+00  0.00000000000E+00  0.11465575285E+04  0.29853763989E+04  0.27564248724E+04 0.  0.
        3    1    3    3  502    0 -0.63526856940E+03 -0.11602826280E+04  0.15430408250E+03  0.13317776437E+04  0.10100000352E+00 0.  1.
       -3    1    3    3    0  502  0.63526856940E+03  0.11602826280E+04  0.99225344602E+03  0.16535987553E+04  0.10100000352E+00 0. -1.
</event>
<event>
 5   0  0.1960961E-05  0.2887823E+04  0.7818609E-02  0.8276510E-01
       -2   -1    0    0    0  501  0.00000000000E+00  0.00000000000E+00  0.10474543552E+04  0.10474543552E+04  0.25500000920E-02 0.  1.
        2   -1    0    0  501    0  0.00000000000E+00  0.00000000000E+00 -0.19904266519E+04  0.19904266519E+04  0.25500000920E-02 0. -1.
    10030    2    1    2    0    0  0.00000000000E+00  0.00000000000E+00 -0.94297229666E+03  0.30378810072E+04  0.28878234471E+04 0.  0.
        5    1    3    3  502    0  0.20118447697E+03 -0.52223385820E+03  0.92871286900E+03  0.10843122610E+04  0.46999998093E+01 0.  1.
       -5    1    3    3    0  502 -0.20118447697E+03  0.52223385820E+03 -0.18716851657E+04  0.19535687461E+04  0.46999998093E+01 0. -1.
</event>
<event>
 5   0  0.8055928E-06  0.2921244E+04  0.7818609E-02  0.8266585E-01
       -1   -1    0    0    0  501  0.00000000000E+00  0.00000000000E+00  0.91045160588E+03  0.91045160589E+03  0.50400001928E-02 0. -1.
        1   -1    0    0  501    0  0.00000000000E+00  0.00000000000E+00 -0.23432515912E+04  0.23432515912E+04  0.50400001928E-02 0.  1.
    10030    2    1    2    0    0  0.00000000000E+00  0.00000000000E+00 -0.14327999853E+04  0.32537031971E+04  0.29212443747E+04 0.  0.
        2    1    3    3  502    0 -0.15874097657E+03  0.14479300343E+04 -0.83696463825E+03  0.16799434179E+04  0.25500000920E-02 0.  1.
       -2    1    3    3    0  502  0.15874097657E+03 -0.14479300343E+04 -0.59583534709E+03  0.15737597792E+04  0.25500000920E-02 0. -1.
</event>
<event>
 5   0  0.7305460E-06  0.2972691E+04  0.7818609E-02  0.8251572E-01
       -1   -1    0    0    0  501  0.00000000000E+00  0.00000000000E+00  0.18271295309E+04  0.18271295309E+04  0.50400001928E-02 0. -1.
        1   -1    0    0  501    0  0.00000000000E+00  0.00000000000E+00 -0.12091221256E+04  0.12091221256E+04  0.50400001928E-02 0.  1.
    10030    2    1    2    0    0  0.00000000000E+00  0.00000000000E+00  0.61800740532E+03  0.30362516565E+04  0.29726908633E+04 0.  0.
        4    1    3    3  502    0 -0.33388812041E+03 -0.10275963465E+03 -0.11665941038E+04  0.12177784016E+04  0.12699999809E+01 0.  1.
       -4    1    3    3    0  502  0.33388812041E+03  0.10275963465E+03  0.17846015091E+04  0.18184732549E+04  0.12699999809E+01 0. -1.
</event>
<event>
 5   0  0.1976233E-05  0.2942675E+04  0.7818609E-02  0.8260293E-01
       -2   -1    0    0    0  501  0.00000000000E+00  0.00000000000E+00  0.11508216468E+04  0.11508216468E+04  0.25500000920E-02 0. -1.
        2   -1    0    0  501    0  0.00000000000E+00  0.00000000000E+00 -0.18811201699E+04  0.18811201699E+04  0.25500000920E-02 0.  1.
    10030    2    1    2    0    0  0.00000000000E+00  0.00000000000E+00 -0.73029852305E+03  0.30319418167E+04  0.29426748457E+04 0.  0.
        2    1    3    3  502    0 -0.11308850219E+03 -0.61572074043E+03 -0.17370564130E+04  0.18464197847E+04  0.25500000920E-02 0.  1.
       -2    1    3    3    0  502  0.11308850219E+03  0.61572074043E+03  0.10067578899E+04  0.11855220320E+04  0.25500000920E-02 0. -1.
</event>
<event>
 5   0  0.1937947E-05  0.2533930E+04  0.7818609E-02  0.8390997E-01
       -2   -1    0    0    0  501  0.00000000000E+00  0.00000000000E+00  0.58119821673E+03  0.58119821674E+03  0.25500000920E-02 0.  1.
        2   -1    0    0  501    0  0.00000000000E+00  0.00000000000E+00 -0.27618806550E+04  0.27618806550E+04  0.25500000920E-02 0. -1.
    10030    2    1    2    0    0  0.00000000000E+00  0.00000000000E+00 -0.21806824383E+04  0.33430788718E+04  0.25339298424E+04 0.  0.
        3    1    3    3  502    0 -0.10947929276E+04 -0.63765800845E+03 -0.10963599107E+04  0.16754654141E+04  0.10100000352E+00 0.  1.
       -3    1    3    3    0  502  0.10947929276E+04  0.63765800845E+03 -0.10843225276E+04  0.16676134576E+04  0.10100000352E+00 0. -1.
</event>
<event>
 5   0  0.8122088E-06  0.2806518E+04  0.7818609E-02  0.8301248E-01
       -1   -1    0    0    0  501  0.00000000000E+00  0.00000000000E+00  0.15906222897E+04  0.15906222897E+04  0.50400001928E-02 0.  1.
        1   -1    0    0  501    0  0.00000000000E+00  0.00000000000E+00 -0.12379653146E+04  0.12379653146E+04  0.50400001928E-02 0. -1.
    10030    2    1    2    0    0  0.00000000000E+00  0.00000000000E+00  0.35265697508E+03  0.28285876043E+04  0.28065175740E+04 0.  0.
        1    1    3    3  502    0 -0.27031229776E+03 -0.89695681087E+03 -0.87665289746E+03  0.12830122998E+04  0.50400001928E-02 0. -1.
       -1    1    3    3    0  502  0.27031229776E+03  0.89695681087E+03  0.12293098725E+04  0.15455753044E+04  0.50400001928E-02 0.  1.
</event>
<event>
 5   0  0.1960961E-05  0.2071247E+04  0.7818609E-02  0.8574016E-01
       -2   -1    0    0    0  501  0.00000000000E+00  0.00000000000E+00  0.81416518484E+03  0.81416518485E+03  0.25500000920E-02 0. -1.
        2   -1    0    0  501    0  0.00000000000E+00  0.00000000000E+00 -0.13173197098E+04  0.13173197098E+04  0.25500000920E-02 0.  1.
    10030    2    1    2    0    0  0.00000000000E+00  0.00000000000E+00 -0.50315452497E+03  0.21314848947E+04  0.20712468178E+04 0.  0.
        5    1    3    3  502    0 -0.79917894857E+03 -0.57247489304E+03  0.83593128418E+02  0.98662272228E+03  0.46999998093E+01 0. -1.
       -5    1    3    3    0  502  0.79917894857E+03  0.57247489304E+03 -0.58674765339E+03  0.11448621724E+04  0.46999998093E+01 0.  1.
</event>
<event>
 5   0  0.7305460E-06  0.2636361E+04  0.7818609E-02  0.8355954E-01
        1   -1    0    0  501    0  0.00000000000E+00  0.00000000000E+00  0.82358005587E+03  0.82358005589E+03  0.50400001928E-02 0. -1.
       -1   -1    0    0    0  501  0.00000000000E+00  0.00000000000E+00 -0.21098123464E+04  0.21098123464E+04  0.50400001928E-02 0.  1.
    10030    2    1    2    0    0  0.00000000000E+00  0.00000000000E+00 -0.12862322905E+04  0.29333924022E+04  0.26363606507E+04 0.  0.
        4    1    3    3  502    0 -0.11268696925E+04 -0.41969222428E+02 -0.14026703702E+04  0.17997451208E+04  0.12699999809E+01 0.  1.
       -4    1    3    3    0  502  0.11268696925E+04  0.41969222428E+02  0.11643807976E+03  0.11336472814E+04  0.12699999809E+01 0. -1.
</event>
<event>
 5   0  0.7971153E-06  0.2845082E+04  0.7818609E-02  0.8289407E-01
       -1   -1    0    0    0  501  0.00000000000E+00  0.00000000000E+00  0.17449830954E+04  0.17449830954E+04  0.50400001928E-02 0. -1.
        1   -1    0    0  501    0  0.00000000000E+00  0.00000000000E+00 -0.11596808046E+04  0.11596808046E+04  0.50400001928E-02 0.  1.
    10030    2    1    2    0    0  0.00000000000E+00  0.00000000000E+00  0.58530229076E+03  0.29046639000E+04  0.28450823539E+04 0.  0.
        5    1    3    3  502    0  0.82883196978E+03  0.10882838221E+04 -0.10574807921E+03  0.13720527897E+04  0.46999998093E+01 0.  1.
       -5    1    3    3    0  502 -0.82883196978E+03 -0.10882838221E+04  0.69105036997E+03  0.15326111103E+04  0.46999998093E+01 0. -1.
</event>
<event>
 5   0  0.1976233E-05  0.2872356E+04  0.7818609E-02  0.8281150E-01
       -2   -1    0    0    0  501  0.00000000000E+00  0.00000000000E+00  0.19320803774E+04  0.19320803774E+04  0.25500000920E-02 0. -1.
        2   -1    0    0  501    0  0.00000000000E+00  0.00000000000E+00 -0.10675577025E+04  0.10675577025E+04  0.25500000920E-02 0.  1.
    10030    2    1    2    0    0  0.00000000000E+00  0.00000000000E+00  0.86452267483E+03  0.29996380799E+04  0.28723560286E+04 0.  0.
        2    1    3    3  502    0 -0.93460742030E+03  0.41280141684E+03  0.14862990248E+04  0.18036021820E+04  0.25500000920E-02 0. -1.
       -2    1    3    3    0  502  0.93460742030E+03 -0.41280141684E+03 -0.62177634993E+03  0.11960358979E+04  0.25500000920E-02 0.  1.
</event>
<event>
 5   0  0.8122088E-06  0.2888120E+04  0.7818609E-02  0.8276421E-01
       -1   -1    0    0    0  501  0.00000000000E+00  0.00000000000E+00  0.88033325177E+03  0.88033325179E+03  0.50400001928E-02 0.  1.
        1   -1    0    0  501    0  0.00000000000E+00  0.00000000000E+00 -0.23687717820E+04  0.23687717820E+04  0.50400001928E-02 0. -1.
    10030    2    1    2    0    0  0.00000000000E+00  0.00000000000E+00 -0.14884385302E+04  0.32491050338E+04  0.28881195028E+04 0.  0.
        1    1    3    3  502    0  0.35394019152E+03  0.11899193139E+04  0.85629024461E+02  0.12443930097E+04  0.50400001928E-02 0.  1.
       -1    1    3    3    0  502 -0.35394019152E+03 -0.11899193139E+04 -0.15740675547E+04  0.20047120241E+04  0.50400001928E-02 0. -1.
</event>
<event>
 5   0  0.8055928E-06  0.2651081E+04  0.7818609E-02  0.8351054E-01
        1   -1    0    0  501    0  0.00000000000E+00  0.00000000000E+00  0.17163299003E+04  0.17163299003E+04  0.50400001928E-02 0. -1.
       -1   -1    0    0    0  501  0.00000000000E+00  0.00000000000E+00 -0.10237292093E+04  0.10237292094E+04  0.50400001928E-02 0.  1.
    10030    2    1    2    0    0  0.00000000000E+00  0.00000000000E+00  0.69260069099E+03  0.27400591097E+04  0.26510805736E+04 0.  0.
        2    1    3    3  502    0  0.87503884519E+03  0.70598484984E+03 -0.37936804056E+03  0.11866034295E+04  0.25500000920E-02 0.  1.
       -2    1    3    3    0  502 -0.87503884519E+03 -0.70598484984E+03  0.10719687315E+04  0.15534556802E+04  0.25500000920E-02 0. -1.
</event>
<event>
 5   0  0.1960961E-05  0.2811189E+04  0.7818609E-02  0.8299803E-01
        2   -1    0    0  501    0  0.00000000000E+00  0.00000000000E+00  0.13831164793E+04  0.13831164793E+04  0.25500000920E-02 0.  1.
       -2   -1    0    0    0  501  0.00000000000E+00  0.00000000000E+00 -0.14284376958E+04  0.14284376958E+04  0.25500000920E-02 0. -1.
    10030    2    1    2    0    0  0.00000000000E+00  0.00000000000E+00 -0.45321216518E+02  0.28115541750E+04  0.28111888707E+04 0.  0.
        5    1    3    3  502    0  0.12451112070E+04  0.34368994935E+03  0.53171181585E+03  0.13968408085E+04  0.46999998093E+01 0.  1.
       -5    1    3    3    0  502 -0.12451112070E+04 -0.34368994935E+03 -0.57703303237E+03  0.14147133666E+04  0.46999998093E+01 0. -1.
</event>
<event>
 5   0  0.1829810E-05  0.2857851E+04  0.7818609E-02  0.8285530E-01
        2   -1    0    0  501    0  0.00000000000E+00  0.00000000000E+00  0.16755805949E+04  0.16755805949E+04  0.25500000920E-02 0. -1.
       -2   -1    0    0    0  501  0.00000000000E+00  0.00000000000E+00 -0.12185795301E+04  0.12185795301E+04  0.25500000920E-02 0.  1.
    10030    2    1    2    0    0  0.00000000000E+00  0.00000000000E+00  0.45700106474E+03  0.28941601250E+04  0.28578510906E+04 0.  0.
        4    1    3    3  502    0  0.19610416356E+03  0.33135933656E+03  0.16220542932E+04  0.16671285481E+04  0.12699999809E+01 0. -1.
       -4    1    3    3    0  502 -0.19610416356E+03 -0.33135933656E+03 -0.11650532284E+04  0.12270315770E+04  0.12699999809E+01 0.  1.
</event>
<event>
 5   0  0.8055928E-06  0.2816919E+04  0.7818609E-02  0.8298035E-01
       -1   -1    0    0    0  501  0.00000000000E+00  0.00000000000E+00  0.21020079806E+04  0.21020079806E+04  0.50400001928E-02 0. -1.
        1   -1    0    0  501    0  0.00000000000E+00  0.00000000000E+00 -0.94374440790E+03  0.94374440791E+03  0.50400001928E-02 0.  1.
    10030    2    1    2    0    0  0.00000000000E+00  0.00000000000E+00  0.11582635727E+04  0.30457523885E+04  0.28169190809E+04 0.  0.
        2    1    3    3  502    0 -0.74123299560E+03  0.10935028887E+04  0.51002448813E+02  0.13220348601E+04  0.25500000920E-02 0.  1.
       -2    1    3    3    0  502  0.74123299560E+03 -0.10935028887E+04  0.11072611239E+04  0.17237175285E+04  0.25500000920E-02 0. -1.
</event>
<event>
 5   0  0.8234888E-06  0.2814573E+04  0.7818609E-02  0.8298758E-01
        1   -1    0    0  501    0  0.00000000000E+00  0.00000000000E+00  0.19811391501E+04  0.19811391501E+04  0.50400001928E-02 0.  1.
       -1   -1    0    0    0  501  0.00000000000E+00  0.00000000000E+00 -0.99965472767E+03  0.99965472768E+03  0.50400001928E-02 0. -1.
    10030    2    1    2    0    0  0.00000000000E+00  0.00000000000E+00  0.98148442239E+03  0.29807938777E+04  0.28145728753E+04 0.  0.
        3    1    3    3  502    0 -0.38582052129E+03  0.63419807915E+03 -0.77543613631E+03  0.10734830646E+04  0.10100000352E+00 0. -1.
       -3    1    3    3    0  502  0.38582052129E+03 -0.63419807915E+03  0.17569205587E+04  0.19073108132E+04  0.10100000352E+00 0.  1.
</event>
<event>
 5   0  0.8055928E-06  0.2893160E+04  0.7818609E-02  0.8274915E-01
       -1   -1    0    0    0  501  0.00000000000E+00  0.00000000000E+00  0.13888562098E+04  0.13888562098E+04  0.50400001928E-02 0.  1.
        1   -1    0    0  501    0  0.00000000000E+00  0.00000000000E+00 -0.15067033883E+04  0.15067033883E+04  0.50400001928E-02 0. -1.
    10030    2    1    2    0    0  0.00000000000E+00  0.00000000000E+00 -0.11784717848E+03  0.28955595981E+04  0.28931604568E+04 0.  0.
        2    1    3    3  502    0 -0.64761257003E+03  0.10699393253E+04  0.66860572537E+03  0.14181698829E+04  0.25500000920E-02 0.  1.
       -2    1    3    3    0  502  0.64761257003E+03 -0.10699393253E+04 -0.78645290385E+03  0.14773897152E+04  0.25500000920E-02 0. -1.
</event>
<event>
 5   0  0.1937947E-05  0.1800871E+04  0.7818609E-02  0.8705836E-01
       -2   -1    0    0    0  501  0.00000000000E+00  0.00000000000E+00  0.65297634521E+03  0.65297634521E+03  0.25500000920E-02 0.  1.
        2   -1    0    0  501    0  0.00000000000E+00  0.00000000000E+00 -0.12416746783E+04  0.12416746783E+04  0.25500000920E-02 0. -1.
    10030    2    1    2    0    0  0.00000000000E+00  0.00000000000E+00 -0.58869833312E+03  0.18946510235E+04  0.18008711152E+04 0.  0.
        3    1    3    3  502    0  0.30592797636E+03  0.72908043586E+03  0.15893998789E+03  0.80648133185E+03  0.10100000352E+00 0.  1.
       -3    1    3    3    0  502 -0.30592797636E+03 -0.72908043586E+03 -0.74763832101E+03  0.10881696917E+04  0.10100000352E+00 0. -1.
</event>
<event>
 5   0  0.6578125E-06  0.1550430E+04  0.7818609E-02  0.8851593E-01
       -3   -1    0    0    0  501  0.00000000000E+00  0.00000000000E+00  0.46759372943E+03  0.46759374034E+03  0.10100000352E+00 0.  1.
        3   -1    0    0  501    0  0.00000000000E+00  0.00000000000E+00 -0.12852151882E+04  0.12852151922E+04  0.10100000352E+00 0. -1.
    10030    2    1    2    0    0  0.00000000000E+00  0.00000000000E+00 -0.81762145879E+03  0.17528089325E+04  0.15504303609E+04 0.  0.
        4    1    3    3  502    0  0.15614429660E+02  0.66831696748E+03 -0.85255742323E+03  0.10833961197E+04  0.12699999809E+01 0. -1.
       -4    1    3    3    0  502 -0.15614429660E+02 -0.66831696748E+03  0.34935964442E+02  0.66941281280E+03  0.12699999809E+01 0.  1.
</event>
<event>
 5   0  0.7305460E-06  0.2973043E+04  0.7818609E-02  0.8251471E-01
        1   -1    0    0  501    0  0.00000000000E+00  0.00000000000E+00  0.14981826219E+04  0.14981826219E+04  0.50400001928E-02 0. -1.
       -1   -1    0    0    0  501  0.00000000000E+00  0.00000000000E+00 -0.14749506861E+04  0.14749506861E+04  0.50400001928E-02 0.  1.
    10030    2    1    2    0    0  0.00000000000E+00  0.00000000000E+00  0.23231935823E+02  0.29731333081E+04  0.29730425400E+04 0.  0.
        4    1    3    3  502    0  0.74367587869E+03 -0.10481470759E+03 -0.12712731260E+04  0.14765422138E+04  0.12699999809E+01 0.  1.
       -4    1    3    3    0  502 -0.74367587869E+03  0.10481470759E+03  0.12945050618E+04  0.14965910942E+04  0.12699999809E+01 0. -1.
</event>
<event>
 5   0  0.8234888E-06  0.2950154E+04  0.7818609E-02  0.8258110E-01
        1   -1    0    0  501    0  0.00000000000E+00  0.00000000000E+00  0.73483334482E+03  0.73483334484E+03  0.50400001928E-02 0.  1.
       -1   -1    0    0    0  501  0.00000000000E+00  0.00000000000E+00 -0.29610150006E+04  0.29610150006E+04  0.50400001928E-02 0. -1.
    10030    2    1    2    0    0  0.00000000000E+00  0.00000000000E+00 -0.22261816557E+04  0.36958483454E+04  0.29501542719E+04 0.  0.
        3    1    3    3  502    0  0.35345489139E+03 -0.82245108996E+03 -0.25818182958E+04  0.27326071577E+04  0.10100000352E+00 0. -1.
       -3    1    3    3    0  502 -0.35345489139E+03  0.82245108996E+03  0.35563664010E+03  0.96324118766E+03  0.10100000352E+00 0.  1.
</event>
<event>
 5   0  0.1918901E-05  0.2936121E+04  0.7818609E-02  0.8262211E-01
       -2   -1    0    0    0  501  0.00000000000E+00  0.00000000000E+00  0.10738333343E+04  0.10738333343E+04  0.25500000920E-02 0.  1.
        2   -1    0    0  501    0  0.00000000000E+00  0.00000000000E+00 -0.20070164866E+04  0.20070164866E+04  0.25500000920E-02 0. -1.
    10030    2    1    2    0    0  0.00000000000E+00  0.00000000000E+00 -0.93318315232E+03  0.30808498208E+04  0.29361207098E+04 0.  0.
        1    1    3    3  502    0  0.11674678028E+04 -0.50617512578E+03  0.30162169113E+03  0.13077346723E+04  0.50400001928E-02 0.  1.
       -1    1    3    3    0  502 -0.11674678028E+04  0.50617512578E+03 -0.12348048435E+04  0.17731151485E+04  0.50400001928E-02 0. -1.
</event>
<event>
 5   0  0.8122088E-06  0.3003802E+04  0.7818609E-02  0.8242646E-01
       -1   -1    0    0    0  501  0.00000000000E+00  0.00000000000E+00  0.10905067499E+04  0.10905067499E+04  0.50400001928E-02 0.  1.
        1   -1    0    0  501    0  0.00000000000E+00  0.00000000000E+00 -0.20684933350E+04  0.20684933350E+04  0.50400001928E-02 0. -1.
    10030    2    1    2    0    0  0.00000000000E+00  0.00000000000E+00 -0.97798658513E+03  0.31590000849E+04  0.30038015540E+04 0.  0.
        1    1    3    3  502    0 -0.13647099379E+04  0.14893289089E+03  0.15165405741E+03  0.13811637027E+04  0.50400001928E-02 0.  1.
       -1    1    3    3    0  502  0.13647099379E+04 -0.14893289089E+03 -0.11296406425E+04  0.17778363822E+04  0.50400001928E-02 0. -1.
</event>
<event>
 5   0  0.1937947E-05  0.1861599E+04  0.7818609E-02  0.8674211E-01
        2   -1    0    0  501    0  0.00000000000E+00  0.00000000000E+00  0.83244990225E+03  0.83244990225E+03  0.25500000920E-02 0.  1.
       -2   -1    0    0    0  501  0.00000000000E+00  0.00000000000E+00 -0.10407681347E+04  0.10407681348E+04  0.25500000920E-02 0. -1.
    10030    2    1    2    0    0  0.00000000000E+00  0.00000000000E+00 -0.20831823250E+03  0.18732180370E+04  0.18615985948E+04 0.  0.
        3    1    3    3  502    0 -0.54056584230E+03  0.74989382784E+03  0.53093337874E+01  0.92443516923E+03  0.10100000352E+00 0. -1.
       -3    1    3    3    0  502  0.54056584230E+03 -0.74989382784E+03 -0.21362756629E+03  0.94878286777E+03  0.10100000352E+00 0.  1.
</event>
<event>
 5   0  0.1937947E-05  0.2873853E+04  0.7818609E-02  0.8280700E-01
        2   -1    0    0  501    0  0.00000000000E+00  0.00000000000E+00  0.17649106566E+04  0.17649106566E+04  0.25500000920E-02 0.  1.
       -2   -1    0    0    0  501  0.00000000000E+00  0.00000000000E+00 -0.11698936780E+04  0.11698936780E+04  0.25500000920E-02 0. -1.
    10030    2    1    2    0    0  0.00000000000E+00  0.00000000000E+00  0.59501697860E+03  0.29348043347E+04  0.28738530369E+04 0.  0.
        3    1    3    3  502    0  0.90844844192E+03  0.98684594210E+03 -0.22879996042E+03  0.13606957475E+04  0.10100000352E+00 0. -1.
       -3    1    3    3    0  502 -0.90844844192E+03 -0.98684594210E+03  0.82381693902E+03  0.15741085872E+04  0.10100000352E+00 0.  1.
</event>
<event>
 5   0  0.1829810E-05  0.2857697E+04  0.7818609E-02  0.8285576E-01
        2   -1    0    0  501    0  0.00000000000E+00  0.00000000000E+00  0.17452619113E+04  0.17452619113E+04  0.25500000920E-02 0. -1.
       -2   -1    0    0    0  501  0.00000000000E+00  0.00000000000E+00 -0.11698005267E+04  0.11698005267E+04  0.25500000920E-02 0.  1.
    10030    2    1    2    0    0  0.00000000000E+00  0.00000000000E+00  0.57546138459E+03  0.29150624379E+04  0.28576971869E+04 0.  0.
        4    1    3    3  502    0 -0.44750942908E+03  0.98754950039E+03 -0.66158937432E+03  0.12701263000E+04  0.12699999809E+01 0.  1.
       -4    1    3    3    0  502  0.44750942908E+03 -0.98754950039E+03  0.12370507589E+04  0.16449361379E+04  0.12699999809E+01 0. -1.
</event>
<event>
 5   0  0.8234888E-06  0.2801591E+04  0.7818609E-02  0.8302775E-01
        1   -1    0    0  501    0  0.00000000000E+00  0.00000000000E+00  0.11592570474E+04  0.11592570474E+04  0.50400001928E-02 0.  1.
       -1   -1    0    0    0  501  0.00000000000E+00  0.00000000000E+00 -0.16926596214E+04  0.16926596214E+04  0.50400001928E-02 0. -1.
    10030    2    1    2    0    0  0.00000000000E+00  0.00000000000E+00 -0.53340257394E+03  0.28519166688E+04  0.28015906874E+04 0.  0.
        3    1    3    3  502    0 -0.12263145621E+03 -0.97697193321E+03 -0.12809499131E+04  0.16156563132E+04  0.10100000352E+00 0. -1.
       -3    1    3    3    0  502  0.12263145621E+03  0.97697193321E+03  0.74754733915E+03  0.12362603556E+04  0.10100000352E+00 0.  1.
</event>
<event>
 5   0  0.1829810E-05  0.2963700E+04  0.7818609E-02  0.8254173E-01
       -2   -1    0    0    0  501  0.00000000000E+00  0.00000000000E+00  0.95932502236E+03  0.95932502237E+03  0.25500000920E-02 0.  1.
        2   -1    0    0  501    0  0.00000000000E+00  0.00000000000E+00 -0.22889837527E+04  0.22889837527E+04  0.25500000920E-02 0. -1.
    10030    2    1    2    0    0  0.00000000000E+00  0.00000000000E+00 -0.13296587304E+04  0.32483087751E+04  0.29636999779E+04 0.  0.
        4    1    3    3  502    0 -0.10848076529E+04 -0.10072555221E+04 -0.59125268916E+03  0.15940366012E+04  0.12699999809E+01 0.  1.
       -4    1    3    3    0  502  0.10848076529E+04  0.10072555221E+04 -0.73840604122E+03  0.16542721739E+04  0.12699999809E+01 0. -1.
</event>
<event>
 5   0  0.7971153E-06  0.2898439E+04  0.7818609E-02  0.8273342E-01
        1   -1    0    0  501    0  0.00000000000E+00  0.00000000000E+00  0.11903467320E+04  0.11903467320E+04  0.50400001928E-02 0.  1.
       -1   -1    0    0    0  501  0.00000000000E+00  0.00000000000E+00 -0.17643907144E+04  0.17643907144E+04  0.50400001928E-02 0. -1.
    10030    2    1    2    0    0  0.00000000000E+00  0.00000000000E+00 -0.57404398234E+03  0.29547374464E+04  0.28984386976E+04 0.  0.
        5    1    3    3  502    0  0.12365214318E+03 -0.12693717564E+04 -0.98859011706E+03  0.16136688068E+04  0.46999998093E+01 0. -1.
       -5    1    3    3    0  502 -0.12365214318E+03  0.12693717564E+04  0.41454613472E+03  0.13410686396E+04  0.46999998093E+01 0.  1.
</event>
<event>
 5   0  0.1918901E-05  0.3009414E+04  0.7818609E-02  0.8241048E-01
       -2   -1    0    0    0  501  0.00000000000E+00  0.00000000000E+00  0.12031081950E+04  0.12031081950E+04  0.25500000920E-02 0. -1.
        2   -1    0    0  501    0  0.00000000000E+00  0.00000000000E+00 -0.18819116684E+04  0.18819116684E+04  0.25500000920E-02 0.  1.
    10030    2    1    2    0    0  0.00000000000E+00  0.00000000000E+00 -0.67880347347E+03  0.30850198634E+04  0.30094141294E+04 0.  0.
        1    1    3    3  502    0 -0.68827922218E+03  0.66255543859E+03  0.85231666895E+03  0.12802935996E+04  0.50400001928E-02 0. -1.
       -1    1    3    3    0  502  0.68827922218E+03 -0.66255543859E+03 -0.15311201424E+04  0.18047262639E+04  0.50400001928E-02 0.  1.
</event>
<event>
 5   0  0.8055928E-06  0.2926918E+04  0.7818609E-02  0.8264913E-01
        1   -1    0    0  501    0  0.00000000000E+00  0.00000000000E+00  0.15215636237E+04  0.15215636237E+04  0.50400001928E-02 0.  1.
       -1   -1    0    0    0  501  0.00000000000E+00  0.00000000000E+00 -0.14075735473E+04  0.14075735473E+04  0.50400001928E-02 0. -1.
    10030    2    1    2    0    0  0.00000000000E+00  0.00000000000E+00  0.11399007642E+03  0.29291371711E+04  0.29269183161E+04 0.  0.
        2    1    3    3  502    0 -0.38938136378E+03  0.59416082952E+03 -0.12234544085E+04  0.14147387135E+04  0.25500000920E-02 0. -1.
       -2    1    3    3    0  502  0.38938136378E+03 -0.59416082952E+03  0.13374444850E+04  0.15143984575E+04  0.25500000920E-02 0.  1.
</event>
<event>
 5   0  0.1960961E-05  0.2606550E+04  0.7818609E-02  0.8365980E-01
       -2   -1    0    0    0  501  0.00000000000E+00  0.00000000000E+00  0.16260841651E+04  0.16260841651E+04  0.25500000920E-02 0.  1.
        2   -1    0    0  501    0  0.00000000000E+00  0.00000000000E+00 -0.10445497337E+04  0.10445497337E+04  0.25500000920E-02 0. -1.
    10030    2    1    2    0    0  0.00000000000E+00  0.00000000000E+00  0.58153443140E+03  0.26706338988E+04  0.26065500429E+04 0.  0.
        5    1    3    3  502    0 -0.79300990407E+03 -0.20769774814E+03 -0.74730579520E+03  0.11092750354E+04  0.46999998093E+01 0. -1.
       -5    1    3    3    0  502  0.79300990407E+03  0.20769774814E+03  0.13288402266E+04  0.15613588634E+04  0.46999998093E+01 0.  1.
</event>
<event>
 5   0  0.8234888E-06  0.2904818E+04  0.7818609E-02  0.8271445E-01
        1   -1    0    0  501    0  0.00000000000E+00  0.00000000000E+00  0.27186131719E+04  0.27186131719E+04  0.50400001928E-02 0.  1.
       -1   -1    0    0    0  501  0.00000000000E+00  0.00000000000E+00 -0.77594432872E+03  0.77594432874E+03  0.50400001928E-02 0. -1.
    10030    2    1    2    0    0  0.00000000000E+00  0.00000000000E+00  0.19426688432E+04  0.34945575006E+04  0.29048183921E+04 0.  0.
        3    1    3    3  502    0 -0.60550234848E+03 -0.34023358452E+03 -0.56321327391E+03  0.89420422061E+03  0.10100000352E+00 0. -1.
       -3    1    3    3    0  502  0.60550234848E+03  0.34023358452E+03  0.25058821171E+04  0.26003532800E+04  0.10100000352E+00 0.  1.
</event>
<event>
 5   0  0.8234888E-06  0.2915297E+04  0.7818609E-02  0.8268341E-01
       -1   -1    0    0    0  501  0.00000000000E+00  0.00000000000E+00  0.11877669667E+04  0.11877669667E+04  0.50400001928E-02 0.  1.
        1   -1    0    0  501    0  0.00000000000E+00  0.00000000000E+00 -0.17888521653E+04  0.17888521653E+04  0.50400001928E-02 0. -1.
    10030    2    1    2    0    0  0.00000000000E+00  0.00000000000E+00 -0.60108519860E+03  0.29766191320E+04  0.29152972474E+04 0.  0.
        3    1    3    3  502    0  0.47160913920E+03  0.47035524719E+03 -0.16243839502E+04  0.17556401871E+04  0.10100000352E+00 0. -1.
       -3    1    3    3    0  502 -0.47160913920E+03 -0.47035524719E+03  0.10232987516E+04  0.12209789449E+04  0.10100000352E+00 0.  1.
</event>
<event>
 5   0  0.8234888E-06  0.2794473E+04  0.7818609E-02  0.8304986E-01
       -1   -1    0    0    0  501  0.00000000000E+00  0.00000000000E+00  0.73670926669E+03  0.73670926671E+03  0.50400001928E-02 0. -1.
        1   -1    0    0  501    0  0.00000000000E+00  0.00000000000E+00 -0.26499876831E+04  0.26499876831E+04  0.50400001928E-02 0.  1.
    10030    2    1    2    0    0  0.00000000000E+00  0.00000000000E+00 -0.19132784164E+04  0.33866969498E+04  0.27944734622E+04 0.  0.
        3    1    3    3  502    0  0.63373983997E+03  0.11919222316E+04 -0.51973050967E+03  0.14465215532E+04  0.10100000352E+00 0. -1.
       -3    1    3    3    0  502 -0.63373983997E+03 -0.11919222316E+04 -0.13935479067E+04  0.19401753966E+04  0.10100000352E+00 0.  1.
</event>
<event>
 5   0  0.8055928E-06  0.2767647E+04  0.7818609E-02  0.8313384E-01
        1   -1    0    0  501    0  0.00000000000E+00  0.00000000000E+00  0.23734508358E+04  0.23734508358E+04  0.50400001928E-02 0.  1.
       -1   -1    0    0    0  501  0.00000000000E+00  0.00000000000E+00 -0.80682842888E+03  0.80682842890E+03  0.50400001928E-02 0. -1.
    10030    2    1    2    0    0  0.00000000000E+00  0.00000000000E+00  0.15666224069E+04  0.31802792647E+04  0.27676470938E+04 0.  0.
        2    1    3    3  502    0  0.13606594749E+04 -0.14080226845E+03  0.10236557434E+04  0.17085346255E+04  0.25500000920E-02 0.  1.
       -2    1    3    3    0  502 -0.13606594749E+04  0.14080226845E+03  0.54296666348E+03  0.14717446392E+04  0.25500000920E-02 0. -1.
</event>
<event>
 5   0  0.7971153E-06  0.2865769E+04  0.7818609E-02  0.8283136E-01
       -1   -1    0    0    0  501  0.00000000000E+00  0.00000000000E+00  0.81508437736E+03  0.81508437738E+03  0.50400001928E-02 0. -1.
        1   -1    0    0  501    0  0.00000000000E+00  0.00000000000E+00 -0.25189512515E+04  0.25189512515E+04  0.50400001928E-02 0.  1.
    10030    2    1    2    0    0  0.00000000000E+00  0.00000000000E+00 -0.17038668741E+04  0.33340356289E+04  0.28657688759E+04 0.  0.
        5    1    3    3  502    0  0.43619237682E+03  0.11897493582E+04 -0.16300805776E+04  0.20646917698E+04  0.46999998093E+01 0.  1.
       -5    1    3    3    0  502 -0.43619237682E+03 -0.11897493582E+04 -0.73786296544E+02  0.12693438590E+04  0.46999998093E+01 0. -1.
</event>
<event>
 5   0  0.1960961E-05  0.2153593E+04  0.7818609E-02  0.8537996E-01
       -2   -1    0    0    0  501  0.00000000000E+00  0.00000000000E+00  0.77571740963E+03  0.77571740963E+03  0.25500000920E-02 0. -1.
        2   -1    0    0  501    0  0.00000000000E+00  0.00000000000E+00 -0.14947329182E+04  0.14947329182E+04  0.25500000920E-02 0.  1.
    10030    2    1    2    0    0  0.00000000000E+00  0.00000000000E+00 -0.71901550857E+03  0.22704503278E+04  0.21535926703E+04 0.  0.
        5    1    3    3  502    0 -0.17654325310E+03 -0.42577443910E+03  0.66644484705E+03  0.81032229228E+03  0.46999998093E+01 0. -1.
       -5    1    3    3    0  502  0.17654325310E+03  0.42577443910E+03 -0.13854603556E+04  0.14601280355E+04  0.46999998093E+01 0.  1.
</event>
<event>
 5   0  0.6578125E-06  0.1994512E+04  0.7818609E-02  0.8609191E-01
        3   -1    0    0  501    0  0.00000000000E+00  0.00000000000E+00  0.69813093586E+03  0.69813094317E+03  0.10100000352E+00 0.  1.
       -3   -1    0    0    0  501  0.00000000000E+00  0.00000000000E+00 -0.14245452603E+04  0.14245452639E+04  0.10100000352E+00 0. -1.
    10030    2    1    2    0    0  0.00000000000E+00  0.00000000000E+00 -0.72641432447E+03  0.21226762071E+04  0.19945115967E+04 0.  0.
        4    1    3    3  502    0 -0.86917637729E+03 -0.14666707436E+03 -0.85958851640E+03  0.12312078768E+04  0.12699999809E+01 0. -1.
       -4    1    3    3    0  502  0.86917637729E+03  0.14666707436E+03  0.13317419193E+03  0.89146833025E+03  0.12699999809E+01 0.  1.
</event>
<event>
 5   0  0.1918901E-05  0.2803481E+04  0.7818609E-02  0.8302188E-01
       -2   -1    0    0    0  501  0.00000000000E+00  0.00000000000E+00  0.11141287955E+04  0.11141287955E+04  0.25500000920E-02 0. -1.
        2   -1    0    0  501    0  0.00000000000E+00  0.00000000000E+00 -0.17635988994E+04  0.17635988995E+04  0.25500000920E-02 0.  1.
    10030    2    1    2    0    0  0.00000000000E+00  0.00000000000E+00 -0.64947010395E+03  0.28777276949E+04  0.28034809203E+04 0.  0.
        1    1    3    3  502    0 -0.96688728874E+03 -0.97269624907E+03 -0.27466881163E+02  0.13717738340E+04  0.50400001928E-02 0. -1.
       -1    1    3    3    0  502  0.96688728874E+03  0.97269624907E+03 -0.62200322279E+03  0.15059538609E+04  0.50400001928E-02 0.  1.
</event>
<event>
 5   0  0.8122088E-06  0.2408336E+04  0.7818609E-02  0.8436389E-01
        1   -1    0    0  501    0  0.00000000000E+00  0.00000000000E+00  0.11555754787E+04  0.11555754787E+04  0.50400001928E-02 0. -1.
       -1   -1    0    0    0  501  0.00000000000E+00  0.00000000000E+00 -0.12548041520E+04  0.12548041520E+04  0.50400001928E-02 0.  1.
    10030    2    1    2    0    0  0.00000000000E+00  0.00000000000E+00 -0.99228673326E+02  0.24103796307E+04  0.24083362794E+04 0.  0.
        1    1    3    3  502    0  0.83688447578E+03 -0.86199168856E+03 -0.13101975721E+03  0.12085410517E+04  0.50400001928E-02 0. -1.
       -1    1    3    3    0  502 -0.83688447578E+03  0.86199168856E+03  0.31791083881E+02  0.12018385790E+04  0.50400001928E-02 0.  1.
</event>
<event>
 5   0  0.1829810E-05  0.1913631E+04  0.7818609E-02  0.8648101E-01
        2   -1    0    0  501    0  0.00000000000E+00  0.00000000000E+00  0.11237027208E+04  0.11237027208E+04  0.25500000920E-02 0. -1.
       -2   -1    0    0    0  501  0.00000000000E+00  0.00000000000E+00 -0.81471324730E+03  0.81471324730E+03  0.25500000920E-02 0.  1.
    10030    2    1    2    0    0  0.00000000000E+00  0.00000000000E+00  0.30898947349E+03  0.19384159681E+04  0.19136305732E+04 0.  0.
        4    1    3    3  502    0 -0.76575153436E+03  0.47339266729E+03 -0.17376713321E+03  0.91688203129E+03  0.12699999809E+01 0.  1.
       -4    1    3    3    0  502  0.76575153436E+03 -0.47339266729E+03  0.48275660669E+03  0.10215339368E+04  0.12699999809E+01 0. -1.
</event>
<event>
 5   0  0.1937947E-05  0.1794541E+04  0.7818609E-02  0.8709208E-01
        2   -1    0    0  501    0  0.00000000000E+00  0.00000000000E+00  0.12041369374E+04  0.12041369374E+04  0.25500000920E-02 0.  1.
       -2   -1    0    0    0  501  0.00000000000E+00  0.00000000000E+00 -0.66860721607E+03  0.66860721608E+03  0.25500000920E-02 0. -1.
    10030    2    1    2    0    0  0.00000000000E+00  0.00000000000E+00  0.53552972136E+03  0.18727441535E+04  0.17945413292E+04 0.  0.
        3    1    3    3  502    0 -0.32504120409E+02  0.72066897397E+03  0.82456476505E+03  0.10955945189E+04  0.10100000352E+00 0.  1.
       -3    1    3    3    0  502  0.32504120409E+02 -0.72066897397E+03 -0.28903504370E+03  0.77714963460E+03  0.10100000352E+00 0. -1.
</event>
<event>
 5   0  0.8234888E-06  0.2989030E+04  0.7818609E-02  0.8246870E-01
        1   -1    0    0  501    0  0.00000000000E+00  0.00000000000E+00  0.15682918064E+04  0.15682918064E+04  0.50400001928E-02 0. -1.
       -1   -1    0    0    0  501  0.00000000000E+00  0.00000000000E+00 -0.14242093315E+04  0.14242093315E+04  0.50400001928E-02 0.  1.
    10030    2    1    2    0    0  0.00000000000E+00  0.00000000000E+00  0.14408247489E+03  0.29925011378E+04  0.29890304951E+04 0.  0.
        3    1    3    3  502    0  0.12811512241E+04  0.65408236986E+03 -0.33389671082E+03  0.14767055323E+04  0.10100000352E+00 0.  1.
       -3    1    3    3    0  502 -0.12811512241E+04 -0.65408236986E+03  0.47797918571E+03  0.15157956055E+04  0.10100000352E+00 0. -1.
</event>
<event>
 5   0  0.7971153E-06  0.2597958E+04  0.7818609E-02  0.8368895E-01
        1   -1    0    0  501    0  0.00000000000E+00  0.00000000000E+00  0.14621191850E+04  0.14621191850E+04  0.50400001928E-02 0.  1.
       -1   -1    0    0    0  501  0.00000000000E+00  0.00000000000E+00 -0.11540417630E+04  0.11540417630E+04  0.50400001928E-02 0. -1.
    10030    2    1    2    0    0  0.00000000000E+00  0.00000000000E+00  0.30807742202E+03  0.26161609480E+04  0.25979581229E+04 0.  0.
        5    1    3    3  502    0 -0.89424242775E+03  0.67826050490E+03  0.81254532103E+03  0.13856257867E+04  0.46999998093E+01 0.  1.
       -5    1    3    3    0  502  0.89424242775E+03 -0.67826050490E+03 -0.50446789901E+03  0.12305351613E+04  0.46999998093E+01 0. -1.
</event>
<event>
 5   0  0.7305460E-06  0.2327103E+04  0.7818609E-02  0.8467311E-01
       -1   -1    0    0    0  501  0.00000000000E+00  0.00000000000E+00  0.57501151024E+03  0.57501151027E+03  0.50400001928E-02 0. -1.
        1   -1    0    0  501    0  0.00000000000E+00  0.00000000000E+00 -0.23544773941E+04  0.23544773941E+04  0.50400001928E-02 0.  1.
    10030    2    1    2    0    0  0.00000000000E+00  0.00000000000E+00 -0.17794658839E+04  0.29294889044E+04  0.23271025781E+04 0.  0.
        4    1    3    3  502    0 -0.76539166936E+03 -0.42571028953E+03  0.74584506671E+02  0.87898698493E+03  0.12699999809E+01 0. -1.
       -4    1    3    3    0  502  0.76539166936E+03  0.42571028953E+03 -0.18540503906E+04  0.20505019195E+04  0.12699999809E+01 0.  1.
</event>
<event>
 5   0  0.1937947E-05  0.2910967E+04  0.7818609E-02  0.8269622E-01
        2   -1    0    0  501    0  0.00000000000E+00  0.00000000000E+00  0.18120316831E+04  0.18120316831E+04  0.25500000920E-02 0. -1.
       -2   -1    0    0    0  501  0.00000000000E+00  0.00000000000E+00 -0.11690918925E+04  0.11690918925E+04  0.25500000920E-02 0.  1.
    10030    2    1    2    0    0  0.00000000000E+00  0.00000000000E+00  0.64293979065E+03  0.29811235756E+04  0.29109665402E+04 0.  0.
        3    1    3    3  502    0  0.12523266826E+04 -0.82956137709E+02  0.10762730708E+04  0.16533504087E+04  0.10100000352E+00 0. -1.
       -3    1    3    3    0  502 -0.12523266826E+04  0.82956137709E+02 -0.43333328014E+03  0.13277731669E+04  0.10100000352E+00 0.  1.
</event>
<event>
 5   0  0.1976233E-05  0.2873764E+04  0.7818609E-02  0.8280727E-01
       -2   -1    0    0    0  501  0.00000000000E+00  0.00000000000E+00  0.79562078037E+03  0.79562078038E+03  0.25500000920E-02 0.  1.
        2   -1    0    0  501    0  0.00000000000E+00  0.00000000000E+00 -0.25949915081E+04  0.25949915081E+04  0.25500000920E-02 0. -1.
    10030    2    1    2    0    0  0.00000000000E+00  0.00000000000E+00 -0.17993707278E+04  0.33906122885E+04  0.28737635037E+04 0.  0.
        2    1    3    3  502    0 -0.10764705366E+04  0.67101716859E+03 -0.10332859840E+03  0.12726860005E+04  0.25500000920E-02 0.  1.
       -2    1    3    3    0  502  0.10764705366E+04 -0.67101716859E+03 -0.16960421294E+04  0.21179262880E+04  0.25500000920E-02 0. -1.
</event>
<event>
 5   0  0.1937947E-05  0.2959720E+04  0.7818609E-02  0.8255327E-01
       -2   -1    0    0    0  501  0.00000000000E+00  0.00000000000E+00  0.12893939229E+04  0.12893939229E+04  0.25500000920E-02 0.  1.
        2   -1    0    0  501    0  0.00000000000E+00  0.00000000000E+00 -0.16984617423E+04  0.16984617423E+04  0.25500000920E-02 0. -1.
    10030    2    1    2    0    0  0.00000000000E+00  0.00000000000E+00 -0.40906781935E+03  0.29878556652E+04  0.29597204252E+04 0.  0.
        3    1    3    3  502    0 -0.38821695374E+02 -0.85273220670E+03  0.10158110554E+04  0.13268501991E+04  0.10100000352E+00 0. -1.
       -3    1    3    3    0  502  0.38821695374E+02  0.85273220670E+03 -0.14248788748E+04  0.16610054661E+04  0.10100000352E+00 0.  1.
</event>
<event>
 5   0  0.1976233E-05  0.2918235E+04  0.7818609E-02  0.8267473E-01
        2   -1    0    0  501    0  0.00000000000E+00  0.00000000000E+00  0.28955418881E+04  0.28955418881E+04  0.25500000920E-02 0.  1.
       -2   -1    0    0    0  501  0.00000000000E+00  0.00000000000E+00 -0.73527642682E+03  0.73527642682E+03  0.25500000920E-02 0. -1.
    10030    2    1    2    0    0  0.00000000000E+00  0.00000000000E+00  0.21602654612E+04  0.36308183149E+04  0.29182348728E+04 0.  0.
        2    1    3    3  502    0 -0.50549574157E+02 -0.14565716926E+04  0.99333067132E+03  0.17637636400E+04  0.25500000920E-02 0.  1.
       -2    1    3    3    0  502  0.50549574157E+02  0.14565716926E+04  0.11669347899E+04  0.18670546749E+04  0.25500000920E-02 0. -1.
</event>
<event>
 5   0  0.1937947E-05  0.2942478E+04  0.7818609E-02  0.8260350E-01
       -2   -1    0    0    0  501  0.00000000000E+00  0.00000000000E+00  0.17508285686E+04  0.17508285686E+04  0.25500000920E-02 0.  1.
        2   -1    0    0  501    0  0.00000000000E+00  0.00000000000E+00 -0.12362972207E+04  0.12362972207E+04  0.25500000920E-02 0. -1.
    10030    2    1    2    0    0  0.00000000000E+00  0.00000000000E+00  0.51453134790E+03  0.29871257892E+04  0.29424782026E+04 0.  0.
        3    1    3    3  502    0 -0.10499696735E+04  0.65687357871E+03 -0.54890304300E+03  0.13547006217E+04  0.10100000352E+00 0. -1.
       -3    1    3    3    0  502  0.10499696735E+04 -0.65687357871E+03  0.10634343909E+04  0.16324251675E+04  0.10100000352E+00 0.  1.
</event>
<event>
 5   0  0.1960961E-05  0.2850748E+04  0.7818609E-02  0.8287684E-01
       -2   -1    0    0    0  501  0.00000000000E+00  0.00000000000E+00  0.65508786746E+03  0.65508786746E+03  0.25500000920E-02 0.  1.
        2   -1    0    0  501    0  0.00000000000E+00  0.00000000000E+00 -0.31014028209E+04  0.31014028209E+04  0.25500000920E-02 0. -1.
    10030    2    1    2    0    0  0.00000000000E+00  0.00000000000E+00 -0.24463149534E+04  0.37564906884E+04  0.28507482246E+04 0.  0.
        5    1    3    3  502    0 -0.45883132527E+03 -0.12125357289E+04 -0.20037335889E+04  0.23865748395E+04  0.46999998093E+01 0. -1.
       -5    1    3    3    0  502  0.45883132527E+03  0.12125357289E+04 -0.44258136449E+03  0.13699158489E+04  0.46999998093E+01 0.  1.
</event>
<event>
 5   0  0.1829810E-05  0.2901391E+04  0.7818609E-02  0.8272464E-01
        2   -1    0    0  501    0  0.00000000000E+00  0.00000000000E+00  0.16666833257E+04  0.16666833257E+04  0.25500000920E-02 0. -1.
       -2   -1    0    0    0  501  0.00000000000E+00  0.00000000000E+00 -0.12626981679E+04  0.12626981679E+04  0.25500000920E-02 0.  1.
    10030    2    1    2    0    0  0.00000000000E+00  0.00000000000E+00  0.40398515783E+03  0.29293814936E+04  0.29013913778E+04 0.  0.
        4    1    3    3  502    0 -0.47484640451E+03  0.75476420986E+03  0.13573078665E+04  0.16240179733E+04  0.12699999809E+01 0. -1.
       -4    1    3    3    0  502  0.47484640451E+03 -0.75476420986E+03 -0.95332270863E+03  0.13053635203E+04  0.12699999809E+01 0.  1.
</event>
<event>
 5   0  0.1829810E-05  0.3078887E+04  0.7818609E-02  0.8221556E-01
       -2   -1    0    0    0  501  0.00000000000E+00  0.00000000000E+00  0.13629732739E+04  0.13629732739E+04  0.25500000920E-02 0. -1.
        2   -1    0    0  501    0  0.00000000000E+00  0.00000000000E+00 -0.17387618758E+04  0.17387618758E+04  0.25500000920E-02 0.  1.
    10030    2    1    2    0    0  0.00000000000E+00  0.00000000000E+00 -0.37578860189E+03  0.31017351497E+04  0.30788867900E+04 0.  0.
        4    1    3    3  502    0  0.85858165218E+03 -0.12773120278E+04 -0.15305611838E+03  0.15466467787E+04  0.12699999809E+01 0.  1.
       -4    1    3    3    0  502 -0.85858165218E+03  0.12773120278E+04 -0.22273248351E+03  0.15550883711E+04  0.12699999809E+01 0. -1.
</event>
<event>
 5   0  0.8122088E-06  0.2851827E+04  0.7818609E-02  0.8287356E-01
        1   -1    0    0  501    0  0.00000000000E+00  0.00000000000E+00  0.15057632867E+04  0.15057632867E+04  0.50400001928E-02 0. -1.
       -1   -1    0    0    0  501  0.00000000000E+00  0.00000000000E+00 -0.13502981704E+04  0.13502981704E+04  0.50400001928E-02 0.  1.
    10030    2    1    2    0    0  0.00000000000E+00  0.00000000000E+00  0.15546511628E+03  0.28560614571E+04  0.28518270712E+04 0.  0.
        1    1    3    3  502    0 -0.12795142277E+04  0.44241781937E+03  0.52598984278E+03  0.14524308936E+04  0.50400001928E-02 0.  1.
       -1    1    3    3    0  502  0.12795142277E+04 -0.44241781937E+03 -0.37052472651E+03  0.14036305635E+04  0.50400001928E-02 0. -1.
</event>
<event>
 5   0  0.1976233E-05  0.2957121E+04  0.7818609E-02  0.8256082E-01
        2   -1    0    0  501    0  0.00000000000E+00  0.00000000000E+00  0.16753731610E+04  0.16753731610E+04  0.25500000920E-02 0.  1.
       -2   -1    0    0    0  501  0.00000000000E+00  0.00000000000E+00 -0.13048679283E+04  0.13048679283E+04  0.25500000920E-02 0. -1.
    10030    2    1    2    0    0  0.00000000000E+00  0.00000000000E+00  0.37050523267E+03  0.29802410893E+04  0.29571206980E+04 0.  0.
        2    1    3    3  502    0  0.27138939972E+02  0.20279563601E+03  0.16610369763E+04  0.16735908785E+04  0.25500000920E-02 0.  1.
       -2    1    3    3    0  502 -0.27138939972E+02 -0.20279563601E+03 -0.12905317436E+04  0.13066502108E+04  0.25500000920E-02 0. -1.
</event>
<event>
 5   0  0.7971153E-06  0.2913152E+04  0.7818609E-02  0.8268975E-01
       -1   -1    0    0    0  501  0.00000000000E+00  0.00000000000E+00  0.10911686342E+04  0.10911686342E+04  0.50400001928E-02 0.  1.
        1   -1    0    0  501    0  0.00000000000E+00  0.00000000000E+00 -0.19443499572E+04  0.19443499572E+04  0.50400001928E-02 0. -1.
    10030    2    1    2    0    0  0.00000000000E+00  0.00000000000E+00 -0.85318132306E+03  0.30355185914E+04  0.29131520298E+04 0.  0.
        5    1    3    3  502    0 -0.75043755302E+03 -0.67523762193E+03 -0.15206904272E+04  0.18252736322E+04  0.46999998093E+01 0. -1.
       -5    1    3    3    0  502  0.75043755302E+03  0.67523762193E+03  0.66750910417E+03  0.12102449592E+04  0.46999998093E+01 0.  1.
</event>
<event>
 5   0  0.7305460E-06  0.2863222E+04  0.7818609E-02  0.8283905E-01
        1   -1    0    0  501    0  0.00000000000E+00  0.00000000000E+00  0.84673397475E+03  0.84673397476E+03  0.50400001928E-02 0.  1.
       -1   -1    0    0    0  501  0.00000000000E+00  0.00000000000E+00 -0.24204894804E+04  0.24204894804E+04  0.50400001928E-02 0. -1.
    10030    2    1    2    0    0  0.00000000000E+00  0.00000000000E+00 -0.15737555056E+04  0.32672234551E+04  0.28632224354E+04 0.  0.
        4    1    3    3  502    0  0.10010436181E+03  0.13901559134E+04 -0.41369314281E+03  0.14538562432E+04  0.12699999809E+01 0. -1.
       -4    1    3    3    0  502 -0.10010436181E+03 -0.13901559134E+04 -0.11600623628E+04  0.18133672119E+04  0.12699999809E+01 0.  1.
</event>
<event>
 5   0  0.7971153E-06  0.1553545E+04  0.7818609E-02  0.8849606E-01
        1   -1    0    0  501    0  0.00000000000E+00  0.00000000000E+00  0.24361407065E+04  0.24361407065E+04  0.50400001928E-02 0.  1.
       -1   -1    0    0    0  501  0.00000000000E+00  0.00000000000E+00 -0.24767690028E+03  0.24767690034E+03  0.50400001928E-02 0. -1.
    10030    2    1    2    0    0  0.00000000000E+00  0.00000000000E+00  0.21884638062E+04  0.26838176068E+04  0.15535453375E+04 0.  0.
        5    1    3    3  502    0  0.44569218753E+03  0.45590699556E+03  0.32773768907E+03  0.71688687912E+03  0.46999998093E+01 0. -1.
       -5    1    3    3    0  502 -0.44569218753E+03 -0.45590699556E+03  0.18607261171E+04  0.19669307277E+04  0.46999998093E+01 0.  1.
</event>
<event>
 5   0  0.1918901E-05  0.2869727E+04  0.7818609E-02  0.8281942E-01
       -2   -1    0    0    0  501  0.00000000000E+00  0.00000000000E+00  0.12242438573E+04  0.12242438573E+04  0.25500000920E-02 0.  1.
        2   -1    0    0  501    0  0.00000000000E+00  0.00000000000E+00 -0.16817182169E+04  0.16817182169E+04  0.25500000920E-02 0. -1.
    10030    2    1    2    0    0  0.00000000000E+00  0.00000000000E+00 -0.45747435962E+03  0.29059620742E+04  0.28697269534E+04 0.  0.
        1    1    3    3  502    0  0.38092380628E+03  0.56652961618E+02 -0.16284058389E+04  0.16733254556E+04  0.50400001928E-02 0. -1.
       -1    1    3    3    0  502 -0.38092380628E+03 -0.56652961618E+02  0.11709314793E+04  0.12326366186E+04  0.50400001928E-02 0.  1.
</event>
<event>
 5   0  0.1937947E-05  0.2837261E+04  0.7818609E-02  0.8291793E-01
       -2   -1    0    0    0  501  0.00000000000E+00  0.00000000000E+00  0.80860257860E+03  0.80860257861E+03  0.25500000920E-02 0.  1.
        2   -1    0    0  501    0  0.00000000000E+00  0.00000000000E+00 -0.24888769236E+04  0.24888769236E+04  0.25500000920E-02 0. -1.
    10030    2    1    2    0    0  0.00000000000E+00  0.00000000000E+00 -0.16802743450E+04  0.32974795022E+04  0.28372608610E+04 0.  0.
        3    1    3    3  502    0  0.13148942229E+04  0.44698395989E+03 -0.11765164207E+04  0.18201462513E+04  0.10100000352E+00 0.  1.
       -3    1    3    3    0  502 -0.13148942229E+04 -0.44698395989E+03 -0.50375792436E+03  0.14773332509E+04  0.10100000352E+00 0. -1.
</event>
<event>
 5   0  0.1960961E-05  0.2766557E+04  0.7818609E-02  0.8313727E-01
        2   -1    0    0  501    0  0.00000000000E+00  0.00000000000E+00  0.20277267511E+04  0.20277267511E+04  0.25500000920E-02 0.  1.
       -2   -1    0    0    0  501  0.00000000000E+00  0.00000000000E+00 -0.94364757632E+03  0.94364757633E+03  0.25500000920E-02 0. -1.
    10030    2    1    2    0    0  0.00000000000E+00  0.00000000000E+00  0.10840791747E+04  0.29713743274E+04  0.27665570185E+04 0.  0.
        5    1    3    3  502    0 -0.84337771190E+03 -0.39931742987E+03  0.16387621974E+04  0.18858165351E+04  0.46999998093E+01 0.  1.
       -5    1    3    3    0  502  0.84337771190E+03  0.39931742987E+03 -0.55468302262E+03  0.10855577922E+04  0.46999998093E+01 0. -1.
</event>
<event>
 5   0  0.7971153E-06  0.2868827E+04  0.7818609E-02  0.8282213E-01
        1   -1    0    0  501    0  0.00000000000E+00  0.00000000000E+00  0.12407706270E+04  0.12407706270E+04  0.50400001928E-02 0.  1.
       -1   -1    0    0    0  501  0.00000000000E+00  0.00000000000E+00 -0.16582778285E+04  0.16582778285E+04  0.50400001928E-02 0. -1.
    10030    2    1    2    0    0  0.00000000000E+00  0.00000000000E+00 -0.41750720155E+03  0.28990484555E+04  0.28688272315E+04 0.  0.
        5    1    3    3  502    0  0.42876152304E+03  0.49343830454E+03  0.10814904365E+04  0.12637094042E+04  0.46999998093E+01 0.  1.
       -5    1    3    3    0  502 -0.42876152304E+03 -0.49343830454E+03 -0.14989976380E+04  0.16353390513E+04  0.46999998093E+01 0. -1.
</event>
<event>
 5   0  0.1937947E-05  0.2878666E+04  0.7818609E-02  0.8279253E-01
       -2   -1    0    0    0  501  0.00000000000E+00  0.00000000000E+00  0.17036676820E+04  0.17036676820E+04  0.25500000920E-02 0. -1.
        2   -1    0    0  501    0  0.00000000000E+00  0.00000000000E+00 -0.12160113003E+04  0.12160113004E+04  0.25500000920E-02 0.  1.
    10030    2    1    2    0    0  0.00000000000E+00  0.00000000000E+00  0.48765638164E+03  0.29196789823E+04  0.28786657697E+04 0.  0.
        3    1    3    3  502    0  0.64687707440E+03 -0.93471437602E+03  0.11393219612E+04  0.16094084179E+04  0.10100000352E+00 0. -1.
       -3    1    3    3    0  502 -0.64687707440E+03  0.93471437602E+03 -0.65166557960E+03  0.13102705644E+04  0.10100000352E+00 0.  1.
</event>
<event>
 5   0  0.1829810E-05  0.1883704E+04  0.7818609E-02  0.8663011E-01
        2   -1    0    0  501    0  0.00000000000E+00  0.00000000000E+00  0.89983759581E+03  0.89983759581E+03  0.25500000920E-02 0.  1.
       -2   -1    0    0    0  501  0.00000000000E+00  0.00000000000E+00 -0.98582775902E+03  0.98582775902E+03  0.25500000920E-02 0. -1.
    10030    2    1    2    0    0  0.00000000000E+00  0.00000000000E+00 -0.85990163210E+02  0.18856653548E+04  0.18837036716E+04 0.  0.
        4    1    3    3  502    0  0.81119809432E+03 -0.47419085802E+03  0.21755736447E+02  0.93987990884E+03  0.12699999809E+01 0.  1.
       -4    1    3    3    0  502 -0.81119809432E+03  0.47419085802E+03 -0.10774589966E+03  0.94578544600E+03  0.12699999809E+01 0. -1.
</event>
<event>
 5   0  0.1960961E-05  0.2919510E+04  0.7818609E-02  0.8267096E-01
       -2   -1    0    0    0  501  0.00000000000E+00  0.00000000000E+00  0.11377653907E+04  0.11377653907E+04  0.25500000920E-02 0.  1.
        2   -1    0    0  501    0  0.00000000000E+00  0.00000000000E+00 -0.18728688653E+04  0.18728688653E+04  0.25500000920E-02 0. -1.
    10030    2    1    2    0    0  0.00000000000E+00  0.00000000000E+00 -0.73510347464E+03  0.30106342560E+04  0.29195104907E+04 0.  0.
        5    1    3    3  502    0  0.89159997508E+03 -0.98572494967E+03  0.25482472611E+03  0.13533521061E+04  0.46999998093E+01 0.  1.
       -5    1    3    3    0  502 -0.89159997508E+03  0.98572494967E+03 -0.98992820075E+03  0.16572821500E+04  0.46999998093E+01 0. -1.
</event>
<event>
 5   0  0.7971153E-06  0.2924543E+04  0.7818609E-02  0.8265613E-01
       -1   -1    0    0    0  501  0.00000000000E+00  0.00000000000E+00  0.15763421363E+04  0.15763421364E+04  0.50400001928E-02 0. -1.
        1   -1    0    0  501    0  0.00000000000E+00  0.00000000000E+00 -0.13564552232E+04  0.13564552232E+04  0.50400001928E-02 0.  1.
    10030    2    1    2    0    0  0.00000000000E+00  0.00000000000E+00  0.21988691312E+03  0.29327973596E+04  0.29245427160E+04 0.  0.
        5    1    3    3  502    0  0.28682067988E+03 -0.16341973062E+03  0.15384793286E+04  0.15735033668E+04  0.46999998093E+01 0. -1.
       -5    1    3    3    0  502 -0.28682067988E+03  0.16341973062E+03 -0.13185924155E+04  0.13592939928E+04  0.46999998093E+01 0.  1.
</event>
<event>
 5   0  0.1937947E-05  0.1657876E+04  0.7818609E-02  0.8785761E-01
       -2   -1    0    0    0  501  0.00000000000E+00  0.00000000000E+00  0.24337562742E+04  0.24337562742E+04  0.25500000920E-02 0. -1.
        2   -1    0    0  501    0  0.00000000000E+00  0.00000000000E+00 -0.28233632959E+03  0.28233632960E+03  0.25500000920E-02 0.  1.
    10030    2    1    2    0    0  0.00000000000E+00  0.00000000000E+00  0.21514199447E+04  0.27160926038E+04  0.16578755244E+04 0.  0.
        3    1    3    3  502    0  0.19305597503E+03  0.50049582230E+03  0.40374761665E+02  0.53795614061E+03  0.10100000352E+00 0.  1.
       -3    1    3    3    0  502 -0.19305597503E+03 -0.50049582230E+03  0.21110451830E+04  0.21781364632E+04  0.10100000352E+00 0. -1.
</event>
<event>
 5   0  0.1918901E-05  0.2923326E+04  0.7818609E-02  0.8265971E-01
       -2   -1    0    0    0  501  0.00000000000E+00  0.00000000000E+00  0.99312208742E+03  0.99312208742E+03  0.25500000920E-02 0.  1.
        2   -1    0    0  501    0  0.00000000000E+00  0.00000000000E+00 -0.21512542438E+04  0.21512542438E+04  0.25500000920E-02 0. -1.
    10030    2    1    2    0    0  0.00000000000E+00  0.00000000000E+00 -0.11581321564E+04  0.31443763312E+04  0.29233255756E+04 0.  0.
        1    1    3    3  502    0 -0.34640683727E+03 -0.83338580157E+03 -0.18157574124E+04  0.20276845346E+04  0.50400001928E-02 0. -1.
       -1    1    3    3    0  502  0.34640683727E+03  0.83338580157E+03  0.65762525604E+03  0.11166917966E+04  0.50400001928E-02 0.  1.
</event>
<event>
 5   0  0.1829810E-05  0.2590290E+04  0.7818609E-02  0.8371507E-01
        2   -1    0    0  501    0  0.00000000000E+00  0.00000000000E+00  0.17971630214E+04  0.17971630214E+04  0.25500000920E-02 0. -1.
       -2   -1    0    0    0  501  0.00000000000E+00  0.00000000000E+00 -0.93336060251E+03  0.93336060251E+03  0.25500000920E-02 0.  1.
    10030    2    1    2    0    0  0.00000000000E+00  0.00000000000E+00  0.86380241893E+03  0.27305236240E+04  0.25902904551E+04 0.  0.
        4    1    3    3  502    0 -0.32194905510E+03  0.59256867852E+03 -0.73367740841E+03  0.99653047387E+03  0.12699999809E+01 0.  1.
       -4    1    3    3    0  502  0.32194905510E+03 -0.59256867852E+03  0.15974798273E+04  0.17339931501E+04  0.12699999809E+01 0. -1.
</event>
<event>
 5   0  0.1918901E-05  0.1768976E+04  0.7818609E-02  0.8722974E-01
        2   -1    0    0  501    0  0.00000000000E+00  0.00000000000E+00  0.79627812663E+03  0.79627812664E+03  0.25500000920E-02 0. -1.
       -2   -1    0    0    0  501  0.00000000000E+00  0.00000000000E+00 -0.98247004757E+03  0.98247004757E+03  0.25500000920E-02 0.  1.
    10030    2    1    2    0    0  0.00000000000E+00  0.00000000000E+00 -0.18619192093E+03  0.17787481742E+04  0.17689764373E+04 0.  0.
        1    1    3    3  502    0  0.20011966266E+03  0.30276614386E+03 -0.90415197204E+03  0.97427203892E+03  0.50400001928E-02 0.  1.
       -1    1    3    3    0  502 -0.20011966266E+03 -0.30276614386E+03  0.71796005110E+03  0.80447613529E+03  0.50400001928E-02 0. -1.
</event>
<event>
 5   0  0.1937947E-05  0.2943962E+04  0.7818609E-02  0.8259916E-01
       -2   -1    0    0    0  501  0.00000000000E+00  0.00000000000E+00  0.15403560026E+04  0.15403560026E+04  0.25500000920E-02 0.  1.
        2   -1    0    0  501    0  0.00000000000E+00  0.00000000000E+00 -0.14066412941E+04  0.14066412941E+04  0.25500000920E-02 0. -1.
    10030    2    1    2    0    0  0.00000000000E+00  0.00000000000E+00  0.13371470847E+03  0.29469972967E+04  0.29439622014E+04 0.  0.
        3    1    3    3  502    0  0.42250638791E+03  0.13807338620E+04 -0.21942823285E+03  0.14605089541E+04  0.10100000352E+00 0. -1.
       -3    1    3    3    0  502 -0.42250638791E+03 -0.13807338620E+04  0.35314294132E+03  0.14864883426E+04  0.10100000352E+00 0.  1.
</event>
<event>
 5   0  0.1976233E-05  0.2647980E+04  0.7818609E-02  0.8352084E-01
        2   -1    0    0  501    0  0.00000000000E+00  0.00000000000E+00  0.19083124345E+04  0.19083124345E+04  0.25500000920E-02 0. -1.
       -2   -1    0    0    0  501  0.00000000000E+00  0.00000000000E+00 -0.91858597070E+03  0.91858597070E+03  0.25500000920E-02 0.  1.
    10030    2    1    2    0    0  0.00000000000E+00  0.00000000000E+00  0.98972646377E+03  0.28268984052E+04  0.26479796298E+04 0.  0.
        2    1    3    3  502    0  0.34372552359E+03 -0.75674562994E+03 -0.60537315270E+03  0.10282450282E+04  0.25500000920E-02 0.  1.
       -2    1    3    3    0  502 -0.34372552359E+03  0.75674562994E+03  0.15950996165E+04  0.17986533770E+04  0.25500000920E-02 0. -1.
</event>
<event>
 5   0  0.1918901E-05  0.2858967E+04  0.7818609E-02  0.8285192E-01
        2   -1    0    0  501    0  0.00000000000E+00  0.00000000000E+00  0.15098844597E+04  0.15098844597E+04  0.25500000920E-02 0. -1.
       -2   -1    0    0    0  501  0.00000000000E+00  0.00000000000E+00 -0.13533639388E+04  0.13533639388E+04  0.25500000920E-02 0.  1.
    10030    2    1    2    0    0  0.00000000000E+00  0.00000000000E+00  0.15652052092E+03  0.28632483985E+04  0.28589670718E+04 0.  0.
        1    1    3    3  502    0 -0.13349121879E+02 -0.11537946170E+04 -0.76680602062E+03  0.13854283419E+04  0.50400001928E-02 0.  1.
       -1    1    3    3    0  502  0.13349121879E+02  0.11537946170E+04  0.92332654155E+03  0.14778200566E+04  0.50400001928E-02 0. -1.
</event>
<event>
 5   0  0.1976233E-05  0.1961907E+04  0.7818609E-02  0.8624641E-01
       -2   -1    0    0    0  501  0.00000000000E+00  0.00000000000E+00  0.64581371651E+03  0.64581371651E+03  0.25500000920E-02 0. -1.
        2   -1    0    0  501    0  0.00000000000E+00  0.00000000000E+00 -0.14900106898E+04  0.14900106898E+04  0.25500000920E-02 0.  1.
    10030    2    1    2    0    0  0.00000000000E+00  0.00000000000E+00 -0.84419697334E+03  0.21358244064E+04  0.19619065638E+04 0.  0.
        2    1    3    3  502    0  0.88456475542E+03 -0.41653772397E+03 -0.33561534245E+03  0.10337292393E+04  0.25500000920E-02 0. -1.
       -2    1    3    3    0  502 -0.88456475542E+03  0.41653772397E+03 -0.50858163088E+03  0.11020951671E+04  0.25500000920E-02 0.  1.
</event>
<event>
 5   0  0.8122088E-06  0.2949591E+04  0.7818609E-02  0.8258274E-01
        1   -1    0    0  501    0  0.00000000000E+00  0.00000000000E+00  0.15562881313E+04  0.15562881313E+04  0.50400001928E-02 0.  1.
       -1   -1    0    0    0  501  0.00000000000E+00  0.00000000000E+00 -0.13975705107E+04  0.13975705107E+04  0.50400001928E-02 0. -1.
    10030    2    1    2    0    0  0.00000000000E+00  0.00000000000E+00  0.15871762060E+03  0.29538586420E+04  0.29495914283E+04 0.  0.
        1    1    3    3  502    0  0.63770197205E+03  0.41276250465E+03  0.13453022165E+04  0.15449513727E+04  0.50400001928E-02 0.  1.
       -1    1    3    3    0  502 -0.63770197205E+03 -0.41276250465E+03 -0.11865845959E+04  0.14089072693E+04  0.50400001928E-02 0. -1.
</event>
<event>
 5   0  0.8055928E-06  0.2786139E+04  0.7818609E-02  0.8307585E-01
        1   -1    0    0  501    0  0.00000000000E+00  0.00000000000E+00  0.20164890742E+04  0.20164890742E+04  0.50400001928E-02 0. -1.
       -1   -1    0    0    0  501  0.00000000000E+00  0.00000000000E+00 -0.96238689458E+03  0.96238689459E+03  0.50400001928E-02 0.  1.
    10030    2    1    2    0    0  0.00000000000E+00  0.00000000000E+00  0.10541021796E+04  0.29788759688E+04  0.27861390189E+04 0.  0.
        2    1    3    3  502    0  0.43317797693E+03  0.18701148790E+03 -0.87435670889E+03  0.99353717127E+03  0.25500000920E-02 0.  1.
       -2    1    3    3    0  502 -0.43317797693E+03 -0.18701148790E+03  0.19284588885E+04  0.19853387975E+04  0.25500000920E-02 0. -1.
</event>
<event>
 5   0  0.7305460E-06  0.2031843E+04  0.7818609E-02  0.8591876E-01
        1   -1    0    0  501    0  0.00000000000E+00  0.00000000000E+00  0.17829777139E+04  0.17829777139E+04  0.50400001928E-02 0.  1.
       -1   -1    0    0    0  501  0.00000000000E+00  0.00000000000E+00 -0.57886105403E+03  0.57886105405E+03  0.50400001928E-02 0. -1.
    10030    2    1    2    0    0  0.00000000000E+00  0.00000000000E+00  0.12041166598E+04  0.23618387679E+04  0.20318428667E+04 0.  0.
        4    1    3    3  502    0 -0.74354675502E+03 -0.67163171262E+03  0.40705070821E+03  0.10815002664E+04  0.12699999809E+01 0.  1.
       -4    1    3    3    0  502  0.74354675502E+03  0.67163171262E+03  0.79706595162E+03  0.12803385015E+04  0.12699999809E+01 0. -1.
</event>
<event>
 5   0  0.6578125E-06  0.2850278E+04  0.7818609E-02  0.8287827E-01
       -3   -1    0    0    0  501  0.00000000000E+00  0.00000000000E+00  0.15393940622E+04  0.15393940655E+04  0.10100000352E+00 0. -1.
        3   -1    0    0  501    0  0.00000000000E+00  0.00000000000E+00 -0.13193637896E+04  0.13193637934E+04  0.10100000352E+00 0.  1.
    10030    2    1    2    0    0  0.00000000000E+00  0.00000000000E+00  0.22003027266E+03  0.28587578589E+04  0.28502777365E+04 0.  0.
        2    1    3    3  502    0  0.40998264095E+03 -0.13105052082E+04  0.49260925834E+03  0.14588260856E+04  0.25500000920E-02 0.  1.
       -2    1    3    3    0  502 -0.40998264095E+03  0.13105052082E+04 -0.27257898568E+03  0.13999317734E+04  0.25500000920E-02 0. -1.
</event>
<event>
 5   0  0.1937947E-05  0.2572796E+04  0.7818609E-02  0.8377501E-01
        2   -1    0    0  501    0  0.00000000000E+00  0.00000000000E+00  0.20764826049E+04  0.20764826049E+04  0.25500000920E-02 0. -1.
       -2   -1    0    0    0  501  0.00000000000E+00  0.00000000000E+00 -0.79693438202E+03  0.79693438203E+03  0.25500000920E-02 0.  1.
    10030    2    1    2    0    0  0.00000000000E+00  0.00000000000E+00  0.12795482229E+04  0.28734169870E+04  0.25727964409E+04 0.  0.
        3    1    3    3  502    0 -0.14152353030E+03  0.43071037039E+03 -0.70475244269E+03  0.83798350131E+03  0.10100000352E+00 0.  1.
       -3    1    3    3    0  502  0.14152353030E+03 -0.43071037039E+03  0.19843006656E+04  0.20354334856E+04  0.10100000352E+00 0. -1.
</event>
<event>
 5   0  0.1937947E-05  0.1894172E+04  0.7818609E-02  0.8657763E-01
        2   -1    0    0  501    0  0.00000000000E+00  0.00000000000E+00  0.99314947493E+03  0.99314947494E+03  0.25500000920E-02 0.  1.
       -2   -1    0    0    0  501  0.00000000000E+00  0.00000000000E+00 -0.90315911423E+03  0.90315911424E+03  0.25500000920E-02 0. -1.
    10030    2    1    2    0    0  0.00000000000E+00  0.00000000000E+00  0.89990360700E+02  0.18963085892E+04  0.18941721148E+04 0.  0.
        3    1    3    3  502    0 -0.30781710727E+01 -0.64766511496E+03 -0.64679248033E+03  0.91532513299E+03  0.10100000352E+00 0.  1.
       -3    1    3    3    0  502  0.30781710727E+01  0.64766511496E+03  0.73678284103E+03  0.98098345619E+03  0.10100000352E+00 0. -1.
</event>
<event>
 5   0  0.8234888E-06  0.2942107E+04  0.7818609E-02  0.8260459E-01
       -1   -1    0    0    0  501  0.00000000000E+00  0.00000000000E+00  0.10036589991E+04  0.10036589991E+04  0.50400001928E-02 0. -1.
        1   -1    0    0  501    0  0.00000000000E+00  0.00000000000E+00 -0.21561092937E+04  0.21561092937E+04  0.50400001928E-02 0.  1.
    10030    2    1    2    0    0  0.00000000000E+00  0.00000000000E+00 -0.11524502947E+04  0.31597682928E+04  0.29421070651E+04 0.  0.
        3    1    3    3  502    0 -0.75393599489E+03  0.12323916849E+04 -0.27861457779E+03  0.14713377731E+04  0.10100000352E+00 0.  1.
       -3    1    3    3    0  502  0.75393599489E+03 -0.12323916849E+04 -0.87383571688E+03  0.16884305197E+04  0.10100000352E+00 0. -1.
</event>
<event>
 5   0  0.7305460E-06  0.2886476E+04  0.7818609E-02  0.8276913E-01
       -1   -1    0    0    0  501  0.00000000000E+00  0.00000000000E+00  0.13800021165E+04  0.13800021166E+04  0.50400001928E-02 0. -1.
        1   -1    0    0  501    0  0.00000000000E+00  0.00000000000E+00 -0.15093713957E+04  0.15093713957E+04  0.50400001928E-02 0.  1.
    10030    2    1    2    0    0  0.00000000000E+00  0.00000000000E+00 -0.12936927919E+03  0.28893735123E+04  0.28864758588E+04 0.  0.
        4    1    3    3  502    0 -0.86711096310E+03  0.90859397483E+03 -0.77639042035E+03  0.14765527864E+04  0.12699999809E+01 0.  1.
       -4    1    3    3    0  502  0.86711096310E+03 -0.90859397483E+03  0.64702114115E+03  0.14128207259E+04  0.12699999809E+01 0. -1.
</event>
<event>
 5   0  0.7971153E-06  0.2633446E+04  0.7818609E-02  0.8356928E-01
       -1   -1    0    0    0  501  0.00000000000E+00  0.00000000000E+00  0.98360391692E+03  0.98360391693E+03  0.50400001928E-02 0.  1.
        1   -1    0    0  501    0  0.00000000000E+00  0.00000000000E+00 -0.17626602094E+04  0.17626602094E+04  0.50400001928E-02 0. -1.
    10030    2    1    2    0    0  0.00000000000E+00  0.00000000000E+00 -0.77905629249E+03  0.27462641263E+04  0.26334460209E+04 0.  0.
        5    1    3    3  502    0 -0.64099019566E+03 -0.25456042988E+03  0.78015958011E+03  0.10413167164E+04  0.46999998093E+01 0.  1.
       -5    1    3    3    0  502  0.64099019566E+03  0.25456042988E+03 -0.15592158726E+04  0.17049474100E+04  0.46999998093E+01 0. -1.
</event>
<event>
 5   0  0.1829810E-05  0.2911006E+04  0.7818609E-02  0.8269610E-01
       -2   -1    0    0    0  501  0.00000000000E+00  0.00000000000E+00  0.11016282992E+04  0.11016282992E+04  0.25500000920E-02 0. -1.
        2   -1    0    0  501    0  0.00000000000E+00  0.00000000000E+00 -0.19230521560E+04  0.19230521560E+04  0.25500000920E-02 0.  1.
    10030    2    1    2    0    0  0.00000000000E+00  0.00000000000E+00 -0.82142385673E+03  0.30246804552E+04  0.29110057890E+04 0.  0.
        4    1    3    3  502    0  0.10824887837E+04 -0.55060590506E+03  0.42282262525E+03  0.12859741113E+04  0.12699999809E+01 0. -1.
       -4    1    3    3    0  502 -0.10824887837E+04  0.55060590506E+03 -0.12442464820E+04  0.17387063439E+04  0.12699999809E+01 0.  1.
</event>
<event>
 5   0  0.1829810E-05  0.1445006E+04  0.7818609E-02  0.8921870E-01
        2   -1    0    0  501    0  0.00000000000E+00  0.00000000000E+00  0.84967238597E+03  0.84967238597E+03  0.25500000920E-02 0. -1.
       -2   -1    0    0    0  501  0.00000000000E+00  0.00000000000E+00 -0.61436713998E+03  0.61436713998E+03  0.25500000920E-02 0.  1.
    10030    2    1    2    0    0  0.00000000000E+00  0.00000000000E+00  0.23530524599E+03  0.14640395260E+04  0.14450062888E+04 0.  0.
        4    1    3    3  502    0  0.18962724702E+03  0.55884557184E+02 -0.58643073609E+03  0.61885717066E+03  0.12699999809E+01 0.  1.
       -4    1    3    3    0  502 -0.18962724702E+03 -0.55884557184E+02  0.82173598208E+03  0.84518235529E+03  0.12699999809E+01 0. -1.
</event>
<event>
 5   0  0.1937947E-05  0.2099690E+04  0.7818609E-02  0.8561380E-01
       -2   -1    0    0    0  501  0.00000000000E+00  0.00000000000E+00  0.66470429146E+03  0.66470429147E+03  0.25500000920E-02 0.  1.
        2   -1    0    0  501    0  0.00000000000E+00  0.00000000000E+00 -0.16581431826E+04  0.16581431826E+04  0.25500000920E-02 0. -1.
    10030    2    1    2    0    0  0.00000000000E+00  0.00000000000E+00 -0.99343889118E+03  0.23228474741E+04  0.20996903480E+04 0.  0.
        3    1    3    3  502    0 -0.26076861515E+03  0.91054775310E+03  0.42651136620E+01  0.94716190946E+03  0.10100000352E+00 0.  1.
       -3    1    3    3    0  502  0.26076861515E+03 -0.91054775310E+03 -0.99770400484E+03  0.13756855647E+04  0.10100000352E+00 0. -1.
</event>
<event>
 5   0  0.8122088E-06  0.2872964E+04  0.7818609E-02  0.8280967E-01
       -1   -1    0    0    0  501  0.00000000000E+00  0.00000000000E+00  0.11255677791E+04  0.11255677791E+04  0.50400001928E-02 0.  1.
        1   -1    0    0  501    0  0.00000000000E+00  0.00000000000E+00 -0.18332798711E+04  0.18332798711E+04  0.50400001928E-02 0. -1.
    10030    2    1    2    0    0  0.00000000000E+00  0.00000000000E+00 -0.70771209203E+03  0.29588476502E+04  0.28729641508E+04 0.  0.
        1    1    3    3  502    0 -0.20312849040E+03 -0.68447213634E+03 -0.16376000286E+04  0.17864761803E+04  0.50400001928E-02 0. -1.
       -1    1    3    3    0  502  0.20312849040E+03  0.68447213634E+03  0.92988793654E+03  0.11723714700E+04  0.50400001928E-02 0.  1.
</event>
<event>
 5   0  0.1829810E-05  0.2171086E+04  0.7818609E-02  0.8530560E-01
        2   -1    0    0  501    0  0.00000000000E+00  0.00000000000E+00  0.12387891880E+04  0.12387891880E+04  0.25500000920E-02 0.  1.
       -2   -1    0    0    0  501  0.00000000000E+00  0.00000000000E+00 -0.95125445380E+03  0.95125445380E+03  0.25500000920E-02 0. -1.
    10030    2    1    2    0    0  0.00000000000E+00  0.00000000000E+00  0.28753473416E+03  0.21900436418E+04  0.21710861175E+04 0.  0.
        4    1    3    3  502    0  0.54608929561E+03 -0.87653202880E+03  0.48117301035E+03  0.11393204093E+04  0.12699999809E+01 0. -1.
       -4    1    3    3    0  502 -0.54608929561E+03  0.87653202880E+03 -0.19363827620E+03  0.10507232324E+04  0.12699999809E+01 0.  1.
</event>
<event>
 5   0  0.7305460E-06  0.1678026E+04  0.7818609E-02  0.8773997E-01
        1   -1    0    0  501    0  0.00000000000E+00  0.00000000000E+00  0.14088110253E+04  0.14088110253E+04  0.50400001928E-02 0.  1.
       -1   -1    0    0    0  501  0.00000000000E+00  0.00000000000E+00 -0.49967181743E+03  0.49967181745E+03  0.50400001928E-02 0. -1.
    10030    2    1    2    0    0  0.00000000000E+00  0.00000000000E+00  0.90913920789E+03  0.19084828428E+04  0.16780264187E+04 0.  0.
        4    1    3    3  502    0  0.52504375042E+03  0.99187457424E+02  0.11902719659E+04  0.13047061191E+04  0.12699999809E+01 0.  1.
       -4    1    3    3    0  502 -0.52504375042E+03 -0.99187457424E+02 -0.28113275797E+03  0.60377672369E+03  0.12699999809E+01 0. -1.
</event>
<event>
 5   0  0.1918901E-05  0.2955754E+04  0.7818609E-02  0.8256480E-01
       -2   -1    0    0    0  501  0.00000000000E+00  0.00000000000E+00  0.11391323127E+04  0.11391323127E+04  0.25500000920E-02 0. -1.
        2   -1    0    0  501    0  0.00000000000E+00  0.00000000000E+00 -0.19173544449E+04  0.19173544449E+04  0.25500000920E-02 0.  1.
    10030    2    1    2    0    0  0.00000000000E+00  0.00000000000E+00 -0.77822213221E+03  0.30564867577E+04  0.29557539838E+04 0.  0.
        1    1    3    3  502    0 -0.67404752634E+03  0.10102733342E+03  0.96690441062E+03  0.11829838246E+04  0.50400001928E-02 0. -1.
       -1    1    3    3    0  502  0.67404752634E+03 -0.10102733342E+03 -0.17451265428E+04  0.18735029331E+04  0.50400001928E-02 0.  1.
</event>
<event>
 5   0  0.1960961E-05  0.2919172E+04  0.7818609E-02  0.8267196E-01
        2   -1    0    0  501    0  0.00000000000E+00  0.00000000000E+00  0.26379301127E+04  0.26379301127E+04  0.25500000920E-02 0. -1.
       -2   -1    0    0    0  501  0.00000000000E+00  0.00000000000E+00 -0.80759949540E+03  0.80759949541E+03  0.25500000920E-02 0.  1.
    10030    2    1    2    0    0  0.00000000000E+00  0.00000000000E+00  0.18303306172E+04  0.34455296081E+04  0.29191718195E+04 0.  0.
        5    1    3    3  502    0  0.11895943708E+04 -0.82734106088E+03  0.70822032725E+03  0.16128317085E+04  0.46999998093E+01 0.  1.
       -5    1    3    3    0  502 -0.11895943708E+04  0.82734106088E+03  0.11221102900E+04  0.18326978995E+04  0.46999998093E+01 0. -1.
</event>
<event>
 5   0  0.7305460E-06  0.2917337E+04  0.7818609E-02  0.8267738E-01
        1   -1    0    0  501    0  0.00000000000E+00  0.00000000000E+00  0.17889269817E+04  0.17889269817E+04  0.50400001928E-02 0.  1.
       -1   -1    0    0    0  501  0.00000000000E+00  0.00000000000E+00 -0.11893802997E+04  0.11893802997E+04  0.50400001928E-02 0. -1.
    10030    2    1    2    0    0  0.00000000000E+00  0.00000000000E+00  0.59954668203E+03  0.29783072814E+04  0.29173374913E+04 0.  0.
        4    1    3    3  502    0  0.28686983378E+03  0.34645810081E+03 -0.11168084821E+04  0.12039893337E+04  0.12699999809E+01 0. -1.
       -4    1    3    3    0  502 -0.28686983378E+03 -0.34645810081E+03  0.17163551641E+04  0.17743179477E+04  0.12699999809E+01 0.  1.
</event>
<event>
 5   0  0.8122088E-06  0.2883237E+04  0.7818609E-02  0.8277882E-01
       -1   -1    0    0    0  501  0.00000000000E+00  0.00000000000E+00  0.68740714439E+03  0.68740714441E+03  0.50400001928E-02 0. -1.
        1   -1    0    0  501    0  0.00000000000E+00  0.00000000000E+00 -0.30233383197E+04  0.30233383197E+04  0.50400001928E-02 0.  1.
    10030    2    1    2    0    0  0.00000000000E+00  0.00000000000E+00 -0.23359311753E+04  0.37107454641E+04  0.28832373200E+04 0.  0.
        1    1    3    3  502    0  0.12188225716E+04 -0.66645824865E+03 -0.16640382756E+04  0.21676527492E+04  0.50400001928E-02 0.  1.
       -1    1    3    3    0  502 -0.12188225716E+04  0.66645824865E+03 -0.67189289972E+03  0.15430927150E+04  0.50400001928E-02 0. -1.
</event>
<event>
 5   0  0.7305460E-06  0.2726016E+04  0.7818609E-02  0.8326613E-01
       -1   -1    0    0    0  501  0.00000000000E+00  0.00000000000E+00  0.84321479602E+03  0.84321479604E+03  0.50400001928E-02 0.  1.
        1   -1    0    0  501    0  0.00000000000E+00  0.00000000000E+00 -0.22032242486E+04  0.22032242486E+04  0.50400001928E-02 0. -1.
    10030    2    1    2    0    0  0.00000000000E+00  0.00000000000E+00 -0.13600094526E+04  0.30464390447E+04  0.27260163502E+04 0.  0.
        4    1    3    3  502    0 -0.52090872382E+03 -0.94666125610E+03 -0.16084910241E+04  0.19377199023E+04  0.12699999809E+01 0. -1.
       -4    1    3    3    0  502  0.52090872382E+03  0.94666125610E+03  0.24848157149E+03  0.11087191424E+04  0.12699999809E+01 0.  1.
</event>
<event>
 5   0  0.1829810E-05  0.2921650E+04  0.7818609E-02  0.8266465E-01
        2   -1    0    0  501    0  0.00000000000E+00  0.00000000000E+00  0.16232891428E+04  0.16232891428E+04  0.25500000920E-02 0. -1.
       -2   -1    0    0    0  501  0.00000000000E+00  0.00000000000E+00 -0.13146206357E+04  0.13146206357E+04  0.25500000920E-02 0.  1.
    10030    2    1    2    0    0  0.00000000000E+00  0.00000000000E+00  0.30866850718E+03  0.29379097785E+04  0.29216498112E+04 0.  0.
        4    1    3    3  502    0  0.10145589346E+04  0.55543441408E+03  0.10515840223E+04  0.15632235250E+04  0.12699999809E+01 0. -1.
       -4    1    3    3    0  502 -0.10145589346E+04 -0.55543441408E+03 -0.74291551517E+03  0.13746862535E+04  0.12699999809E+01 0.  1.
</event>
<event>
 5   0  0.8122088E-06  0.2831062E+04  0.7818609E-02  0.8293689E-01
        1   -1    0    0  501    0  0.00000000000E+00  0.00000000000E+00  0.16830667895E+04  0.16830667895E+04  0.50400001928E-02 0. -1.
       -1   -1    0    0    0  501  0.00000000000E+00  0.00000000000E+00 -0.11905217078E+04  0.11905217078E+04  0.50400001928E-02 0.  1.
    10030    2    1    2    0    0  0.00000000000E+00  0.00000000000E+00  0.49254508170E+03  0.28735884973E+04  0.28310616726E+04 0.  0.
        1    1    3    3  502    0  0.81669292275E+03  0.66210778527E+03  0.12083252749E+04  0.16016941092E+04  0.50400001928E-02 0. -1.
       -1    1    3    3    0  502 -0.81669292275E+03 -0.66210778527E+03 -0.71578019322E+03  0.12718943881E+04  0.50400001928E-02 0.  1.
</event>
<event>
 5   0  0.1918901E-05  0.2926181E+04  0.7818609E-02  0.8265130E-01
       -2   -1    0    0    0  501  0.00000000000E+00  0.00000000000E+00  0.71642729049E+03  0.71642729050E+03  0.25500000920E-02 0. -1.
        2   -1    0    0  501    0  0.00000000000E+00  0.00000000000E+00 -0.29879285004E+04  0.29879285004E+04  0.25500000920E-02 0.  1.
    10030    2    1    2    0    0  0.00000000000E+00  0.00000000000E+00 -0.22715012099E+04  0.37043557909E+04  0.29261808008E+04 0.  0.
        1    1    3    3  502    0  0.68129919596E+03  0.15518362277E+03  0.49154664691E+03  0.85432350858E+03  0.50400001928E-02 0. -1.
       -1    1    3    3    0  502 -0.68129919596E+03 -0.15518362277E+03 -0.27630478568E+04  0.28500322823E+04  0.50400001928E-02 0.  1.
</event>
<event>
 5   0  0.6578125E-06  0.2990390E+04  0.7818609E-02  0.8246480E-01
        3   -1    0    0  501    0  0.00000000000E+00  0.00000000000E+00  0.13087063317E+04  0.13087063356E+04  0.10100000352E+00 0. -1.
       -3   -1    0    0    0  501  0.00000000000E+00  0.00000000000E+00 -0.17082578186E+04  0.17082578216E+04  0.10100000352E+00 0.  1.
    10030    2    1    2    0    0  0.00000000000E+00  0.00000000000E+00 -0.39955148685E+03  0.30169641572E+04  0.29903898300E+04 0.  0.
        2    1    3    3  502    0 -0.38237329783E+03  0.14350503227E+04 -0.24946830699E+02  0.14853286209E+04  0.25500000920E-02 0.  1.
       -2    1    3    3    0  502  0.38237329783E+03 -0.14350503227E+04 -0.37460465615E+03  0.15316355363E+04  0.25500000920E-02 0. -1.
</event>
<event>
 5   0  0.1937947E-05  0.2882451E+04  0.7818609E-02  0.8278118E-01
        2   -1    0    0  501    0  0.00000000000E+00  0.00000000000E+00  0.93407725123E+03  0.93407725123E+03  0.25500000920E-02 0.  1.
       -2   -1    0    0    0  501  0.00000000000E+00  0.00000000000E+00 -0.22237243104E+04  0.22237243104E+04  0.25500000920E-02 0. -1.
    10030    2    1    2    0    0  0.00000000000E+00  0.00000000000E+00 -0.12896470592E+04  0.31578015616E+04  0.28824505486E+04 0.  0.
        3    1    3    3  502    0 -0.95659724465E+03 -0.88190045203E+03  0.34317842992E+02  0.13015392504E+04  0.10100000352E+00 0.  1.
       -3    1    3    3    0  502  0.95659724465E+03  0.88190045203E+03 -0.13239649022E+04  0.18562623112E+04  0.10100000352E+00 0. -1.
</event>
<event>
 5   0  0.8122088E-06  0.2285050E+04  0.7818609E-02  0.8483839E-01
       -1   -1    0    0    0  501  0.00000000000E+00  0.00000000000E+00  0.60735313818E+03  0.60735313820E+03  0.50400001928E-02 0.  1.
        1   -1    0    0  501    0  0.00000000000E+00  0.00000000000E+00 -0.21492664914E+04  0.21492664914E+04  0.50400001928E-02 0. -1.
    10030    2    1    2    0    0  0.00000000000E+00  0.00000000000E+00 -0.15419133532E+04  0.27566196296E+04  0.22850503262E+04 0.  0.
        1    1    3    3  502    0  0.41965525181E+02 -0.80880313589E+03  0.20123217262E+03  0.83451662970E+03  0.50400001928E-02 0.  1.
       -1    1    3    3    0  502 -0.41965525181E+02  0.80880313589E+03 -0.17431455258E+04  0.19221029999E+04  0.50400001928E-02 0. -1.
</event>
<event>
 5   0  0.6578125E-06  0.2826123E+04  0.7818609E-02  0.8295204E-01
        3   -1    0    0  501    0  0.00000000000E+00  0.00000000000E+00  0.86004351693E+03  0.86004352286E+03  0.10100000352E+00 0. -1.
       -3   -1    0    0    0  501  0.00000000000E+00  0.00000000000E+00 -0.23216767905E+04  0.23216767927E+04  0.10100000352E+00 0.  1.
    10030    2    1    2    0    0  0.00000000000E+00  0.00000000000E+00 -0.14616332736E+04  0.31817203156E+04  0.28261231997E+04 0.  0.
        2    1    3    3  502    0  0.10603045090E+03 -0.36440774479E+03  0.80159116748E+03  0.88689563127E+03  0.25500000920E-02 0. -1.
       -2    1    3    3    0  502 -0.10603045090E+03  0.36440774479E+03 -0.22632244411E+04  0.22948246843E+04  0.25500000920E-02 0.  1.
</event>
<event>
 5   0  0.1960961E-05  0.2887817E+04  0.7818609E-02  0.8276512E-01
        2   -1    0    0  501    0  0.00000000000E+00  0.00000000000E+00  0.23281816092E+04  0.23281816092E+04  0.25500000920E-02 0.  1.
       -2   -1    0    0    0  501  0.00000000000E+00  0.00000000000E+00 -0.89549333293E+03  0.89549333293E+03  0.25500000920E-02 0. -1.
    10030    2    1    2    0    0  0.00000000000E+00  0.00000000000E+00  0.14326882763E+04  0.32236749422E+04  0.28878165516E+04 0.  0.
        5    1    3    3  502    0 -0.84903859544E+03 -0.10829293683E+04  0.12045223038E+04  0.18287970428E+04  0.46999998093E+01 0. -1.
       -5    1    3    3    0  502  0.84903859544E+03  0.10829293683E+04  0.22816597248E+03  0.13948778994E+04  0.46999998093E+01 0.  1.
</event>
<event>
 5   0  0.8122088E-06  0.2678347E+04  0.7818609E-02  0.8342065E-01
        1   -1    0    0  501    0  0.00000000000E+00  0.00000000000E+00  0.11842804985E+04  0.11842804985E+04  0.50400001928E-02 0.  1.
       -1   -1    0    0    0  501  0.00000000000E+00  0.00000000000E+00 -0.15143254652E+04  0.15143254652E+04  0.50400001928E-02 0. -1.
    10030    2    1    2    0    0  0.00000000000E+00  0.00000000000E+00 -0.33004496670E+03  0.26986059637E+04  0.26783473388E+04 0.  0.
        1    1    3    3  502    0 -0.15119993780E+03  0.10368339063E+04 -0.10052969972E+04  0.14520702542E+04  0.50400001928E-02 0. -1.
       -1    1    3    3    0  502  0.15119993780E+03 -0.10368339063E+04  0.67525203048E+03  0.12465357096E+04  0.50400001928E-02 0.  1.
</event>
<event>
 5   0  0.7971153E-06  0.2796993E+04  0.7818609E-02  0.8304203E-01
       -1   -1    0    0    0  501  0.00000000000E+00  0.00000000000E+00  0.14534535040E+04  0.14534535040E+04  0.50400001928E-02 0.  1.
        1   -1    0    0  501    0  0.00000000000E+00  0.00000000000E+00 -0.13456174170E+04  0.13456174170E+04  0.50400001928E-02 0. -1.
    10030    2    1    2    0    0  0.00000000000E+00  0.00000000000E+00  0.10783608693E+03  0.27990709210E+04  0.27969929208E+04 0.  0.
        5    1    3    3  502    0 -0.20623785323E+03 -0.12709539447E+03  0.14322876805E+04  0.14526380764E+04  0.46999998093E+01 0.  1.
       -5    1    3    3    0  502  0.20623785323E+03  0.12709539447E+03 -0.13244515935E+04  0.13464328446E+04  0.46999998093E+01 0. -1.
</event>
<event>
 5   0  0.8234888E-06  0.1480633E+04  0.7818609E-02  0.8897435E-01
       -1   -1    0    0    0  501  0.00000000000E+00  0.00000000000E+00  0.48398513644E+03  0.48398513647E+03  0.50400001928E-02 0.  1.
        1   -1    0    0  501    0  0.00000000000E+00  0.00000000000E+00 -0.11324079465E+04  0.11324079465E+04  0.50400001928E-02 0. -1.
    10030    2    1    2    0    0  0.00000000000E+00  0.00000000000E+00 -0.64842281004E+03  0.16163930830E+04  0.14806331274E+04 0.  0.
        3    1    3    3  502    0  0.34989947698E+03  0.54242895297E+03 -0.71995453479E+03  0.96695054443E+03  0.10100000352E+00 0.  1.
       -3    1    3    3    0  502 -0.34989947698E+03 -0.54242895297E+03  0.71531724747E+02  0.64944253853E+03  0.10100000352E+00 0. -1.
</event>
<event>
 5   0  0.1829810E-05  0.2895167E+04  0.7818609E-02  0.8274317E-01
       -2   -1    0    0    0  501  0.00000000000E+00  0.00000000000E+00  0.12062422904E+04  0.12062422904E+04  0.25500000920E-02 0. -1.
        2   -1    0    0  501    0  0.00000000000E+00  0.00000000000E+00 -0.17372111793E+04  0.17372111793E+04  0.25500000920E-02 0.  1.
    10030    2    1    2    0    0  0.00000000000E+00  0.00000000000E+00 -0.53096888888E+03  0.29434534698E+04  0.28951667254E+04 0.  0.
        4    1    3    3  502    0  0.14377339276E+04  0.12045264707E+03 -0.14558408123E+03  0.14500979362E+04  0.12699999809E+01 0. -1.
       -4    1    3    3    0  502 -0.14377339276E+04 -0.12045264707E+03 -0.38538480766E+03  0.14933555336E+04  0.12699999809E+01 0.  1.
</event>
<event>
 5   0  0.8055928E-06  0.2902723E+04  0.7818609E-02  0.8272068E-01
       -1   -1    0    0    0  501  0.00000000000E+00  0.00000000000E+00  0.13831662951E+04  0.13831662951E+04  0.50400001928E-02 0. -1.
        1   -1    0    0  501    0  0.00000000000E+00  0.00000000000E+00 -0.15229185889E+04  0.15229185889E+04  0.50400001928E-02 0.  1.
    10030    2    1    2    0    0  0.00000000000E+00  0.00000000000E+00 -0.13975229377E+03  0.29060848840E+04  0.29027226270E+04 0.  0.
        2    1    3    3  502    0 -0.12270768146E+04  0.57159136688E+03  0.45419505134E+03  0.14278400976E+04  0.25500000920E-02 0. -1.
       -2    1    3    3    0  502  0.12270768146E+04 -0.57159136688E+03 -0.59394734512E+03  0.14782447864E+04  0.25500000920E-02 0.  1.
</event>
<event>
 5   0  0.1918901E-05  0.2862265E+04  0.7818609E-02  0.8284194E-01
       -2   -1    0    0    0  501  0.00000000000E+00  0.00000000000E+00  0.13268576182E+04  0.13268576182E+04  0.25500000920E-02 0. -1.
        2   -1    0    0  501    0  0.00000000000E+00  0.00000000000E+00 -0.15436020501E+04  0.15436020501E+04  0.25500000920E-02 0.  1.
    10030    2    1    2    0    0  0.00000000000E+00  0.00000000000E+00 -0.21674443186E+03  0.28704596683E+04  0.28622649351E+04 0.  0.
        1    1    3    3  502    0  0.38036392908E+02  0.44596865345E+02 -0.15423977835E+04  0.15435111176E+04  0.50400001928E-02 0.  1.
       -1    1    3    3    0  502 -0.38036392908E+02 -0.44596865345E+02  0.13256533516E+04  0.13269485507E+04  0.50400001928E-02 0. -1.
</event>
<event>
 5   0  0.1829810E-05  0.2927829E+04  0.7818609E-02  0.8264645E-01
        2   -1    0    0  501    0  0.00000000000E+00  0.00000000000E+00  0.12122518582E+04  0.12122518582E+04  0.25500000920E-02 0.  1.
       -2   -1    0    0    0  501  0.00000000000E+00  0.00000000000E+00 -0.17678224672E+04  0.17678224673E+04  0.25500000920E-02 0. -1.
    10030    2    1    2    0    0  0.00000000000E+00  0.00000000000E+00 -0.55557060902E+03  0.29800743255E+04  0.29278292785E+04 0.  0.
        4    1    3    3  502    0  0.11370175880E+03 -0.12173065901E+04 -0.10973118104E+04  0.16428202112E+04  0.12699999809E+01 0. -1.
       -4    1    3    3    0  502 -0.11370175880E+03  0.12173065901E+04  0.54174120134E+03  0.13372541143E+04  0.12699999809E+01 0.  1.
</event>
<event>
 5   0  0.1829810E-05  0.2961922E+04  0.7818609E-02  0.8254689E-01
        2   -1    0    0  501    0  0.00000000000E+00  0.00000000000E+00  0.15220425239E+04  0.15220425239E+04  0.25500000920E-02 0. -1.
       -2   -1    0    0    0  501  0.00000000000E+00  0.00000000000E+00 -0.14409882508E+04  0.14409882508E+04  0.25500000920E-02 0.  1.
    10030    2    1    2    0    0  0.00000000000E+00  0.00000000000E+00  0.81054273043E+02  0.29630307747E+04  0.29619219397E+04 0.  0.
        4    1    3    3  502    0  0.11722080348E+04  0.46142822119E+03 -0.73838884498E+03  0.14602079919E+04  0.12699999809E+01 0.  1.
       -4    1    3    3    0  502 -0.11722080348E+04 -0.46142822119E+03  0.81944311802E+03  0.15028227829E+04  0.12699999809E+01 0. -1.
</event>
<event>
 5   0  0.1976233E-05  0.2834140E+04  0.7818609E-02  0.8292747E-01
        2   -1    0    0  501    0  0.00000000000E+00  0.00000000000E+00  0.10363699572E+04  0.10363699572E+04  0.25500000920E-02 0. -1.
       -2   -1    0    0    0  501  0.00000000000E+00  0.00000000000E+00 -0.19376160632E+04  0.19376160632E+04  0.25500000920E-02 0.  1.
    10030    2    1    2    0    0  0.00000000000E+00  0.00000000000E+00 -0.90124610593E+03  0.29739860204E+04  0.28341397824E+04 0.  0.
        2    1    3    3  502    0 -0.18891628937E+03 -0.20839502852E+03 -0.19080282231E+04  0.19286496708E+04  0.25500000920E-02 0.  1.
       -2    1    3    3    0  502  0.18891628937E+03  0.20839502852E+03  0.10067821172E+04  0.10453363496E+04  0.25500000920E-02 0. -1.
</event>
<event>
 5   0  0.1937947E-05  0.2875784E+04  0.7818609E-02  0.8280119E-01
       -2   -1    0    0    0  501  0.00000000000E+00  0.00000000000E+00  0.25431568264E+04  0.25431568264E+04  0.25500000920E-02 0.  1.
        2   -1    0    0  501    0  0.00000000000E+00  0.00000000000E+00 -0.81297889537E+03  0.81297889537E+03  0.25500000920E-02 0. -1.
    10030    2    1    2    0    0  0.00000000000E+00  0.00000000000E+00  0.17301779310E+04  0.33561357218E+04  0.28757835993E+04 0.  0.
        3    1    3    3  502    0  0.73827295965E+03  0.95637006911E+03  0.17749576486E+04  0.21471295574E+04  0.10100000352E+00 0.  1.
       -3    1    3    3    0  502 -0.73827295965E+03 -0.95637006911E+03 -0.44779717552E+02  0.12090061643E+04  0.10100000352E+00 0. -1.
</event>
<event>
 5   0  0.8234888E-06  0.2456321E+04  0.7818609E-02  0.8418714E-01
       -1   -1    0    0    0  501  0.00000000000E+00  0.00000000000E+00  0.11973232271E+04  0.11973232271E+04  0.50400001928E-02 0.  1.
        1   -1    0    0  501    0  0.00000000000E+00  0.00000000000E+00 -0.12597918738E+04  0.12597918738E+04  0.50400001928E-02 0. -1.
    10030    2    1    2    0    0  0.00000000000E+00  0.00000000000E+00 -0.62468646702E+02  0.24571151010E+04  0.24563208845E+04 0.  0.
        3    1    3    3  502    0  0.97941875496E+03 -0.45230103795E+03 -0.61840003756E+03  0.12434854013E+04  0.10100000352E+00 0. -1.
       -3    1    3    3    0  502 -0.97941875496E+03  0.45230103795E+03  0.55593139086E+03  0.12136296997E+04  0.10100000352E+00 0.  1.
</event>
<event>
 5   0  0.7305460E-06  0.2880797E+04  0.7818609E-02  0.8278614E-01
        1   -1    0    0  501    0  0.00000000000E+00  0.00000000000E+00  0.77215964240E+03  0.77215964242E+03  0.50400001928E-02 0. -1.
       -1   -1    0    0    0  501  0.00000000000E+00  0.00000000000E+00 -0.26869411213E+04  0.26869411213E+04  0.50400001928E-02 0.  1.
    10030    2    1    2    0    0  0.00000000000E+00  0.00000000000E+00 -0.19147814789E+04  0.34591007637E+04  0.28807967616E+04 0.  0.
        4    1    3    3  502    0  0.10615954051E+04 -0.50588006133E+03  0.41356171092E+02  0.11766951119E+04  0.12699999809E+01 0. -1.
       -4    1    3    3    0  502 -0.10615954051E+04  0.50588006133E+03 -0.19561376500E+04  0.22824056518E+04  0.12699999809E+01 0.  1.
</event>
<event>
 5   0  0.1937947E-05  0.2735447E+04  0.7818609E-02  0.8323594E-01
       -2   -1    0    0    0  501  0.00000000000E+00  0.00000000000E+00  0.67100561161E+03  0.67100561161E+03  0.25500000920E-02 0.  1.
        2   -1    0    0  501    0  0.00000000000E+00  0.00000000000E+00 -0.27878570472E+04  0.27878570472E+04  0.25500000920E-02 0. -1.
    10030    2    1    2    0    0  0.00000000000E+00  0.00000000000E+00 -0.21168514356E+04  0.34588626588E+04  0.27354471101E+04 0.  0.
        3    1    3    3  502    0  0.13506575620E+04 -0.18634954950E+03 -0.92185406827E+03  0.16458483945E+04  0.10100000352E+00 0.  1.
       -3    1    3    3    0  502 -0.13506575620E+04  0.18634954950E+03 -0.11949973673E+04  0.18130142643E+04  0.10100000352E+00 0. -1.
</event>
<event>
 5   0  0.1976233E-05  0.1654829E+04  0.7818609E-02  0.8787555E-01
       -2   -1    0    0    0  501  0.00000000000E+00  0.00000000000E+00  0.11530676149E+04  0.11530676149E+04  0.25500000920E-02 0.  1.
        2   -1    0    0  501    0  0.00000000000E+00  0.00000000000E+00 -0.59373366020E+03  0.59373366020E+03  0.25500000920E-02 0. -1.
    10030    2    1    2    0    0  0.00000000000E+00  0.00000000000E+00  0.55933395470E+03  0.17468012751E+04  0.16548293634E+04 0.  0.
        2    1    3    3  502    0  0.72229719794E+03 -0.33876767260E+03  0.48068577756E+02  0.79924174461E+03  0.25500000920E-02 0. -1.
       -2    1    3    3    0  502 -0.72229719794E+03  0.33876767260E+03  0.51126537694E+03  0.94755953049E+03  0.25500000920E-02 0.  1.
</event>
<event>
 5   0  0.8122088E-06  0.1647375E+04  0.7818609E-02  0.8791961E-01
       -1   -1    0    0    0  501  0.00000000000E+00  0.00000000000E+00  0.65543337602E+03  0.65543337604E+03  0.50400001928E-02 0.  1.
        1   -1    0    0  501    0  0.00000000000E+00  0.00000000000E+00 -0.10351331486E+04  0.10351331486E+04  0.50400001928E-02 0. -1.
    10030    2    1    2    0    0  0.00000000000E+00  0.00000000000E+00 -0.37969977257E+03  0.16905665247E+04  0.16473746559E+04 0.  0.
        1    1    3    3  502    0 -0.10048696185E+03  0.23021257929E+03  0.61516962241E+03  0.66447658012E+03  0.50400001928E-02 0.  1.
       -1    1    3    3    0  502  0.10048696185E+03 -0.23021257929E+03 -0.99486939498E+03  0.10260899445E+04  0.50400001928E-02 0. -1.
</event>
<event>
 5   0  0.1918901E-05  0.1544084E+04  0.7818609E-02  0.8855656E-01
       -2   -1    0    0    0  501  0.00000000000E+00  0.00000000000E+00  0.58687436330E+03  0.58687436331E+03  0.25500000920E-02 0.  1.
        2   -1    0    0  501    0  0.00000000000E+00  0.00000000000E+00 -0.10156324628E+04  0.10156324628E+04  0.25500000920E-02 0. -1.
    10030    2    1    2    0    0  0.00000000000E+00  0.00000000000E+00 -0.42875809949E+03  0.16025068261E+04  0.15440837477E+04 0.  0.
        1    1    3    3  502    0  0.65072316820E+03  0.38907266390E+03 -0.63159167032E+02  0.76079383531E+03  0.50400001928E-02 0. -1.
       -1    1    3    3    0  502 -0.65072316820E+03 -0.38907266390E+03 -0.36559893246E+03  0.84171299080E+03  0.50400001928E-02 0.  1.
</event>
<event>
 5   0  0.8055928E-06  0.1489613E+04  0.7818609E-02  0.8891389E-01
       -1   -1    0    0    0  501  0.00000000000E+00  0.00000000000E+00  0.63177802379E+03  0.63177802381E+03  0.50400001928E-02 0.  1.
        1   -1    0    0  501    0  0.00000000000E+00  0.00000000000E+00 -0.87805672882E+03  0.87805672883E+03  0.50400001928E-02 0. -1.
    10030    2    1    2    0    0  0.00000000000E+00  0.00000000000E+00 -0.24627870503E+03  0.15098347526E+04  0.14896132987E+04 0.  0.
        2    1    3    3  502    0  0.45608100945E+03 -0.42221776191E+01 -0.71995277091E+03  0.85226739133E+03  0.25500000920E-02 0. -1.
       -2    1    3    3    0  502 -0.45608100945E+03  0.42221776191E+01  0.47367406589E+03  0.65756736131E+03  0.25500000920E-02 0.  1.
</event>
<event>
 5   0  0.1960961E-05  0.1661375E+04  0.7818609E-02  0.8783706E-01
       -2   -1    0    0    0  501  0.00000000000E+00  0.00000000000E+00  0.50069406768E+03  0.50069406769E+03  0.25500000920E-02 0. -1.
        2   -1    0    0  501    0  0.00000000000E+00  0.00000000000E+00 -0.13781698938E+04  0.13781698938E+04  0.25500000920E-02 0.  1.
    10030    2    1    2    0    0  0.00000000000E+00  0.00000000000E+00 -0.87747582612E+03  0.18788639615E+04  0.16613747200E+04 0.  0.
        5    1    3    3  502    0 -0.16490555402E+03 -0.90633083999E+02  0.47625863376E+03  0.51210601821E+03  0.46999998093E+01 0. -1.
       -5    1    3    3    0  502  0.16490555402E+03  0.90633083999E+02 -0.13537344599E+04  0.13667579433E+04  0.46999998093E+01 0.  1.
</event>
<event>
 5   0  0.8055928E-06  0.2932489E+04  0.7818609E-02  0.8263276E-01
        1   -1    0    0  501    0  0.00000000000E+00  0.00000000000E+00  0.14975304399E+04  0.14975304399E+04  0.50400001928E-02 0. -1.
       -1   -1    0    0    0  501  0.00000000000E+00  0.00000000000E+00 -0.14356123944E+04  0.14356123944E+04  0.50400001928E-02 0.  1.
    10030    2    1    2    0    0  0.00000000000E+00  0.00000000000E+00  0.61918045416E+02  0.29331428343E+04  0.29324892228E+04 0.  0.
        2    1    3    3  502    0  0.91199993996E+03 -0.89447999164E+03  0.75086586808E+03  0.14817685034E+04  0.25500000920E-02 0. -1.
       -2    1    3    3    0  502 -0.91199993996E+03  0.89447999164E+03 -0.68894782267E+03  0.14513743309E+04  0.25500000920E-02 0.  1.
</event>
<event>
 5   0  0.8234888E-06  0.2910701E+04  0.7818609E-02  0.8269701E-01
        1   -1    0    0  501    0  0.00000000000E+00  0.00000000000E+00  0.19273658082E+04  0.19273658082E+04  0.50400001928E-02 0. -1.
       -1   -1    0    0    0  501  0.00000000000E+00  0.00000000000E+00 -0.10989324235E+04  0.10989324236E+04  0.50400001928E-02 0.  1.
    10030    2    1    2    0    0  0.00000000000E+00  0.00000000000E+00  0.82843338464E+03  0.30262982317E+04  0.29107007944E+04 0.  0.
        3    1    3    3  502    0 -0.27879260700E+02 -0.67577541798E+03 -0.92560200981E+03  0.11463807219E+04  0.10100000352E+00 0.  1.
       -3    1    3    3    0  502  0.27879260700E+02  0.67577541798E+03  0.17540353945E+04  0.18799175099E+04  0.10100000352E+00 0. -1.
</event>
<event>
 5   0  0.7971153E-06  0.2839361E+04  0.7818609E-02  0.8291151E-01
       -1   -1    0    0    0  501  0.00000000000E+00  0.00000000000E+00  0.14189226739E+04  0.14189226739E+04  0.50400001928E-02 0.  1.
        1   -1    0    0  501    0  0.00000000000E+00  0.00000000000E+00 -0.14204390983E+04  0.14204390983E+04  0.50400001928E-02 0. -1.
    10030    2    1    2    0    0  0.00000000000E+00  0.00000000000E+00 -0.15164244227E+01  0.28393617723E+04  0.28393613673E+04 0.  0.
        5    1    3    3  502    0 -0.89055596144E+03 -0.73164440497E+03  0.82814340665E+03  0.14192381928E+04  0.46999998093E+01 0.  1.
       -5    1    3    3    0  502  0.89055596144E+03  0.73164440497E+03 -0.82965983108E+03  0.14201235795E+04  0.46999998093E+01 0. -1.
</event>
<event>
 5   0  0.1918901E-05  0.2877505E+04  0.7818609E-02  0.8279602E-01
       -2   -1    0    0    0  501  0.00000000000E+00  0.00000000000E+00  0.13352584111E+04  0.13352584111E+04  0.25500000920E-02 0.  1.
        2   -1    0    0  501    0  0.00000000000E+00  0.00000000000E+00 -0.15502684042E+04  0.15502684042E+04  0.25500000920E-02 0. -1.
    10030    2    1    2    0    0  0.00000000000E+00  0.00000000000E+00 -0.21500999308E+03  0.28855268154E+04  0.28775051182E+04 0.  0.
        1    1    3    3  502    0  0.99181326125E+02  0.83203846321E+03 -0.12803311515E+04  0.15301545011E+04  0.50400001928E-02 0. -1.
       -1    1    3    3    0  502 -0.99181326125E+02 -0.83203846321E+03  0.10653211584E+04  0.13553723143E+04  0.50400001928E-02 0.  1.
</event>
<event>
 5   0  0.8234888E-06  0.2792728E+04  0.7818609E-02  0.8305530E-01
        1   -1    0    0  501    0  0.00000000000E+00  0.00000000000E+00  0.20362734028E+04  0.20362734028E+04  0.50400001928E-02 0.  1.
       -1   -1    0    0    0  501  0.00000000000E+00  0.00000000000E+00 -0.95754912119E+03  0.95754912121E+03  0.50400001928E-02 0. -1.
    10030    2    1    2    0    0  0.00000000000E+00  0.00000000000E+00  0.10787242816E+04  0.29938225240E+04  0.27927275609E+04 0.  0.
        3    1    3    3  502    0  0.12237341998E+04  0.11287313835E+03  0.12501001746E+04  0.17530020519E+04  0.10100000352E+00 0.  1.
       -3    1    3    3    0  502 -0.12237341998E+04 -0.11287313835E+03 -0.17137589302E+03  0.12408204721E+04  0.10100000352E+00 0. -1.
</event>
<event>
 5   0  0.1976233E-05  0.2922403E+04  0.7818609E-02  0.8266243E-01
       -2   -1    0    0    0  501  0.00000000000E+00  0.00000000000E+00  0.77137158516E+03  0.77137158517E+03  0.25500000920E-02 0. -1.
        2   -1    0    0  501    0  0.00000000000E+00  0.00000000000E+00 -0.27679391390E+04  0.27679391390E+04  0.25500000920E-02 0.  1.
    10030    2    1    2    0    0  0.00000000000E+00  0.00000000000E+00 -0.19965675538E+04  0.35393107242E+04  0.29224028479E+04 0.  0.
        2    1    3    3  502    0  0.49648448861E+03 -0.59611857347E+03  0.50135223555E+03  0.92369273309E+03  0.25500000920E-02 0. -1.
       -2    1    3    3    0  502 -0.49648448861E+03  0.59611857347E+03 -0.24979197894E+04  0.26156179911E+04  0.25500000920E-02 0.  1.
</event>
<event>
 5   0  0.7305460E-06  0.2050513E+04  0.7818609E-02  0.8583362E-01
        1   -1    0    0  501    0  0.00000000000E+00  0.00000000000E+00  0.17833385656E+04  0.17833385656E+04  0.50400001928E-02 0.  1.
       -1   -1    0    0    0  501  0.00000000000E+00  0.00000000000E+00 -0.58942862111E+03  0.58942862113E+03  0.50400001928E-02 0. -1.
    10030    2    1    2    0    0  0.00000000000E+00  0.00000000000E+00  0.11939099445E+04  0.23727671867E+04  0.20505129034E+04 0.  0.
        4    1    3    3  502    0 -0.46167410615E+03  0.73375422707E+03 -0.36435388283E+02  0.86767931660E+03  0.12699999809E+01 0. -1.
       -4    1    3    3    0  502  0.46167410615E+03 -0.73375422707E+03  0.12303453328E+04  0.15050878701E+04  0.12699999809E+01 0.  1.
</event>
<event>
 5   0  0.7971153E-06  0.2893857E+04  0.7818609E-02  0.8274708E-01
       -1   -1    0    0    0  501  0.00000000000E+00  0.00000000000E+00  0.88763192766E+03  0.88763192767E+03  0.50400001928E-02 0.  1.
        1   -1    0    0  501    0  0.00000000000E+00  0.00000000000E+00 -0.23586375274E+04  0.23586375274E+04  0.50400001928E-02 0. -1.
    10030    2    1    2    0    0  0.00000000000E+00  0.00000000000E+00 -0.14710055997E+04  0.32462694550E+04  0.28938569247E+04 0.  0.
        5    1    3    3  502    0  0.51453979117E+03 -0.83789267719E+02  0.77861204725E+03  0.93703289601E+03  0.46999998093E+01 0.  1.
       -5    1    3    3    0  502 -0.51453979117E+03  0.83789267719E+02 -0.22496176470E+04  0.23092365590E+04  0.46999998093E+01 0. -1.
</event>
<event>
 5   0  0.1960961E-05  0.2678926E+04  0.7818609E-02  0.8341875E-01
        2   -1    0    0  501    0  0.00000000000E+00  0.00000000000E+00  0.10809243123E+04  0.10809243123E+04  0.25500000920E-02 0.  1.
       -2   -1    0    0    0  501  0.00000000000E+00  0.00000000000E+00 -0.16598396465E+04  0.16598396465E+04  0.25500000920E-02 0. -1.
    10030    2    1    2    0    0  0.00000000000E+00  0.00000000000E+00 -0.57891533419E+03  0.27407639588E+04  0.26789259254E+04 0.  0.
        5    1    3    3  502    0 -0.45610486899E+03 -0.30989258081E+03  0.95940542142E+03  0.11065920277E+04  0.46999998093E+01 0.  1.
       -5    1    3    3    0  502  0.45610486899E+03  0.30989258081E+03 -0.15383207556E+04  0.16341719311E+04  0.46999998093E+01 0. -1.
</event>
<event>
 5   0  0.7971153E-06  0.2877038E+04  0.7818609E-02  0.8279742E-01
        1   -1    0    0  501    0  0.00000000000E+00  0.00000000000E+00  0.29490516741E+04  0.29490516741E+04  0.50400001928E-02 0.  1.
       -1   -1    0    0    0  501  0.00000000000E+00  0.00000000000E+00 -0.70169579662E+03  0.70169579664E+03  0.50400001928E-02 0. -1.
    10030    2    1    2    0    0  0.00000000000E+00  0.00000000000E+00  0.22473558775E+04  0.36507474707E+04  0.28770381741E+04 0.  0.
        5    1    3    3  502    0 -0.30955047748E+03  0.57620191862E+03 -0.50207526267E+03  0.82457977692E+03  0.46999998093E+01 0. -1.
       -5    1    3    3    0  502  0.30955047748E+03 -0.57620191862E+03  0.27494311401E+04  0.28261676938E+04  0.46999998093E+01 0.  1.
</event>
<event>
 5   0  0.8055928E-06  0.2901923E+04  0.7818609E-02  0.8272306E-01
       -1   -1    0    0    0  501  0.00000000000E+00  0.00000000000E+00  0.28036167643E+04  0.28036167643E+04  0.50400001928E-02 0. -1.
        1   -1    0    0  501    0  0.00000000000E+00  0.00000000000E+00 -0.75091885752E+03  0.75091885753E+03  0.50400001928E-02 0.  1.
    10030    2    1    2    0    0  0.00000000000E+00  0.00000000000E+00  0.20526979068E+04  0.35545356219E+04  0.29019226024E+04 0.  0.
        2    1    3    3  502    0  0.28747100833E+03  0.20238016945E+03 -0.69795989306E+03  0.78150196797E+03  0.25500000920E-02 0.  1.
       -2    1    3    3    0  502 -0.28747100833E+03 -0.20238016945E+03  0.27506577999E+04  0.27730336539E+04  0.25500000920E-02 0. -1.
</event>
<event>
 5   0  0.1918901E-05  0.3054503E+04  0.7818609E-02  0.8228336E-01
        2   -1    0    0  501    0  0.00000000000E+00  0.00000000000E+00  0.12470759337E+04  0.12470759337E+04  0.25500000920E-02 0. -1.
       -2   -1    0    0    0  501  0.00000000000E+00  0.00000000000E+00 -0.18703733433E+04  0.18703733433E+04  0.25500000920E-02 0.  1.
    10030    2    1    2    0    0  0.00000000000E+00  0.00000000000E+00 -0.62329740958E+03  0.31174492771E+04  0.30545032877E+04 0.  0.
        1    1    3    3  502    0  0.13801350164E+04 -0.30458364427E+03 -0.90232726024E+03  0.16768238860E+04  0.50400001928E-02 0.  1.
       -1    1    3    3    0  502 -0.13801350164E+04  0.30458364427E+03  0.27902985065E+03  0.14406253911E+04  0.50400001928E-02 0. -1.
</event>
<event>
 5   0  0.7305460E-06  0.2921616E+04  0.7818609E-02  0.8266475E-01
        1   -1    0    0  501    0  0.00000000000E+00  0.00000000000E+00  0.27426176197E+04  0.27426176197E+04  0.50400001928E-02 0.  1.
       -1   -1    0    0    0  501  0.00000000000E+00  0.00000000000E+00 -0.77807401651E+03  0.77807401653E+03  0.50400001928E-02 0. -1.
    10030    2    1    2    0    0  0.00000000000E+00  0.00000000000E+00  0.19645436032E+04  0.35206916362E+04  0.29216156538E+04 0.  0.
        4    1    3    3  502    0  0.66808423264E+01 -0.18381207886E+03 -0.76406345053E+03  0.78589190308E+03  0.12699999809E+01 0. -1.
       -4    1    3    3    0  502 -0.66808423264E+01  0.18381207886E+03  0.27286070537E+04  0.27347997331E+04  0.12699999809E+01 0.  1.
</event>
<event>
 5   0  0.1918901E-05  0.1719814E+04  0.7818609E-02  0.8750143E-01
       -2   -1    0    0    0  501  0.00000000000E+00  0.00000000000E+00  0.14831829729E+04  0.14831829730E+04  0.25500000920E-02 0. -1.
        2   -1    0    0  501    0  0.00000000000E+00  0.00000000000E+00 -0.49854969140E+03  0.49854969141E+03  0.25500000920E-02 0.  1.
    10030    2    1    2    0    0  0.00000000000E+00  0.00000000000E+00  0.98463328155E+03  0.19817326644E+04  0.17198144243E+04 0.  0.
        1    1    3    3  502    0 -0.63954691152E+03  0.49837512200E+02  0.11521864859E+04  0.13187257971E+04  0.50400001928E-02 0. -1.
       -1    1    3    3    0  502  0.63954691152E+03 -0.49837512200E+02 -0.16755320438E+03  0.66300686722E+03  0.50400001928E-02 0.  1.
</event>
<event>
 5   0  0.1918901E-05  0.2881457E+04  0.7818609E-02  0.8278416E-01
       -2   -1    0    0    0  501  0.00000000000E+00  0.00000000000E+00  0.13331386597E+04  0.13331386597E+04  0.25500000920E-02 0.  1.
        2   -1    0    0  501    0  0.00000000000E+00  0.00000000000E+00 -0.15570018152E+04  0.15570018152E+04  0.25500000920E-02 0. -1.
    10030    2    1    2    0    0  0.00000000000E+00  0.00000000000E+00 -0.22386315555E+03  0.28901404749E+04  0.28814574875E+04 0.  0.
        1    1    3    3  502    0  0.10115779211E+04  0.73890254233E+02 -0.11382204837E+04  0.15245640458E+04  0.50400001928E-02 0. -1.
       -1    1    3    3    0  502 -0.10115779211E+04 -0.73890254233E+02  0.91435732820E+03  0.13655764291E+04  0.50400001928E-02 0.  1.
</event>
<event>
 5   0  0.7305460E-06  0.2960980E+04  0.7818609E-02  0.8254962E-01
       -1   -1    0    0    0  501  0.00000000000E+00  0.00000000000E+00  0.18064100890E+04  0.18064100890E+04  0.50400001928E-02 0. -1.
        1   -1    0    0  501    0  0.00000000000E+00  0.00000000000E+00 -0.12133740466E+04  0.12133740466E+04  0.50400001928E-02 0.  1.
    10030    2    1    2    0    0  0.00000000000E+00  0.00000000000E+00  0.59303604239E+03  0.30197841356E+04  0.29609803238E+04 0.  0.
        4    1    3    3  502    0  0.11911997399E+04  0.12316463851E+03 -0.59124215274E+03  0.13355505399E+04  0.12699999809E+01 0.  1.
       -4    1    3    3    0  502 -0.11911997399E+04 -0.12316463851E+03  0.11842781951E+04  0.16842335957E+04  0.12699999809E+01 0. -1.
</event>
<event>
 5   0  0.8234888E-06  0.1765533E+04  0.7818609E-02  0.8724846E-01
       -1   -1    0    0    0  501  0.00000000000E+00  0.00000000000E+00  0.82207485953E+03  0.82207485954E+03  0.50400001928E-02 0.  1.
        1   -1    0    0  501    0  0.00000000000E+00  0.00000000000E+00 -0.94793884564E+03  0.94793884565E+03  0.50400001928E-02 0. -1.
    10030    2    1    2    0    0  0.00000000000E+00  0.00000000000E+00 -0.12586398611E+03  0.17700137052E+04  0.17655329999E+04 0.  0.
        3    1    3    3  502    0 -0.78087561383E+03 -0.39691359419E+03 -0.17261512431E+03  0.89280631543E+03  0.10100000352E+00 0.  1.
       -3    1    3    3    0  502  0.78087561383E+03  0.39691359419E+03  0.46751138200E+02  0.87720738976E+03  0.10100000352E+00 0. -1.
</event>
<event>
 5   0  0.1829810E-05  0.2981752E+04  0.7818609E-02  0.8248961E-01
        2   -1    0    0  501    0  0.00000000000E+00  0.00000000000E+00  0.12979831135E+04  0.12979831135E+04  0.25500000920E-02 0. -1.
       -2   -1    0    0    0  501  0.00000000000E+00  0.00000000000E+00 -0.17124350725E+04  0.17124350725E+04  0.25500000920E-02 0.  1.
    10030    2    1    2    0    0  0.00000000000E+00  0.00000000000E+00 -0.41445195898E+03  0.30104181860E+04  0.29817523754E+04 0.  0.
        4    1    3    3  502    0  0.84473463213E+03  0.44971952066E+03  0.94695549481E+03  0.13463099821E+04  0.12699999809E+01 0. -1.
       -4    1    3    3    0  502 -0.84473463213E+03 -0.44971952066E+03 -0.13614074538E+04  0.16641082038E+04  0.12699999809E+01 0.  1.
</event>
<event>
 5   0  0.7305460E-06  0.2762513E+04  0.7818609E-02  0.8315002E-01
        1   -1    0    0  501    0  0.00000000000E+00  0.00000000000E+00  0.12406219444E+04  0.12406219444E+04  0.50400001928E-02 0.  1.
       -1   -1    0    0    0  501  0.00000000000E+00  0.00000000000E+00 -0.15378329553E+04  0.15378329553E+04  0.50400001928E-02 0. -1.
    10030    2    1    2    0    0  0.00000000000E+00  0.00000000000E+00 -0.29721101089E+03  0.27784548997E+04  0.27625128497E+04 0.  0.
        4    1    3    3  502    0  0.11858958750E+04 -0.50942268858E+03 -0.64338670027E+03  0.14421541391E+04  0.12699999809E+01 0.  1.
       -4    1    3    3    0  502 -0.11858958750E+04  0.50942268858E+03  0.34617568938E+03  0.13363007606E+04  0.12699999809E+01 0. -1.
</event>
<event>
 5   0  0.8122088E-06  0.1580357E+04  0.7818609E-02  0.8832707E-01
        1   -1    0    0  501    0  0.00000000000E+00  0.00000000000E+00  0.15181206452E+04  0.15181206452E+04  0.50400001928E-02 0. -1.
       -1   -1    0    0    0  501  0.00000000000E+00  0.00000000000E+00 -0.41128644944E+03  0.41128644947E+03  0.50400001928E-02 0.  1.
    10030    2    1    2    0    0  0.00000000000E+00  0.00000000000E+00  0.11068341957E+04  0.19294070946E+04  0.15803574912E+04 0.  0.
        1    1    3    3  502    0  0.54251838744E+03 -0.57361091500E+03  0.59253761460E+03  0.98714563629E+03  0.50400001928E-02 0. -1.
       -1    1    3    3    0  502 -0.54251838744E+03  0.57361091500E+03  0.51429658112E+03  0.94226145835E+03  0.50400001928E-02 0.  1.
</event>
<event>
 5   0  0.7971153E-06  0.1859453E+04  0.7818609E-02  0.8675307E-01
       -1   -1    0    0    0  501  0.00000000000E+00  0.00000000000E+00  0.10741455461E+04  0.10741455461E+04  0.50400001928E-02 0.  1.
        1   -1    0    0  501    0  0.00000000000E+00  0.00000000000E+00 -0.80472461912E+03  0.80472461913E+03  0.50400001928E-02 0. -1.
    10030    2    1    2    0    0  0.00000000000E+00  0.00000000000E+00  0.26942092695E+03  0.18788701652E+04  0.18594530007E+04 0.  0.
        5    1    3    3  502    0  0.58813948200E+03 -0.60290823463E+03  0.53247440666E+03  0.99647251513E+03  0.46999998093E+01 0.  1.
       -5    1    3    3    0  502 -0.58813948200E+03  0.60290823463E+03 -0.26305347971E+03  0.88239765008E+03  0.46999998093E+01 0. -1.
</event>
<event>
 5   0  0.1829810E-05  0.2835983E+04  0.7818609E-02  0.8292183E-01
       -2   -1    0    0    0  501  0.00000000000E+00  0.00000000000E+00  0.11407182993E+04  0.11407182993E+04  0.25500000920E-02 0. -1.
        2   -1    0    0  501    0  0.00000000000E+00  0.00000000000E+00 -0.17626614420E+04  0.17626614420E+04  0.25500000920E-02 0.  1.
    10030    2    1    2    0    0  0.00000000000E+00  0.00000000000E+00 -0.62194314268E+03  0.29033797413E+04  0.28359831892E+04 0.  0.
        4    1    3    3  502    0 -0.27478573970E+03  0.13253603578E+04 -0.74363941369E+03  0.15443731645E+04  0.12699999809E+01 0. -1.
       -4    1    3    3    0  502  0.27478573970E+03 -0.13253603578E+04  0.12169627101E+03  0.13590065769E+04  0.12699999809E+01 0.  1.
</event>
<event>
 5   0  0.1976233E-05  0.2648814E+04  0.7818609E-02  0.8351807E-01
       -2   -1    0    0    0  501  0.00000000000E+00  0.00000000000E+00  0.99523553230E+03  0.99523553230E+03  0.25500000920E-02 0.  1.
        2   -1    0    0  501    0  0.00000000000E+00  0.00000000000E+00 -0.17624511175E+04  0.17624511175E+04  0.25500000920E-02 0. -1.
    10030    2    1    2    0    0  0.00000000000E+00  0.00000000000E+00 -0.76721558519E+03  0.27576866498E+04  0.26488140562E+04 0.  0.
        2    1    3    3  502    0 -0.29696871207E+03  0.18516473497E+03 -0.17134414144E+04  0.17488161354E+04  0.25500000920E-02 0. -1.
       -2    1    3    3    0  502  0.29696871207E+03 -0.18516473497E+03  0.94622582916E+03  0.10088705144E+04  0.25500000920E-02 0.  1.
</event>
<event>
 5   0  0.7971153E-06  0.2946915E+04  0.7818609E-02  0.8259054E-01
       -1   -1    0    0    0  501  0.00000000000E+00  0.00000000000E+00  0.10322617777E+04  0.10322617777E+04  0.50400001928E-02 0. -1.
        1   -1    0    0  501    0  0.00000000000E+00  0.00000000000E+00 -0.21032230373E+04  0.21032230373E+04  0.50400001928E-02 0.  1.
    10030    2    1    2    0    0  0.00000000000E+00  0.00000000000E+00 -0.10709612596E+04  0.31354848150E+04  0.29469148283E+04 0.  0.
        5    1    3    3  502    0  0.89897368807E+03 -0.44344809288E+03 -0.16845171498E+04  0.19602091778E+04  0.46999998093E+01 0.  1.
       -5    1    3    3    0  502 -0.89897368807E+03  0.44344809288E+03  0.61355589020E+03  0.11752756372E+04  0.46999998093E+01 0. -1.
</event>
<event>
 5   0  0.8122088E-06  0.2824959E+04  0.7818609E-02  0.8295561E-01
        1   -1    0    0  501    0  0.00000000000E+00  0.00000000000E+00  0.23471492721E+04  0.23471492721E+04  0.50400001928E-02 0.  1.
       -1   -1    0    0    0  501  0.00000000000E+00  0.00000000000E+00 -0.85000896326E+03  0.85000896327E+03  0.50400001928E-02 0. -1.
    10030    2    1    2    0    0  0.00000000000E+00  0.00000000000E+00  0.14971403089E+04  0.31971582354E+04  0.28249587037E+04 0.  0.
        1    1    3    3  502    0 -0.54781033150E+03  0.12203133810E+04  0.23510170596E+03  0.13581361196E+04  0.50400001928E-02 0. -1.
       -1    1    3    3    0  502  0.54781033150E+03 -0.12203133810E+04  0.12620386029E+04  0.18390221158E+04  0.50400001928E-02 0.  1.
</event>
<event>
 5   0  0.1937947E-05  0.2795138E+04  0.7818609E-02  0.8304779E-01
        2   -1    0    0  501    0  0.00000000000E+00  0.00000000000E+00  0.18882184797E+04  0.18882184797E+04  0.25500000920E-02 0. -1.
       -2   -1    0    0    0  501  0.00000000000E+00  0.00000000000E+00 -0.10344136100E+04  0.10344136100E+04  0.25500000920E-02 0.  1.
    10030    2    1    2    0    0  0.00000000000E+00  0.00000000000E+00  0.85380486974E+03  0.29226320897E+04  0.27951378457E+04 0.  0.
        3    1    3    3  502    0  0.23034544992E+03  0.20520580235E+03  0.18521730450E+04  0.18776883251E+04  0.10100000352E+00 0. -1.
       -3    1    3    3    0  502 -0.23034544992E+03 -0.20520580235E+03 -0.99836817524E+03  0.10449437646E+04  0.10100000352E+00 0.  1.
</event>
<event>
 5   0  0.1829810E-05  0.3031277E+04  0.7818609E-02  0.8234855E-01
       -2   -1    0    0    0  501  0.00000000000E+00  0.00000000000E+00  0.16266788952E+04  0.16266788952E+04  0.25500000920E-02 0. -1.
        2   -1    0    0  501    0  0.00000000000E+00  0.00000000000E+00 -0.14121781583E+04  0.14121781583E+04  0.25500000920E-02 0.  1.
    10030    2    1    2    0    0  0.00000000000E+00  0.00000000000E+00  0.21450073688E+03  0.30388570536E+04  0.30312772268E+04 0.  0.
        4    1    3    3  502    0  0.92042874099E+03  0.74725940518E+03 -0.83934220969E+03  0.14526123515E+04  0.12699999809E+01 0.  1.
       -4    1    3    3    0  502 -0.92042874099E+03 -0.74725940518E+03  0.10538429466E+04  0.15862447021E+04  0.12699999809E+01 0. -1.
</event>
<event>
 5   0  0.1829810E-05  0.2943449E+04  0.7818609E-02  0.8260066E-01
        2   -1    0    0  501    0  0.00000000000E+00  0.00000000000E+00  0.15261663832E+04  0.15261663832E+04  0.25500000920E-02 0. -1.
       -2   -1    0    0    0  501  0.00000000000E+00  0.00000000000E+00 -0.14192249743E+04  0.14192249743E+04  0.25500000920E-02 0.  1.
    10030    2    1    2    0    0  0.00000000000E+00  0.00000000000E+00  0.10694140888E+03  0.29453913576E+04  0.29434493004E+04 0.  0.
        4    1    3    3  502    0  0.12769756541E+04 -0.66295026831E+02  0.78258714941E+03  0.14991684732E+04  0.12699999809E+01 0. -1.
       -4    1    3    3    0  502 -0.12769756541E+04  0.66295026831E+02 -0.67564574052E+03  0.14462228844E+04  0.12699999809E+01 0.  1.
</event>
<event>
 5   0  0.8234888E-06  0.2919680E+04  0.7818609E-02  0.8267046E-01
        1   -1    0    0  501    0  0.00000000000E+00  0.00000000000E+00  0.21972994749E+04  0.21972994749E+04  0.50400001928E-02 0. -1.
       -1   -1    0    0    0  501  0.00000000000E+00  0.00000000000E+00 -0.96988744011E+03  0.96988744013E+03  0.50400001928E-02 0.  1.
    10030    2    1    2    0    0  0.00000000000E+00  0.00000000000E+00  0.12274120348E+04  0.31671869150E+04  0.29196802310E+04 0.  0.
        3    1    3    3  502    0  0.12449654643E+04 -0.53048966554E+03  0.19774995410E+02  0.13534213509E+04  0.10100000352E+00 0.  1.
       -3    1    3    3    0  502 -0.12449654643E+04  0.53048966554E+03  0.12076370394E+04  0.18137655641E+04  0.10100000352E+00 0. -1.
</event>
<event>
 5   0  0.8234888E-06  0.2874818E+04  0.7818609E-02  0.8280409E-01
       -1   -1    0    0    0  501  0.00000000000E+00  0.00000000000E+00  0.10521129210E+04  0.10521129210E+04  0.50400001928E-02 0. -1.
        1   -1    0    0  501    0  0.00000000000E+00  0.00000000000E+00 -0.19638056352E+04  0.19638056352E+04  0.50400001928E-02 0.  1.
    10030    2    1    2    0    0  0.00000000000E+00  0.00000000000E+00 -0.91169271416E+03  0.30159185562E+04  0.28748184521E+04 0.  0.
        3    1    3    3  502    0  0.60732857065E+03 -0.71836814660E+03 -0.15960412274E+04  0.18526328283E+04  0.10100000352E+00 0.  1.
       -3    1    3    3    0  502 -0.60732857065E+03  0.71836814660E+03  0.68434851328E+03  0.11632857278E+04  0.10100000352E+00 0. -1.
</event>
<event>
 5   0  0.8122088E-06  0.2502125E+04  0.7818609E-02  0.8402229E-01
       -1   -1    0    0    0  501  0.00000000000E+00  0.00000000000E+00  0.85298533731E+03  0.85298533732E+03  0.50400001928E-02 0. -1.
        1   -1    0    0  501    0  0.00000000000E+00  0.00000000000E+00 -0.18349177887E+04  0.18349177887E+04  0.50400001928E-02 0.  1.
    10030    2    1    2    0    0  0.00000000000E+00  0.00000000000E+00 -0.98193245144E+03  0.26879031261E+04  0.25021254717E+04 0.  0.
        1    1    3    3  502    0 -0.41924826416E+03 -0.93046308232E+03 -0.12683145645E+04  0.16279288956E+04  0.50400001928E-02 0.  1.
       -1    1    3    3    0  502  0.41924826416E+03  0.93046308232E+03  0.28638211306E+03  0.10599742305E+04  0.50400001928E-02 0. -1.
</event>
<event>
 5   0  0.8055928E-06  0.2977862E+04  0.7818609E-02  0.8250081E-01
       -1   -1    0    0    0  501  0.00000000000E+00  0.00000000000E+00  0.11916884495E+04  0.11916884496E+04  0.50400001928E-02 0. -1.
        1   -1    0    0  501    0  0.00000000000E+00  0.00000000000E+00 -0.18603151040E+04  0.18603151041E+04  0.50400001928E-02 0.  1.
    10030    2    1    2    0    0  0.00000000000E+00  0.00000000000E+00 -0.66862665450E+03  0.30520035536E+04  0.29778623353E+04 0.  0.
        2    1    3    3  502    0  0.65428763008E+03  0.30570752015E+03  0.10001671778E+04  0.12336465354E+04  0.25500000920E-02 0. -1.
       -2    1    3    3    0  502 -0.65428763008E+03 -0.30570752015E+03 -0.16687938323E+04  0.18183570182E+04  0.25500000920E-02 0.  1.
</event>
<event>
 5   0  0.1937947E-05  0.2863332E+04  0.7818609E-02  0.8283872E-01
       -2   -1    0    0    0  501  0.00000000000E+00  0.00000000000E+00  0.20376558867E+04  0.20376558867E+04  0.25500000920E-02 0.  1.
        2   -1    0    0  501    0  0.00000000000E+00  0.00000000000E+00 -0.10058945859E+04  0.10058945860E+04  0.25500000920E-02 0. -1.
    10030    2    1    2    0    0  0.00000000000E+00  0.00000000000E+00  0.10317613008E+04  0.30435504727E+04  0.28633316430E+04 0.  0.
        3    1    3    3  502    0 -0.13637567405E+04  0.27176474065E+03  0.15388980628E+03  0.13990606149E+04  0.10100000352E+00 0.  1.
       -3    1    3    3    0  502  0.13637567405E+04 -0.27176474065E+03  0.87787149448E+03  0.16444898578E+04  0.10100000352E+00 0. -1.
</event>
<event>
 5   0  0.1937947E-05  0.2355344E+04  0.7818609E-02  0.8456414E-01
        2   -1    0    0  501    0  0.00000000000E+00  0.00000000000E+00  0.14710386449E+04  0.14710386449E+04  0.25500000920E-02 0. -1.
       -2   -1    0    0    0  501  0.00000000000E+00  0.00000000000E+00 -0.94281091481E+03  0.94281091481E+03  0.25500000920E-02 0.  1.
    10030    2    1    2    0    0  0.00000000000E+00  0.00000000000E+00  0.52822773009E+03  0.24138495597E+04  0.23553439583E+04 0.  0.
        3    1    3    3  502    0 -0.10142272366E+04 -0.85732253817E+02 -0.34297218401E+03  0.10740748745E+04  0.10100000352E+00 0.  1.
       -3    1    3    3    0  502  0.10142272366E+04  0.85732253817E+02  0.87119991409E+03  0.13397746853E+04  0.10100000352E+00 0. -1.
</event>
<event>
 5   0  0.8234888E-06  0.2872394E+04  0.7818609E-02  0.8281139E-01
       -1   -1    0    0    0  501  0.00000000000E+00  0.00000000000E+00  0.24736834841E+04  0.24736834841E+04  0.50400001928E-02 0.  1.
        1   -1    0    0  501    0  0.00000000000E+00  0.00000000000E+00 -0.83384219475E+03  0.83384219476E+03  0.50400001928E-02 0. -1.
    10030    2    1    2    0    0  0.00000000000E+00  0.00000000000E+00  0.16398412894E+04  0.33075256789E+04  0.28723938905E+04 0.  0.
        3    1    3    3  502    0 -0.18033832341E+03  0.46877715196E+03 -0.72941327355E+03  0.88561710853E+03  0.10100000352E+00 0. -1.
       -3    1    3    3    0  502  0.18033832341E+03 -0.46877715196E+03  0.23692545629E+04  0.24219085704E+04  0.10100000352E+00 0.  1.
</event>
<event>
 5   0  0.1976233E-05  0.2944664E+04  0.7818609E-02  0.8259711E-01
       -2   -1    0    0    0  501  0.00000000000E+00  0.00000000000E+00  0.93925881326E+03  0.93925881326E+03  0.25500000920E-02 0.  1.
        2   -1    0    0  501    0  0.00000000000E+00  0.00000000000E+00 -0.23079485939E+04  0.23079485939E+04  0.25500000920E-02 0. -1.
    10030    2    1    2    0    0  0.00000000000E+00  0.00000000000E+00 -0.13686897807E+04  0.32472074072E+04  0.29446636870E+04 0.  0.
        2    1    3    3  502    0  0.12413988760E+04  0.46686342040E+03 -0.13893491716E+04  0.19207612405E+04  0.25500000920E-02 0. -1.
       -2    1    3    3    0  502 -0.12413988760E+04 -0.46686342040E+03  0.20659390931E+02  0.13264461666E+04  0.25500000920E-02 0.  1.
</event>
<event>
 5   0  0.1918901E-05  0.2858704E+04  0.7818609E-02  0.8285271E-01
       -2   -1    0    0    0  501  0.00000000000E+00  0.00000000000E+00  0.13428585838E+04  0.13428585838E+04  0.25500000920E-02 0.  1.
        2   -1    0    0  501    0  0.00000000000E+00  0.00000000000E+00 -0.15214165962E+04  0.15214165962E+04  0.25500000920E-02 0. -1.
    10030    2    1    2    0    0  0.00000000000E+00  0.00000000000E+00 -0.17855801241E+03  0.28642751799E+04  0.28587041369E+04 0.  0.
        1    1    3    3  502    0 -0.36648790195E+03 -0.58225891516E+03 -0.13446007047E+04  0.15103939492E+04  0.50400001928E-02 0. -1.
       -1    1    3    3    0  502  0.36648790195E+03  0.58225891516E+03  0.11660426923E+04  0.13538812307E+04  0.50400001928E-02 0.  1.
</event>
<event>
 5   0  0.1829810E-05  0.2871153E+04  0.7818609E-02  0.8281512E-01
        2   -1    0    0  501    0  0.00000000000E+00  0.00000000000E+00  0.15202528019E+04  0.15202528019E+04  0.25500000920E-02 0. -1.
       -2   -1    0    0    0  501  0.00000000000E+00  0.00000000000E+00 -0.13556166021E+04  0.13556166021E+04  0.25500000920E-02 0.  1.
    10030    2    1    2    0    0  0.00000000000E+00  0.00000000000E+00  0.16463619980E+03  0.28758694039E+04  0.28711530350E+04 0.  0.
        4    1    3    3  502    0 -0.73989040281E+03  0.63662929847E+03 -0.97209514022E+03  0.13775722291E+04  0.12699999809E+01 0.  1.
       -4    1    3    3    0  502  0.73989040281E+03 -0.63662929847E+03  0.11367313400E+04  0.14982971748E+04  0.12699999809E+01 0. -1.
</event>
<event>
 5   0  0.7971153E-06  0.2128335E+04  0.7818609E-02  0.8548863E-01
        1   -1    0    0  501    0  0.00000000000E+00  0.00000000000E+00  0.17356549810E+04  0.17356549811E+04  0.50400001928E-02 0.  1.
       -1   -1    0    0    0  501  0.00000000000E+00  0.00000000000E+00 -0.65246433071E+03  0.65246433073E+03  0.50400001928E-02 0. -1.
    10030    2    1    2    0    0  0.00000000000E+00  0.00000000000E+00  0.10831906503E+04  0.23881193118E+04  0.21283354675E+04 0.  0.
        5    1    3    3  502    0 -0.67907900535E+03  0.65692095796E+03  0.10909892662E+04  0.14432508824E+04  0.46999998093E+01 0. -1.
       -5    1    3    3    0  502  0.67907900535E+03 -0.65692095796E+03 -0.77986158572E+01  0.94486842942E+03  0.46999998093E+01 0.  1.
</event>
<event>
 5   0  0.1918901E-05  0.2909417E+04  0.7818609E-02  0.8270081E-01
        2   -1    0    0  501    0  0.00000000000E+00  0.00000000000E+00  0.23219188505E+04  0.23219188505E+04  0.25500000920E-02 0. -1.
       -2   -1    0    0    0  501  0.00000000000E+00  0.00000000000E+00 -0.91139109599E+03  0.91139109599E+03  0.25500000920E-02 0.  1.
    10030    2    1    2    0    0  0.00000000000E+00  0.00000000000E+00  0.14105277545E+04  0.32333099465E+04  0.29094165504E+04 0.  0.
        1    1    3    3  502    0  0.71708610209E+03 -0.11603335873E+04  0.14342334283E+03  0.13715526847E+04  0.50400001928E-02 0. -1.
       -1    1    3    3    0  502 -0.71708610209E+03  0.11603335873E+04  0.12671044117E+04  0.18617572618E+04  0.50400001928E-02 0.  1.
</event>
<event>
 5   0  0.1937947E-05  0.2833834E+04  0.7818609E-02  0.8292840E-01
       -2   -1    0    0    0  501  0.00000000000E+00  0.00000000000E+00  0.94174689048E+03  0.94174689048E+03  0.25500000920E-02 0.  1.
        2   -1    0    0  501    0  0.00000000000E+00  0.00000000000E+00 -0.21318406572E+04  0.21318406572E+04  0.25500000920E-02 0. -1.
    10030    2    1    2    0    0  0.00000000000E+00  0.00000000000E+00 -0.11900937668E+04  0.30735875477E+04  0.28338343706E+04 0.  0.
        3    1    3    3  502    0 -0.10566724779E+04 -0.80283491910E+03 -0.56495857303E+02  0.13282666995E+04  0.10100000352E+00 0. -1.
       -3    1    3    3    0  502  0.10566724779E+04  0.80283491910E+03 -0.11335979095E+04  0.17453208483E+04  0.10100000352E+00 0.  1.
</event>
<event>
 5   0  0.7305460E-06  0.2876056E+04  0.7818609E-02  0.8280037E-01
       -1   -1    0    0    0  501  0.00000000000E+00  0.00000000000E+00  0.87782621108E+03  0.87782621109E+03  0.50400001928E-02 0. -1.
        1   -1    0    0  501    0  0.00000000000E+00  0.00000000000E+00 -0.23557334290E+04  0.23557334290E+04  0.50400001928E-02 0.  1.
    10030    2    1    2    0    0  0.00000000000E+00  0.00000000000E+00 -0.14779072179E+04  0.32335596401E+04  0.28760560150E+04 0.  0.
        4    1    3    3  502    0 -0.54229324212E+03  0.44985418777E+03 -0.21483621037E+04  0.22609538014E+04  0.12699999809E+01 0.  1.
       -4    1    3    3    0  502  0.54229324212E+03 -0.44985418777E+03  0.67045488576E+03  0.97260583868E+03  0.12699999809E+01 0. -1.
</event>
<event>
 5   0  0.1960961E-05  0.2577792E+04  0.7818609E-02  0.8375784E-01
       -2   -1    0    0    0  501  0.00000000000E+00  0.00000000000E+00  0.11860535254E+04  0.11860535254E+04  0.25500000920E-02 0. -1.
        2   -1    0    0  501    0  0.00000000000E+00  0.00000000000E+00 -0.14006557033E+04  0.14006557033E+04  0.25500000920E-02 0.  1.
    10030    2    1    2    0    0  0.00000000000E+00  0.00000000000E+00 -0.21460217785E+03  0.25867092287E+04  0.25777917952E+04 0.  0.
        5    1    3    3  502    0  0.21933093081E+03  0.11057098080E+04 -0.73438715018E+03  0.13453798026E+04  0.46999998093E+01 0.  1.
       -5    1    3    3    0  502 -0.21933093081E+03 -0.11057098080E+04  0.51978497233E+03  0.12413294262E+04  0.46999998093E+01 0. -1.
</event>
<event>
 5   0  0.1976233E-05  0.2674344E+04  0.7818609E-02  0.8343378E-01
        2   -1    0    0  501    0  0.00000000000E+00  0.00000000000E+00  0.21246534115E+04  0.21246534115E+04  0.25500000920E-02 0. -1.
       -2   -1    0    0    0  501  0.00000000000E+00  0.00000000000E+00 -0.84156286562E+03  0.84156286563E+03  0.25500000920E-02 0.  1.
    10030    2    1    2    0    0  0.00000000000E+00  0.00000000000E+00  0.12830905459E+04  0.29662162772E+04  0.26743443409E+04 0.  0.
        2    1    3    3  502    0  0.37172600235E+03 -0.12656726779E+04  0.39874322530E+03  0.13780797176E+04  0.25500000920E-02 0.  1.
       -2    1    3    3    0  502 -0.37172600235E+03  0.12656726779E+04  0.88434732061E+03  0.15881365596E+04  0.25500000920E-02 0. -1.
</event>
<event>
 5   0  0.1976233E-05  0.1935754E+04  0.7818609E-02  0.8637261E-01
       -2   -1    0    0    0  501  0.00000000000E+00  0.00000000000E+00  0.62308943919E+03  0.62308943919E+03  0.25500000920E-02 0.  1.
        2   -1    0    0  501    0  0.00000000000E+00  0.00000000000E+00 -0.15034533439E+04  0.15034533439E+04  0.25500000920E-02 0. -1.
    10030    2    1    2    0    0  0.00000000000E+00  0.00000000000E+00 -0.88036390469E+03  0.21265427831E+04  0.19357540142E+04 0.  0.
        2    1    3    3  502    0 -0.16960890859E+03 -0.95160629670E+03 -0.49471499607E+03  0.10858474355E+04  0.25500000920E-02 0. -1.
       -2    1    3    3    0  502  0.16960890859E+03  0.95160629670E+03 -0.38564890862E+03  0.10406953476E+04  0.25500000920E-02 0.  1.
</event>
<event>
 5   0  0.8234888E-06  0.2899711E+04  0.7818609E-02  0.8272964E-01
       -1   -1    0    0    0  501  0.00000000000E+00  0.00000000000E+00  0.13936164208E+04  0.13936164208E+04  0.50400001928E-02 0. -1.
        1   -1    0    0  501    0  0.00000000000E+00  0.00000000000E+00 -0.15083639560E+04  0.15083639560E+04  0.50400001928E-02 0.  1.
    10030    2    1    2    0    0  0.00000000000E+00  0.00000000000E+00 -0.11474753523E+03  0.29019803768E+04  0.28997108668E+04 0.  0.
        3    1    3    3  502    0  0.96302500024E+03 -0.85845139120E+03 -0.71949934458E+03  0.14771713710E+04  0.10100000352E+00 0.  1.
       -3    1    3    3    0  502 -0.96302500024E+03  0.85845139120E+03  0.60475180936E+03  0.14248090059E+04  0.10100000352E+00 0. -1.
</event>
<event>
 5   0  0.8055928E-06  0.1600209E+04  0.7818609E-02  0.8820420E-01
        1   -1    0    0  501    0  0.00000000000E+00  0.00000000000E+00  0.10715733318E+04  0.10715733318E+04  0.50400001928E-02 0.  1.
       -1   -1    0    0    0  501  0.00000000000E+00  0.00000000000E+00 -0.59740881986E+03  0.59740881989E+03  0.50400001928E-02 0. -1.
    10030    2    1    2    0    0  0.00000000000E+00  0.00000000000E+00  0.47416451192E+03  0.16689821517E+04  0.16002091858E+04 0.  0.
        2    1    3    3  502    0  0.85538228881E+02 -0.29038853382E+03  0.10095372301E+04  0.10539486269E+04  0.25500000920E-02 0.  1.
       -2    1    3    3    0  502 -0.85538228881E+02  0.29038853382E+03 -0.53537271820E+03  0.61503352476E+03  0.25500000920E-02 0. -1.
</event>
<event>
 5   0  0.1918901E-05  0.2924371E+04  0.7818609E-02  0.8265663E-01
        2   -1    0    0  501    0  0.00000000000E+00  0.00000000000E+00  0.16006065835E+04  0.16006065835E+04  0.25500000920E-02 0.  1.
       -2   -1    0    0    0  501  0.00000000000E+00  0.00000000000E+00 -0.13357349513E+04  0.13357349513E+04  0.25500000920E-02 0. -1.
    10030    2    1    2    0    0  0.00000000000E+00  0.00000000000E+00  0.26487163219E+03  0.29363415348E+04  0.29243708088E+04 0.  0.
        1    1    3    3  502    0 -0.17770080780E+02  0.61830404124E+02 -0.13343131995E+04  0.13358631999E+04  0.50400001928E-02 0. -1.
       -1    1    3    3    0  502  0.17770080780E+02 -0.61830404124E+02  0.15991848317E+04  0.16004783349E+04  0.50400001928E-02 0.  1.
</event>
<event>
 5   0  0.6578125E-06  0.1637679E+04  0.7818609E-02  0.8797729E-01
        4   -1    0    0  501    0  0.00000000000E+00  0.00000000000E+00  0.80975133538E+03  0.80975233130E+03  0.12699999809E+01 0.  1.
       -4   -1    0    0    0  501  0.00000000000E+00  0.00000000000E+00 -0.82802755902E+03  0.82802853296E+03  0.12699999809E+01 0. -1.
    10030    2    1    2    0    0  0.00000000000E+00  0.00000000000E+00 -0.18276223636E+02  0.16377808643E+04  0.16376788876E+04 0.  0.
        3    1    3    3  502    0  0.39562704251E+03  0.20301235935E+02  0.70754109673E+03  0.81089290952E+03  0.10100000352E+00 0.  1.
       -3    1    3    3    0  502 -0.39562704251E+03 -0.20301235935E+02 -0.72581732037E+03  0.82688795474E+03  0.10100000352E+00 0. -1.
</event>
<event>
 5   0  0.7971153E-06  0.2910390E+04  0.7818609E-02  0.8269793E-01
       -1   -1    0    0    0  501  0.00000000000E+00  0.00000000000E+00  0.10088611429E+04  0.10088611429E+04  0.50400001928E-02 0.  1.
        1   -1    0    0  501    0  0.00000000000E+00  0.00000000000E+00 -0.20989932054E+04  0.20989932054E+04  0.50400001928E-02 0. -1.
    10030    2    1    2    0    0  0.00000000000E+00  0.00000000000E+00 -0.10901320625E+04  0.31078543482E+04  0.29103901347E+04 0.  0.
        5    1    3    3  502    0 -0.18972542305E+03 -0.13267486605E+04  0.60237900017E+02  0.13416066632E+04  0.46999998093E+01 0.  1.
       -5    1    3    3    0  502  0.18972542305E+03  0.13267486605E+04 -0.11503699625E+04  0.17662476850E+04  0.46999998093E+01 0. -1.
</event>
<event>
 5   0  0.1960961E-05  0.2160946E+04  0.7818609E-02  0.8534861E-01
       -2   -1    0    0    0  501  0.00000000000E+00  0.00000000000E+00  0.15636808168E+04  0.15636808168E+04  0.25500000920E-02 0.  1.
        2   -1    0    0  501    0  0.00000000000E+00  0.00000000000E+00 -0.74658598407E+03  0.74658598407E+03  0.25500000920E-02 0. -1.
    10030    2    1    2    0    0  0.00000000000E+00  0.00000000000E+00  0.81709483269E+03  0.23102668008E+04  0.21609462569E+04 0.  0.
        5    1    3    3  502    0  0.76951442379E+03 -0.54262970421E+03  0.97506999499E+03  0.13555010252E+04  0.46999998093E+01 0.  1.
       -5    1    3    3    0  502 -0.76951442379E+03  0.54262970421E+03 -0.15797516230E+03  0.95476577558E+03  0.46999998093E+01 0. -1.
</event>
<event>
 5   0  0.8055928E-06  0.3040583E+04  0.7818609E-02  0.8232236E-01
        1   -1    0    0  501    0  0.00000000000E+00  0.00000000000E+00  0.11922210808E+04  0.11922210808E+04  0.50400001928E-02 0.  1.
       -1   -1    0    0    0  501  0.00000000000E+00  0.00000000000E+00 -0.19386387154E+04  0.19386387154E+04  0.50400001928E-02 0. -1.
    10030    2    1    2    0    0  0.00000000000E+00  0.00000000000E+00 -0.74641763459E+03  0.31308597961E+04  0.30405828023E+04 0.  0.
        2    1    3    3  502    0  0.11288061802E+04 -0.46458928957E+03  0.55992012245E+03  0.13429658015E+04  0.25500000920E-02 0.  1.
       -2    1    3    3    0  502 -0.11288061802E+04  0.46458928957E+03 -0.13063377570E+04  0.17878939946E+04  0.25500000920E-02 0. -1.
</event>
<event>
 5   0  0.8234888E-06  0.2812143E+04  0.7818609E-02  0.8299508E-01
        1   -1    0    0  501    0  0.00000000000E+00  0.00000000000E+00  0.17899990258E+04  0.17899990258E+04  0.50400001928E-02 0.  1.
       -1   -1    0    0    0  501  0.00000000000E+00  0.00000000000E+00 -0.11044902276E+04  0.11044902276E+04  0.50400001928E-02 0. -1.
    10030    2    1    2    0    0  0.00000000000E+00  0.00000000000E+00  0.68550879817E+03  0.28944892534E+04  0.28121425507E+04 0.  0.
        3    1    3    3  502    0 -0.69354729600E+03  0.10453094155E+04  0.99645562362E+03  0.16020622479E+04  0.10100000352E+00 0.  1.
       -3    1    3    3    0  502  0.69354729600E+03 -0.10453094155E+04 -0.31094682545E+03  0.12924270055E+04  0.10100000352E+00 0. -1.
</event>
<event>
 5   0  0.7971153E-06  0.3049146E+04  0.7818609E-02  0.8229835E-01
        1   -1    0    0  501    0  0.00000000000E+00  0.00000000000E+00  0.18312146769E+04  0.18312146769E+04  0.50400001928E-02 0. -1.
       -1   -1    0    0    0  501  0.00000000000E+00  0.00000000000E+00 -0.12692791059E+04  0.12692791059E+04  0.50400001928E-02 0.  1.
    10030    2    1    2    0    0  0.00000000000E+00  0.00000000000E+00  0.56193557101E+03  0.31004937829E+04  0.30491458003E+04 0.  0.
        5    1    3    3  502    0 -0.13590641656E+04  0.52094489599E+03 -0.18039247552E+03  0.14666296486E+04  0.46999998093E+01 0.  1.
       -5    1    3    3    0  502  0.13590641656E+04 -0.52094489599E+03  0.74232804653E+03  0.16338641343E+04  0.46999998093E+01 0. -1.
</event>
<event>
 5   0  0.1976233E-05  0.2858832E+04  0.7818609E-02  0.8285232E-01
       -2   -1    0    0    0  501  0.00000000000E+00  0.00000000000E+00  0.31308768078E+04  0.31308768079E+04  0.25500000920E-02 0. -1.
        2   -1    0    0  501    0  0.00000000000E+00  0.00000000000E+00 -0.65260652884E+03  0.65260652884E+03  0.25500000920E-02 0.  1.
    10030    2    1    2    0    0  0.00000000000E+00  0.00000000000E+00  0.24782702790E+04  0.37834833367E+04  0.28588323811E+04 0.  0.
        2    1    3    3  502    0 -0.71544560099E+02  0.38434177202E+03  0.30587489817E+04  0.30836313909E+04  0.25500000920E-02 0. -1.
       -2    1    3    3    0  502  0.71544560099E+02 -0.38434177202E+03 -0.58047870268E+03  0.69985194582E+03  0.25500000920E-02 0.  1.
</event>
<event>
 5   0  0.1918901E-05  0.2848009E+04  0.7818609E-02  0.8288517E-01
       -2   -1    0    0    0  501  0.00000000000E+00  0.00000000000E+00  0.11831238897E+04  0.11831238897E+04  0.25500000920E-02 0.  1.
        2   -1    0    0  501    0  0.00000000000E+00  0.00000000000E+00 -0.17139271226E+04  0.17139271226E+04  0.25500000920E-02 0. -1.
    10030    2    1    2    0    0  0.00000000000E+00  0.00000000000E+00 -0.53080323289E+03  0.28970510122E+04  0.28480085139E+04 0.  0.
        1    1    3    3  502    0  0.13018106396E+04 -0.10371856119E+03  0.31210670379E+03  0.13427133260E+04  0.50400001928E-02 0.  1.
       -1    1    3    3    0  502 -0.13018106396E+04  0.10371856119E+03 -0.84290993668E+03  0.15543376862E+04  0.50400001928E-02 0. -1.
</event>
<event>
 5   0  0.8234888E-06  0.2834851E+04  0.7818609E-02  0.8292529E-01
       -1   -1    0    0    0  501  0.00000000000E+00  0.00000000000E+00  0.94444586270E+03  0.94444586271E+03  0.50400001928E-02 0.  1.
        1   -1    0    0  501    0  0.00000000000E+00  0.00000000000E+00 -0.21272743622E+04  0.21272743622E+04  0.50400001928E-02 0. -1.
    10030    2    1    2    0    0  0.00000000000E+00  0.00000000000E+00 -0.11828284995E+04  0.30717202250E+04  0.28348512979E+04 0.  0.
        3    1    3    3  502    0  0.68886425239E+02 -0.89419573250E+03 -0.17807442817E+04  0.19938358896E+04  0.10100000352E+00 0. -1.
       -3    1    3    3    0  502 -0.68886425239E+02  0.89419573250E+03  0.59791578218E+03  0.10778843353E+04  0.10100000352E+00 0.  1.
</event>
<event>
 5   0  0.1918901E-05  0.2925808E+04  0.7818609E-02  0.8265240E-01
        2   -1    0    0  501    0  0.00000000000E+00  0.00000000000E+00  0.12137166585E+04  0.12137166585E+04  0.25500000920E-02 0.  1.
       -2   -1    0    0    0  501  0.00000000000E+00  0.00000000000E+00 -0.17632513162E+04  0.17632513162E+04  0.25500000920E-02 0. -1.
    10030    2    1    2    0    0  0.00000000000E+00  0.00000000000E+00 -0.54953465772E+03  0.29769679748E+04  0.29258075779E+04 0.  0.
        1    1    3    3  502    0 -0.39704552627E+03  0.43956187590E+03 -0.16357769935E+04  0.17397201399E+04  0.50400001928E-02 0. -1.
       -1    1    3    3    0  502  0.39704552627E+03 -0.43956187590E+03  0.10862423358E+04  0.12372478348E+04  0.50400001928E-02 0.  1.
</event>
<event>
 5   0  0.1918901E-05  0.2888184E+04  0.7818609E-02  0.8276402E-01
       -2   -1    0    0    0  501  0.00000000000E+00  0.00000000000E+00  0.13327427616E+04  0.13327427616E+04  0.25500000920E-02 0. -1.
        2   -1    0    0  501    0  0.00000000000E+00  0.00000000000E+00 -0.15647448614E+04  0.15647448614E+04  0.25500000920E-02 0.  1.
    10030    2    1    2    0    0  0.00000000000E+00  0.00000000000E+00 -0.23200209979E+03  0.28974876230E+04  0.28881844731E+04 0.  0.
        1    1    3    3  502    0  0.20562917067E+03  0.67927563658E+03 -0.13777100989E+04  0.15497689708E+04  0.50400001928E-02 0.  1.
       -1    1    3    3    0  502 -0.20562917067E+03 -0.67927563658E+03  0.11457079991E+04  0.13477186522E+04  0.50400001928E-02 0. -1.
</event>
<event>
 5   0  0.1960961E-05  0.2891938E+04  0.7818609E-02  0.8275280E-01
        2   -1    0    0  501    0  0.00000000000E+00  0.00000000000E+00  0.18799841728E+04  0.18799841728E+04  0.25500000920E-02 0.  1.
       -2   -1    0    0    0  501  0.00000000000E+00  0.00000000000E+00 -0.11121511228E+04  0.11121511228E+04  0.25500000920E-02 0. -1.
    10030    2    1    2    0    0  0.00000000000E+00  0.00000000000E+00  0.76783305000E+03  0.29921352957E+04  0.28919381105E+04 0.  0.
        5    1    3    3  502    0  0.11205178816E+03 -0.10461689159E+04 -0.64230494894E+03  0.12327216803E+04  0.46999998093E+01 0. -1.
       -5    1    3    3    0  502 -0.11205178816E+03  0.10461689159E+04  0.14101379989E+04  0.17594136153E+04  0.46999998093E+01 0.  1.
</event>
<event>
 5   0  0.1918901E-05  0.2205448E+04  0.7818609E-02  0.8516164E-01
       -2   -1    0    0    0  501  0.00000000000E+00  0.00000000000E+00  0.92646684974E+03  0.92646684975E+03  0.25500000920E-02 0. -1.
        2   -1    0    0  501    0  0.00000000000E+00  0.00000000000E+00 -0.13125139458E+04  0.13125139458E+04  0.25500000920E-02 0.  1.
    10030    2    1    2    0    0  0.00000000000E+00  0.00000000000E+00 -0.38604709603E+03  0.22389807955E+04  0.22054483994E+04 0.  0.
        1    1    3    3  502    0  0.30652017594E+03  0.28260682867E+03  0.84337003281E+03  0.94079447816E+03  0.50400001928E-02 0. -1.
       -1    1    3    3    0  502 -0.30652017594E+03 -0.28260682867E+03 -0.12294171288E+04  0.12981863174E+04  0.50400001928E-02 0.  1.
</event>
<event>
 5   0  0.8122088E-06  0.2994410E+04  0.7818609E-02  0.8245329E-01
        1   -1    0    0  501    0  0.00000000000E+00  0.00000000000E+00  0.12608514801E+04  0.12608514801E+04  0.50400001928E-02 0. -1.
       -1   -1    0    0    0  501  0.00000000000E+00  0.00000000000E+00 -0.17778644634E+04  0.17778644634E+04  0.50400001928E-02 0.  1.
    10030    2    1    2    0    0  0.00000000000E+00  0.00000000000E+00 -0.51701298323E+03  0.30387159435E+04  0.29944101524E+04 0.  0.
        1    1    3    3  502    0 -0.11495247351E+04 -0.70638285301E+03  0.40012607605E+03  0.14072969582E+04  0.50400001928E-02 0. -1.
       -1    1    3    3    0  502  0.11495247351E+04  0.70638285301E+03 -0.91713905929E+03  0.16314189854E+04  0.50400001928E-02 0.  1.
</event>
<event>
 5   0  0.8122088E-06  0.1832214E+04  0.7818609E-02  0.8689354E-01
       -1   -1    0    0    0  501  0.00000000000E+00  0.00000000000E+00  0.11664799208E+04  0.11664799209E+04  0.50400001928E-02 0.  1.
        1   -1    0    0  501    0  0.00000000000E+00  0.00000000000E+00 -0.71947403288E+03  0.71947403290E+03  0.50400001928E-02 0. -1.
    10030    2    1    2    0    0  0.00000000000E+00  0.00000000000E+00  0.44700588797E+03  0.18859539538E+04  0.18322139754E+04 0.  0.
        1    1    3    3  502    0  0.69733314683E+03  0.38433826733E+03 -0.24284471125E+03  0.83244397722E+03  0.50400001928E-02 0. -1.
       -1    1    3    3    0  502 -0.69733314683E+03 -0.38433826733E+03  0.68985059922E+03  0.10535099765E+04  0.50400001928E-02 0.  1.
</event>
<event>
 5   0  0.8122088E-06  0.2935286E+04  0.7818609E-02  0.8262456E-01
       -1   -1    0    0    0  501  0.00000000000E+00  0.00000000000E+00  0.23596084894E+04  0.23596084894E+04  0.50400001928E-02 0. -1.
        1   -1    0    0  501    0  0.00000000000E+00  0.00000000000E+00 -0.91285335881E+03  0.91285335882E+03  0.50400001928E-02 0.  1.
    10030    2    1    2    0    0  0.00000000000E+00  0.00000000000E+00  0.14467551306E+04  0.32724618482E+04  0.29352863813E+04 0.  0.
        1    1    3    3  502    0 -0.13320855472E+04 -0.41900307576E+03  0.12268755476E+04  0.18588273432E+04  0.50400001928E-02 0.  1.
       -1    1    3    3    0  502  0.13320855472E+04  0.41900307576E+03  0.21987958303E+03  0.14136345050E+04  0.50400001928E-02 0. -1.
</event>
<event>
 5   0  0.1960961E-05  0.2966149E+04  0.7818609E-02  0.8253464E-01
        2   -1    0    0  501    0  0.00000000000E+00  0.00000000000E+00  0.13763933806E+04  0.13763933806E+04  0.25500000920E-02 0. -1.
       -2   -1    0    0    0  501  0.00000000000E+00  0.00000000000E+00 -0.15980237879E+04  0.15980237879E+04  0.25500000920E-02 0.  1.
    10030    2    1    2    0    0  0.00000000000E+00  0.00000000000E+00 -0.22163040729E+03  0.29744171685E+04  0.29661485895E+04 0.  0.
        5    1    3    3  502    0 -0.14594028868E+04  0.23300976666E+03  0.13372410232E+02  0.14779550902E+04  0.46999998093E+01 0.  1.
       -5    1    3    3    0  502  0.14594028868E+04 -0.23300976666E+03 -0.23500281752E+03  0.14964620783E+04  0.46999998093E+01 0. -1.
</event>
<event>
 5   0  0.1918901E-05  0.2885223E+04  0.7818609E-02  0.8277288E-01
        2   -1    0    0  501    0  0.00000000000E+00  0.00000000000E+00  0.17716026986E+04  0.17716026986E+04  0.25500000920E-02 0.  1.
       -2   -1    0    0    0  501  0.00000000000E+00  0.00000000000E+00 -0.11747146933E+04  0.11747146933E+04  0.25500000920E-02 0. -1.
    10030    2    1    2    0    0  0.00000000000E+00  0.00000000000E+00  0.59688800531E+03  0.29463173920E+04  0.28852228481E+04 0.  0.
        1    1    3    3  502    0  0.57645113315E+03 -0.59073866037E+02 -0.10506445206E+04  0.11998497986E+04  0.50400001928E-02 0. -1.
       -1    1    3    3    0  502 -0.57645113315E+03  0.59073866037E+02  0.16475325259E+04  0.17464675933E+04  0.50400001928E-02 0.  1.
</event>
<event>
 5   0  0.7971153E-06  0.2822216E+04  0.7818609E-02  0.8296404E-01
       -1   -1    0    0    0  501  0.00000000000E+00  0.00000000000E+00  0.13962892126E+04  0.13962892126E+04  0.50400001928E-02 0. -1.
        1   -1    0    0  501    0  0.00000000000E+00  0.00000000000E+00 -0.14260838575E+04  0.14260838575E+04  0.50400001928E-02 0.  1.
    10030    2    1    2    0    0  0.00000000000E+00  0.00000000000E+00 -0.29794644838E+02  0.28223730701E+04  0.28222158008E+04 0.  0.
        5    1    3    3  502    0  0.27854222432E+02 -0.72321290294E+03  0.11965291931E+04  0.13983979979E+04  0.46999998093E+01 0. -1.
       -5    1    3    3    0  502 -0.27854222432E+02  0.72321290294E+03 -0.12263238380E+04  0.14239750722E+04  0.46999998093E+01 0.  1.
</event>
<event>
 5   0  0.7971153E-06  0.1485849E+04  0.7818609E-02  0.8893918E-01
        1   -1    0    0  501    0  0.00000000000E+00  0.00000000000E+00  0.71249983189E+03  0.71249983191E+03  0.50400001928E-02 0. -1.
       -1   -1    0    0    0  501  0.00000000000E+00  0.00000000000E+00 -0.77464857368E+03  0.77464857369E+03  0.50400001928E-02 0.  1.
    10030    2    1    2    0    0  0.00000000000E+00  0.00000000000E+00 -0.62148741790E+02  0.14871484056E+04  0.14858492232E+04 0.  0.
        5    1    3    3  502    0  0.69831520658E+03  0.19788172930E+03  0.12753684669E+03  0.73694575364E+03  0.46999998093E+01 0. -1.
       -5    1    3    3    0  502 -0.69831520658E+03 -0.19788172930E+03 -0.18968558848E+03  0.75020265196E+03  0.46999998093E+01 0.  1.
</event>
<event>
 5   0  0.1918901E-05  0.2238618E+04  0.7818609E-02  0.8502524E-01
       -2   -1    0    0    0  501  0.00000000000E+00  0.00000000000E+00  0.11714298656E+04  0.11714298656E+04  0.25500000920E-02 0. -1.
        2   -1    0    0  501    0  0.00000000000E+00  0.00000000000E+00 -0.10695073182E+04  0.10695073182E+04  0.25500000920E-02 0.  1.
    10030    2    1    2    0    0  0.00000000000E+00  0.00000000000E+00  0.10192254740E+03  0.22409371838E+04  0.22386181578E+04 0.  0.
        1    1    3    3  502    0  0.24770574246E+03  0.10844811753E+04 -0.73244895809E+02  0.11148194335E+04  0.50400001928E-02 0.  1.
       -1    1    3    3    0  502 -0.24770574246E+03 -0.10844811753E+04  0.17516744321E+03  0.11261177504E+04  0.50400001928E-02 0. -1.
</event>
<event>
 5   0  0.8122088E-06  0.2667420E+04  0.7818609E-02  0.8345654E-01
       -1   -1    0    0    0  501  0.00000000000E+00  0.00000000000E+00  0.16008602084E+04  0.16008602084E+04  0.50400001928E-02 0.  1.
        1   -1    0    0  501    0  0.00000000000E+00  0.00000000000E+00 -0.11111413398E+04  0.11111413399E+04  0.50400001928E-02 0. -1.
    10030    2    1    2    0    0  0.00000000000E+00  0.00000000000E+00  0.48971886854E+03  0.27120015482E+04  0.26674196947E+04 0.  0.
        1    1    3    3  502    0 -0.11982967900E+04 -0.11933347920E+03  0.82769993876E+03  0.14612470239E+04  0.50400001928E-02 0.  1.
       -1    1    3    3    0  502  0.11982967900E+04  0.11933347920E+03 -0.33798107023E+03  0.12507545243E+04  0.50400001928E-02 0. -1.
</event>
<event>
 5   0  0.8055928E-06  0.2359718E+04  0.7818609E-02  0.8454740E-01
        1   -1    0    0  501    0  0.00000000000E+00  0.00000000000E+00  0.22739056594E+04  0.22739056594E+04  0.50400001928E-02 0. -1.
       -1   -1    0    0    0  501  0.00000000000E+00  0.00000000000E+00 -0.61219207654E+03  0.61219207656E+03  0.50400001928E-02 0.  1.
    10030    2    1    2    0    0  0.00000000000E+00  0.00000000000E+00  0.16617135829E+04  0.28860977360E+04  0.23597178031E+04 0.  0.
        2    1    3    3  502    0 -0.13042625657E+03  0.11360934447E+04  0.11860687661E+04  0.16475674315E+04  0.25500000920E-02 0. -1.
       -2    1    3    3    0  502  0.13042625657E+03 -0.11360934447E+04  0.47564481680E+03  0.12385303045E+04  0.25500000920E-02 0.  1.
</event>
<event>
 5   0  0.7305460E-06  0.2890435E+04  0.7818609E-02  0.8275729E-01
       -1   -1    0    0    0  501  0.00000000000E+00  0.00000000000E+00  0.22331692175E+04  0.22331692175E+04  0.50400001928E-02 0. -1.
        1   -1    0    0  501    0  0.00000000000E+00  0.00000000000E+00 -0.93528701534E+03  0.93528701536E+03  0.50400001928E-02 0.  1.
    10030    2    1    2    0    0  0.00000000000E+00  0.00000000000E+00  0.12978822021E+04  0.31684562328E+04  0.28904353805E+04 0.  0.
        4    1    3    3  502    0 -0.10774200071E+03  0.96843182372E+02 -0.92730708929E+03  0.93855580092E+03  0.12699999809E+01 0.  1.
       -4    1    3    3    0  502  0.10774200071E+03 -0.96843182372E+02  0.22251892914E+04  0.22299004319E+04  0.12699999809E+01 0. -1.
</event>
<event>
 5   0  0.7305460E-06  0.2857771E+04  0.7818609E-02  0.8285554E-01
       -1   -1    0    0    0  501  0.00000000000E+00  0.00000000000E+00  0.13077450201E+04  0.13077450201E+04  0.50400001928E-02 0.  1.
        1   -1    0    0  501    0  0.00000000000E+00  0.00000000000E+00 -0.15612481346E+04  0.15612481346E+04  0.50400001928E-02 0. -1.
    10030    2    1    2    0    0  0.00000000000E+00  0.00000000000E+00 -0.25350311453E+03  0.28689931548E+04  0.28577714907E+04 0.  0.
        4    1    3    3  502    0  0.16402061926E+03  0.18924944586E+03  0.12855399030E+04  0.13097070556E+04  0.12699999809E+01 0.  1.
       -4    1    3    3    0  502 -0.16402061926E+03 -0.18924944586E+03 -0.15390430176E+04  0.15592860992E+04  0.12699999809E+01 0. -1.
</event>
<event>
 5   0  0.8122088E-06  0.1561010E+04  0.7818609E-02  0.8844866E-01
       -1   -1    0    0    0  501  0.00000000000E+00  0.00000000000E+00  0.65752401454E+03  0.65752401456E+03  0.50400001928E-02 0. -1.
        1   -1    0    0  501    0  0.00000000000E+00  0.00000000000E+00 -0.92648788170E+03  0.92648788172E+03  0.50400001928E-02 0.  1.
    10030    2    1    2    0    0  0.00000000000E+00  0.00000000000E+00 -0.26896386717E+03  0.15840118963E+04  0.15610099698E+04 0.  0.
        1    1    3    3  502    0 -0.21935692697E+03 -0.74748443121E+03 -0.18354304761E+03  0.80033648340E+03  0.50400001928E-02 0. -1.
       -1    1    3    3    0  502  0.21935692697E+03  0.74748443121E+03 -0.85420819553E+02  0.78367541288E+03  0.50400001928E-02 0.  1.
</event>
<event>
 5   0  0.8234888E-06  0.2892738E+04  0.7818609E-02  0.8275041E-01
        1   -1    0    0  501    0  0.00000000000E+00  0.00000000000E+00  0.87224572325E+03  0.87224572327E+03  0.50400001928E-02 0.  1.
       -1   -1    0    0    0  501  0.00000000000E+00  0.00000000000E+00 -0.23983881200E+04  0.23983881200E+04  0.50400001928E-02 0. -1.
    10030    2    1    2    0    0  0.00000000000E+00  0.00000000000E+00 -0.15261423967E+04  0.32706338432E+04  0.28927383431E+04 0.  0.
        3    1    3    3  502    0 -0.29986950704E+03  0.13600299478E+04 -0.32171665711E+03  0.14293721691E+04  0.10100000352E+00 0.  1.
       -3    1    3    3    0  502  0.29986950704E+03 -0.13600299478E+04 -0.12044257396E+04  0.18412616741E+04  0.10100000352E+00 0. -1.
</event>
<event>
 5   0  0.7305460E-06  0.2914505E+04  0.7818609E-02  0.8268575E-01
        1   -1    0    0  501    0  0.00000000000E+00  0.00000000000E+00  0.16268687985E+04  0.16268687986E+04  0.50400001928E-02 0. -1.
       -1   -1    0    0    0  501  0.00000000000E+00  0.00000000000E+00 -0.13053201174E+04  0.13053201174E+04  0.50400001928E-02 0.  1.
    10030    2    1    2    0    0  0.00000000000E+00  0.00000000000E+00  0.32154868116E+03  0.29321889159E+04  0.29145048095E+04 0.  0.
        4    1    3    3  502    0 -0.12905756247E+04 -0.55793903539E+03 -0.22456603804E+03  0.14238373954E+04  0.12699999809E+01 0. -1.
       -4    1    3    3    0  502  0.12905756247E+04  0.55793903539E+03  0.54611471920E+03  0.15083515206E+04  0.12699999809E+01 0.  1.
</event>
<event>
 5   0  0.1937947E-05  0.2970748E+04  0.7818609E-02  0.8252134E-01
        2   -1    0    0  501    0  0.00000000000E+00  0.00000000000E+00  0.18542995405E+04  0.18542995405E+04  0.25500000920E-02 0.  1.
       -2   -1    0    0    0  501  0.00000000000E+00  0.00000000000E+00 -0.11898485962E+04  0.11898485962E+04  0.25500000920E-02 0. -1.
    10030    2    1    2    0    0  0.00000000000E+00  0.00000000000E+00  0.66445094427E+03  0.30441481367E+04  0.29707478555E+04 0.  0.
        3    1    3    3  502    0  0.70794718399E+03 -0.12726807879E+04  0.32719541278E+02  0.14567004434E+04  0.10100000352E+00 0.  1.
       -3    1    3    3    0  502 -0.70794718399E+03  0.12726807879E+04  0.63173140299E+03  0.15874476933E+04  0.10100000352E+00 0. -1.
</event>
<event>
 5   0  0.8055928E-06  0.2214062E+04  0.7818609E-02  0.8512598E-01
       -1   -1    0    0    0  501  0.00000000000E+00  0.00000000000E+00  0.73394772737E+03  0.73394772739E+03  0.50400001928E-02 0.  1.
        1   -1    0    0  501    0  0.00000000000E+00  0.00000000000E+00 -0.16697619014E+04  0.16697619015E+04  0.50400001928E-02 0. -1.
    10030    2    1    2    0    0  0.00000000000E+00  0.00000000000E+00 -0.93581417408E+03  0.24037096288E+04  0.22140622871E+04 0.  0.
        2    1    3    3  502    0  0.86048438733E+03 -0.66114161176E+03 -0.23011043772E+03  0.11092756308E+04  0.25500000920E-02 0. -1.
       -2    1    3    3    0  502 -0.86048438733E+03  0.66114161176E+03 -0.70570373636E+03  0.12944339980E+04  0.25500000920E-02 0.  1.
</event>
<event>
 5   0  0.8234888E-06  0.2605206E+04  0.7818609E-02  0.8366435E-01
       -1   -1    0    0    0  501  0.00000000000E+00  0.00000000000E+00  0.85627641842E+03  0.85627641844E+03  0.50400001928E-02 0.  1.
        1   -1    0    0  501    0  0.00000000000E+00  0.00000000000E+00 -0.19815735087E+04  0.19815735087E+04  0.50400001928E-02 0. -1.
    10030    2    1    2    0    0  0.00000000000E+00  0.00000000000E+00 -0.11252970903E+04  0.28378499272E+04  0.26052060701E+04 0.  0.
        3    1    3    3  502    0  0.85208483347E+03  0.35070504507E+03  0.44029537225E+03  0.10212260362E+04  0.10100000352E+00 0.  1.
       -3    1    3    3    0  502 -0.85208483347E+03 -0.35070504507E+03 -0.15655924625E+04  0.18166238909E+04  0.10100000352E+00 0. -1.
</event>
<event>
 5   0  0.8055928E-06  0.2917378E+04  0.7818609E-02  0.8267726E-01
        1   -1    0    0  501    0  0.00000000000E+00  0.00000000000E+00  0.13770812911E+04  0.13770812911E+04  0.50400001928E-02 0.  1.
       -1   -1    0    0    0  501  0.00000000000E+00  0.00000000000E+00 -0.15451329008E+04  0.15451329008E+04  0.50400001928E-02 0. -1.
    10030    2    1    2    0    0  0.00000000000E+00  0.00000000000E+00 -0.16805160971E+03  0.29222141919E+04  0.29173780077E+04 0.  0.
        2    1    3    3  502    0 -0.11421123129E+04  0.79255510519E+03 -0.52658339461E+03  0.14865578366E+04  0.25500000920E-02 0.  1.
       -2    1    3    3    0  502  0.11421123129E+04 -0.79255510519E+03  0.35853178490E+03  0.14356563554E+04  0.25500000920E-02 0. -1.
</event>
<event>
 5   0  0.1918901E-05  0.2776028E+04  0.7818609E-02  0.8310750E-01
        2   -1    0    0  501    0  0.00000000000E+00  0.00000000000E+00  0.17602098547E+04  0.17602098547E+04  0.25500000920E-02 0. -1.
       -2   -1    0    0    0  501  0.00000000000E+00  0.00000000000E+00 -0.10945188279E+04  0.10945188279E+04  0.25500000920E-02 0.  1.
    10030    2    1    2    0    0  0.00000000000E+00  0.00000000000E+00  0.66569102671E+03  0.28547286826E+04  0.27760279732E+04 0.  0.
        1    1    3    3  502    0 -0.67816160350E+03 -0.10615640078E+04 -0.26657016533E+03  0.12875872616E+04  0.50400001928E-02 0.  1.
       -1    1    3    3    0  502  0.67816160350E+03  0.10615640078E+04  0.93226119204E+03  0.15671414210E+04  0.50400001928E-02 0. -1.
</event>
<event>
 5   0  0.8122088E-06  0.2838556E+04  0.7818609E-02  0.8291397E-01
        1   -1    0    0  501    0  0.00000000000E+00  0.00000000000E+00  0.16163926182E+04  0.16163926183E+04  0.50400001928E-02 0. -1.
       -1   -1    0    0    0  501  0.00000000000E+00  0.00000000000E+00 -0.12462007516E+04  0.12462007516E+04  0.50400001928E-02 0.  1.
    10030    2    1    2    0    0  0.00000000000E+00  0.00000000000E+00  0.37019186662E+03  0.28625933699E+04  0.28385557566E+04 0.  0.
        1    1    3    3  502    0  0.12371191043E+03  0.14118224869E+04  0.10827789002E+03  0.14213625409E+04  0.50400001928E-02 0.  1.
       -1    1    3    3    0  502 -0.12371191043E+03 -0.14118224869E+04  0.26191397659E+03  0.14412308290E+04  0.50400001928E-02 0. -1.
</event>
<event>
 5   0  0.1976233E-05  0.3020501E+04  0.7818609E-02  0.8237901E-01
       -2   -1    0    0    0  501  0.00000000000E+00  0.00000000000E+00  0.83487674448E+03  0.83487674449E+03  0.25500000920E-02 0.  1.
        2   -1    0    0  501    0  0.00000000000E+00  0.00000000000E+00 -0.27319686253E+04  0.27319686253E+04  0.25500000920E-02 0. -1.
    10030    2    1    2    0    0  0.00000000000E+00  0.00000000000E+00 -0.18970918808E+04  0.35668453697E+04  0.30205013305E+04 0.  0.
        2    1    3    3  502    0  0.72163596928E+00 -0.10803843671E+04 -0.21947092635E+04  0.24462174173E+04  0.25500000920E-02 0. -1.
       -2    1    3    3    0  502 -0.72163596928E+00  0.10803843671E+04  0.29761738270E+03  0.11206279525E+04  0.25500000920E-02 0.  1.
</event>
<event>
 5   0  0.6578125E-06  0.2893065E+04  0.7818609E-02  0.8274944E-01
        3   -1    0    0  501    0  0.00000000000E+00  0.00000000000E+00  0.76291972643E+03  0.76291973311E+03  0.10100000352E+00 0. -1.
       -3   -1    0    0    0  501  0.00000000000E+00  0.00000000000E+00 -0.27426947192E+04  0.27426947210E+04  0.10100000352E+00 0.  1.
    10030    2    1    2    0    0  0.00000000000E+00  0.00000000000E+00 -0.19797749927E+04  0.35056144541E+04  0.28930647554E+04 0.  0.
        1    1    3    3  502    0 -0.55326589568E+03  0.44329714936E+03 -0.25177446836E+04  0.26156555212E+04  0.50400001928E-02 0.  1.
       -1    1    3    3    0  502  0.55326589568E+03 -0.44329714936E+03  0.53796969086E+03  0.88995893291E+03  0.50400001928E-02 0. -1.
</event>
<event>
 5   0  0.7305460E-06  0.2576626E+04  0.7818609E-02  0.8376185E-01
        1   -1    0    0  501    0  0.00000000000E+00  0.00000000000E+00  0.13312229584E+04  0.13312229584E+04  0.50400001928E-02 0.  1.
       -1   -1    0    0    0  501  0.00000000000E+00  0.00000000000E+00 -0.12467857961E+04  0.12467857961E+04  0.50400001928E-02 0. -1.
    10030    2    1    2    0    0  0.00000000000E+00  0.00000000000E+00  0.84437162317E+02  0.25780087545E+04  0.25766256042E+04 0.  0.
        4    1    3    3  502    0  0.29647443548E+03  0.82167395462E+03  0.98967098403E+03  0.13200361541E+04  0.12699999809E+01 0.  1.
       -4    1    3    3    0  502 -0.29647443548E+03 -0.82167395462E+03 -0.90523382171E+03  0.12579726004E+04  0.12699999809E+01 0. -1.
</event>
<event>
 5   0  0.8234888E-06  0.2945713E+04  0.7818609E-02  0.8259405E-01
       -1   -1    0    0    0  501  0.00000000000E+00  0.00000000000E+00  0.16173231915E+04  0.16173231915E+04  0.50400001928E-02 0.  1.
        1   -1    0    0  501    0  0.00000000000E+00  0.00000000000E+00 -0.13412938151E+04  0.13412938151E+04  0.50400001928E-02 0. -1.
    10030    2    1    2    0    0  0.00000000000E+00  0.00000000000E+00  0.27602937638E+03  0.29586170067E+04  0.29457125412E+04 0.  0.
        3    1    3    3  502    0 -0.68214960898E+03 -0.11803430270E+04 -0.42189298014E+03  0.14270709328E+04  0.10100000352E+00 0.  1.
       -3    1    3    3    0  502  0.68214960898E+03  0.11803430270E+04  0.69792235652E+03  0.15315460739E+04  0.10100000352E+00 0. -1.
</event>
<event>
 5   0  0.1937947E-05  0.2598506E+04  0.7818609E-02  0.8368709E-01
        2   -1    0    0  501    0  0.00000000000E+00  0.00000000000E+00  0.23338640287E+04  0.23338640287E+04  0.25500000920E-02 0.  1.
       -2   -1    0    0    0  501  0.00000000000E+00  0.00000000000E+00 -0.72328900382E+03  0.72328900383E+03  0.25500000920E-02 0. -1.
    10030    2    1    2    0    0  0.00000000000E+00  0.00000000000E+00  0.16105750249E+04  0.30571530326E+04  0.25985058695E+04 0.  0.
        3    1    3    3  502    0 -0.64857484985E+03  0.19810780977E+03 -0.49854356691E+03  0.84168981131E+03  0.10100000352E+00 0. -1.
       -3    1    3    3    0  502  0.64857484985E+03 -0.19810780977E+03  0.21091185918E+04  0.22154632213E+04  0.10100000352E+00 0.  1.
</event>
<event>
 5   0  0.1829810E-05  0.3049103E+04  0.7818609E-02  0.8229847E-01
       -2   -1    0    0    0  501  0.00000000000E+00  0.00000000000E+00  0.11087768105E+04  0.11087768105E+04  0.25500000920E-02 0.  1.
        2   -1    0    0  501    0  0.00000000000E+00  0.00000000000E+00 -0.20962349561E+04  0.20962349561E+04  0.25500000920E-02 0. -1.
    10030    2    1    2    0    0  0.00000000000E+00  0.00000000000E+00 -0.98745814556E+03  0.32050117667E+04  0.30491026278E+04 0.  0.
        4    1    3    3  502    0 -0.49857724560E+03 -0.58791638964E+03 -0.18762904529E+04  0.20284704650E+04  0.12699999809E+01 0. -1.
       -4    1    3    3    0  502  0.49857724560E+03  0.58791638964E+03  0.88883230731E+03  0.11765413016E+04  0.12699999809E+01 0.  1.
</event>
<event>
 5   0  0.7305460E-06  0.2930587E+04  0.7818609E-02  0.8263835E-01
        1   -1    0    0  501    0  0.00000000000E+00  0.00000000000E+00  0.13822353834E+04  0.13822353835E+04  0.50400001928E-02 0.  1.
       -1   -1    0    0    0  501  0.00000000000E+00  0.00000000000E+00 -0.15533429649E+04  0.15533429649E+04  0.50400001928E-02 0. -1.
    10030    2    1    2    0    0  0.00000000000E+00  0.00000000000E+00 -0.17110758144E+03  0.29355783483E+04  0.29305873873E+04 0.  0.
        4    1    3    3  502    0  0.12897625951E+04  0.63606626502E+03  0.19602305130E+03  0.14513767584E+04  0.12699999809E+01 0. -1.
       -4    1    3    3    0  502 -0.12897625951E+04 -0.63606626502E+03 -0.36713063273E+03  0.14842015900E+04  0.12699999809E+01 0.  1.
</event>
<event>
 5   0  0.7971153E-06  0.1944749E+04  0.7818609E-02  0.8632897E-01
       -1   -1    0    0    0  501  0.00000000000E+00  0.00000000000E+00  0.82875626878E+03  0.82875626879E+03  0.50400001928E-02 0. -1.
        1   -1    0    0  501    0  0.00000000000E+00  0.00000000000E+00 -0.11408807768E+04  0.11408807768E+04  0.50400001928E-02 0.  1.
    10030    2    1    2    0    0  0.00000000000E+00  0.00000000000E+00 -0.31212450801E+03  0.19696370456E+04  0.19447489254E+04 0.  0.
        5    1    3    3  502    0 -0.27167334470E+03  0.88788056277E+03  0.13633945713E+03  0.93848219883E+03  0.46999998093E+01 0. -1.
       -5    1    3    3    0  502  0.27167334470E+03 -0.88788056277E+03 -0.44846396514E+03  0.10311548468E+04  0.46999998093E+01 0.  1.
</event>
<event>
 5   0  0.1937947E-05  0.2887008E+04  0.7818609E-02  0.8276754E-01
       -2   -1    0    0    0  501  0.00000000000E+00  0.00000000000E+00  0.14533117203E+04  0.14533117203E+04  0.25500000920E-02 0.  1.
        2   -1    0    0  501    0  0.00000000000E+00  0.00000000000E+00 -0.14337622550E+04  0.14337622550E+04  0.25500000920E-02 0. -1.
    10030    2    1    2    0    0  0.00000000000E+00  0.00000000000E+00  0.19549465335E+02  0.28870739753E+04  0.28870077862E+04 0.  0.
        3    1    3    3  502    0  0.63168740112E+02  0.75034750668E+03 -0.12217939234E+04  0.14351975724E+04  0.10100000352E+00 0. -1.
       -3    1    3    3    0  502 -0.63168740112E+02 -0.75034750668E+03  0.12413433887E+04  0.14518764029E+04  0.10100000352E+00 0.  1.
</event>
<event>
 5   0  0.7305460E-06  0.2878181E+04  0.7818609E-02  0.8279399E-01
       -1   -1    0    0    0  501  0.00000000000E+00  0.00000000000E+00  0.13949223838E+04  0.13949223838E+04  0.50400001928E-02 0. -1.
        1   -1    0    0  501    0  0.00000000000E+00  0.00000000000E+00 -0.14846575814E+04  0.14846575814E+04  0.50400001928E-02 0.  1.
    10030    2    1    2    0    0  0.00000000000E+00  0.00000000000E+00 -0.89735197597E+02  0.28795799652E+04  0.28781814346E+04 0.  0.
        4    1    3    3  502    0 -0.90351704744E+03  0.83499001043E+03  0.70210693690E+03  0.14165123142E+04  0.12699999809E+01 0. -1.
       -4    1    3    3    0  502  0.90351704744E+03 -0.83499001043E+03 -0.79184213450E+03  0.14630676510E+04  0.12699999809E+01 0.  1.
</event>
<event>
 5   0  0.1937947E-05  0.2877740E+04  0.7818609E-02  0.8279531E-01
       -2   -1    0    0    0  501  0.00000000000E+00  0.00000000000E+00  0.16145773221E+04  0.16145773221E+04  0.25500000920E-02 0.  1.
        2   -1    0    0  501    0  0.00000000000E+00  0.00000000000E+00 -0.12822840997E+04  0.12822840997E+04  0.25500000920E-02 0. -1.
    10030    2    1    2    0    0  0.00000000000E+00  0.00000000000E+00  0.33229322240E+03  0.28968614217E+04  0.28777399658E+04 0.  0.
        3    1    3    3  502    0  0.96710464243E+03  0.11031008722E+03 -0.90055811835E+03  0.13260711291E+04  0.10100000352E+00 0. -1.
       -3    1    3    3    0  502 -0.96710464243E+03 -0.11031008722E+03  0.12328513407E+04  0.15707902926E+04  0.10100000352E+00 0.  1.
</event>
<event>
 5   0  0.6578125E-06  0.1433671E+04  0.7818609E-02  0.8929800E-01
       -3   -1    0    0    0  501  0.00000000000E+00  0.00000000000E+00  0.17512801237E+04  0.17512801266E+04  0.10100000352E+00 0.  1.
        3   -1    0    0  501    0  0.00000000000E+00  0.00000000000E+00 -0.29341563924E+03  0.29341565662E+03  0.10100000352E+00 0. -1.
    10030    2    1    2    0    0  0.00000000000E+00  0.00000000000E+00  0.14578644844E+04  0.20446957832E+04  0.14336708098E+04 0.  0.
        4    1    3    3  502    0  0.61997899932E+03 -0.26766262550E+03  0.10719143105E+04  0.12668935009E+04  0.12699999809E+01 0.  1.
       -4    1    3    3    0  502 -0.61997899932E+03  0.26766262550E+03  0.38595017394E+03  0.77780228230E+03  0.12699999809E+01 0. -1.
</event>
<event>
 5   0  0.8055928E-06  0.2848251E+04  0.7818609E-02  0.8288443E-01
        1   -1    0    0  501    0  0.00000000000E+00  0.00000000000E+00  0.14649044776E+04  0.14649044776E+04  0.50400001928E-02 0. -1.
       -1   -1    0    0    0  501  0.00000000000E+00  0.00000000000E+00 -0.13844813841E+04  0.13844813841E+04  0.50400001928E-02 0.  1.
    10030    2    1    2    0    0  0.00000000000E+00  0.00000000000E+00  0.80423093502E+02  0.28493858618E+04  0.28482506763E+04 0.  0.
        2    1    3    3  502    0 -0.69303184296E+03  0.32071932973E+03 -0.11623403201E+04  0.13907512515E+04  0.25500000920E-02 0.  1.
       -2    1    3    3    0  502  0.69303184296E+03 -0.32071932973E+03  0.12427634136E+04  0.14586346102E+04  0.25500000920E-02 0. -1.
</event>
<event>
 5   0  0.1960961E-05  0.2899194E+04  0.7818609E-02  0.8273117E-01
       -2   -1    0    0    0  501  0.00000000000E+00  0.00000000000E+00  0.17142472867E+04  0.17142472867E+04  0.25500000920E-02 0. -1.
        2   -1    0    0  501    0  0.00000000000E+00  0.00000000000E+00 -0.12258040029E+04  0.12258040029E+04  0.25500000920E-02 0.  1.
    10030    2    1    2    0    0  0.00000000000E+00  0.00000000000E+00  0.48844328380E+03  0.29400512896E+04  0.28991938093E+04 0.  0.
        5    1    3    3  502    0 -0.11259951649E+04 -0.91268046654E+03  0.26593247904E+03  0.14736325589E+04  0.46999998093E+01 0.  1.
       -5    1    3    3    0  502  0.11259951649E+04  0.91268046654E+03  0.22251080476E+03  0.14664187307E+04  0.46999998093E+01 0. -1.
</event>
<event>
 5   0  0.8122088E-06  0.2741985E+04  0.7818609E-02  0.8321509E-01
       -1   -1    0    0    0  501  0.00000000000E+00  0.00000000000E+00  0.12161480511E+04  0.12161480511E+04  0.50400001928E-02 0.  1.
        1   -1    0    0  501    0  0.00000000000E+00  0.00000000000E+00 -0.15455522305E+04  0.15455522306E+04  0.50400001928E-02 0. -1.
    10030    2    1    2    0    0  0.00000000000E+00  0.00000000000E+00 -0.32940417942E+03  0.27617002817E+04  0.27419849256E+04 0.  0.
        1    1    3    3  502    0  0.80835618764E+03  0.54837313969E+03  0.80422716561E+03  0.12652802695E+04  0.50400001928E-02 0.  1.
       -1    1    3    3    0  502 -0.80835618764E+03 -0.54837313969E+03 -0.11336313450E+04  0.14964200122E+04  0.50400001928E-02 0. -1.
</event>
<event>
 5   0  0.8122088E-06  0.2353062E+04  0.7818609E-02  0.8457288E-01
       -1   -1    0    0    0  501  0.00000000000E+00  0.00000000000E+00  0.53268903320E+03  0.53268903322E+03  0.50400001928E-02 0. -1.
        1   -1    0    0  501    0  0.00000000000E+00  0.00000000000E+00 -0.25985617837E+04  0.25985617837E+04  0.50400001928E-02 0.  1.
    10030    2    1    2    0    0  0.00000000000E+00  0.00000000000E+00 -0.20658727505E+04  0.31312508170E+04  0.23530621448E+04 0.  0.
        1    1    3    3  502    0  0.33923775459E+02  0.10815123689E+04 -0.16476704711E+04  0.19712021226E+04  0.50400001928E-02 0.  1.
       -1    1    3    3    0  502 -0.33923775459E+02 -0.10815123689E+04 -0.41820227939E+03  0.11600486943E+04  0.50400001928E-02 0. -1.
</event>
<event>
 5   0  0.1937947E-05  0.3507374E+04  0.7818609E-02  0.8112045E-01
       -2   -1    0    0    0  501  0.00000000000E+00  0.00000000000E+00  0.10933849941E+04  0.10933849941E+04  0.25500000920E-02 0. -1.
        2   -1    0    0  501    0  0.00000000000E+00  0.00000000000E+00 -0.28127493587E+04  0.28127493587E+04  0.25500000920E-02 0.  1.
    10030    2    1    2    0    0  0.00000000000E+00  0.00000000000E+00 -0.17193643646E+04  0.39061343528E+04  0.35073739128E+04 0.  0.
        3    1    3    3  502    0 -0.60903341590E+03  0.11183073256E+04 -0.22025403054E+04  0.25441534512E+04  0.10100000352E+00 0.  1.
       -3    1    3    3    0  502  0.60903341590E+03 -0.11183073256E+04  0.48317594082E+03  0.13619809016E+04  0.10100000352E+00 0. -1.
</event>
<event>
 5   0  0.7305460E-06  0.2913794E+04  0.7818609E-02  0.8268785E-01
        1   -1    0    0  501    0  0.00000000000E+00  0.00000000000E+00  0.15526439159E+04  0.15526439159E+04  0.50400001928E-02 0. -1.
       -1   -1    0    0    0  501  0.00000000000E+00  0.00000000000E+00 -0.13670545590E+04  0.13670545590E+04  0.50400001928E-02 0.  1.
    10030    2    1    2    0    0  0.00000000000E+00  0.00000000000E+00  0.18558935690E+03  0.29196984749E+04  0.29137940516E+04 0.  0.
        4    1    3    3  502    0  0.22037257257E+02 -0.71736342727E+03 -0.11776275288E+04  0.13790954054E+04  0.12699999809E+01 0.  1.
       -4    1    3    3    0  502 -0.22037257257E+02  0.71736342727E+03  0.13632168857E+04  0.15406030696E+04  0.12699999809E+01 0. -1.
</event>
<event>
 5   0  0.8122088E-06  0.2889937E+04  0.7818609E-02  0.8275878E-01
       -1   -1    0    0    0  501  0.00000000000E+00  0.00000000000E+00  0.81444057801E+03  0.81444057803E+03  0.50400001928E-02 0. -1.
        1   -1    0    0  501    0  0.00000000000E+00  0.00000000000E+00 -0.25636410861E+04  0.25636410861E+04  0.50400001928E-02 0.  1.
    10030    2    1    2    0    0  0.00000000000E+00  0.00000000000E+00 -0.17492005081E+04  0.33780816642E+04  0.28899365585E+04 0.  0.
        1    1    3    3  502    0  0.10387647417E+04 -0.50080182465E+03 -0.18923586721E+04  0.22160451259E+04  0.50400001928E-02 0.  1.
       -1    1    3    3    0  502 -0.10387647417E+04  0.50080182465E+03  0.14315816400E+03  0.11620365382E+04  0.50400001928E-02 0. -1.
</event>
<event>
 5   0  0.1960961E-05  0.2875982E+04  0.7818609E-02  0.8280060E-01
       -2   -1    0    0    0  501  0.00000000000E+00  0.00000000000E+00  0.11474704571E+04  0.11474704571E+04  0.25500000920E-02 0.  1.
        2   -1    0    0  501    0  0.00000000000E+00  0.00000000000E+00 -0.18020664869E+04  0.18020664869E+04  0.25500000920E-02 0. -1.
    10030    2    1    2    0    0  0.00000000000E+00  0.00000000000E+00 -0.65459602978E+03  0.29495369440E+04  0.28759819579E+04 0.  0.
        5    1    3    3  502    0  0.72950412182E+03 -0.12387449683E+04 -0.36178245413E+03  0.14824216655E+04  0.46999998093E+01 0. -1.
       -5    1    3    3    0  502 -0.72950412182E+03  0.12387449683E+04 -0.29281357564E+03  0.14671152785E+04  0.46999998093E+01 0.  1.
</event>
<event>
 5   0  0.7971153E-06  0.3074400E+04  0.7818609E-02  0.8222799E-01
        1   -1    0    0  501    0  0.00000000000E+00  0.00000000000E+00  0.22997584845E+04  0.22997584845E+04  0.50400001928E-02 0. -1.
       -1   -1    0    0    0  501  0.00000000000E+00  0.00000000000E+00 -0.10274918716E+04  0.10274918716E+04  0.50400001928E-02 0.  1.
    10030    2    1    2    0    0  0.00000000000E+00  0.00000000000E+00  0.12722666129E+04  0.33272503561E+04  0.30743995508E+04 0.  0.
        5    1    3    3  502    0  0.14872229170E+04 -0.18591471466E+03  0.26663807801E+03  0.15223384119E+04  0.46999998093E+01 0.  1.
       -5    1    3    3    0  502 -0.14872229170E+04  0.18591471466E+03  0.10056285349E+04  0.18049119441E+04  0.46999998093E+01 0. -1.
</event>
<event>
 5   0  0.1937947E-05  0.2173924E+04  0.7818609E-02  0.8529360E-01
       -2   -1    0    0    0  501  0.00000000000E+00  0.00000000000E+00  0.98659986474E+03  0.98659986474E+03  0.25500000920E-02 0. -1.
        2   -1    0    0  501    0  0.00000000000E+00  0.00000000000E+00 -0.11975339442E+04  0.11975339442E+04  0.25500000920E-02 0.  1.
    10030    2    1    2    0    0  0.00000000000E+00  0.00000000000E+00 -0.21093407941E+03  0.21841338089E+04  0.21739244029E+04 0.  0.
        3    1    3    3  502    0 -0.54366469953E+03  0.93099299614E+03 -0.24456415956E+03  0.11055002952E+04  0.10100000352E+00 0. -1.
       -3    1    3    3    0  502  0.54366469953E+03 -0.93099299614E+03  0.33630080147E+02  0.10786335137E+04  0.10100000352E+00 0.  1.
</event>
<event>
 5   0  0.8055928E-06  0.2910606E+04  0.7818609E-02  0.8269729E-01
       -1   -1    0    0    0  501  0.00000000000E+00  0.00000000000E+00  0.96525341924E+03  0.96525341925E+03  0.50400001928E-02 0.  1.
        1   -1    0    0  501    0  0.00000000000E+00  0.00000000000E+00 -0.21941459344E+04  0.21941459344E+04  0.50400001928E-02 0. -1.
    10030    2    1    2    0    0  0.00000000000E+00  0.00000000000E+00 -0.12288925152E+04  0.31593993537E+04  0.29106060301E+04 0.  0.
        2    1    3    3  502    0  0.50876464250E+03  0.53667967571E+03 -0.19749970736E+04  0.21089049235E+04  0.25500000920E-02 0. -1.
       -2    1    3    3    0  502 -0.50876464250E+03 -0.53667967571E+03  0.74610455838E+03  0.10504944302E+04  0.25500000920E-02 0.  1.
</event>
<event>
 5   0  0.7305460E-06  0.1929781E+04  0.7818609E-02  0.8640173E-01
        1   -1    0    0  501    0  0.00000000000E+00  0.00000000000E+00  0.14608359296E+04  0.14608359296E+04  0.50400001928E-02 0. -1.
       -1   -1    0    0    0  501  0.00000000000E+00  0.00000000000E+00 -0.63731589101E+03  0.63731589103E+03  0.50400001928E-02 0.  1.
    10030    2    1    2    0    0  0.00000000000E+00  0.00000000000E+00  0.82352003861E+03  0.20981518207E+04  0.19297812852E+04 0.  0.
        4    1    3    3  502    0 -0.21548922890E+02  0.95888427669E+03  0.52625160846E+03  0.10940136107E+04  0.12699999809E+01 0. -1.
       -4    1    3    3    0  502  0.21548922890E+02 -0.95888427669E+03  0.29726843015E+03  0.10041382099E+04  0.12699999809E+01 0.  1.
</event>
<event>
 5   0  0.8122088E-06  0.2888851E+04  0.7818609E-02  0.8276202E-01
       -1   -1    0    0    0  501  0.00000000000E+00  0.00000000000E+00  0.12454398122E+04  0.12454398122E+04  0.50400001928E-02 0. -1.
        1   -1    0    0  501    0  0.00000000000E+00  0.00000000000E+00 -0.16752031774E+04  0.16752031774E+04  0.50400001928E-02 0.  1.
    10030    2    1    2    0    0  0.00000000000E+00  0.00000000000E+00 -0.42976336516E+03  0.29206429896E+04  0.28888507961E+04 0.  0.
        1    1    3    3  502    0 -0.81311733579E+03  0.52826806205E+03  0.86747842293E+03  0.13010556335E+04  0.50400001928E-02 0. -1.
       -1    1    3    3    0  502  0.81311733579E+03 -0.52826806205E+03 -0.12972417881E+04  0.16195873561E+04  0.50400001928E-02 0.  1.
</event>
<event>
 5   0  0.7305460E-06  0.2935769E+04  0.7818609E-02  0.8262314E-01
       -1   -1    0    0    0  501  0.00000000000E+00  0.00000000000E+00  0.20052571601E+04  0.20052571601E+04  0.50400001928E-02 0.  1.
        1   -1    0    0  501    0  0.00000000000E+00  0.00000000000E+00 -0.10745179141E+04  0.10745179141E+04  0.50400001928E-02 0. -1.
    10030    2    1    2    0    0  0.00000000000E+00  0.00000000000E+00  0.93073924600E+03  0.30797750742E+04  0.29357688880E+04 0.  0.
        4    1    3    3  502    0 -0.19986428491E+03 -0.13625340089E+04 -0.67729055683E+02  0.13787797126E+04  0.12699999809E+01 0. -1.
       -4    1    3    3    0  502  0.19986428491E+03  0.13625340089E+04  0.99846830168E+03  0.17009953616E+04  0.12699999809E+01 0.  1.
</event>
<event>
 5   0  0.1976233E-05  0.2032580E+04  0.7818609E-02  0.8591538E-01
        2   -1    0    0  501    0  0.00000000000E+00  0.00000000000E+00  0.11771083234E+04  0.11771083234E+04  0.25500000920E-02 0.  1.
       -2   -1    0    0    0  501  0.00000000000E+00  0.00000000000E+00 -0.87744308553E+03  0.87744308553E+03  0.25500000920E-02 0. -1.
    10030    2    1    2    0    0  0.00000000000E+00  0.00000000000E+00  0.29966523788E+03  0.20545514089E+04  0.20325801921E+04 0.  0.
        2    1    3    3  502    0  0.20123969238E+03 -0.44799030320E+03 -0.74953388576E+03  0.89609919733E+03  0.25500000920E-02 0. -1.
       -2    1    3    3    0  502 -0.20123969238E+03  0.44799030320E+03  0.10491991236E+04  0.11584522116E+04  0.25500000920E-02 0.  1.
</event>
<event>
 5   0  0.1918901E-05  0.2003576E+04  0.7818609E-02  0.8604951E-01
       -2   -1    0    0    0  501  0.00000000000E+00  0.00000000000E+00  0.46549494155E+03  0.46549494155E+03  0.25500000920E-02 0. -1.
        2   -1    0    0  501    0  0.00000000000E+00  0.00000000000E+00 -0.21559392103E+04  0.21559392103E+04  0.25500000920E-02 0.  1.
    10030    2    1    2    0    0  0.00000000000E+00  0.00000000000E+00 -0.16904442688E+04  0.26214341519E+04  0.20035756005E+04 0.  0.
        1    1    3    3  502    0 -0.37055375927E+03  0.81008977793E+03 -0.24561482773E+03  0.92405745516E+03  0.50400001928E-02 0. -1.
       -1    1    3    3    0  502  0.37055375927E+03 -0.81008977793E+03 -0.14448294411E+04  0.16973766967E+04  0.50400001928E-02 0.  1.
</event>
<event>
 5   0  0.1937947E-05  0.1707685E+04  0.7818609E-02  0.8756993E-01
        2   -1    0    0  501    0  0.00000000000E+00  0.00000000000E+00  0.23103709516E+04  0.23103709516E+04  0.25500000920E-02 0.  1.
       -2   -1    0    0    0  501  0.00000000000E+00  0.00000000000E+00 -0.31555417126E+03  0.31555417127E+03  0.25500000920E-02 0. -1.
    10030    2    1    2    0    0  0.00000000000E+00  0.00000000000E+00  0.19948167803E+04  0.26259251229E+04  0.17076852063E+04 0.  0.
        3    1    3    3  502    0  0.36366838687E+03 -0.13079259504E+03 -0.17335961749E+03  0.42357403804E+03  0.10100000352E+00 0. -1.
       -3    1    3    3    0  502 -0.36366838687E+03  0.13079259504E+03  0.21681763978E+04  0.22023510848E+04  0.10100000352E+00 0.  1.
</event>
<event>
 5   0  0.1918901E-05  0.2963309E+04  0.7818609E-02  0.8254287E-01
       -2   -1    0    0    0  501  0.00000000000E+00  0.00000000000E+00  0.19947373559E+04  0.19947373559E+04  0.25500000920E-02 0.  1.
        2   -1    0    0  501    0  0.00000000000E+00  0.00000000000E+00 -0.11005455897E+04  0.11005455897E+04  0.25500000920E-02 0. -1.
    10030    2    1    2    0    0  0.00000000000E+00  0.00000000000E+00  0.89419176621E+03  0.30952829456E+04  0.29633085561E+04 0.  0.
        1    1    3    3  502    0 -0.50210557323E+03 -0.13697593153E+04  0.17682770448E+03  0.14695640937E+04  0.50400001928E-02 0.  1.
       -1    1    3    3    0  502  0.50210557323E+03  0.13697593153E+04  0.71736406173E+03  0.16257188519E+04  0.50400001928E-02 0. -1.
</event>
<event>
 5   0  0.1829810E-05  0.2911833E+04  0.7818609E-02  0.8269366E-01
        2   -1    0    0  501    0  0.00000000000E+00  0.00000000000E+00  0.11590361980E+04  0.11590361980E+04  0.25500000920E-02 0. -1.
       -2   -1    0    0    0  501  0.00000000000E+00  0.00000000000E+00 -0.18288409129E+04  0.18288409129E+04  0.25500000920E-02 0.  1.
    10030    2    1    2    0    0  0.00000000000E+00  0.00000000000E+00 -0.66980471490E+03  0.29878771110E+04  0.29118329750E+04 0.  0.
        4    1    3    3  502    0 -0.27727047563E+03 -0.45871339843E+03 -0.17239135279E+04  0.18053189090E+04  0.12699999809E+01 0.  1.
       -4    1    3    3    0  502  0.27727047563E+03  0.45871339843E+03  0.10541088130E+04  0.11825582020E+04  0.12699999809E+01 0. -1.
</event>
<event>
 5   0  0.8234888E-06  0.3093304E+04  0.7818609E-02  0.8217578E-01
        1   -1    0    0  501    0  0.00000000000E+00  0.00000000000E+00  0.15288680467E+04  0.15288680468E+04  0.50400001928E-02 0.  1.
       -1   -1    0    0    0  501  0.00000000000E+00  0.00000000000E+00 -0.15646426808E+04  0.15646426808E+04  0.50400001928E-02 0. -1.
    10030    2    1    2    0    0  0.00000000000E+00  0.00000000000E+00 -0.35774634084E+02  0.30935107276E+04  0.30933038644E+04 0.  0.
        3    1    3    3  502    0 -0.13980638058E+04  0.65225740415E+03 -0.12794040729E+03  0.15480280631E+04  0.10100000352E+00 0. -1.
       -3    1    3    3    0  502  0.13980638058E+04 -0.65225740415E+03  0.92165773206E+02  0.15454826645E+04  0.10100000352E+00 0.  1.
</event>
<event>
 5   0  0.8122088E-06  0.2854263E+04  0.7818609E-02  0.8286617E-01
       -1   -1    0    0    0  501  0.00000000000E+00  0.00000000000E+00  0.12630856879E+04  0.12630856879E+04  0.50400001928E-02 0. -1.
        1   -1    0    0  501    0  0.00000000000E+00  0.00000000000E+00 -0.16124832806E+04  0.16124832807E+04  0.50400001928E-02 0.  1.
    10030    2    1    2    0    0  0.00000000000E+00  0.00000000000E+00 -0.34939759272E+03  0.28755689686E+04  0.28542631650E+04 0.  0.
        1    1    3    3  502    0  0.93844072474E+03  0.16968777302E+03  0.89494185011E+03  0.13078172079E+04  0.50400001928E-02 0. -1.
       -1    1    3    3    0  502 -0.93844072474E+03 -0.16968777302E+03 -0.12443394428E+04  0.15677517607E+04  0.50400001928E-02 0.  1.
</event>
<event>
 5   0  0.6578125E-06  0.2423615E+04  0.7818609E-02  0.8430715E-01
        3   -1    0    0  501    0  0.00000000000E+00  0.00000000000E+00  0.11419414167E+04  0.11419414212E+04  0.10100000352E+00 0. -1.
       -3   -1    0    0    0  501  0.00000000000E+00  0.00000000000E+00 -0.12859483563E+04  0.12859483603E+04  0.10100000352E+00 0.  1.
    10030    2    1    2    0    0  0.00000000000E+00  0.00000000000E+00 -0.14400693960E+03  0.24278897815E+04  0.24236152319E+04 0.  0.
        1    1    3    3  502    0  0.52790544489E+03  0.42710345314E+03 -0.10774549843E+04  0.12735818630E+04  0.50400001928E-02 0.  1.
       -1    1    3    3    0  502 -0.52790544489E+03 -0.42710345314E+03  0.93344804474E+03  0.11543079185E+04  0.50400001928E-02 0. -1.
</event>
<event>
 5   0  0.8122088E-06  0.2773010E+04  0.7818609E-02  0.8311697E-01
        1   -1    0    0  501    0  0.00000000000E+00  0.00000000000E+00  0.11312450532E+04  0.11312450532E+04  0.50400001928E-02 0. -1.
       -1   -1    0    0    0  501  0.00000000000E+00  0.00000000000E+00 -0.16993637214E+04  0.16993637214E+04  0.50400001928E-02 0.  1.
    10030    2    1    2    0    0  0.00000000000E+00  0.00000000000E+00 -0.56811866821E+03  0.28306087746E+04  0.27730104965E+04 0.  0.
        1    1    3    3  502    0 -0.79317167723E+03  0.64268925690E+03  0.67363172868E+03  0.12230905512E+04  0.50400001928E-02 0. -1.
       -1    1    3    3    0  502  0.79317167723E+03 -0.64268925690E+03 -0.12417503969E+04  0.16075182234E+04  0.50400001928E-02 0.  1.
</event>
<event>
 5   0  0.7305460E-06  0.2985890E+04  0.7818609E-02  0.8247772E-01
        1   -1    0    0  501    0  0.00000000000E+00  0.00000000000E+00  0.19890136014E+04  0.19890136014E+04  0.50400001928E-02 0.  1.
       -1   -1    0    0    0  501  0.00000000000E+00  0.00000000000E+00 -0.11205978557E+04  0.11205978557E+04  0.50400001928E-02 0. -1.
    10030    2    1    2    0    0  0.00000000000E+00  0.00000000000E+00  0.86841574573E+03  0.31096114571E+04  0.29858897345E+04 0.  0.
        4    1    3    3  502    0  0.10568969891E+04  0.90401902917E+03 -0.13105381872E+03  0.13969460859E+04  0.12699999809E+01 0. -1.
       -4    1    3    3    0  502 -0.10568969891E+04 -0.90401902917E+03  0.99946956445E+03  0.17126653712E+04  0.12699999809E+01 0.  1.
</event>
<event>
 5   0  0.8234888E-06  0.2850222E+04  0.7818609E-02  0.8287844E-01
        1   -1    0    0  501    0  0.00000000000E+00  0.00000000000E+00  0.18701477325E+04  0.18701477325E+04  0.50400001928E-02 0.  1.
       -1   -1    0    0    0  501  0.00000000000E+00  0.00000000000E+00 -0.10859793687E+04  0.10859793687E+04  0.50400001928E-02 0. -1.
    10030    2    1    2    0    0  0.00000000000E+00  0.00000000000E+00  0.78416836374E+03  0.29561271012E+04  0.28502223450E+04 0.  0.
        3    1    3    3  502    0 -0.78161945908E+03  0.11083022314E+04 -0.61995074485E+02  0.13576104796E+04  0.10100000352E+00 0. -1.
       -3    1    3    3    0  502  0.78161945908E+03 -0.11083022314E+04  0.84616343822E+03  0.15985166215E+04  0.10100000352E+00 0.  1.
</event>
<event>
 5   0  0.1829810E-05  0.2850735E+04  0.7818609E-02  0.8287688E-01
       -2   -1    0    0    0  501  0.00000000000E+00  0.00000000000E+00  0.10338554073E+04  0.10338554073E+04  0.25500000920E-02 0. -1.
        2   -1    0    0  501    0  0.00000000000E+00  0.00000000000E+00 -0.19651419622E+04  0.19651419622E+04  0.25500000920E-02 0.  1.
    10030    2    1    2    0    0  0.00000000000E+00  0.00000000000E+00 -0.93128655484E+03  0.29989973695E+04  0.28507350938E+04 0.  0.
        4    1    3    3  502    0 -0.48859437046E+03 -0.27353893036E+03 -0.18445863956E+04  0.19277055244E+04  0.12699999809E+01 0.  1.
       -4    1    3    3    0  502  0.48859437046E+03  0.27353893036E+03  0.91329984074E+03  0.10712918450E+04  0.12699999809E+01 0. -1.
</event>
<event>
 5   0  0.8055928E-06  0.3024537E+04  0.7818609E-02  0.8236759E-01
       -1   -1    0    0    0  501  0.00000000000E+00  0.00000000000E+00  0.11493924378E+04  0.11493924378E+04  0.50400001928E-02 0.  1.
        1   -1    0    0  501    0  0.00000000000E+00  0.00000000000E+00 -0.19897080743E+04  0.19897080743E+04  0.50400001928E-02 0. -1.
    10030    2    1    2    0    0  0.00000000000E+00  0.00000000000E+00 -0.84031563650E+03  0.31391005121E+04  0.30245366019E+04 0.  0.
        2    1    3    3  502    0 -0.67866132536E+03 -0.76497407797E+03 -0.15764439455E+04  0.18790801068E+04  0.25500000920E-02 0. -1.
       -2    1    3    3    0  502  0.67866132536E+03  0.76497407797E+03  0.73612830897E+03  0.12600204053E+04  0.25500000920E-02 0.  1.
</event>
<event>
 5   0  0.8234888E-06  0.1535918E+04  0.7818609E-02  0.8860913E-01
       -1   -1    0    0    0  501  0.00000000000E+00  0.00000000000E+00  0.77049228737E+03  0.77049228739E+03  0.50400001928E-02 0.  1.
        1   -1    0    0  501    0  0.00000000000E+00  0.00000000000E+00 -0.76543437981E+03  0.76543437983E+03  0.50400001928E-02 0. -1.
    10030    2    1    2    0    0  0.00000000000E+00  0.00000000000E+00  0.50579075565E+01  0.15359266672E+04  0.15359183392E+04 0.  0.
        3    1    3    3  502    0  0.14636171189E+03  0.59337209142E+03  0.46755737383E+03  0.76949470279E+03  0.10100000352E+00 0.  1.
       -3    1    3    3    0  502 -0.14636171189E+03 -0.59337209142E+03 -0.46249946628E+03  0.76643196443E+03  0.10100000352E+00 0. -1.
</event>
<event>
 5   0  0.1960961E-05  0.2896805E+04  0.7818609E-02  0.8273829E-01
        2   -1    0    0  501    0  0.00000000000E+00  0.00000000000E+00  0.22095205163E+04  0.22095205163E+04  0.25500000920E-02 0.  1.
       -2   -1    0    0    0  501  0.00000000000E+00  0.00000000000E+00 -0.94946855860E+03  0.94946855860E+03  0.25500000920E-02 0. -1.
    10030    2    1    2    0    0  0.00000000000E+00  0.00000000000E+00  0.12600519577E+04  0.31589890749E+04  0.28968053161E+04 0.  0.
        5    1    3    3  502    0 -0.84171889863E+03  0.54504155230E+03  0.17697435181E+04  0.20341030475E+04  0.46999998093E+01 0.  1.
       -5    1    3    3    0  502  0.84171889863E+03 -0.54504155230E+03 -0.50969156034E+03  0.11248860274E+04  0.46999998093E+01 0. -1.
</event>
<event>
 5   0  0.8055928E-06  0.2941991E+04  0.7818609E-02  0.8260492E-01
       -1   -1    0    0    0  501  0.00000000000E+00  0.00000000000E+00  0.17695382834E+04  0.17695382834E+04  0.50400001928E-02 0. -1.
        1   -1    0    0  501    0  0.00000000000E+00  0.00000000000E+00 -0.12228207849E+04  0.12228207849E+04  0.50400001928E-02 0.  1.
    10030    2    1    2    0    0  0.00000000000E+00  0.00000000000E+00  0.54671749847E+03  0.29923590683E+04  0.29419912935E+04 0.  0.
        2    1    3    3  502    0  0.75549551461E+03 -0.43783116552E+03 -0.93069801670E+03  0.12761929323E+04  0.25500000920E-02 0.  1.
       -2    1    3    3    0  502 -0.75549551461E+03  0.43783116552E+03  0.14774155152E+04  0.17161661361E+04  0.25500000920E-02 0. -1.
</event>
<event>
 5   0  0.7971153E-06  0.2911239E+04  0.7818609E-02  0.8269541E-01
       -1   -1    0    0    0  501  0.00000000000E+00  0.00000000000E+00  0.11394120890E+04  0.11394120890E+04  0.50400001928E-02 0. -1.
        1   -1    0    0  501    0  0.00000000000E+00  0.00000000000E+00 -0.18595798037E+04  0.18595798037E+04  0.50400001928E-02 0.  1.
    10030    2    1    2    0    0  0.00000000000E+00  0.00000000000E+00 -0.72016771473E+03  0.29989918927E+04  0.29112387115E+04 0.  0.
        5    1    3    3  502    0 -0.31346313487E+03  0.13219023536E+04  0.17827856972E+03  0.13702154239E+04  0.46999998093E+01 0. -1.
       -5    1    3    3    0  502  0.31346313487E+03 -0.13219023536E+04 -0.89844628446E+03  0.16287764688E+04  0.46999998093E+01 0.  1.
</event>
<event>
 5   0  0.7971153E-06  0.2733419E+04  0.7818609E-02  0.8324242E-01
       -1   -1    0    0    0  501  0.00000000000E+00  0.00000000000E+00  0.13931474540E+04  0.13931474540E+04  0.50400001928E-02 0.  1.
        1   -1    0    0  501    0  0.00000000000E+00  0.00000000000E+00 -0.13407734795E+04  0.13407734795E+04  0.50400001928E-02 0. -1.
    10030    2    1    2    0    0  0.00000000000E+00  0.00000000000E+00  0.52373974539E+02  0.27339209335E+04  0.27334192209E+04 0.  0.
        5    1    3    3  502    0  0.94711483487E+03  0.73131120223E+03 -0.63426025798E+03  0.13543082182E+04  0.46999998093E+01 0. -1.
       -5    1    3    3    0  502 -0.94711483487E+03 -0.73131120223E+03  0.68663423251E+03  0.13796127153E+04  0.46999998093E+01 0.  1.
</event>
<event>
 5   0  0.1976233E-05  0.2902662E+04  0.7818609E-02  0.8272086E-01
       -2   -1    0    0    0  501  0.00000000000E+00  0.00000000000E+00  0.93929130983E+03  0.93929130983E+03  0.25500000920E-02 0.  1.
        2   -1    0    0  501    0  0.00000000000E+00  0.00000000000E+00 -0.22425010801E+04  0.22425010801E+04  0.25500000920E-02 0. -1.
    10030    2    1    2    0    0  0.00000000000E+00  0.00000000000E+00 -0.13032097703E+04  0.31817923899E+04  0.29026620725E+04 0.  0.
        2    1    3    3  502    0 -0.96163329171E+02 -0.13313931530E+04 -0.12760397878E+04  0.18466544489E+04  0.25500000920E-02 0. -1.
       -2    1    3    3    0  502  0.96163329171E+02  0.13313931530E+04 -0.27169982508E+02  0.13351379410E+04  0.25500000920E-02 0.  1.
</event>
<event>
 5   0  0.1976233E-05  0.2356024E+04  0.7818609E-02  0.8456153E-01
        2   -1    0    0  501    0  0.00000000000E+00  0.00000000000E+00  0.19051045316E+04  0.19051045316E+04  0.25500000920E-02 0. -1.
       -2   -1    0    0    0  501  0.00000000000E+00  0.00000000000E+00 -0.72841793639E+03  0.72841793639E+03  0.25500000920E-02 0.  1.
    10030    2    1    2    0    0  0.00000000000E+00  0.00000000000E+00  0.11766865952E+04  0.26335224680E+04  0.23560240334E+04 0.  0.
        2    1    3    3  502    0 -0.86778885289E+03 -0.65204666801E+03  0.76733421382E+02  0.10881683548E+04  0.25500000920E-02 0.  1.
       -2    1    3    3    0  502  0.86778885289E+03  0.65204666801E+03  0.10999531738E+04  0.15453541132E+04  0.25500000920E-02 0. -1.
</event>
<event>
 5   0  0.1937947E-05  0.2955164E+04  0.7818609E-02  0.8256651E-01
        2   -1    0    0  501    0  0.00000000000E+00  0.00000000000E+00  0.23883764882E+04  0.23883764882E+04  0.25500000920E-02 0.  1.
       -2   -1    0    0    0  501  0.00000000000E+00  0.00000000000E+00 -0.91411383226E+03  0.91411383226E+03  0.25500000920E-02 0. -1.
    10030    2    1    2    0    0  0.00000000000E+00  0.00000000000E+00  0.14742626559E+04  0.33024903205E+04  0.29551636060E+04 0.  0.
        3    1    3    3  502    0  0.38910677710E+03 -0.93305021324E+02  0.23266761704E+04  0.23608328876E+04  0.10100000352E+00 0.  1.
       -3    1    3    3    0  502 -0.38910677710E+03  0.93305021324E+02 -0.85241351448E+03  0.94165743286E+03  0.10100000352E+00 0. -1.
</event>
<event>
 5   0  0.1829810E-05  0.2893584E+04  0.7818609E-02  0.8274789E-01
        2   -1    0    0  501    0  0.00000000000E+00  0.00000000000E+00  0.15066764015E+04  0.15066764015E+04  0.25500000920E-02 0.  1.
       -2   -1    0    0    0  501  0.00000000000E+00  0.00000000000E+00 -0.13892878217E+04  0.13892878217E+04  0.25500000920E-02 0. -1.
    10030    2    1    2    0    0  0.00000000000E+00  0.00000000000E+00  0.11738857979E+03  0.28959642232E+04  0.28935840585E+04 0.  0.
        4    1    3    3  502    0  0.60174223728E+03 -0.13031592140E+04  0.24019369238E+03  0.14553392319E+04  0.12699999809E+01 0.  1.
       -4    1    3    3    0  502 -0.60174223728E+03  0.13031592140E+04 -0.12280511259E+03  0.14406249913E+04  0.12699999809E+01 0. -1.
</event>
<event>
 5   0  0.8122088E-06  0.2924231E+04  0.7818609E-02  0.8265704E-01
        1   -1    0    0  501    0  0.00000000000E+00  0.00000000000E+00  0.86307492192E+03  0.86307492193E+03  0.50400001928E-02 0.  1.
       -1   -1    0    0    0  501  0.00000000000E+00  0.00000000000E+00 -0.24769358182E+04  0.24769358182E+04  0.50400001928E-02 0. -1.
    10030    2    1    2    0    0  0.00000000000E+00  0.00000000000E+00 -0.16138608963E+04  0.33400107401E+04  0.29242306256E+04 0.  0.
        1    1    3    3  502    0  0.13116479753E+04  0.62797344616E+03 -0.63367146685E+03  0.15862883055E+04  0.50400001928E-02 0. -1.
       -1    1    3    3    0  502 -0.13116479753E+04 -0.62797344616E+03 -0.98018942942E+03  0.17537224346E+04  0.50400001928E-02 0.  1.
</event>
<event>
 5   0  0.1829810E-05  0.2928489E+04  0.7818609E-02  0.8264451E-01
       -2   -1    0    0    0  501  0.00000000000E+00  0.00000000000E+00  0.10669351010E+04  0.10669351010E+04  0.25500000920E-02 0.  1.
        2   -1    0    0  501    0  0.00000000000E+00  0.00000000000E+00 -0.20095049454E+04  0.20095049454E+04  0.25500000920E-02 0. -1.
    10030    2    1    2    0    0  0.00000000000E+00  0.00000000000E+00 -0.94256984438E+03  0.30764400465E+04  0.29284885945E+04 0.  0.
        4    1    3    3  502    0  0.14126274960E+04  0.38445820104E+03 -0.49878367941E+03  0.15466451831E+04  0.12699999809E+01 0.  1.
       -4    1    3    3    0  502 -0.14126274960E+04 -0.38445820104E+03 -0.44378616497E+03  0.15297948633E+04  0.12699999809E+01 0. -1.
</event>
<event>
 5   0  0.7305460E-06  0.2557217E+04  0.7818609E-02  0.8382880E-01
        1   -1    0    0  501    0  0.00000000000E+00  0.00000000000E+00  0.15710822867E+04  0.15710822867E+04  0.50400001928E-02 0.  1.
       -1   -1    0    0    0  501  0.00000000000E+00  0.00000000000E+00 -0.10405821440E+04  0.10405821440E+04  0.50400001928E-02 0. -1.
    10030    2    1    2    0    0  0.00000000000E+00  0.00000000000E+00  0.53050014276E+03  0.26116644307E+04  0.25572173739E+04 0.  0.
        4    1    3    3  502    0  0.73219397451E+03 -0.68048215549E+03 -0.54901752161E+03  0.11404323006E+04  0.12699999809E+01 0. -1.
       -4    1    3    3    0  502 -0.73219397451E+03  0.68048215549E+03  0.10795176644E+04  0.14712321302E+04  0.12699999809E+01 0.  1.
</event>
<event>
 5   0  0.1918901E-05  0.2893013E+04  0.7818609E-02  0.8274959E-01
        2   -1    0    0  501    0  0.00000000000E+00  0.00000000000E+00  0.26194600119E+04  0.26194600119E+04  0.25500000920E-02 0. -1.
       -2   -1    0    0    0  501  0.00000000000E+00  0.00000000000E+00 -0.79878339758E+03  0.79878339759E+03  0.25500000920E-02 0.  1.
    10030    2    1    2    0    0  0.00000000000E+00  0.00000000000E+00  0.18206766143E+04  0.34182434095E+04  0.28930130785E+04 0.  0.
        1    1    3    3  502    0  0.55150715280E+02  0.20050286444E+03 -0.78103008178E+03  0.80823943773E+03  0.50400001928E-02 0.  1.
       -1    1    3    3    0  502 -0.55150715280E+02 -0.20050286444E+03  0.26017066961E+04  0.26100039718E+04  0.50400001928E-02 0. -1.
</event>
<event>
 5   0  0.8234888E-06  0.2947946E+04  0.7818609E-02  0.8258753E-01
       -1   -1    0    0    0  501  0.00000000000E+00  0.00000000000E+00  0.73266851913E+03  0.73266851914E+03  0.50400001928E-02 0. -1.
        1   -1    0    0  501    0  0.00000000000E+00  0.00000000000E+00 -0.29653194600E+04  0.29653194600E+04  0.50400001928E-02 0.  1.
    10030    2    1    2    0    0  0.00000000000E+00  0.00000000000E+00 -0.22326509409E+04  0.36979879792E+04  0.29479458730E+04 0.  0.
        3    1    3    3  502    0 -0.14585262432E+04 -0.19916916937E+03 -0.10222094757E+04  0.17921716945E+04  0.10100000352E+00 0. -1.
       -3    1    3    3    0  502  0.14585262432E+04  0.19916916937E+03 -0.12104414652E+04  0.19058162847E+04  0.10100000352E+00 0.  1.
</event>
<event>
 5   0  0.1937947E-05  0.2854251E+04  0.7818609E-02  0.8286621E-01
       -2   -1    0    0    0  501  0.00000000000E+00  0.00000000000E+00  0.21729023963E+04  0.21729023963E+04  0.25500000920E-02 0. -1.
        2   -1    0    0  501    0  0.00000000000E+00  0.00000000000E+00 -0.93731171383E+03  0.93731171384E+03  0.25500000920E-02 0.  1.
    10030    2    1    2    0    0  0.00000000000E+00  0.00000000000E+00  0.12355906825E+04  0.31102141102E+04  0.28542507732E+04 0.  0.
        3    1    3    3  502    0  0.67019244256E+03  0.76429246160E+03 -0.47372585728E+03  0.11214798594E+04  0.10100000352E+00 0.  1.
       -3    1    3    3    0  502 -0.67019244256E+03 -0.76429246160E+03  0.17093165398E+04  0.19887342508E+04  0.10100000352E+00 0. -1.
</event>
<event>
 5   0  0.7971153E-06  0.2872940E+04  0.7818609E-02  0.8280974E-01
       -1   -1    0    0    0  501  0.00000000000E+00  0.00000000000E+00  0.14909573953E+04  0.14909573953E+04  0.50400001928E-02 0. -1.
        1   -1    0    0  501    0  0.00000000000E+00  0.00000000000E+00 -0.13839738445E+04  0.13839738445E+04  0.50400001928E-02 0.  1.
    10030    2    1    2    0    0  0.00000000000E+00  0.00000000000E+00  0.10698355075E+03  0.28749312398E+04  0.28729399843E+04 0.  0.
        5    1    3    3  502    0 -0.61573243240E+03 -0.11046602421E+04  0.73515644972E+03  0.14628321074E+04  0.46999998093E+01 0. -1.
       -5    1    3    3    0  502  0.61573243240E+03  0.11046602421E+04 -0.62817289897E+03  0.14120991324E+04  0.46999998093E+01 0.  1.
</event>
<event>
 5   0  0.1918901E-05  0.1646694E+04  0.7818609E-02  0.8792364E-01
       -2   -1    0    0    0  501  0.00000000000E+00  0.00000000000E+00  0.75848705427E+03  0.75848705427E+03  0.25500000920E-02 0.  1.
        2   -1    0    0  501    0  0.00000000000E+00  0.00000000000E+00 -0.89375359972E+03  0.89375359973E+03  0.25500000920E-02 0. -1.
    10030    2    1    2    0    0  0.00000000000E+00  0.00000000000E+00 -0.13526654545E+03  0.16522406540E+04  0.16466943069E+04 0.  0.
        1    1    3    3  502    0  0.18919056269E+03  0.41068298942E+03 -0.75802563896E+03  0.88264174848E+03  0.50400001928E-02 0. -1.
       -1    1    3    3    0  502 -0.18919056269E+03 -0.41068298942E+03  0.62275909351E+03  0.76959890552E+03  0.50400001928E-02 0.  1.
</event>
<event>
 5   0  0.1937947E-05  0.3777463E+04  0.7818609E-02  0.8051009E-01
       -2   -1    0    0    0  501  0.00000000000E+00  0.00000000000E+00  0.21916072499E+04  0.21916072499E+04  0.25500000920E-02 0. -1.
        2   -1    0    0  501    0  0.00000000000E+00  0.00000000000E+00 -0.16277124343E+04  0.16277124343E+04  0.25500000920E-02 0.  1.
    10030    2    1    2    0    0  0.00000000000E+00  0.00000000000E+00  0.56389481551E+03  0.38193196842E+04  0.37774628373E+04 0.  0.
        3    1    3    3  502    0  0.22371256324E+03  0.70148978908E+03  0.20405219588E+04  0.21693006038E+04  0.10100000352E+00 0. -1.
       -3    1    3    3    0  502 -0.22371256324E+03 -0.70148978908E+03 -0.14766271433E+04  0.16500190804E+04  0.10100000352E+00 0.  1.
</event>
<event>
 5   0  0.6578125E-06  0.2930935E+04  0.7818609E-02  0.8263732E-01
       -3   -1    0    0    0  501  0.00000000000E+00  0.00000000000E+00  0.88857929431E+03  0.88857930005E+03  0.10100000352E+00 0. -1.
        3   -1    0    0  501    0  0.00000000000E+00  0.00000000000E+00 -0.24168866030E+04  0.24168866051E+04  0.10100000352E+00 0.  1.
    10030    2    1    2    0    0  0.00000000000E+00  0.00000000000E+00 -0.15283073087E+04  0.33054659052E+04  0.29309352808E+04 0.  0.
        1    1    3    3  502    0  0.37044832008E+03  0.13556274618E+04 -0.29556238965E+03  0.14360762164E+04  0.50400001928E-02 0. -1.
       -1    1    3    3    0  502 -0.37044832008E+03 -0.13556274618E+04 -0.12327449190E+04  0.18693896888E+04  0.50400001928E-02 0.  1.
</event>
<event>
 5   0  0.7305460E-06  0.2963306E+04  0.7818609E-02  0.8254287E-01
        1   -1    0    0  501    0  0.00000000000E+00  0.00000000000E+00  0.16653887695E+04  0.16653887695E+04  0.50400001928E-02 0.  1.
       -1   -1    0    0    0  501  0.00000000000E+00  0.00000000000E+00 -0.13181882897E+04  0.13181882897E+04  0.50400001928E-02 0. -1.
    10030    2    1    2    0    0  0.00000000000E+00  0.00000000000E+00  0.34720047979E+03  0.29835770592E+04  0.29633062439E+04 0.  0.
        4    1    3    3  502    0  0.32052311372E+03 -0.75024783317E+03  0.14188660939E+04  0.16367007921E+04  0.12699999809E+01 0.  1.
       -4    1    3    3    0  502 -0.32052311372E+03  0.75024783317E+03 -0.10716656141E+04  0.13468762671E+04  0.12699999809E+01 0. -1.
</event>
<event>
 5   0  0.8055928E-06  0.2842017E+04  0.7818609E-02  0.8290341E-01
       -1   -1    0    0    0  501  0.00000000000E+00  0.00000000000E+00  0.12077175875E+04  0.12077175875E+04  0.50400001928E-02 0. -1.
        1   -1    0    0  501    0  0.00000000000E+00  0.00000000000E+00 -0.16719683732E+04  0.16719683733E+04  0.50400001928E-02 0.  1.
    10030    2    1    2    0    0  0.00000000000E+00  0.00000000000E+00 -0.46425078575E+03  0.28796859608E+04  0.28420173188E+04 0.  0.
        2    1    3    3  502    0 -0.20519034944E+03  0.82518341250E+03 -0.13857387037E+04  0.16258236371E+04  0.25500000920E-02 0.  1.
       -2    1    3    3    0  502  0.20519034944E+03 -0.82518341250E+03  0.92148791799E+03  0.12538623237E+04  0.25500000920E-02 0. -1.
</event>
<event>
 5   0  0.1829810E-05  0.2796176E+04  0.7818609E-02  0.8304456E-01
       -2   -1    0    0    0  501  0.00000000000E+00  0.00000000000E+00  0.10147288272E+04  0.10147288272E+04  0.25500000920E-02 0. -1.
        2   -1    0    0  501    0  0.00000000000E+00  0.00000000000E+00 -0.19262787883E+04  0.19262787883E+04  0.25500000920E-02 0.  1.
    10030    2    1    2    0    0  0.00000000000E+00  0.00000000000E+00 -0.91154996116E+03  0.29410076155E+04  0.27961764005E+04 0.  0.
        4    1    3    3  502    0  0.13436639385E+04  0.34908042862E+03 -0.28180179781E+03  0.14165817277E+04  0.12699999809E+01 0.  1.
       -4    1    3    3    0  502 -0.13436639385E+04 -0.34908042862E+03 -0.62974816335E+03  0.15244258878E+04  0.12699999809E+01 0. -1.
</event>
<event>
 5   0  0.1918901E-05  0.2873160E+04  0.7818609E-02  0.8280908E-01
       -2   -1    0    0    0  501  0.00000000000E+00  0.00000000000E+00  0.83904745921E+03  0.83904745921E+03  0.25500000920E-02 0.  1.
        2   -1    0    0  501    0  0.00000000000E+00  0.00000000000E+00 -0.24596493205E+04  0.24596493205E+04  0.25500000920E-02 0. -1.
    10030    2    1    2    0    0  0.00000000000E+00  0.00000000000E+00 -0.16206018613E+04  0.32986967797E+04  0.28731602900E+04 0.  0.
        1    1    3    3  502    0  0.12594802927E+04  0.21221420403E+03 -0.55306092313E+02  0.12784303813E+04  0.50400001928E-02 0.  1.
       -1    1    3    3    0  502 -0.12594802927E+04 -0.21221420403E+03 -0.15652957690E+04  0.20202663984E+04  0.50400001928E-02 0. -1.
</event>
<event>
 5   0  0.8122088E-06  0.2926357E+04  0.7818609E-02  0.8265078E-01
        1   -1    0    0  501    0  0.00000000000E+00  0.00000000000E+00  0.17828272537E+04  0.17828272537E+04  0.50400001928E-02 0. -1.
       -1   -1    0    0    0  501  0.00000000000E+00  0.00000000000E+00 -0.12008406695E+04  0.12008406695E+04  0.50400001928E-02 0.  1.
    10030    2    1    2    0    0  0.00000000000E+00  0.00000000000E+00  0.58198658419E+03  0.29836679232E+04  0.29263571026E+04 0.  0.
        1    1    3    3  502    0  0.96178437148E+03 -0.30622578194E+03  0.13710253217E+04  0.17025022290E+04  0.50400001928E-02 0. -1.
       -1    1    3    3    0  502 -0.96178437148E+03  0.30622578194E+03 -0.78903873755E+03  0.12811656942E+04  0.50400001928E-02 0.  1.
</event>
<event>
 5   0  0.1960961E-05  0.2933970E+04  0.7818609E-02  0.8262841E-01
       -2   -1    0    0    0  501  0.00000000000E+00  0.00000000000E+00  0.95731448017E+03  0.95731448018E+03  0.25500000920E-02 0. -1.
        2   -1    0    0  501    0  0.00000000000E+00  0.00000000000E+00 -0.22480028546E+04  0.22480028546E+04  0.25500000920E-02 0.  1.
    10030    2    1    2    0    0  0.00000000000E+00  0.00000000000E+00 -0.12906883745E+04  0.32053173348E+04  0.29339704731E+04 0.  0.
        5    1    3    3  502    0 -0.79218219424E+03 -0.99062109854E+03 -0.14504843833E+04  0.19268652848E+04  0.46999998093E+01 0.  1.
       -5    1    3    3    0  502  0.79218219424E+03  0.99062109854E+03  0.15979600880E+03  0.12784520500E+04  0.46999998093E+01 0. -1.
</event>
<event>
 5   0  0.7305460E-06  0.2915321E+04  0.7818609E-02  0.8268334E-01
       -1   -1    0    0    0  501  0.00000000000E+00  0.00000000000E+00  0.12396565237E+04  0.12396565237E+04  0.50400001928E-02 0. -1.
        1   -1    0    0  501    0  0.00000000000E+00  0.00000000000E+00 -0.17140018822E+04  0.17140018822E+04  0.50400001928E-02 0.  1.
    10030    2    1    2    0    0  0.00000000000E+00  0.00000000000E+00 -0.47434535851E+03  0.29536584059E+04  0.29153206444E+04 0.  0.
        4    1    3    3  502    0  0.10788676474E+03  0.57521468483E+03 -0.15897419984E+04  0.16940462573E+04  0.12699999809E+01 0.  1.
       -4    1    3    3    0  502 -0.10788676474E+03 -0.57521468483E+03  0.11153966399E+04  0.12596121486E+04  0.12699999809E+01 0. -1.
</event>
<event>
 5   0  0.8234888E-06  0.2904243E+04  0.7818609E-02  0.8271616E-01
       -1   -1    0    0    0  501  0.00000000000E+00  0.00000000000E+00  0.10200126828E+04  0.10200126828E+04  0.50400001928E-02 0.  1.
        1   -1    0    0  501    0  0.00000000000E+00  0.00000000000E+00 -0.20672844906E+04  0.20672844906E+04  0.50400001928E-02 0. -1.
    10030    2    1    2    0    0  0.00000000000E+00  0.00000000000E+00 -0.10472718078E+04  0.30872971735E+04  0.29042426892E+04 0.  0.
        3    1    3    3  502    0 -0.12444213257E+04 -0.90723037107E+02  0.26604679703E+03  0.12757727124E+04  0.10100000352E+00 0.  1.
       -3    1    3    3    0  502  0.12444213257E+04  0.90723037107E+02 -0.13133186048E+04  0.18115244611E+04  0.10100000352E+00 0. -1.
</event>
<event>
 5   0  0.8055928E-06  0.1462849E+04  0.7818609E-02  0.8909541E-01
        1   -1    0    0  501    0  0.00000000000E+00  0.00000000000E+00  0.32420677935E+03  0.32420677939E+03  0.50400001928E-02 0.  1.
       -1   -1    0    0    0  501  0.00000000000E+00  0.00000000000E+00 -0.16501256537E+04  0.16501256537E+04  0.50400001928E-02 0. -1.
    10030    2    1    2    0    0  0.00000000000E+00  0.00000000000E+00 -0.13259188743E+04  0.19743324331E+04  0.14628491703E+04 0.  0.
        2    1    3    3  502    0 -0.28751526689E+03 -0.25043102965E+03  0.17946483235E+03  0.42141233414E+03  0.25500000920E-02 0.  1.
       -2    1    3    3    0  502  0.28751526689E+03  0.25043102965E+03 -0.15053837067E+04  0.15529200989E+04  0.25500000920E-02 0. -1.
</event>
<event>
 5   0  0.1829810E-05  0.2731534E+04  0.7818609E-02  0.8324845E-01
        2   -1    0    0  501    0  0.00000000000E+00  0.00000000000E+00  0.13150218159E+04  0.13150218159E+04  0.25500000920E-02 0.  1.
       -2   -1    0    0    0  501  0.00000000000E+00  0.00000000000E+00 -0.14184702073E+04  0.14184702073E+04  0.25500000920E-02 0. -1.
    10030    2    1    2    0    0  0.00000000000E+00  0.00000000000E+00 -0.10344839136E+03  0.27334920232E+04  0.27315338312E+04 0.  0.
        4    1    3    3  502    0 -0.52789302797E+03  0.11542571792E+04  0.45295566413E+03  0.13476465157E+04  0.12699999809E+01 0.  1.
       -4    1    3    3    0  502  0.52789302797E+03 -0.11542571792E+04 -0.55640405549E+03  0.13858455075E+04  0.12699999809E+01 0. -1.
</event>
<event>
 5   0  0.8122088E-06  0.2777986E+04  0.7818609E-02  0.8310136E-01
        1   -1    0    0  501    0  0.00000000000E+00  0.00000000000E+00  0.15858274970E+04  0.15858274970E+04  0.50400001928E-02 0. -1.
       -1   -1    0    0    0  501  0.00000000000E+00  0.00000000000E+00 -0.12165899554E+04  0.12165899555E+04  0.50400001928E-02 0.  1.
    10030    2    1    2    0    0  0.00000000000E+00  0.00000000000E+00  0.36923754157E+03  0.28024174525E+04  0.27779861799E+04 0.  0.
        1    1    3    3  502    0 -0.27542238676E+03  0.99846196369E+03  0.11182406059E+04  0.15242197469E+04  0.50400001928E-02 0. -1.
       -1    1    3    3    0  502  0.27542238676E+03 -0.99846196369E+03 -0.74900306437E+03  0.12781977056E+04  0.50400001928E-02 0.  1.
</event>
<event>
 5   0  0.8234888E-06  0.2381368E+04  0.7818609E-02  0.8446512E-01
        1   -1    0    0  501    0  0.00000000000E+00  0.00000000000E+00  0.23791675035E+04  0.23791675035E+04  0.50400001928E-02 0. -1.
       -1   -1    0    0    0  501  0.00000000000E+00  0.00000000000E+00 -0.59589240848E+03  0.59589240850E+03  0.50400001928E-02 0.  1.
    10030    2    1    2    0    0  0.00000000000E+00  0.00000000000E+00  0.17832750951E+04  0.29750599120E+04  0.23813675516E+04 0.  0.
        3    1    3    3  502    0 -0.61793417425E+02  0.11583913383E+04  0.55632261463E+03  0.12865394595E+04  0.10100000352E+00 0.  1.
       -3    1    3    3    0  502  0.61793417425E+02 -0.11583913383E+04  0.12269524804E+04  0.16885204525E+04  0.10100000352E+00 0. -1.
</event>
<event>
 5   0  0.1976233E-05  0.1594051E+04  0.7818609E-02  0.8824211E-01
        2   -1    0    0  501    0  0.00000000000E+00  0.00000000000E+00  0.45139006721E+03  0.45139006722E+03  0.25500000920E-02 0.  1.
       -2   -1    0    0    0  501  0.00000000000E+00  0.00000000000E+00 -0.14073192894E+04  0.14073192894E+04  0.25500000920E-02 0. -1.
    10030    2    1    2    0    0  0.00000000000E+00  0.00000000000E+00 -0.95592922223E+03  0.18587093567E+04  0.15940513777E+04 0.  0.
        2    1    3    3  502    0  0.30617998012E+03  0.26081114336E+03  0.32437935913E+03  0.51671133273E+03  0.25500000920E-02 0.  1.
       -2    1    3    3    0  502 -0.30617998012E+03 -0.26081114336E+03 -0.12803085814E+04  0.13419980239E+04  0.25500000920E-02 0. -1.
</event>
<event>
 5   0  0.1829810E-05  0.2464419E+04  0.7818609E-02  0.8415772E-01
       -2   -1    0    0    0  501  0.00000000000E+00  0.00000000000E+00  0.13904335622E+04  0.13904335622E+04  0.25500000920E-02 0. -1.
        2   -1    0    0  501    0  0.00000000000E+00  0.00000000000E+00 -0.10919904516E+04  0.10919904516E+04  0.25500000920E-02 0.  1.
    10030    2    1    2    0    0  0.00000000000E+00  0.00000000000E+00  0.29844311058E+03  0.24824240138E+04  0.24644189364E+04 0.  0.
        4    1    3    3  502    0 -0.28892009608E+03 -0.17298398746E+03 -0.10447400421E+04  0.10976710119E+04  0.12699999809E+01 0.  1.
       -4    1    3    3    0  502  0.28892009608E+03  0.17298398746E+03  0.13431831527E+04  0.13847530019E+04  0.12699999809E+01 0. -1.
</event>
<event>
 5   0  0.7971153E-06  0.2162831E+04  0.7818609E-02  0.8534060E-01
        1   -1    0    0  501    0  0.00000000000E+00  0.00000000000E+00  0.88846284912E+03  0.88846284914E+03  0.50400001928E-02 0. -1.
       -1   -1    0    0    0  501  0.00000000000E+00  0.00000000000E+00 -0.13162729555E+04  0.13162729555E+04  0.50400001928E-02 0.  1.
    10030    2    1    2    0    0  0.00000000000E+00  0.00000000000E+00 -0.42781010635E+03  0.22047358046E+04  0.21628311263E+04 0.  0.
        5    1    3    3  502    0 -0.90180758942E+03  0.53114644730E+03  0.63514892554E+02  0.10485369371E+04  0.46999998093E+01 0. -1.
       -5    1    3    3    0  502  0.90180758942E+03 -0.53114644730E+03 -0.49132499891E+03  0.11561988676E+04  0.46999998093E+01 0.  1.
</event>
<event>
 5   0  0.1829810E-05  0.3282262E+04  0.7818609E-02  0.8167424E-01
        2   -1    0    0  501    0  0.00000000000E+00  0.00000000000E+00  0.17253611590E+04  0.17253611590E+04  0.25500000920E-02 0. -1.
       -2   -1    0    0    0  501  0.00000000000E+00  0.00000000000E+00 -0.15610126468E+04  0.15610126468E+04  0.25500000920E-02 0.  1.
    10030    2    1    2    0    0  0.00000000000E+00  0.00000000000E+00  0.16434851218E+03  0.32863738058E+04  0.32822617748E+04 0.  0.
        4    1    3    3  502    0 -0.87409013027E+03 -0.12613687777E+04  0.66447333363E+03  0.16723071408E+04  0.12699999809E+01 0. -1.
       -4    1    3    3    0  502  0.87409013027E+03  0.12613687777E+04 -0.50012482145E+03  0.16140666650E+04  0.12699999809E+01 0.  1.
</event>
<event>
 5   0  0.8055928E-06  0.2825047E+04  0.7818609E-02  0.8295534E-01
        1   -1    0    0  501    0  0.00000000000E+00  0.00000000000E+00  0.11599812176E+04  0.11599812176E+04  0.50400001928E-02 0.  1.
       -1   -1    0    0    0  501  0.00000000000E+00  0.00000000000E+00 -0.17200472792E+04  0.17200472792E+04  0.50400001928E-02 0. -1.
    10030    2    1    2    0    0  0.00000000000E+00  0.00000000000E+00 -0.56006606157E+03  0.28800284968E+04  0.28250469286E+04 0.  0.
        2    1    3    3  502    0 -0.76485305658E+03 -0.11637940365E+04 -0.39202962900E+02  0.13931811189E+04  0.25500000920E-02 0. -1.
       -2    1    3    3    0  502  0.76485305658E+03  0.11637940365E+04 -0.52086309867E+03  0.14868473779E+04  0.25500000920E-02 0.  1.
</event>
<event>
 5   0  0.1960961E-05  0.2784106E+04  0.7818609E-02  0.8308220E-01
       -2   -1    0    0    0  501  0.00000000000E+00  0.00000000000E+00  0.14474992566E+04  0.14474992566E+04  0.25500000920E-02 0. -1.
        2   -1    0    0  501    0  0.00000000000E+00  0.00000000000E+00 -0.13387307791E+04  0.13387307791E+04  0.25500000920E-02 0.  1.
    10030    2    1    2    0    0  0.00000000000E+00  0.00000000000E+00  0.10876847749E+03  0.27862300357E+04  0.27841061816E+04 0.  0.
        5    1    3    3  502    0 -0.10016647940E+04  0.71792766326E+03  0.70220890408E+03  0.14184047110E+04  0.46999998093E+01 0. -1.
       -5    1    3    3    0  502  0.10016647940E+04 -0.71792766326E+03 -0.59344042659E+03  0.13678253248E+04  0.46999998093E+01 0.  1.
</event>
<event>
 5   0  0.7305460E-06  0.2914391E+04  0.7818609E-02  0.8268609E-01
       -1   -1    0    0    0  501  0.00000000000E+00  0.00000000000E+00  0.12189005234E+04  0.12189005234E+04  0.50400001928E-02 0. -1.
        1   -1    0    0  501    0  0.00000000000E+00  0.00000000000E+00 -0.17420773454E+04  0.17420773454E+04  0.50400001928E-02 0.  1.
    10030    2    1    2    0    0  0.00000000000E+00  0.00000000000E+00 -0.52317682208E+03  0.29609778688E+04  0.29143911804E+04 0.  0.
        4    1    3    3  502    0 -0.70880147585E+03 -0.70734658633E+03  0.81395480796E+03  0.12904506064E+04  0.12699999809E+01 0. -1.
       -4    1    3    3    0  502  0.70880147585E+03  0.70734658633E+03 -0.13371316300E+04  0.16705272624E+04  0.12699999809E+01 0.  1.
</event>
<event>
 5   0  0.1918901E-05  0.2934983E+04  0.7818609E-02  0.8262545E-01
       -2   -1    0    0    0  501  0.00000000000E+00  0.00000000000E+00  0.14173473803E+04  0.14173473803E+04  0.25500000920E-02 0.  1.
        2   -1    0    0  501    0  0.00000000000E+00  0.00000000000E+00 -0.15194092985E+04  0.15194092985E+04  0.25500000920E-02 0. -1.
    10030    2    1    2    0    0  0.00000000000E+00  0.00000000000E+00 -0.10206191821E+03  0.29367566789E+04  0.29349826500E+04 0.  0.
        1    1    3    3  502    0  0.10592693717E+04  0.33986587343E+03 -0.10086728614E+04  0.15016595337E+04  0.50400001928E-02 0.  1.
       -1    1    3    3    0  502 -0.10592693717E+04 -0.33986587343E+03  0.90661094322E+03  0.14350971452E+04  0.50400001928E-02 0. -1.
</event>
<event>
 5   0  0.1960961E-05  0.2950521E+04  0.7818609E-02  0.8258003E-01
        2   -1    0    0  501    0  0.00000000000E+00  0.00000000000E+00  0.18122744498E+04  0.18122744498E+04  0.25500000920E-02 0.  1.
       -2   -1    0    0    0  501  0.00000000000E+00  0.00000000000E+00 -0.12009181187E+04  0.12009181187E+04  0.25500000920E-02 0. -1.
    10030    2    1    2    0    0  0.00000000000E+00  0.00000000000E+00  0.61135633114E+03  0.30131925685E+04  0.29505207831E+04 0.  0.
        5    1    3    3  502    0  0.99109113289E+03  0.10108923484E+04 -0.11811363503E+03  0.14206118029E+04  0.46999998093E+01 0.  1.
       -5    1    3    3    0  502 -0.99109113289E+03 -0.10108923484E+04  0.72946996618E+03  0.15925807657E+04  0.46999998093E+01 0. -1.
</event>
<event>
 5   0  0.1976233E-05  0.2520847E+04  0.7818609E-02  0.8395596E-01
        2   -1    0    0  501    0  0.00000000000E+00  0.00000000000E+00  0.15645809166E+04  0.15645809166E+04  0.25500000920E-02 0.  1.
       -2   -1    0    0    0  501  0.00000000000E+00  0.00000000000E+00 -0.10153948089E+04  0.10153948089E+04  0.25500000920E-02 0. -1.
    10030    2    1    2    0    0  0.00000000000E+00  0.00000000000E+00  0.54918610773E+03  0.25799757255E+04  0.25208469535E+04 0.  0.
        2    1    3    3  502    0 -0.10997566385E+04 -0.57794805451E+03  0.57054560251E+02  0.12436815671E+04  0.25500000920E-02 0. -1.
       -2    1    3    3    0  502  0.10997566385E+04  0.57794805451E+03  0.49213154748E+03  0.13362941583E+04  0.25500000920E-02 0.  1.
</event>
<event>
 5   0  0.1829810E-05  0.2879715E+04  0.7818609E-02  0.8278939E-01
        2   -1    0    0  501    0  0.00000000000E+00  0.00000000000E+00  0.22017922693E+04  0.22017922693E+04  0.25500000920E-02 0.  1.
       -2   -1    0    0    0  501  0.00000000000E+00  0.00000000000E+00 -0.94159177219E+03  0.94159177219E+03  0.25500000920E-02 0. -1.
    10030    2    1    2    0    0  0.00000000000E+00  0.00000000000E+00  0.12602004971E+04  0.31433840415E+04  0.28797149059E+04 0.  0.
        4    1    3    3  502    0  0.50239754188E+03 -0.84488951741E+02  0.21001236034E+04  0.21610327243E+04  0.12699999809E+01 0.  1.
       -4    1    3    3    0  502 -0.50239754188E+03  0.84488951741E+02 -0.83992310628E+03  0.98235131720E+03  0.12699999809E+01 0. -1.
</event>
<event>
 5   0  0.1960961E-05  0.2921176E+04  0.7818609E-02  0.8266605E-01
       -2   -1    0    0    0  501  0.00000000000E+00  0.00000000000E+00  0.12560509876E+04  0.12560509876E+04  0.25500000920E-02 0.  1.
        2   -1    0    0  501    0  0.00000000000E+00  0.00000000000E+00 -0.16984320301E+04  0.16984320301E+04  0.25500000920E-02 0. -1.
    10030    2    1    2    0    0  0.00000000000E+00  0.00000000000E+00 -0.44238104247E+03  0.29544830177E+04  0.29211759474E+04 0.  0.
        5    1    3    3  502    0 -0.22448968436E+02  0.13441398752E+04 -0.79873484001E+03  0.15637184513E+04  0.46999998093E+01 0. -1.
       -5    1    3    3    0  502  0.22448968436E+02 -0.13441398752E+04  0.35635379754E+03  0.13907645665E+04  0.46999998093E+01 0.  1.
</event>
<event>
 5   0  0.7305460E-06  0.2965209E+04  0.7818609E-02  0.8253736E-01
       -1   -1    0    0    0  501  0.00000000000E+00  0.00000000000E+00  0.16481294389E+04  0.16481294389E+04  0.50400001928E-02 0.  1.
        1   -1    0    0  501    0  0.00000000000E+00  0.00000000000E+00 -0.13337034042E+04  0.13337034042E+04  0.50400001928E-02 0. -1.
    10030    2    1    2    0    0  0.00000000000E+00  0.00000000000E+00  0.31442603470E+03  0.29818328432E+04  0.29652088246E+04 0.  0.
        4    1    3    3  502    0  0.10614441380E+04  0.23884008011E+02  0.11978480435E+04  0.16006485099E+04  0.12699999809E+01 0.  1.
       -4    1    3    3    0  502 -0.10614441380E+04 -0.23884008011E+02 -0.88342200885E+03  0.13811843333E+04  0.12699999809E+01 0. -1.
</event>
<event>
 5   0  0.6578125E-06  0.1601562E+04  0.7818609E-02  0.8819589E-01
        4   -1    0    0  501    0  0.00000000000E+00  0.00000000000E+00  0.79675926901E+03  0.79676028117E+03  0.12699999809E+01 0.  1.
       -4   -1    0    0    0  501  0.00000000000E+00  0.00000000000E+00 -0.80482083605E+03  0.80482183807E+03  0.12699999809E+01 0. -1.
    10030    2    1    2    0    0  0.00000000000E+00  0.00000000000E+00 -0.80615670445E+01  0.16015821192E+04  0.16015618302E+04 0.  0.
        3    1    3    3  502    0  0.52034540291E+03 -0.60845470450E+03  0.12510223796E+02  0.80070780043E+03  0.10100000352E+00 0. -1.
       -3    1    3    3    0  502 -0.52034540291E+03  0.60845470450E+03 -0.20571790840E+02  0.80087431882E+03  0.10100000352E+00 0.  1.
</event>
<event>
 5   0  0.1960961E-05  0.2819735E+04  0.7818609E-02  0.8297167E-01
        2   -1    0    0  501    0  0.00000000000E+00  0.00000000000E+00  0.13634010960E+04  0.13634010960E+04  0.25500000920E-02 0. -1.
       -2   -1    0    0    0  501  0.00000000000E+00  0.00000000000E+00 -0.14579179877E+04  0.14579179877E+04  0.25500000920E-02 0.  1.
    10030    2    1    2    0    0  0.00000000000E+00  0.00000000000E+00 -0.94516891645E+02  0.28213190837E+04  0.28197354360E+04 0.  0.
        5    1    3    3  502    0 -0.12553936082E+04  0.55945077597E+03  0.26709408599E+03  0.14001284309E+04  0.46999998093E+01 0. -1.
       -5    1    3    3    0  502  0.12553936082E+04 -0.55945077597E+03 -0.36161097763E+03  0.14211906527E+04  0.46999998093E+01 0.  1.
</event>
<event>
 5   0  0.8234888E-06  0.2950812E+04  0.7818609E-02  0.8257918E-01
       -1   -1    0    0    0  501  0.00000000000E+00  0.00000000000E+00  0.34508177911E+04  0.34508177911E+04  0.50400001928E-02 0.  1.
        1   -1    0    0  501    0  0.00000000000E+00  0.00000000000E+00 -0.63081346959E+03  0.63081346961E+03  0.50400001928E-02 0. -1.
    10030    2    1    2    0    0  0.00000000000E+00  0.00000000000E+00  0.28200043215E+04  0.40816312607E+04  0.29508116468E+04 0.  0.
        3    1    3    3  502    0 -0.13056498736E+04  0.66585339501E+03  0.11755060511E+04  0.18788019647E+04  0.10100000352E+00 0. -1.
       -3    1    3    3    0  502  0.13056498736E+04 -0.66585339501E+03  0.16444982704E+04  0.22028292960E+04  0.10100000352E+00 0.  1.
</event>
<event>
 5   0  0.1918901E-05  0.2892699E+04  0.7818609E-02  0.8275053E-01
        2   -1    0    0  501    0  0.00000000000E+00  0.00000000000E+00  0.18997111801E+04  0.18997111801E+04  0.25500000920E-02 0.  1.
       -2   -1    0    0    0  501  0.00000000000E+00  0.00000000000E+00 -0.11011816409E+04  0.11011816409E+04  0.25500000920E-02 0. -1.
    10030    2    1    2    0    0  0.00000000000E+00  0.00000000000E+00  0.79852953916E+03  0.30008928211E+04  0.28926991372E+04 0.  0.
        1    1    3    3  502    0  0.55672879375E+03 -0.85711012902E+03  0.14609396729E+04  0.17829552577E+04  0.50400001928E-02 0.  1.
       -1    1    3    3    0  502 -0.55672879375E+03  0.85711012902E+03 -0.66241013370E+03  0.12179375634E+04  0.50400001928E-02 0. -1.
</event>
<event>
 5   0  0.8122088E-06  0.1684813E+04  0.7818609E-02  0.8770074E-01
        1   -1    0    0  501    0  0.00000000000E+00  0.00000000000E+00  0.13526045284E+04  0.13526045284E+04  0.50400001928E-02 0. -1.
       -1   -1    0    0    0  501  0.00000000000E+00  0.00000000000E+00 -0.52465370918E+03  0.52465370920E+03  0.50400001928E-02 0.  1.
    10030    2    1    2    0    0  0.00000000000E+00  0.00000000000E+00  0.82795081918E+03  0.18772582376E+04  0.16848133225E+04 0.  0.
        1    1    3    3  502    0  0.46702134413E+03 -0.49592175641E+03 -0.13821375239E+03  0.69509018532E+03  0.50400001928E-02 0.  1.
       -1    1    3    3    0  502 -0.46702134413E+03  0.49592175641E+03  0.96616457157E+03  0.11821680522E+04  0.50400001928E-02 0. -1.
</event>
<event>
 5   0  0.1918901E-05  0.2990594E+04  0.7818609E-02  0.8246422E-01
        2   -1    0    0  501    0  0.00000000000E+00  0.00000000000E+00  0.17042475267E+04  0.17042475267E+04  0.25500000920E-02 0. -1.
       -2   -1    0    0    0  501  0.00000000000E+00  0.00000000000E+00 -0.13119651712E+04  0.13119651712E+04  0.25500000920E-02 0.  1.
    10030    2    1    2    0    0  0.00000000000E+00  0.00000000000E+00  0.39228235553E+03  0.30162126979E+04  0.29905941872E+04 0.  0.
        1    1    3    3  502    0 -0.10529740233E+04  0.74561914054E+03  0.95840066232E+03  0.16072442335E+04  0.50400001928E-02 0. -1.
       -1    1    3    3    0  502  0.10529740233E+04 -0.74561914054E+03 -0.56611830679E+03  0.14089684645E+04  0.50400001928E-02 0.  1.
</event>
<event>
 5   0  0.1918901E-05  0.2715425E+04  0.7818609E-02  0.8330018E-01
        2   -1    0    0  501    0  0.00000000000E+00  0.00000000000E+00  0.19790502692E+04  0.19790502692E+04  0.25500000920E-02 0. -1.
       -2   -1    0    0    0  501  0.00000000000E+00  0.00000000000E+00 -0.93144816715E+03  0.93144816715E+03  0.25500000920E-02 0.  1.
    10030    2    1    2    0    0  0.00000000000E+00  0.00000000000E+00  0.10476021021E+04  0.29104984364E+04  0.27154246415E+04 0.  0.
        1    1    3    3  502    0  0.37374904711E+03 -0.83257707728E+03 -0.55365578694E+03  0.10674304054E+04  0.50400001928E-02 0.  1.
       -1    1    3    3    0  502 -0.37374904711E+03  0.83257707728E+03  0.16012578890E+04  0.18430680310E+04  0.50400001928E-02 0. -1.
</event>
<event>
 5   0  0.1960961E-05  0.2841915E+04  0.7818609E-02  0.8290372E-01
       -2   -1    0    0    0  501  0.00000000000E+00  0.00000000000E+00  0.17070716393E+04  0.17070716393E+04  0.25500000920E-02 0. -1.
        2   -1    0    0  501    0  0.00000000000E+00  0.00000000000E+00 -0.11827973862E+04  0.11827973862E+04  0.25500000920E-02 0.  1.
    10030    2    1    2    0    0  0.00000000000E+00  0.00000000000E+00  0.52427425317E+03  0.28898690255E+04  0.28419147580E+04 0.  0.
        5    1    3    3  502    0  0.99129310698E+03 -0.20053949036E+03  0.12770871769E+04  0.16290647190E+04  0.46999998093E+01 0. -1.
       -5    1    3    3    0  502 -0.99129310698E+03  0.20053949036E+03 -0.75281292375E+03  0.12608043065E+04  0.46999998093E+01 0.  1.
</event>
<event>
 5   0  0.1937947E-05  0.2924395E+04  0.7818609E-02  0.8265656E-01
        2   -1    0    0  501    0  0.00000000000E+00  0.00000000000E+00  0.20590765039E+04  0.20590765040E+04  0.25500000920E-02 0. -1.
       -2   -1    0    0    0  501  0.00000000000E+00  0.00000000000E+00 -0.10383400168E+04  0.10383400168E+04  0.25500000920E-02 0.  1.
    10030    2    1    2    0    0  0.00000000000E+00  0.00000000000E+00  0.10207364871E+04  0.30974165208E+04  0.29243950019E+04 0.  0.
        3    1    3    3  502    0 -0.38786270941E+03  0.13498670359E+04  0.79556225986E+02  0.14067365422E+04  0.10100000352E+00 0.  1.
       -3    1    3    3    0  502  0.38786270941E+03 -0.13498670359E+04  0.94118026114E+03  0.16906799786E+04  0.10100000352E+00 0. -1.
</event>
<event>
 5   0  0.8055928E-06  0.2890677E+04  0.7818609E-02  0.8275657E-01
       -1   -1    0    0    0  501  0.00000000000E+00  0.00000000000E+00  0.95197457820E+03  0.95197457821E+03  0.50400001928E-02 0.  1.
        1   -1    0    0  501    0  0.00000000000E+00  0.00000000000E+00 -0.21943896998E+04  0.21943896998E+04  0.50400001928E-02 0. -1.
    10030    2    1    2    0    0  0.00000000000E+00  0.00000000000E+00 -0.12424151216E+04  0.31463642780E+04  0.28906768819E+04 0.  0.
        2    1    3    3  502    0  0.13728351232E+04 -0.42654638084E+03 -0.78405808150E+03  0.16374874551E+04  0.25500000920E-02 0. -1.
       -2    1    3    3    0  502 -0.13728351232E+04  0.42654638084E+03 -0.45835704010E+03  0.15088768229E+04  0.25500000920E-02 0.  1.
</event>
<event>
 5   0  0.8234888E-06  0.2882665E+04  0.7818609E-02  0.8278054E-01
       -1   -1    0    0    0  501  0.00000000000E+00  0.00000000000E+00  0.12494925903E+04  0.12494925903E+04  0.50400001928E-02 0.  1.
        1   -1    0    0  501    0  0.00000000000E+00  0.00000000000E+00 -0.16626266624E+04  0.16626266624E+04  0.50400001928E-02 0. -1.
    10030    2    1    2    0    0  0.00000000000E+00  0.00000000000E+00 -0.41313407206E+03  0.29121192527E+04  0.28826652217E+04 0.  0.
        3    1    3    3  502    0  0.31250653614E+03  0.66669578427E+03  0.10451639920E+04  0.12784801071E+04  0.10100000352E+00 0.  1.
       -3    1    3    3    0  502 -0.31250653614E+03 -0.66669578427E+03 -0.14582980641E+04  0.16336391455E+04  0.10100000352E+00 0. -1.
</event>
<event>
 5   0  0.8055928E-06  0.1816386E+04  0.7818609E-02  0.8697634E-01
       -1   -1    0    0    0  501  0.00000000000E+00  0.00000000000E+00  0.10595422308E+04  0.10595422308E+04  0.50400001928E-02 0. -1.
        1   -1    0    0  501    0  0.00000000000E+00  0.00000000000E+00 -0.77846274425E+03  0.77846274426E+03  0.50400001928E-02 0.  1.
    10030    2    1    2    0    0  0.00000000000E+00  0.00000000000E+00  0.28107948652E+03  0.18380049750E+04  0.18163855897E+04 0.  0.
        2    1    3    3  502    0  0.81635486180E+03  0.33057175787E+03 -0.83685606740E+02  0.88471251165E+03  0.25500000920E-02 0. -1.
       -2    1    3    3    0  502 -0.81635486180E+03 -0.33057175787E+03  0.36476509326E+03  0.95329246339E+03  0.25500000920E-02 0.  1.
</event>
<event>
 5   0  0.8122088E-06  0.2818649E+04  0.7818609E-02  0.8297502E-01
        1   -1    0    0  501    0  0.00000000000E+00  0.00000000000E+00  0.15353904682E+04  0.15353904682E+04  0.50400001928E-02 0. -1.
       -1   -1    0    0    0  501  0.00000000000E+00  0.00000000000E+00 -0.12936095432E+04  0.12936095432E+04  0.50400001928E-02 0.  1.
    10030    2    1    2    0    0  0.00000000000E+00  0.00000000000E+00  0.24178092505E+03  0.28290000114E+04  0.28186491532E+04 0.  0.
        1    1    3    3  502    0 -0.24098871967E+03 -0.95012015622E+03  0.11372254272E+04  0.15013612312E+04  0.50400001928E-02 0. -1.
       -1    1    3    3    0  502  0.24098871967E+03  0.95012015622E+03 -0.89544450213E+03  0.13276387802E+04  0.50400001928E-02 0.  1.
</event>
<event>
 5   0  0.1829810E-05  0.2836688E+04  0.7818609E-02  0.8291968E-01
       -2   -1    0    0    0  501  0.00000000000E+00  0.00000000000E+00  0.12866483105E+04  0.12866483105E+04  0.25500000920E-02 0.  1.
        2   -1    0    0  501    0  0.00000000000E+00  0.00000000000E+00 -0.15635195258E+04  0.15635195258E+04  0.25500000920E-02 0. -1.
    10030    2    1    2    0    0  0.00000000000E+00  0.00000000000E+00 -0.27687121530E+03  0.28501678363E+04  0.28366880381E+04 0.  0.
        4    1    3    3  502    0  0.93672409233E+03 -0.61506683533E+03  0.73514343469E+03  0.13402226380E+04  0.12699999809E+01 0.  1.
       -4    1    3    3    0  502 -0.93672409233E+03  0.61506683533E+03 -0.10120146500E+04  0.15099451983E+04  0.12699999809E+01 0. -1.
</event>
<event>
 5   0  0.8234888E-06  0.2870964E+04  0.7818609E-02  0.8281569E-01
        1   -1    0    0  501    0  0.00000000000E+00  0.00000000000E+00  0.17205945467E+04  0.17205945467E+04  0.50400001928E-02 0. -1.
       -1   -1    0    0    0  501  0.00000000000E+00  0.00000000000E+00 -0.11976144727E+04  0.11976144727E+04  0.50400001928E-02 0.  1.
    10030    2    1    2    0    0  0.00000000000E+00  0.00000000000E+00  0.52298007402E+03  0.29182090194E+04  0.28709642497E+04 0.  0.
        3    1    3    3  502    0 -0.59881823815E+03  0.10380306491E+04  0.10647591988E+04  0.16030605330E+04  0.10100000352E+00 0. -1.
       -3    1    3    3    0  502  0.59881823815E+03 -0.10380306491E+04 -0.54177912483E+03  0.13151484863E+04  0.10100000352E+00 0.  1.
</event>
<event>
 5   0  0.1976233E-05  0.2885613E+04  0.7818609E-02  0.8277171E-01
        2   -1    0    0  501    0  0.00000000000E+00  0.00000000000E+00  0.15223403232E+04  0.15223403232E+04  0.25500000920E-02 0.  1.
       -2   -1    0    0    0  501  0.00000000000E+00  0.00000000000E+00 -0.13674276558E+04  0.13674276558E+04  0.25500000920E-02 0. -1.
    10030    2    1    2    0    0  0.00000000000E+00  0.00000000000E+00  0.15491266747E+03  0.28897679790E+04  0.28856127664E+04 0.  0.
        2    1    3    3  502    0  0.12234449162E+04  0.35914441454E+03 -0.59871078095E+03  0.14086364941E+04  0.25500000920E-02 0. -1.
       -2    1    3    3    0  502 -0.12234449162E+04 -0.35914441454E+03  0.75362344843E+03  0.14811314848E+04  0.25500000920E-02 0.  1.
</event>
<event>
 5   0  0.7971153E-06  0.3233838E+04  0.7818609E-02  0.8179937E-01
       -1   -1    0    0    0  501  0.00000000000E+00  0.00000000000E+00  0.25970217123E+04  0.25970217123E+04  0.50400001928E-02 0. -1.
        1   -1    0    0  501    0  0.00000000000E+00  0.00000000000E+00 -0.10067021413E+04  0.10067021413E+04  0.50400001928E-02 0.  1.
    10030    2    1    2    0    0  0.00000000000E+00  0.00000000000E+00  0.15903195710E+04  0.36037238535E+04  0.32338381646E+04 0.  0.
        5    1    3    3  502    0 -0.30814105118E+03  0.96862970377E+03 -0.60613049858E+03  0.11834739886E+04  0.46999998093E+01 0.  1.
       -5    1    3    3    0  502  0.30814105118E+03 -0.96862970377E+03  0.21964500696E+04  0.24202498649E+04  0.46999998093E+01 0. -1.
</event>
<event>
 5   0  0.1829810E-05  0.2872538E+04  0.7818609E-02  0.8281095E-01
       -2   -1    0    0    0  501  0.00000000000E+00  0.00000000000E+00  0.13745860412E+04  0.13745860412E+04  0.25500000920E-02 0. -1.
        2   -1    0    0  501    0  0.00000000000E+00  0.00000000000E+00 -0.15007196651E+04  0.15007196651E+04  0.25500000920E-02 0.  1.
    10030    2    1    2    0    0  0.00000000000E+00  0.00000000000E+00 -0.12613362396E+03  0.28753057063E+04  0.28725377654E+04 0.  0.
        4    1    3    3  502    0  0.10439377587E+04 -0.70906133249E+03  0.62337287656E+03  0.14075401854E+04  0.12699999809E+01 0. -1.
       -4    1    3    3    0  502 -0.10439377587E+04  0.70906133249E+03 -0.74950650052E+03  0.14677655209E+04  0.12699999809E+01 0.  1.
</event>
<event>
 5   0  0.1918901E-05  0.2972480E+04  0.7818609E-02  0.8251633E-01
       -2   -1    0    0    0  501  0.00000000000E+00  0.00000000000E+00  0.14085639452E+04  0.14085639452E+04  0.25500000920E-02 0. -1.
        2   -1    0    0  501    0  0.00000000000E+00  0.00000000000E+00 -0.15682000100E+04  0.15682000100E+04  0.25500000920E-02 0.  1.
    10030    2    1    2    0    0  0.00000000000E+00  0.00000000000E+00 -0.15963606481E+03  0.29767639553E+04  0.29724804410E+04 0.  0.
        1    1    3    3  502    0 -0.47015270551E+03  0.13360756509E+04  0.37112886462E+03  0.14641988751E+04  0.50400001928E-02 0. -1.
       -1    1    3    3    0  502  0.47015270551E+03 -0.13360756509E+04 -0.53076492943E+03  0.15125650802E+04  0.50400001928E-02 0.  1.
</event>
<event>
 5   0  0.1918901E-05  0.2622240E+04  0.7818609E-02  0.8360686E-01
        2   -1    0    0  501    0  0.00000000000E+00  0.00000000000E+00  0.22932007526E+04  0.22932007526E+04  0.25500000920E-02 0.  1.
       -2   -1    0    0    0  501  0.00000000000E+00  0.00000000000E+00 -0.74962291135E+03  0.74962291135E+03  0.25500000920E-02 0. -1.
    10030    2    1    2    0    0  0.00000000000E+00  0.00000000000E+00  0.15435778413E+04  0.30428236640E+04  0.26222401297E+04 0.  0.
        1    1    3    3  502    0  0.65733903168E+03 -0.66678071513E+03 -0.29321020078E+03  0.98115408907E+03  0.50400001928E-02 0. -1.
       -1    1    3    3    0  502 -0.65733903168E+03  0.66678071513E+03  0.18367880420E+04  0.20616695749E+04  0.50400001928E-02 0.  1.
</event>
<event>
 5   0  0.7305460E-06  0.2358233E+04  0.7818609E-02  0.8455308E-01
       -1   -1    0    0    0  501  0.00000000000E+00  0.00000000000E+00  0.80482671337E+03  0.80482671338E+03  0.50400001928E-02 0.  1.
        1   -1    0    0  501    0  0.00000000000E+00  0.00000000000E+00 -0.17274723489E+04  0.17274723489E+04  0.50400001928E-02 0. -1.
    10030    2    1    2    0    0  0.00000000000E+00  0.00000000000E+00 -0.92264563557E+03  0.25322990623E+04  0.23582331463E+04 0.  0.
        4    1    3    3  502    0 -0.10146966521E+04 -0.55898273054E+03 -0.69717870431E+03  0.13520838537E+04  0.12699999809E+01 0. -1.
       -4    1    3    3    0  502  0.10146966521E+04  0.55898273054E+03 -0.22546693126E+03  0.11802152086E+04  0.12699999809E+01 0.  1.
</event>
<event>
 5   0  0.1829810E-05  0.1509142E+04  0.7818609E-02  0.8878396E-01
       -2   -1    0    0    0  501  0.00000000000E+00  0.00000000000E+00  0.79315781589E+03  0.79315781590E+03  0.25500000920E-02 0. -1.
        2   -1    0    0  501    0  0.00000000000E+00  0.00000000000E+00 -0.71786119899E+03  0.71786119899E+03  0.25500000920E-02 0.  1.
    10030    2    1    2    0    0  0.00000000000E+00  0.00000000000E+00  0.75296616902E+02  0.15110190149E+04  0.15091417703E+04 0.  0.
        4    1    3    3  502    0 -0.29337514553E+03  0.48482836521E+03  0.53651309115E+03  0.78036877795E+03  0.12699999809E+01 0. -1.
       -4    1    3    3    0  502  0.29337514553E+03 -0.48482836521E+03 -0.46121647424E+03  0.73065023694E+03  0.12699999809E+01 0.  1.
</event>
<event>
 5   0  0.1829810E-05  0.2805454E+04  0.7818609E-02  0.8301577E-01
       -2   -1    0    0    0  501  0.00000000000E+00  0.00000000000E+00  0.19508285286E+04  0.19508285286E+04  0.25500000920E-02 0. -1.
        2   -1    0    0  501    0  0.00000000000E+00  0.00000000000E+00 -0.10086189090E+04  0.10086189090E+04  0.25500000920E-02 0.  1.
    10030    2    1    2    0    0  0.00000000000E+00  0.00000000000E+00  0.94220961964E+03  0.29594474376E+04  0.28054536475E+04 0.  0.
        4    1    3    3  502    0 -0.50659908446E+02  0.18728685894E+03  0.19366053338E+04  0.19463002404E+04  0.12699999809E+01 0. -1.
       -4    1    3    3    0  502  0.50659908446E+02 -0.18728685894E+03 -0.99439571420E+03  0.10131471972E+04  0.12699999809E+01 0.  1.
</event>
<event>
 5   0  0.6578125E-06  0.2880694E+04  0.7818609E-02  0.8278645E-01
       -4   -1    0    0    0  501  0.00000000000E+00  0.00000000000E+00  0.18523919015E+04  0.18523923369E+04  0.12699999809E+01 0. -1.
        4   -1    0    0  501    0  0.00000000000E+00  0.00000000000E+00 -0.11199558184E+04  0.11199565385E+04  0.12699999809E+01 0.  1.
    10030    2    1    2    0    0  0.00000000000E+00  0.00000000000E+00  0.73243608310E+03  0.29723488754E+04  0.28806935313E+04 0.  0.
        5    1    3    3  502    0  0.71871703039E+03  0.23720127816E+03 -0.89823503318E+03  0.11745922190E+04  0.46999998093E+01 0.  1.
       -5    1    3    3    0  502 -0.71871703039E+03 -0.23720127816E+03  0.16306711163E+04  0.17977566564E+04  0.46999998093E+01 0. -1.
</event>
<event>
 5   0  0.1829810E-05  0.2821916E+04  0.7818609E-02  0.8296497E-01
        2   -1    0    0  501    0  0.00000000000E+00  0.00000000000E+00  0.25495269100E+04  0.25495269100E+04  0.25500000920E-02 0. -1.
       -2   -1    0    0    0  501  0.00000000000E+00  0.00000000000E+00 -0.78085153597E+03  0.78085153598E+03  0.25500000920E-02 0.  1.
    10030    2    1    2    0    0  0.00000000000E+00  0.00000000000E+00  0.17686753741E+04  0.33303784460E+04  0.28219156640E+04 0.  0.
        4    1    3    3  502    0 -0.56627796067E+02  0.82169637498E+03 -0.46768542496E+03  0.94716572444E+03  0.12699999809E+01 0.  1.
       -4    1    3    3    0  502  0.56627796067E+02 -0.82169637498E+03  0.22363607990E+04  0.23832127216E+04  0.12699999809E+01 0. -1.
</event>
<event>
 5   0  0.7971153E-06  0.2828798E+04  0.7818609E-02  0.8294383E-01
       -1   -1    0    0    0  501  0.00000000000E+00  0.00000000000E+00  0.14857833947E+04  0.14857833948E+04  0.50400001928E-02 0. -1.
        1   -1    0    0  501    0  0.00000000000E+00  0.00000000000E+00 -0.13464440588E+04  0.13464440588E+04  0.50400001928E-02 0.  1.
    10030    2    1    2    0    0  0.00000000000E+00  0.00000000000E+00  0.13933933597E+03  0.28322274535E+04  0.28287977832E+04 0.  0.
        5    1    3    3  502    0  0.22458749352E+03  0.19924315355E+03  0.14535048703E+04  0.14841953626E+04  0.46999998093E+01 0. -1.
       -5    1    3    3    0  502 -0.22458749352E+03 -0.19924315355E+03 -0.13141655343E+04  0.13480320909E+04  0.46999998093E+01 0.  1.
</event>
<event>
 5   0  0.7971153E-06  0.2912881E+04  0.7818609E-02  0.8269055E-01
        1   -1    0    0  501    0  0.00000000000E+00  0.00000000000E+00  0.19009822635E+04  0.19009822635E+04  0.50400001928E-02 0.  1.
       -1   -1    0    0    0  501  0.00000000000E+00  0.00000000000E+00 -0.11158541759E+04  0.11158541759E+04  0.50400001928E-02 0. -1.
    10030    2    1    2    0    0  0.00000000000E+00  0.00000000000E+00  0.78512808765E+03  0.30168364394E+04  0.29128810460E+04 0.  0.
        5    1    3    3  502    0  0.22314436729E+02 -0.13754563307E+04 -0.10285753596E+03  0.13794853441E+04  0.46999998093E+01 0. -1.
       -5    1    3    3    0  502 -0.22314436729E+02  0.13754563307E+04  0.88798562361E+03  0.16373510954E+04  0.46999998093E+01 0.  1.
</event>
<event>
 5   0  0.7971153E-06  0.2979375E+04  0.7818609E-02  0.8249645E-01
       -1   -1    0    0    0  501  0.00000000000E+00  0.00000000000E+00  0.21283247042E+04  0.21283247042E+04  0.50400001928E-02 0. -1.
        1   -1    0    0  501    0  0.00000000000E+00  0.00000000000E+00 -0.10426832928E+04  0.10426832928E+04  0.50400001928E-02 0.  1.
    10030    2    1    2    0    0  0.00000000000E+00  0.00000000000E+00  0.10856414114E+04  0.31710079971E+04  0.29793748410E+04 0.  0.
        5    1    3    3  502    0 -0.67232140158E+03  0.91533420575E+03  0.15688238656E+04  0.19367713304E+04  0.46999998093E+01 0. -1.
       -5    1    3    3    0  502  0.67232140158E+03 -0.91533420575E+03 -0.48318245414E+03  0.12342366666E+04  0.46999998093E+01 0.  1.
</event>
<event>
 5   0  0.8055928E-06  0.2864591E+04  0.7818609E-02  0.8283491E-01
        1   -1    0    0  501    0  0.00000000000E+00  0.00000000000E+00  0.17440526290E+04  0.17440526290E+04  0.50400001928E-02 0.  1.
       -1   -1    0    0    0  501  0.00000000000E+00  0.00000000000E+00 -0.11762661559E+04  0.11762661560E+04  0.50400001928E-02 0. -1.
    10030    2    1    2    0    0  0.00000000000E+00  0.00000000000E+00  0.56778647310E+03  0.29203187850E+04  0.28645907783E+04 0.  0.
        2    1    3    3  502    0 -0.12487641141E+04 -0.41255409148E+03 -0.29446831693E+03  0.13477107556E+04  0.25500000920E-02 0. -1.
       -2    1    3    3    0  502  0.12487641141E+04  0.41255409148E+03  0.86225479002E+03  0.15726080294E+04  0.25500000920E-02 0.  1.
</event>
<event>
 5   0  0.1937947E-05  0.2841750E+04  0.7818609E-02  0.8290423E-01
       -2   -1    0    0    0  501  0.00000000000E+00  0.00000000000E+00  0.69303568871E+03  0.69303568872E+03  0.25500000920E-02 0.  1.
        2   -1    0    0  501    0  0.00000000000E+00  0.00000000000E+00 -0.29131048802E+04  0.29131048802E+04  0.25500000920E-02 0. -1.
    10030    2    1    2    0    0  0.00000000000E+00  0.00000000000E+00 -0.22200691914E+04  0.36061405689E+04  0.28417499165E+04 0.  0.
        3    1    3    3  502    0  0.62248860887E+03 -0.12700516453E+04 -0.12819921906E+04  0.19089335339E+04  0.10100000352E+00 0. -1.
       -3    1    3    3    0  502 -0.62248860887E+03  0.12700516453E+04 -0.93807700080E+03  0.16972070350E+04  0.10100000352E+00 0.  1.
</event>
<event>
 5   0  0.1960961E-05  0.2120763E+04  0.7818609E-02  0.8552152E-01
        2   -1    0    0  501    0  0.00000000000E+00  0.00000000000E+00  0.16569917304E+04  0.16569917304E+04  0.25500000920E-02 0.  1.
       -2   -1    0    0    0  501  0.00000000000E+00  0.00000000000E+00 -0.67858452196E+03  0.67858452197E+03  0.25500000920E-02 0. -1.
    10030    2    1    2    0    0  0.00000000000E+00  0.00000000000E+00  0.97840720847E+03  0.23355762524E+04  0.21207630149E+04 0.  0.
        5    1    3    3  502    0 -0.95462765618E+03 -0.41079418095E+03  0.72105346186E+03  0.12649134381E+04  0.46999998093E+01 0. -1.
       -5    1    3    3    0  502  0.95462765618E+03  0.41079418095E+03  0.25735374661E+03  0.10706628143E+04  0.46999998093E+01 0.  1.
</event>
<event>
 5   0  0.1976233E-05  0.2237379E+04  0.7818609E-02  0.8503029E-01
        2   -1    0    0  501    0  0.00000000000E+00  0.00000000000E+00  0.11389960026E+04  0.11389960026E+04  0.25500000920E-02 0. -1.
       -2   -1    0    0    0  501  0.00000000000E+00  0.00000000000E+00 -0.10987447180E+04  0.10987447180E+04  0.25500000920E-02 0.  1.
    10030    2    1    2    0    0  0.00000000000E+00  0.00000000000E+00  0.40251284593E+02  0.22377407207E+04  0.22373786821E+04 0.  0.
        2    1    3    3  502    0  0.32900679983E+03 -0.46508940028E+03  0.98304423475E+03  0.11361908256E+04  0.25500000920E-02 0. -1.
       -2    1    3    3    0  502 -0.32900679983E+03  0.46508940028E+03 -0.94279295016E+03  0.11015498951E+04  0.25500000920E-02 0.  1.
</event>
<event>
 5   0  0.8055928E-06  0.2853404E+04  0.7818609E-02  0.8286878E-01
       -1   -1    0    0    0  501  0.00000000000E+00  0.00000000000E+00  0.13385905541E+04  0.13385905542E+04  0.50400001928E-02 0. -1.
        1   -1    0    0  501    0  0.00000000000E+00  0.00000000000E+00 -0.15206131676E+04  0.15206131676E+04  0.50400001928E-02 0.  1.
    10030    2    1    2    0    0  0.00000000000E+00  0.00000000000E+00 -0.18202261342E+03  0.28592037217E+04  0.28534038779E+04 0.  0.
        2    1    3    3  502    0 -0.61453334677E+03  0.22934996481E+03  0.11785390053E+04  0.13487797551E+04  0.25500000920E-02 0. -1.
       -2    1    3    3    0  502  0.61453334677E+03 -0.22934996481E+03 -0.13605616187E+04  0.15104239667E+04  0.25500000920E-02 0.  1.
</event>
<event>
 5   0  0.1918901E-05  0.2941661E+04  0.7818609E-02  0.8260589E-01
       -2   -1    0    0    0  501  0.00000000000E+00  0.00000000000E+00  0.10622548794E+04  0.10622548794E+04  0.25500000920E-02 0. -1.
        2   -1    0    0  501    0  0.00000000000E+00  0.00000000000E+00 -0.20365565723E+04  0.20365565723E+04  0.25500000920E-02 0.  1.
    10030    2    1    2    0    0  0.00000000000E+00  0.00000000000E+00 -0.97430169290E+03  0.30988114517E+04  0.29416608616E+04 0.  0.
        1    1    3    3  502    0  0.14538310920E+03 -0.79383437451E+03 -0.17824890354E+04  0.19566748386E+04  0.50400001928E-02 0.  1.
       -1    1    3    3    0  502 -0.14538310920E+03  0.79383437451E+03  0.80818734249E+03  0.11421366132E+04  0.50400001928E-02 0. -1.
</event>
<event>
 5   0  0.6578125E-06  0.2058784E+04  0.7818609E-02  0.8579620E-01
       -4   -1    0    0    0  501  0.00000000000E+00  0.00000000000E+00  0.15077308365E+04  0.15077313713E+04  0.12699999809E+01 0.  1.
        4   -1    0    0  501    0  0.00000000000E+00  0.00000000000E+00 -0.70280852274E+03  0.70280967021E+03  0.12699999809E+01 0. -1.
    10030    2    1    2    0    0  0.00000000000E+00  0.00000000000E+00  0.80492231371E+03  0.22105410415E+04  0.20587840502E+04 0.  0.
        4    1    3    3  502    0  0.12031285842E+03 -0.41728709456E+03 -0.59963060442E+03  0.74037975245E+03  0.12699999809E+01 0. -1.
       -4    1    3    3    0  502 -0.12031285842E+03  0.41728709456E+03  0.14045529181E+04  0.14701612891E+04  0.12699999809E+01 0.  1.
</event>
<event>
 5   0  0.8122088E-06  0.2893303E+04  0.7818609E-02  0.8274873E-01
        1   -1    0    0  501    0  0.00000000000E+00  0.00000000000E+00  0.22625625955E+04  0.22625625955E+04  0.50400001928E-02 0. -1.
       -1   -1    0    0    0  501  0.00000000000E+00  0.00000000000E+00 -0.92496919373E+03  0.92496919374E+03  0.50400001928E-02 0.  1.
    10030    2    1    2    0    0  0.00000000000E+00  0.00000000000E+00  0.13375934017E+04  0.31875317892E+04  0.28933030949E+04 0.  0.
        1    1    3    3  502    0 -0.35258555883E+03  0.12794095392E+04  0.34394308811E+02  0.13275497406E+04  0.50400001928E-02 0. -1.
       -1    1    3    3    0  502  0.35258555883E+03 -0.12794095392E+04  0.13031990929E+04  0.18599820486E+04  0.50400001928E-02 0.  1.
</event>
<event>
 5   0  0.8234888E-06  0.1592734E+04  0.7818609E-02  0.8825024E-01
       -1   -1    0    0    0  501  0.00000000000E+00  0.00000000000E+00  0.27508810348E+03  0.27508810352E+03  0.50400001928E-02 0.  1.
        1   -1    0    0  501    0  0.00000000000E+00  0.00000000000E+00 -0.23054456074E+04  0.23054456074E+04  0.50400001928E-02 0. -1.
    10030    2    1    2    0    0  0.00000000000E+00  0.00000000000E+00 -0.20303575039E+04  0.25805337109E+04  0.15927343280E+04 0.  0.
        3    1    3    3  502    0  0.28424833619E+03  0.10443148461E+03 -0.22085212472E+04  0.22291857619E+04  0.10100000352E+00 0. -1.
       -3    1    3    3    0  502 -0.28424833619E+03 -0.10443148461E+03  0.17816374332E+03  0.35134794896E+03  0.10100000352E+00 0.  1.
</event>
<event>
 5   0  0.8055928E-06  0.2848265E+04  0.7818609E-02  0.8288439E-01
       -1   -1    0    0    0  501  0.00000000000E+00  0.00000000000E+00  0.10378966995E+04  0.10378966995E+04  0.50400001928E-02 0. -1.
        1   -1    0    0  501    0  0.00000000000E+00  0.00000000000E+00 -0.19540993984E+04  0.19540993984E+04  0.50400001928E-02 0.  1.
    10030    2    1    2    0    0  0.00000000000E+00  0.00000000000E+00 -0.91620269896E+03  0.29919960979E+04  0.28482649569E+04 0.  0.
        2    1    3    3  502    0  0.12833167450E+03  0.96354880121E+03 -0.15514195798E+04  0.18307916385E+04  0.25500000920E-02 0.  1.
       -2    1    3    3    0  502 -0.12833167450E+03 -0.96354880121E+03  0.63521688082E+03  0.11612044595E+04  0.25500000920E-02 0. -1.
</event>
<event>
 5   0  0.8234888E-06  0.1622340E+04  0.7818609E-02  0.8806940E-01
       -1   -1    0    0    0  501  0.00000000000E+00  0.00000000000E+00  0.38344533672E+03  0.38344533675E+03  0.50400001928E-02 0. -1.
        1   -1    0    0  501    0  0.00000000000E+00  0.00000000000E+00 -0.17160121564E+04  0.17160121565E+04  0.50400001928E-02 0.  1.
    10030    2    1    2    0    0  0.00000000000E+00  0.00000000000E+00 -0.13325668197E+04  0.20994574932E+04  0.16223401113E+04 0.  0.
        3    1    3    3  502    0  0.64146671431E+02  0.71857444965E+03 -0.18636396742E+03  0.74511447019E+03  0.10100000352E+00 0. -1.
       -3    1    3    3    0  502 -0.64146671431E+02 -0.71857444965E+03 -0.11462028523E+04  0.13543430230E+04  0.10100000352E+00 0.  1.
</event>
<event>
 5   0  0.7305460E-06  0.1900254E+04  0.7818609E-02  0.8654730E-01
       -1   -1    0    0    0  501  0.00000000000E+00  0.00000000000E+00  0.52560939675E+03  0.52560939678E+03  0.50400001928E-02 0.  1.
        1   -1    0    0  501    0  0.00000000000E+00  0.00000000000E+00 -0.17175136096E+04  0.17175136096E+04  0.50400001928E-02 0. -1.
    10030    2    1    2    0    0  0.00000000000E+00  0.00000000000E+00 -0.11919042128E+04  0.22431230063E+04  0.19002539749E+04 0.  0.
        4    1    3    3  502    0  0.87643525418E+03  0.28726594567E+03 -0.32656699038E+03  0.97842122341E+03  0.12699999809E+01 0.  1.
       -4    1    3    3    0  502 -0.87643525418E+03 -0.28726594567E+03 -0.86533722242E+03  0.12647017829E+04  0.12699999809E+01 0. -1.
</event>
<event>
 5   0  0.8055928E-06  0.2972312E+04  0.7818609E-02  0.8251682E-01
        1   -1    0    0  501    0  0.00000000000E+00  0.00000000000E+00  0.20595116334E+04  0.20595116334E+04  0.50400001928E-02 0. -1.
       -1   -1    0    0    0  501  0.00000000000E+00  0.00000000000E+00 -0.10724189494E+04  0.10724189494E+04  0.50400001928E-02 0.  1.
    10030    2    1    2    0    0  0.00000000000E+00  0.00000000000E+00  0.98709268400E+03  0.31319305828E+04  0.29723117616E+04 0.  0.
        2    1    3    3  502    0 -0.46218807870E+03  0.88970627828E+03 -0.66239117427E+03  0.12016476811E+04  0.25500000920E-02 0.  1.
       -2    1    3    3    0  502  0.46218807870E+03 -0.88970627828E+03  0.16494838583E+04  0.19302829017E+04  0.25500000920E-02 0. -1.
</event>
<event>
 5   0  0.1976233E-05  0.1637091E+04  0.7818609E-02  0.8798080E-01
        2   -1    0    0  501    0  0.00000000000E+00  0.00000000000E+00  0.53101876381E+03  0.53101876382E+03  0.25500000920E-02 0.  1.
       -2   -1    0    0    0  501  0.00000000000E+00  0.00000000000E+00 -0.12617572094E+04  0.12617572094E+04  0.25500000920E-02 0. -1.
    10030    2    1    2    0    0  0.00000000000E+00  0.00000000000E+00 -0.73073844560E+03  0.17927759732E+04  0.16370910220E+04 0.  0.
        2    1    3    3  502    0  0.15635471314E+03  0.21166965730E+03 -0.12141701359E+04  0.12423606397E+04  0.25500000920E-02 0. -1.
       -2    1    3    3    0  502 -0.15635471314E+03 -0.21166965730E+03  0.48343169033E+03  0.55041533351E+03  0.25500000920E-02 0.  1.
</event>
<event>
 5   0  0.8055928E-06  0.2890895E+04  0.7818609E-02  0.8275592E-01
       -1   -1    0    0    0  501  0.00000000000E+00  0.00000000000E+00  0.14763431548E+04  0.14763431548E+04  0.50400001928E-02 0.  1.
        1   -1    0    0  501    0  0.00000000000E+00  0.00000000000E+00 -0.14151981981E+04  0.14151981981E+04  0.50400001928E-02 0. -1.
    10030    2    1    2    0    0  0.00000000000E+00  0.00000000000E+00  0.61144956702E+02  0.28915413529E+04  0.28908947905E+04 0.  0.
        2    1    3    3  502    0 -0.84510154889E+03 -0.71368235624E+03  0.96125306449E+03  0.14654509844E+04  0.25500000920E-02 0.  1.
       -2    1    3    3    0  502  0.84510154889E+03  0.71368235624E+03 -0.90010810779E+03  0.14260903685E+04  0.25500000920E-02 0. -1.
</event>
<event>
 5   0  0.7971153E-06  0.2907012E+04  0.7818609E-02  0.8270794E-01
        1   -1    0    0  501    0  0.00000000000E+00  0.00000000000E+00  0.17627806504E+04  0.17627806504E+04  0.50400001928E-02 0.  1.
       -1   -1    0    0    0  501  0.00000000000E+00  0.00000000000E+00 -0.11984929148E+04  0.11984929148E+04  0.50400001928E-02 0. -1.
    10030    2    1    2    0    0  0.00000000000E+00  0.00000000000E+00  0.56428773556E+03  0.29612735652E+04  0.29070122944E+04 0.  0.
        5    1    3    3  502    0  0.82869740579E+02 -0.38424040324E+03  0.17076025517E+04  0.17522661459E+04  0.46999998093E+01 0.  1.
       -5    1    3    3    0  502 -0.82869740579E+02  0.38424040324E+03 -0.11433148161E+04  0.12090074194E+04  0.46999998093E+01 0. -1.
</event>
<event>
 5   0  0.1937947E-05  0.2897949E+04  0.7818609E-02  0.8273488E-01
        2   -1    0    0  501    0  0.00000000000E+00  0.00000000000E+00  0.17024915089E+04  0.17024915089E+04  0.25500000920E-02 0.  1.
       -2   -1    0    0    0  501  0.00000000000E+00  0.00000000000E+00 -0.12332087084E+04  0.12332087084E+04  0.25500000920E-02 0. -1.
    10030    2    1    2    0    0  0.00000000000E+00  0.00000000000E+00  0.46928280042E+03  0.29357002173E+04  0.28979491747E+04 0.  0.
        3    1    3    3  502    0  0.78657150264E+03 -0.11998721851E+04  0.44011199624E+03  0.15006953618E+04  0.10100000352E+00 0.  1.
       -3    1    3    3    0  502 -0.78657150264E+03  0.11998721851E+04  0.29170804185E+02  0.14350048555E+04  0.10100000352E+00 0. -1.
</event>
<event>
 5   0  0.1937947E-05  0.3258513E+04  0.7818609E-02  0.8173533E-01
       -2   -1    0    0    0  501  0.00000000000E+00  0.00000000000E+00  0.12317088200E+04  0.12317088200E+04  0.25500000920E-02 0.  1.
        2   -1    0    0  501    0  0.00000000000E+00  0.00000000000E+00 -0.21551174862E+04  0.21551174862E+04  0.25500000920E-02 0. -1.
    10030    2    1    2    0    0  0.00000000000E+00  0.00000000000E+00 -0.92340866624E+03  0.33868263062E+04  0.32585132904E+04 0.  0.
        3    1    3    3  502    0 -0.47709829489E+03 -0.11935341580E+04 -0.15022926129E+04  0.19771266207E+04  0.10100000352E+00 0. -1.
       -3    1    3    3    0  502  0.47709829489E+03  0.11935341580E+04  0.57888394670E+03  0.14096996855E+04  0.10100000352E+00 0.  1.
</event>
<event>
 5   0  0.1829810E-05  0.2862895E+04  0.7818609E-02  0.8284004E-01
       -2   -1    0    0    0  501  0.00000000000E+00  0.00000000000E+00  0.15387364567E+04  0.15387364567E+04  0.25500000920E-02 0. -1.
        2   -1    0    0  501    0  0.00000000000E+00  0.00000000000E+00 -0.13316390518E+04  0.13316390518E+04  0.25500000920E-02 0.  1.
    10030    2    1    2    0    0  0.00000000000E+00  0.00000000000E+00  0.20709740487E+03  0.28703755085E+04  0.28628947281E+04 0.  0.
        4    1    3    3  502    0 -0.56738617065E+03 -0.12722069762E+04 -0.22686102227E+03  0.14113487142E+04  0.12699999809E+01 0.  1.
       -4    1    3    3    0  502  0.56738617065E+03  0.12722069762E+04  0.43395842714E+03  0.14590267942E+04  0.12699999809E+01 0. -1.
</event>
<event>
 5   0  0.1937947E-05  0.2376791E+04  0.7818609E-02  0.8448244E-01
        2   -1    0    0  501    0  0.00000000000E+00  0.00000000000E+00  0.17395989947E+04  0.17395989947E+04  0.25500000920E-02 0.  1.
       -2   -1    0    0    0  501  0.00000000000E+00  0.00000000000E+00 -0.81184418407E+03  0.81184418407E+03  0.25500000920E-02 0. -1.
    10030    2    1    2    0    0  0.00000000000E+00  0.00000000000E+00  0.92775481061E+03  0.25514431787E+04  0.23767905473E+04 0.  0.
        3    1    3    3  502    0  0.90935527113E+03  0.72229975068E+03  0.19307161256E+03  0.11772512887E+04  0.10100000352E+00 0. -1.
       -3    1    3    3    0  502 -0.90935527113E+03 -0.72229975068E+03  0.73468319805E+03  0.13741918900E+04  0.10100000352E+00 0.  1.
</event>
<event>
 5   0  0.1918901E-05  0.2295231E+04  0.7818609E-02  0.8479804E-01
       -2   -1    0    0    0  501  0.00000000000E+00  0.00000000000E+00  0.83330275277E+03  0.83330275277E+03  0.25500000920E-02 0.  1.
        2   -1    0    0  501    0  0.00000000000E+00  0.00000000000E+00 -0.15804842135E+04  0.15804842135E+04  0.25500000920E-02 0. -1.
    10030    2    1    2    0    0  0.00000000000E+00  0.00000000000E+00 -0.74718146071E+03  0.24137869662E+04  0.22952314444E+04 0.  0.
        1    1    3    3  502    0 -0.66500098178E+03  0.47903950926E+03 -0.12184004486E+04  0.14684021283E+04  0.50400001928E-02 0. -1.
       -1    1    3    3    0  502  0.66500098178E+03 -0.47903950926E+03  0.47121898792E+03  0.94538483794E+03  0.50400001928E-02 0.  1.
</event>
<event>
 5   0  0.1937947E-05  0.2957073E+04  0.7818609E-02  0.8256096E-01
        2   -1    0    0  501    0  0.00000000000E+00  0.00000000000E+00  0.26187125977E+04  0.26187125977E+04  0.25500000920E-02 0.  1.
       -2   -1    0    0    0  501  0.00000000000E+00  0.00000000000E+00 -0.83478802601E+03  0.83478802601E+03  0.25500000920E-02 0. -1.
    10030    2    1    2    0    0  0.00000000000E+00  0.00000000000E+00  0.17839245717E+04  0.34535006237E+04  0.29570728230E+04 0.  0.
        3    1    3    3  502    0  0.24353175726E+02  0.12882982496E+04  0.17387862290E+04  0.21641818356E+04  0.10100000352E+00 0.  1.
       -3    1    3    3    0  502 -0.24353175726E+02 -0.12882982496E+04  0.45138342697E+02  0.12893187881E+04  0.10100000352E+00 0. -1.
</event>
<event>
 5   0  0.1960961E-05  0.1628035E+04  0.7818609E-02  0.8803508E-01
       -2   -1    0    0    0  501  0.00000000000E+00  0.00000000000E+00  0.52329615776E+03  0.52329615777E+03  0.25500000920E-02 0. -1.
        2   -1    0    0  501    0  0.00000000000E+00  0.00000000000E+00 -0.12662520803E+04  0.12662520803E+04  0.25500000920E-02 0.  1.
    10030    2    1    2    0    0  0.00000000000E+00  0.00000000000E+00 -0.74295592253E+03  0.17895482381E+04  0.16280354399E+04 0.  0.
        5    1    3    3  502    0 -0.54102416552E+03  0.17572614980E+03  0.26853623667E+03  0.62906329395E+03  0.46999998093E+01 0. -1.
       -5    1    3    3    0  502  0.54102416552E+03 -0.17572614980E+03 -0.10114921592E+04  0.11604849441E+04  0.46999998093E+01 0.  1.
</event>
<event>
 5   0  0.8234888E-06  0.2767394E+04  0.7818609E-02  0.8313463E-01
       -1   -1    0    0    0  501  0.00000000000E+00  0.00000000000E+00  0.14383720256E+04  0.14383720256E+04  0.50400001928E-02 0.  1.
        1   -1    0    0  501    0  0.00000000000E+00  0.00000000000E+00 -0.13311002791E+04  0.13311002791E+04  0.50400001928E-02 0. -1.
    10030    2    1    2    0    0  0.00000000000E+00  0.00000000000E+00  0.10727174644E+03  0.27694723047E+04  0.27673940122E+04 0.  0.
        3    1    3    3  502    0  0.12336767351E+04 -0.12323897575E+03 -0.56121242657E+03  0.13609208389E+04  0.10100000352E+00 0. -1.
       -3    1    3    3    0  502 -0.12336767351E+04  0.12323897575E+03  0.66848417301E+03  0.14085514658E+04  0.10100000352E+00 0.  1.
</event>
<event>
 5   0  0.8122088E-06  0.2104108E+04  0.7818609E-02  0.8559436E-01
        1   -1    0    0  501    0  0.00000000000E+00  0.00000000000E+00  0.25032366762E+04  0.25032366762E+04  0.50400001928E-02 0.  1.
       -1   -1    0    0    0  501  0.00000000000E+00  0.00000000000E+00 -0.44215457563E+03  0.44215457566E+03  0.50400001928E-02 0. -1.
    10030    2    1    2    0    0  0.00000000000E+00  0.00000000000E+00  0.20610821006E+04  0.29453912519E+04  0.21041079348E+04 0.  0.
        1    1    3    3  502    0  0.10000638852E+04  0.12361692556E+03  0.14537633883E+04  0.17688518615E+04  0.50400001928E-02 0.  1.
       -1    1    3    3    0  502 -0.10000638852E+04 -0.12361692556E+03  0.60731871229E+03  0.11765393904E+04  0.50400001928E-02 0. -1.
</event>
<event>
 5   0  0.8234888E-06  0.2182052E+04  0.7818609E-02  0.8525936E-01
        1   -1    0    0  501    0  0.00000000000E+00  0.00000000000E+00  0.12701521364E+04  0.12701521364E+04  0.50400001928E-02 0. -1.
       -1   -1    0    0    0  501  0.00000000000E+00  0.00000000000E+00 -0.93716121717E+03  0.93716121718E+03  0.50400001928E-02 0.  1.
    10030    2    1    2    0    0  0.00000000000E+00  0.00000000000E+00  0.33299091922E+03  0.22073133536E+04  0.21820516237E+04 0.  0.
        3    1    3    3  502    0  0.59903880643E+03  0.91138287014E+03  0.13663963439E+03  0.10991526862E+04  0.10100000352E+00 0.  1.
       -3    1    3    3    0  502 -0.59903880643E+03 -0.91138287014E+03  0.19635128483E+03  0.11081606674E+04  0.10100000352E+00 0. -1.
</event>
<event>
 5   0  0.8122088E-06  0.2115304E+04  0.7818609E-02  0.8554532E-01
        1   -1    0    0  501    0  0.00000000000E+00  0.00000000000E+00  0.95799155833E+03  0.95799155835E+03  0.50400001928E-02 0.  1.
       -1   -1    0    0    0  501  0.00000000000E+00  0.00000000000E+00 -0.11676798034E+04  0.11676798034E+04  0.50400001928E-02 0. -1.
    10030    2    1    2    0    0  0.00000000000E+00  0.00000000000E+00 -0.20968824504E+03  0.21256713617E+04  0.21153036609E+04 0.  0.
        1    1    3    3  502    0  0.10481320275E+04  0.10378441962E+03 -0.80629900533E+01  0.10532886426E+04  0.50400001928E-02 0.  1.
       -1    1    3    3    0  502 -0.10481320275E+04 -0.10378441962E+03 -0.20162525499E+03  0.10723827191E+04  0.50400001928E-02 0. -1.
</event>
<event>
 5   0  0.7305460E-06  0.2666479E+04  0.7818609E-02  0.8345964E-01
       -1   -1    0    0    0  501  0.00000000000E+00  0.00000000000E+00  0.76583615233E+03  0.76583615234E+03  0.50400001928E-02 0.  1.
        1   -1    0    0  501    0  0.00000000000E+00  0.00000000000E+00 -0.23210277046E+04  0.23210277046E+04  0.50400001928E-02 0. -1.
    10030    2    1    2    0    0  0.00000000000E+00  0.00000000000E+00 -0.15551915523E+04  0.30868638570E+04  0.26664785218E+04 0.  0.
        4    1    3    3  502    0  0.83744843239E+03  0.91278053100E+02 -0.19738936814E+04  0.21461382617E+04  0.12699999809E+01 0. -1.
       -4    1    3    3    0  502 -0.83744843239E+03 -0.91278053100E+02  0.41870212908E+03  0.94072559531E+03  0.12699999809E+01 0.  1.
</event>
<event>
 5   0  0.1829810E-05  0.2769592E+04  0.7818609E-02  0.8312772E-01
        2   -1    0    0  501    0  0.00000000000E+00  0.00000000000E+00  0.14235822518E+04  0.14235822518E+04  0.25500000920E-02 0. -1.
       -2   -1    0    0    0  501  0.00000000000E+00  0.00000000000E+00 -0.13470660644E+04  0.13470660644E+04  0.25500000920E-02 0.  1.
    10030    2    1    2    0    0  0.00000000000E+00  0.00000000000E+00  0.76516187341E+02  0.27706483162E+04  0.27695915520E+04 0.  0.
        4    1    3    3  502    0  0.95864977193E+03  0.36280900115E+03  0.96975137657E+03  0.14110489367E+04  0.12699999809E+01 0. -1.
       -4    1    3    3    0  502 -0.95864977193E+03 -0.36280900115E+03 -0.89323518922E+03  0.13595993795E+04  0.12699999809E+01 0.  1.
</event>
<event>
 5   0  0.1937947E-05  0.1808677E+04  0.7818609E-02  0.8701699E-01
       -2   -1    0    0    0  501  0.00000000000E+00  0.00000000000E+00  0.84653603845E+03  0.84653603846E+03  0.25500000920E-02 0.  1.
        2   -1    0    0  501    0  0.00000000000E+00  0.00000000000E+00 -0.96608783589E+03  0.96608783590E+03  0.25500000920E-02 0. -1.
    10030    2    1    2    0    0  0.00000000000E+00  0.00000000000E+00 -0.11955179744E+03  0.18126238744E+04  0.18086770518E+04 0.  0.
        3    1    3    3  502    0 -0.36037521953E+02 -0.16302371349E+03  0.83095643651E+03  0.84756359273E+03  0.10100000352E+00 0.  1.
       -3    1    3    3    0  502  0.36037521953E+02  0.16302371349E+03 -0.95050823395E+03  0.96506028162E+03  0.10100000352E+00 0. -1.
</event>
<event>
 5   0  0.8122088E-06  0.2906301E+04  0.7818609E-02  0.8271005E-01
        1   -1    0    0  501    0  0.00000000000E+00  0.00000000000E+00  0.24013149102E+04  0.24013149102E+04  0.50400001928E-02 0.  1.
       -1   -1    0    0    0  501  0.00000000000E+00  0.00000000000E+00 -0.87937104870E+03  0.87937104872E+03  0.50400001928E-02 0. -1.
    10030    2    1    2    0    0  0.00000000000E+00  0.00000000000E+00  0.15219438615E+04  0.32806859589E+04  0.29063012995E+04 0.  0.
        1    1    3    3  502    0  0.12825697356E+04  0.51677966468E+03  0.12652903096E+04  0.18743014475E+04  0.50400001928E-02 0.  1.
       -1    1    3    3    0  502 -0.12825697356E+04 -0.51677966468E+03  0.25665355191E+03  0.14063845115E+04  0.50400001928E-02 0. -1.
</event>
<event>
 5   0  0.1937947E-05  0.2940611E+04  0.7818609E-02  0.8260896E-01
       -2   -1    0    0    0  501  0.00000000000E+00  0.00000000000E+00  0.10663620487E+04  0.10663620487E+04  0.25500000920E-02 0. -1.
        2   -1    0    0  501    0  0.00000000000E+00  0.00000000000E+00 -0.20272644593E+04  0.20272644593E+04  0.25500000920E-02 0.  1.
    10030    2    1    2    0    0  0.00000000000E+00  0.00000000000E+00 -0.96090241052E+03  0.30936265080E+04  0.29406107407E+04 0.  0.
        3    1    3    3  502    0 -0.12032019531E+04 -0.11155863336E+03  0.40078627296E+03  0.12730946216E+04  0.10100000352E+00 0. -1.
       -3    1    3    3    0  502  0.12032019531E+04  0.11155863336E+03 -0.13616886835E+04  0.18205318864E+04  0.10100000352E+00 0.  1.
</event>
<event>
 5   0  0.1918901E-05  0.2891571E+04  0.7818609E-02  0.8275390E-01
       -2   -1    0    0    0  501  0.00000000000E+00  0.00000000000E+00  0.11274161515E+04  0.11274161515E+04  0.25500000920E-02 0. -1.
        2   -1    0    0  501    0  0.00000000000E+00  0.00000000000E+00 -0.18540585064E+04  0.18540585064E+04  0.25500000920E-02 0.  1.
    10030    2    1    2    0    0  0.00000000000E+00  0.00000000000E+00 -0.72664235489E+03  0.29814746579E+04  0.28915708575E+04 0.  0.
        1    1    3    3  502    0  0.71139057401E+03 -0.17405615034E+03 -0.16486436133E+04  0.18039949711E+04  0.50400001928E-02 0.  1.
       -1    1    3    3    0  502 -0.71139057401E+03  0.17405615034E+03  0.92200125837E+03  0.11774796868E+04  0.50400001928E-02 0. -1.
</event>
<event>
 5   0  0.1976233E-05  0.2887587E+04  0.7818609E-02  0.8276580E-01
       -2   -1    0    0    0  501  0.00000000000E+00  0.00000000000E+00  0.11290115117E+04  0.11290115117E+04  0.25500000920E-02 0.  1.
        2   -1    0    0  501    0  0.00000000000E+00  0.00000000000E+00 -0.18463403021E+04  0.18463403021E+04  0.25500000920E-02 0. -1.
    10030    2    1    2    0    0  0.00000000000E+00  0.00000000000E+00 -0.71732879037E+03  0.29753518138E+04  0.28875868510E+04 0.  0.
        2    1    3    3  502    0  0.10377617776E+04  0.97057241075E+03 -0.94796749872E+02  0.14240599479E+04  0.25500000920E-02 0.  1.
       -2    1    3    3    0  502 -0.10377617776E+04 -0.97057241075E+03 -0.62253204049E+03  0.15512918658E+04  0.25500000920E-02 0. -1.
</event>
<event>
 5   0  0.6578125E-06  0.3072137E+04  0.7818609E-02  0.8223427E-01
       -4   -1    0    0    0  501  0.00000000000E+00  0.00000000000E+00  0.19385442558E+04  0.19385446719E+04  0.12699999809E+01 0. -1.
        4   -1    0    0  501    0  0.00000000000E+00  0.00000000000E+00 -0.12171528009E+04  0.12171534634E+04  0.12699999809E+01 0.  1.
    10030    2    1    2    0    0  0.00000000000E+00  0.00000000000E+00  0.72139145497E+03  0.31556981353E+04  0.30721368931E+04 0.  0.
        5    1    3    3  502    0 -0.62703676315E+03 -0.54824762966E+03  0.16864336051E+04  0.18809122681E+04  0.46999998093E+01 0. -1.
       -5    1    3    3    0  502  0.62703676315E+03  0.54824762966E+03 -0.96504215012E+03  0.12747858672E+04  0.46999998093E+01 0.  1.
</event>
<event>
 5   0  0.7305460E-06  0.2861641E+04  0.7818609E-02  0.8284383E-01
       -1   -1    0    0    0  501  0.00000000000E+00  0.00000000000E+00  0.23584097654E+04  0.23584097654E+04  0.50400001928E-02 0.  1.
        1   -1    0    0  501    0  0.00000000000E+00  0.00000000000E+00 -0.86806280141E+03  0.86806280142E+03  0.50400001928E-02 0. -1.
    10030    2    1    2    0    0  0.00000000000E+00  0.00000000000E+00  0.14903469640E+04  0.32264725668E+04  0.28616413387E+04 0.  0.
        4    1    3    3  502    0  0.75438077887E+03 -0.10129278886E+04  0.15033072393E+04  0.19634274969E+04  0.12699999809E+01 0. -1.
       -4    1    3    3    0  502 -0.75438077887E+03  0.10129278886E+04 -0.12960275329E+02  0.12630450699E+04  0.12699999809E+01 0.  1.
</event>
<event>
 5   0  0.1960961E-05  0.2983750E+04  0.7818609E-02  0.8248386E-01
        2   -1    0    0  501    0  0.00000000000E+00  0.00000000000E+00  0.20366715286E+04  0.20366715286E+04  0.25500000920E-02 0.  1.
       -2   -1    0    0    0  501  0.00000000000E+00  0.00000000000E+00 -0.10928081946E+04  0.10928081946E+04  0.25500000920E-02 0. -1.
    10030    2    1    2    0    0  0.00000000000E+00  0.00000000000E+00  0.94386333402E+03  0.31294797232E+04  0.29837502149E+04 0.  0.
        5    1    3    3  502    0  0.91970735251E+03 -0.92506603078E+03  0.12312089039E+04  0.17937408482E+04  0.46999998093E+01 0.  1.
       -5    1    3    3    0  502 -0.91970735251E+03  0.92506603078E+03 -0.28734556989E+03  0.13357388750E+04  0.46999998093E+01 0. -1.
</event>
<event>
 5   0  0.1960961E-05  0.3026369E+04  0.7818609E-02  0.8236241E-01
       -2   -1    0    0    0  501  0.00000000000E+00  0.00000000000E+00  0.17952754131E+04  0.17952754131E+04  0.25500000920E-02 0.  1.
        2   -1    0    0  501    0  0.00000000000E+00  0.00000000000E+00 -0.12754185159E+04  0.12754185159E+04  0.25500000920E-02 0. -1.
    10030    2    1    2    0    0  0.00000000000E+00  0.00000000000E+00  0.51985689716E+03  0.30706939290E+04  0.30263691136E+04 0.  0.
        5    1    3    3  502    0  0.89399125631E+03 -0.48345015453E+03 -0.87754424845E+03  0.13427771283E+04  0.46999998093E+01 0. -1.
       -5    1    3    3    0  502 -0.89399125631E+03  0.48345015453E+03  0.13974011456E+04  0.17279168007E+04  0.46999998093E+01 0.  1.
</event>
<event>
 5   0  0.7971153E-06  0.2893940E+04  0.7818609E-02  0.8274683E-01
       -1   -1    0    0    0  501  0.00000000000E+00  0.00000000000E+00  0.31756875463E+04  0.31756875463E+04  0.50400001928E-02 0.  1.
        1   -1    0    0  501    0  0.00000000000E+00  0.00000000000E+00 -0.65929736401E+03  0.65929736403E+03  0.50400001928E-02 0. -1.
    10030    2    1    2    0    0  0.00000000000E+00  0.00000000000E+00  0.25163901823E+04  0.38349849103E+04  0.28939401709E+04 0.  0.
        5    1    3    3  502    0  0.40893355905E+03  0.63104434076E+03  0.28964152605E+04  0.29924383147E+04  0.46999998093E+01 0.  1.
       -5    1    3    3    0  502 -0.40893355905E+03 -0.63104434076E+03 -0.38002507825E+03  0.84254659564E+03  0.46999998093E+01 0. -1.
</event>
<event>
 5   0  0.7305460E-06  0.2676983E+04  0.7818609E-02  0.8342512E-01
        1   -1    0    0  501    0  0.00000000000E+00  0.00000000000E+00  0.20832254808E+04  0.20832254808E+04  0.50400001928E-02 0. -1.
       -1   -1    0    0    0  501  0.00000000000E+00  0.00000000000E+00 -0.85999309494E+03  0.85999309496E+03  0.50400001928E-02 0.  1.
    10030    2    1    2    0    0  0.00000000000E+00  0.00000000000E+00  0.12232323858E+04  0.29432185757E+04  0.26769830247E+04 0.  0.
        4    1    3    3  502    0 -0.52416874549E+03 -0.87958717289E+02  0.19622305052E+04  0.20329387050E+04  0.12699999809E+01 0. -1.
       -4    1    3    3    0  502  0.52416874549E+03  0.87958717289E+02 -0.73899811940E+03  0.91027987074E+03  0.12699999809E+01 0.  1.
</event>
<event>
 5   0  0.8234888E-06  0.1631985E+04  0.7818609E-02  0.8801136E-01
       -1   -1    0    0    0  501  0.00000000000E+00  0.00000000000E+00  0.12921577532E+04  0.12921577532E+04  0.50400001928E-02 0. -1.
        1   -1    0    0  501    0  0.00000000000E+00  0.00000000000E+00 -0.51529618216E+03  0.51529618218E+03  0.50400001928E-02 0.  1.
    10030    2    1    2    0    0  0.00000000000E+00  0.00000000000E+00  0.77686157107E+03  0.18074539354E+04  0.16319852414E+04 0.  0.
        3    1    3    3  502    0 -0.54206282378E+03 -0.40448975972E+03 -0.11716068546E+03  0.68641875488E+03  0.10100000352E+00 0.  1.
       -3    1    3    3    0  502  0.54206282378E+03  0.40448975972E+03  0.89402225652E+03  0.11210351805E+04  0.10100000352E+00 0. -1.
</event>
<event>
 5   0  0.7971153E-06  0.2914134E+04  0.7818609E-02  0.8268685E-01
        1   -1    0    0  501    0  0.00000000000E+00  0.00000000000E+00  0.24937387998E+04  0.24937387998E+04  0.50400001928E-02 0. -1.
       -1   -1    0    0    0  501  0.00000000000E+00  0.00000000000E+00 -0.85135005315E+03  0.85135005317E+03  0.50400001928E-02 0.  1.
    10030    2    1    2    0    0  0.00000000000E+00  0.00000000000E+00  0.16423887467E+04  0.33450888530E+04  0.29141342864E+04 0.  0.
        5    1    3    3  502    0  0.81379194273E+03 -0.10664015309E+04  0.16825805605E+03  0.13519624309E+04  0.46999998093E+01 0.  1.
       -5    1    3    3    0  502 -0.81379194273E+03  0.10664015309E+04  0.14741306906E+04  0.19931264220E+04  0.46999998093E+01 0. -1.
</event>
<event>
 5   0  0.8122088E-06  0.2850647E+04  0.7818609E-02  0.8287715E-01
       -1   -1    0    0    0  501  0.00000000000E+00  0.00000000000E+00  0.87066887163E+03  0.87066887165E+03  0.50400001928E-02 0. -1.
        1   -1    0    0  501    0  0.00000000000E+00  0.00000000000E+00 -0.23333183600E+04  0.23333183600E+04  0.50400001928E-02 0.  1.
    10030    2    1    2    0    0  0.00000000000E+00  0.00000000000E+00 -0.14626494884E+04  0.32039872317E+04  0.28506474098E+04 0.  0.
        1    1    3    3  502    0 -0.83317716888E+03  0.45905356247E+03 -0.19243195806E+04  0.21466066748E+04  0.50400001928E-02 0.  1.
       -1    1    3    3    0  502  0.83317716888E+03 -0.45905356247E+03  0.46167009223E+03  0.10573805569E+04  0.50400001928E-02 0. -1.
</event>
<event>
 5   0  0.1918901E-05  0.2853294E+04  0.7818609E-02  0.8286911E-01
       -2   -1    0    0    0  501  0.00000000000E+00  0.00000000000E+00  0.83011353800E+03  0.83011353801E+03  0.25500000920E-02 0. -1.
        2   -1    0    0  501    0  0.00000000000E+00  0.00000000000E+00 -0.24518597103E+04  0.24518597103E+04  0.25500000920E-02 0.  1.
    10030    2    1    2    0    0  0.00000000000E+00  0.00000000000E+00 -0.16217461723E+04  0.32819732483E+04  0.28532941936E+04 0.  0.
        1    1    3    3  502    0 -0.54561802280E+03 -0.75568578114E+03  0.43147238321E+03  0.10270970958E+04  0.50400001928E-02 0. -1.
       -1    1    3    3    0  502  0.54561802280E+03  0.75568578114E+03 -0.20532185555E+04  0.22548761525E+04  0.50400001928E-02 0.  1.
</event>
<event>
 5   0  0.8122088E-06  0.2919731E+04  0.7818609E-02  0.8267031E-01
       -1   -1    0    0    0  501  0.00000000000E+00  0.00000000000E+00  0.13744399312E+04  0.13744399312E+04  0.50400001928E-02 0. -1.
        1   -1    0    0  501    0  0.00000000000E+00  0.00000000000E+00 -0.15506004241E+04  0.15506004241E+04  0.50400001928E-02 0.  1.
    10030    2    1    2    0    0  0.00000000000E+00  0.00000000000E+00 -0.17616049293E+03  0.29250403553E+04  0.29197309055E+04 0.  0.
        1    1    3    3  502    0 -0.14337142432E+04 -0.27052584480E+03 -0.13803449834E+03  0.14655286714E+04  0.50400001928E-02 0. -1.
       -1    1    3    3    0  502  0.14337142432E+04  0.27052584480E+03 -0.38125994591E+02  0.14595116839E+04  0.50400001928E-02 0.  1.
</event>
<event>
 5   0  0.1829810E-05  0.2878734E+04  0.7818609E-02  0.8279233E-01
       -2   -1    0    0    0  501  0.00000000000E+00  0.00000000000E+00  0.24420610864E+04  0.24420610864E+04  0.25500000920E-02 0.  1.
        2   -1    0    0  501    0  0.00000000000E+00  0.00000000000E+00 -0.84837231904E+03  0.84837231905E+03  0.25500000920E-02 0. -1.
    10030    2    1    2    0    0  0.00000000000E+00  0.00000000000E+00  0.15936887673E+04  0.32904334054E+04  0.28787337682E+04 0.  0.
        4    1    3    3  502    0 -0.12207217917E+04 -0.50494926362E+03  0.14501046776E+04  0.19616168435E+04  0.12699999809E+01 0.  1.
       -4    1    3    3    0  502  0.12207217917E+04  0.50494926362E+03  0.14358408968E+03  0.13288165619E+04  0.12699999809E+01 0. -1.
</event>
<event>
 5   0  0.1960961E-05  0.2944032E+04  0.7818609E-02  0.8259896E-01
       -2   -1    0    0    0  501  0.00000000000E+00  0.00000000000E+00  0.11584291208E+04  0.11584291208E+04  0.25500000920E-02 0.  1.
        2   -1    0    0  501    0  0.00000000000E+00  0.00000000000E+00 -0.18704914820E+04  0.18704914820E+04  0.25500000920E-02 0. -1.
    10030    2    1    2    0    0  0.00000000000E+00  0.00000000000E+00 -0.71206236113E+03  0.30289206028E+04  0.29440324747E+04 0.  0.
        5    1    3    3  502    0 -0.70043065507E+03  0.36135194456E+02  0.97546475658E+03  0.12014418156E+04  0.46999998093E+01 0.  1.
       -5    1    3    3    0  502  0.70043065507E+03 -0.36135194456E+02 -0.16875271177E+04  0.18274787872E+04  0.46999998093E+01 0. -1.
</event>
<event>
 5   0  0.8055928E-06  0.1729638E+04  0.7818609E-02  0.8744639E-01
        1   -1    0    0  501    0  0.00000000000E+00  0.00000000000E+00  0.67057325245E+03  0.67057325247E+03  0.50400001928E-02 0.  1.
       -1   -1    0    0    0  501  0.00000000000E+00  0.00000000000E+00 -0.11153316298E+04  0.11153316298E+04  0.50400001928E-02 0. -1.
    10030    2    1    2    0    0  0.00000000000E+00  0.00000000000E+00 -0.44475837737E+03  0.17859048823E+04  0.17296376020E+04 0.  0.
        2    1    3    3  502    0 -0.52518052609E+03  0.40783300507E+03  0.34857345009E+03  0.75076347482E+03  0.25500000920E-02 0.  1.
       -2    1    3    3    0  502  0.52518052609E+03 -0.40783300507E+03 -0.79333182746E+03  0.10351414075E+04  0.25500000920E-02 0. -1.
</event>
<event>
 5   0  0.8122088E-06  0.2942456E+04  0.7818609E-02  0.8260357E-01
        1   -1    0    0  501    0  0.00000000000E+00  0.00000000000E+00  0.16578563386E+04  0.16578563386E+04  0.50400001928E-02 0. -1.
       -1   -1    0    0    0  501  0.00000000000E+00  0.00000000000E+00 -0.13056087258E+04  0.13056087258E+04  0.50400001928E-02 0.  1.
    10030    2    1    2    0    0  0.00000000000E+00  0.00000000000E+00  0.35224761287E+03  0.29634650644E+04  0.29424559142E+04 0.  0.
        1    1    3    3  502    0 -0.13098054287E+04 -0.52436402221E+03 -0.24394391032E+03  0.14318018439E+04  0.50400001928E-02 0.  1.
       -1    1    3    3    0  502  0.13098054287E+04  0.52436402221E+03  0.59619152319E+03  0.15316632205E+04  0.50400001928E-02 0. -1.
</event>
<event>
 5   0  0.1976233E-05  0.2904779E+04  0.7818609E-02  0.8271457E-01
       -2   -1    0    0    0  501  0.00000000000E+00  0.00000000000E+00  0.14134511766E+04  0.14134511766E+04  0.25500000920E-02 0.  1.
        2   -1    0    0  501    0  0.00000000000E+00  0.00000000000E+00 -0.14924007047E+04  0.14924007047E+04  0.25500000920E-02 0. -1.
    10030    2    1    2    0    0  0.00000000000E+00  0.00000000000E+00 -0.78949528080E+02  0.29058518813E+04  0.29047791875E+04 0.  0.
        2    1    3    3  502    0 -0.13946009269E+03  0.13109806198E+04 -0.64905701724E+03  0.14694877729E+04  0.25500000920E-02 0. -1.
       -2    1    3    3    0  502  0.13946009269E+03 -0.13109806198E+04  0.57010748916E+03  0.14363641085E+04  0.25500000920E-02 0.  1.
</event>
<event>
 5   0  0.8234888E-06  0.3027110E+04  0.7818609E-02  0.8236032E-01
        1   -1    0    0  501    0  0.00000000000E+00  0.00000000000E+00  0.16383350374E+04  0.16383350374E+04  0.50400001928E-02 0.  1.
       -1   -1    0    0    0  501  0.00000000000E+00  0.00000000000E+00 -0.13982786336E+04  0.13982786337E+04  0.50400001928E-02 0. -1.
    10030    2    1    2    0    0  0.00000000000E+00  0.00000000000E+00  0.24005640377E+03  0.30366136711E+04  0.30271100922E+04 0.  0.
        3    1    3    3  502    0  0.65365756820E+03  0.13651284324E+04  0.11778198900E+03  0.15181292635E+04  0.10100000352E+00 0. -1.
       -3    1    3    3    0  502 -0.65365756820E+03 -0.13651284324E+04  0.12227441477E+03  0.15184844076E+04  0.10100000352E+00 0.  1.
</event>
<event>
 5   0  0.8234888E-06  0.2905049E+04  0.7818609E-02  0.8271377E-01
       -1   -1    0    0    0  501  0.00000000000E+00  0.00000000000E+00  0.13148302224E+04  0.13148302224E+04  0.50400001928E-02 0. -1.
        1   -1    0    0  501    0  0.00000000000E+00  0.00000000000E+00 -0.16046391573E+04  0.16046391573E+04  0.50400001928E-02 0.  1.
    10030    2    1    2    0    0  0.00000000000E+00  0.00000000000E+00 -0.28980893483E+03  0.29194693797E+04  0.29050494385E+04 0.  0.
        3    1    3    3  502    0 -0.10315053839E+04  0.72144559738E+03  0.58349735133E+03  0.13874279355E+04  0.10100000352E+00 0. -1.
       -3    1    3    3    0  502  0.10315053839E+04 -0.72144559738E+03 -0.87330628616E+03  0.15320414442E+04  0.10100000352E+00 0.  1.
</event>
<event>
 5   0  0.1976233E-05  0.3005117E+04  0.7818609E-02  0.8242271E-01
       -2   -1    0    0    0  501  0.00000000000E+00  0.00000000000E+00  0.32276433433E+04  0.32276433433E+04  0.25500000920E-02 0.  1.
        2   -1    0    0  501    0  0.00000000000E+00  0.00000000000E+00 -0.69948312021E+03  0.69948312022E+03  0.25500000920E-02 0. -1.
    10030    2    1    2    0    0  0.00000000000E+00  0.00000000000E+00  0.25281602231E+04  0.39271264635E+04  0.30051169939E+04 0.  0.
        2    1    3    3  502    0 -0.37608041798E+03  0.77584287353E+03 -0.34405074039E+03  0.92829928211E+03  0.25500000920E-02 0.  1.
       -2    1    3    3    0  502  0.37608041798E+03 -0.77584287353E+03  0.28722109635E+04  0.29988271814E+04  0.25500000920E-02 0. -1.
</event>
<event>
 5   0  0.7971153E-06  0.2881485E+04  0.7818609E-02  0.8278408E-01
        1   -1    0    0  501    0  0.00000000000E+00  0.00000000000E+00  0.18064016873E+04  0.18064016873E+04  0.50400001928E-02 0.  1.
       -1   -1    0    0    0  501  0.00000000000E+00  0.00000000000E+00 -0.11491014329E+04  0.11491014329E+04  0.50400001928E-02 0. -1.
    10030    2    1    2    0    0  0.00000000000E+00  0.00000000000E+00  0.65730025448E+03  0.29555031202E+04  0.28814848723E+04 0.  0.
        5    1    3    3  502    0 -0.66290767832E+03 -0.72870325313E+03  0.14069700524E+04  0.17175685836E+04  0.46999998093E+01 0.  1.
       -5    1    3    3    0  502  0.66290767832E+03  0.72870325313E+03 -0.74966979789E+03  0.12379345366E+04  0.46999998093E+01 0. -1.
</event>
<event>
 5   0  0.1937947E-05  0.2961625E+04  0.7818609E-02  0.8254775E-01
        2   -1    0    0  501    0  0.00000000000E+00  0.00000000000E+00  0.10875643630E+04  0.10875643630E+04  0.25500000920E-02 0. -1.
       -2   -1    0    0    0  501  0.00000000000E+00  0.00000000000E+00 -0.20162530510E+04  0.20162530510E+04  0.25500000920E-02 0.  1.
    10030    2    1    2    0    0  0.00000000000E+00  0.00000000000E+00 -0.92868868805E+03  0.31038174140E+04  0.29616245305E+04 0.  0.
        3    1    3    3  502    0 -0.23139293579E+03 -0.40620658889E+03  0.10081992878E+04  0.11113110715E+04  0.10100000352E+00 0. -1.
       -3    1    3    3    0  502  0.23139293579E+03  0.40620658889E+03 -0.19368879758E+04  0.19925063424E+04  0.10100000352E+00 0.  1.
</event>
<event>
 5   0  0.1937947E-05  0.2930732E+04  0.7818609E-02  0.8263792E-01
       -2   -1    0    0    0  501  0.00000000000E+00  0.00000000000E+00  0.90392830703E+03  0.90392830704E+03  0.25500000920E-02 0. -1.
        2   -1    0    0  501    0  0.00000000000E+00  0.00000000000E+00 -0.23755170200E+04  0.23755170200E+04  0.25500000920E-02 0.  1.
    10030    2    1    2    0    0  0.00000000000E+00  0.00000000000E+00 -0.14715887130E+04  0.32794453270E+04  0.29307317026E+04 0.  0.
        3    1    3    3  502    0  0.15737129123E+03 -0.13705135555E+04 -0.18280286592E+03  0.13915782504E+04  0.10100000352E+00 0. -1.
       -3    1    3    3    0  502 -0.15737129123E+03  0.13705135555E+04 -0.12887858470E+04  0.18878670766E+04  0.10100000352E+00 0.  1.
</event>
<event>
 5   0  0.1976233E-05  0.2852103E+04  0.7818609E-02  0.8287273E-01
       -2   -1    0    0    0  501  0.00000000000E+00  0.00000000000E+00  0.13031994100E+04  0.13031994100E+04  0.25500000920E-02 0.  1.
        2   -1    0    0  501    0  0.00000000000E+00  0.00000000000E+00 -0.15604848890E+04  0.15604848890E+04  0.25500000920E-02 0. -1.
    10030    2    1    2    0    0  0.00000000000E+00  0.00000000000E+00 -0.25728547896E+03  0.28636842990E+04  0.28521030743E+04 0.  0.
        2    1    3    3  502    0 -0.11788283074E+04 -0.13094019153E+03 -0.92359085356E+03  0.15032636419E+04  0.25500000920E-02 0. -1.
       -2    1    3    3    0  502  0.11788283074E+04  0.13094019153E+03  0.66630537459E+03  0.13604206571E+04  0.25500000920E-02 0.  1.
</event>
<event>
 5   0  0.7305460E-06  0.2962639E+04  0.7818609E-02  0.8254481E-01
       -1   -1    0    0    0  501  0.00000000000E+00  0.00000000000E+00  0.18784765399E+04  0.18784765399E+04  0.50400001928E-02 0.  1.
        1   -1    0    0  501    0  0.00000000000E+00  0.00000000000E+00 -0.11681312951E+04  0.11681312951E+04  0.50400001928E-02 0. -1.
    10030    2    1    2    0    0  0.00000000000E+00  0.00000000000E+00  0.71034524484E+03  0.30466078350E+04  0.29626388463E+04 0.  0.
        4    1    3    3  502    0  0.32377392979E+03  0.13377882151E+04  0.91823013014E+03  0.16545860663E+04  0.12699999809E+01 0. -1.
       -4    1    3    3    0  502 -0.32377392979E+03 -0.13377882151E+04 -0.20788488530E+03  0.13920217687E+04  0.12699999809E+01 0.  1.
</event>
<event>
 5   0  0.1918901E-05  0.2830401E+04  0.7818609E-02  0.8293892E-01
        2   -1    0    0  501    0  0.00000000000E+00  0.00000000000E+00  0.18761804609E+04  0.18761804609E+04  0.25500000920E-02 0. -1.
       -2   -1    0    0    0  501  0.00000000000E+00  0.00000000000E+00 -0.10674841441E+04  0.10674841441E+04  0.25500000920E-02 0.  1.
    10030    2    1    2    0    0  0.00000000000E+00  0.00000000000E+00  0.80869631681E+03  0.29436646050E+04  0.28304013097E+04 0.  0.
        1    1    3    3  502    0  0.12977910920E+04  0.48938384804E+03  0.11196725364E+03  0.13915081513E+04  0.50400001928E-02 0.  1.
       -1    1    3    3    0  502 -0.12977910920E+04 -0.48938384804E+03  0.69672906317E+03  0.15521564537E+04  0.50400001928E-02 0. -1.
</event>
<event>
 5   0  0.1976233E-05  0.2997823E+04  0.7818609E-02  0.8244353E-01
       -2   -1    0    0    0  501  0.00000000000E+00  0.00000000000E+00  0.11982595276E+04  0.11982595276E+04  0.25500000920E-02 0. -1.
        2   -1    0    0  501    0  0.00000000000E+00  0.00000000000E+00 -0.18749994098E+04  0.18749994098E+04  0.25500000920E-02 0.  1.
    10030    2    1    2    0    0  0.00000000000E+00  0.00000000000E+00 -0.67673988214E+03  0.30732589374E+04  0.29978231482E+04 0.  0.
        2    1    3    3  502    0 -0.34377096927E+03 -0.68238788295E+03  0.98361576767E+03  0.12455246608E+04  0.25500000920E-02 0. -1.
       -2    1    3    3    0  502  0.34377096927E+03  0.68238788295E+03 -0.16603556498E+04  0.18277342766E+04  0.25500000920E-02 0.  1.
</event>
<event>
 5   0  0.1829810E-05  0.2901542E+04  0.7818609E-02  0.8272419E-01
        2   -1    0    0  501    0  0.00000000000E+00  0.00000000000E+00  0.15533593133E+04  0.15533593133E+04  0.25500000920E-02 0.  1.
       -2   -1    0    0    0  501  0.00000000000E+00  0.00000000000E+00 -0.13549577011E+04  0.13549577011E+04  0.25500000920E-02 0. -1.
    10030    2    1    2    0    0  0.00000000000E+00  0.00000000000E+00  0.19840161212E+03  0.29083170144E+04  0.29015417723E+04 0.  0.
        4    1    3    3  502    0  0.80733714797E+03  0.94513984385E+03 -0.65064493625E+03  0.14030050039E+04  0.12699999809E+01 0. -1.
       -4    1    3    3    0  502 -0.80733714797E+03 -0.94513984385E+03  0.84904654836E+03  0.15053120105E+04  0.12699999809E+01 0.  1.
</event>
<event>
 5   0  0.1937947E-05  0.1669856E+04  0.7818609E-02  0.8778746E-01
       -2   -1    0    0    0  501  0.00000000000E+00  0.00000000000E+00  0.42090401200E+03  0.42090401201E+03  0.25500000920E-02 0. -1.
        2   -1    0    0  501    0  0.00000000000E+00  0.00000000000E+00 -0.16562089242E+04  0.16562089242E+04  0.25500000920E-02 0.  1.
    10030    2    1    2    0    0  0.00000000000E+00  0.00000000000E+00 -0.12353049122E+04  0.20771129362E+04  0.16698562584E+04 0.  0.
        3    1    3    3  502    0 -0.26238954734E+03  0.48232158073E+03 -0.14000393418E+04  0.15038592190E+04  0.10100000352E+00 0.  1.
       -3    1    3    3    0  502  0.26238954734E+03 -0.48232158073E+03  0.16473442960E+03  0.57325371721E+03  0.10100000352E+00 0. -1.
</event>
<event>
 5   0  0.8055928E-06  0.2176578E+04  0.7818609E-02  0.8528241E-01
       -1   -1    0    0    0  501  0.00000000000E+00  0.00000000000E+00  0.74963966914E+03  0.74963966916E+03  0.50400001928E-02 0.  1.
        1   -1    0    0  501    0  0.00000000000E+00  0.00000000000E+00 -0.15799228530E+04  0.15799228530E+04  0.50400001928E-02 0. -1.
    10030    2    1    2    0    0  0.00000000000E+00  0.00000000000E+00 -0.83028318390E+03  0.23295625222E+04  0.21765779057E+04 0.  0.
        2    1    3    3  502    0 -0.13955538978E+03 -0.31236715418E+03 -0.15208695009E+04  0.15588755513E+04  0.25500000920E-02 0. -1.
       -2    1    3    3    0  502  0.13955538978E+03  0.31236715418E+03  0.69058631700E+03  0.77068697086E+03  0.25500000920E-02 0.  1.
</event>
<event>
 5   0  0.1918901E-05  0.2946125E+04  0.7818609E-02  0.8259285E-01
        2   -1    0    0  501    0  0.00000000000E+00  0.00000000000E+00  0.14588751027E+04  0.14588751027E+04  0.25500000920E-02 0.  1.
       -2   -1    0    0    0  501  0.00000000000E+00  0.00000000000E+00 -0.14873877701E+04  0.14873877701E+04  0.25500000920E-02 0. -1.
    10030    2    1    2    0    0  0.00000000000E+00  0.00000000000E+00 -0.28512667326E+02  0.29462628728E+04  0.29461249029E+04 0.  0.
        1    1    3    3  502    0  0.24292026880E+03  0.83097740454E+03 -0.12061088080E+04  0.14846656730E+04  0.50400001928E-02 0. -1.
       -1    1    3    3    0  502 -0.24292026880E+03 -0.83097740454E+03  0.11775961407E+04  0.14615971998E+04  0.50400001928E-02 0.  1.
</event>
<event>
 5   0  0.1829810E-05  0.2845565E+04  0.7818609E-02  0.8289260E-01
        2   -1    0    0  501    0  0.00000000000E+00  0.00000000000E+00  0.19804309842E+04  0.19804309842E+04  0.25500000920E-02 0.  1.
       -2   -1    0    0    0  501  0.00000000000E+00  0.00000000000E+00 -0.10221566499E+04  0.10221566499E+04  0.25500000920E-02 0. -1.
    10030    2    1    2    0    0  0.00000000000E+00  0.00000000000E+00  0.95827433435E+03  0.30025876341E+04  0.28455654624E+04 0.  0.
        4    1    3    3  502    0  0.54326009419E+03 -0.28770578830E+03 -0.87478960727E+03  0.10691887675E+04  0.12699999809E+01 0. -1.
       -4    1    3    3    0  502 -0.54326009419E+03  0.28770578830E+03  0.18330639416E+04  0.19333988666E+04  0.12699999809E+01 0.  1.
</event>
<event>
 5   0  0.8122088E-06  0.2733963E+04  0.7818609E-02  0.8324068E-01
       -1   -1    0    0    0  501  0.00000000000E+00  0.00000000000E+00  0.92795947767E+03  0.92795947768E+03  0.50400001928E-02 0.  1.
        1   -1    0    0  501    0  0.00000000000E+00  0.00000000000E+00 -0.20137074828E+04  0.20137074828E+04  0.50400001928E-02 0. -1.
    10030    2    1    2    0    0  0.00000000000E+00  0.00000000000E+00 -0.10857480051E+04  0.29416669604E+04  0.27339633823E+04 0.  0.
        1    1    3    3  502    0 -0.88923008708E+03 -0.10279255839E+04 -0.38592300897E+03  0.14129040033E+04  0.50400001928E-02 0. -1.
       -1    1    3    3    0  502  0.88923008708E+03  0.10279255839E+04 -0.69982499612E+03  0.15287629571E+04  0.50400001928E-02 0.  1.
</event>
<event>
 5   0  0.8055928E-06  0.1654930E+04  0.7818609E-02  0.8787495E-01
       -1   -1    0    0    0  501  0.00000000000E+00  0.00000000000E+00  0.87706817641E+03  0.87706817642E+03  0.50400001928E-02 0.  1.
        1   -1    0    0  501    0  0.00000000000E+00  0.00000000000E+00 -0.78066717953E+03  0.78066717955E+03  0.50400001928E-02 0. -1.
    10030    2    1    2    0    0  0.00000000000E+00  0.00000000000E+00  0.96400996875E+02  0.16577353560E+04  0.16549300161E+04 0.  0.
        2    1    3    3  502    0  0.65160477457E+02  0.24873930574E+03  0.83603306431E+03  0.87468189341E+03  0.25500000920E-02 0.  1.
       -2    1    3    3    0  502 -0.65160477457E+02 -0.24873930574E+03 -0.73963206743E+03  0.78305346256E+03  0.25500000920E-02 0. -1.
</event>
<event>
 5   0  0.7971153E-06  0.2870539E+04  0.7818609E-02  0.8281697E-01
       -1   -1    0    0    0  501  0.00000000000E+00  0.00000000000E+00  0.92106593852E+03  0.92106593854E+03  0.50400001928E-02 0.  1.
        1   -1    0    0  501    0  0.00000000000E+00  0.00000000000E+00 -0.22365367676E+04  0.22365367676E+04  0.50400001928E-02 0. -1.
    10030    2    1    2    0    0  0.00000000000E+00  0.00000000000E+00 -0.13154708291E+04  0.31576027061E+04  0.28705385118E+04 0.  0.
        5    1    3    3  502    0 -0.54412967475E+03 -0.10067575551E+04 -0.16105810315E+04  0.19757609234E+04  0.46999998093E+01 0. -1.
       -5    1    3    3    0  502  0.54412967475E+03  0.10067575551E+04  0.29511020240E+03  0.11818417827E+04  0.46999998093E+01 0.  1.
</event>
<event>
 5   0  0.8234888E-06  0.2871120E+04  0.7818609E-02  0.8281522E-01
        1   -1    0    0  501    0  0.00000000000E+00  0.00000000000E+00  0.21303013624E+04  0.21303013624E+04  0.50400001928E-02 0. -1.
       -1   -1    0    0    0  501  0.00000000000E+00  0.00000000000E+00 -0.96739043495E+03  0.96739043496E+03  0.50400001928E-02 0.  1.
    10030    2    1    2    0    0  0.00000000000E+00  0.00000000000E+00  0.11629109275E+04  0.30976917974E+04  0.28711204514E+04 0.  0.
        3    1    3    3  502    0 -0.73013837232E+03 -0.10233943058E+04 -0.16634567878E+03  0.12681123148E+04  0.10100000352E+00 0. -1.
       -3    1    3    3    0  502  0.73013837232E+03  0.10233943058E+04  0.13292566063E+04  0.18295794826E+04  0.10100000352E+00 0.  1.
</event>
<event>
 5   0  0.1829810E-05  0.2852909E+04  0.7818609E-02  0.8287028E-01
       -2   -1    0    0    0  501  0.00000000000E+00  0.00000000000E+00  0.84593111874E+03  0.84593111874E+03  0.25500000920E-02 0. -1.
        2   -1    0    0  501    0  0.00000000000E+00  0.00000000000E+00 -0.24053648535E+04  0.24053648535E+04  0.25500000920E-02 0.  1.
    10030    2    1    2    0    0  0.00000000000E+00  0.00000000000E+00 -0.15594337347E+04  0.32512959722E+04  0.28529093792E+04 0.  0.
        4    1    3    3  502    0  0.13148726508E+04  0.52305343717E+03 -0.57490954917E+03  0.15274153294E+04  0.12699999809E+01 0. -1.
       -4    1    3    3    0  502 -0.13148726508E+04 -0.52305343717E+03 -0.98452418557E+03  0.17238806428E+04  0.12699999809E+01 0.  1.
</event>
<event>
 5   0  0.8122088E-06  0.2860718E+04  0.7818609E-02  0.8284662E-01
       -1   -1    0    0    0  501  0.00000000000E+00  0.00000000000E+00  0.17282638359E+04  0.17282638359E+04  0.50400001928E-02 0. -1.
        1   -1    0    0  501    0  0.00000000000E+00  0.00000000000E+00 -0.11838043205E+04  0.11838043205E+04  0.50400001928E-02 0.  1.
    10030    2    1    2    0    0  0.00000000000E+00  0.00000000000E+00  0.54445951534E+03  0.29120681564E+04  0.28607175295E+04 0.  0.
        1    1    3    3  502    0 -0.11054062582E+04 -0.44265770062E+03 -0.53449653737E+03  0.13052031965E+04  0.50400001928E-02 0.  1.
       -1    1    3    3    0  502  0.11054062582E+04  0.44265770062E+03  0.10789560527E+04  0.16068649599E+04  0.50400001928E-02 0. -1.
</event>
<event>
 5   0  0.1960961E-05  0.2819713E+04  0.7818609E-02  0.8297174E-01
       -2   -1    0    0    0  501  0.00000000000E+00  0.00000000000E+00  0.75441478104E+03  0.75441478105E+03  0.25500000920E-02 0.  1.
        2   -1    0    0  501    0  0.00000000000E+00  0.00000000000E+00 -0.26347512560E+04  0.26347512560E+04  0.25500000920E-02 0. -1.
    10030    2    1    2    0    0  0.00000000000E+00  0.00000000000E+00 -0.18803364750E+04  0.33891660371E+04  0.28197129584E+04 0.  0.
        5    1    3    3  502    0  0.11258705661E+04 -0.81996172805E+03 -0.67751596780E+03  0.15488614347E+04  0.46999998093E+01 0.  1.
       -5    1    3    3    0  502 -0.11258705661E+04  0.81996172805E+03 -0.12028205072E+04  0.18403046024E+04  0.46999998093E+01 0. -1.
</event>
<event>
 5   0  0.1960961E-05  0.1706775E+04  0.7818609E-02  0.8757510E-01
        2   -1    0    0  501    0  0.00000000000E+00  0.00000000000E+00  0.17979489778E+04  0.17979489778E+04  0.25500000920E-02 0.  1.
       -2   -1    0    0    0  501  0.00000000000E+00  0.00000000000E+00 -0.40505603510E+03  0.40505603511E+03  0.25500000920E-02 0. -1.
    10030    2    1    2    0    0  0.00000000000E+00  0.00000000000E+00  0.13928929427E+04  0.22030050129E+04  0.17067748349E+04 0.  0.
        5    1    3    3  502    0  0.12840593692E+02 -0.83862345974E+03  0.49320569011E+03  0.97299955336E+03  0.46999998093E+01 0. -1.
       -5    1    3    3    0  502 -0.12840593692E+02  0.83862345974E+03  0.89968725261E+03  0.12300054596E+04  0.46999998093E+01 0.  1.
</event>
<event>
 5   0  0.1960961E-05  0.2852669E+04  0.7818609E-02  0.8287101E-01
       -2   -1    0    0    0  501  0.00000000000E+00  0.00000000000E+00  0.23925391551E+04  0.23925391551E+04  0.25500000920E-02 0. -1.
        2   -1    0    0  501    0  0.00000000000E+00  0.00000000000E+00 -0.85032263986E+03  0.85032263987E+03  0.25500000920E-02 0.  1.
    10030    2    1    2    0    0  0.00000000000E+00  0.00000000000E+00  0.15422165152E+04  0.32428617949E+04  0.28526690732E+04 0.  0.
        5    1    3    3  502    0 -0.83472088590E+02  0.44235882700E+02 -0.84675355627E+03  0.85201999856E+03  0.46999998093E+01 0.  1.
       -5    1    3    3    0  502  0.83472088590E+02 -0.44235882700E+02  0.23889700715E+04  0.23908417964E+04  0.46999998093E+01 0. -1.
</event>
<event>
 5   0  0.1976233E-05  0.1693529E+04  0.7818609E-02  0.8765064E-01
       -2   -1    0    0    0  501  0.00000000000E+00  0.00000000000E+00  0.43578334430E+03  0.43578334431E+03  0.25500000920E-02 0.  1.
        2   -1    0    0  501    0  0.00000000000E+00  0.00000000000E+00 -0.16453357251E+04  0.16453357251E+04  0.25500000920E-02 0. -1.
    10030    2    1    2    0    0  0.00000000000E+00  0.00000000000E+00 -0.12095523808E+04  0.20811190694E+04  0.16935287477E+04 0.  0.
        2    1    3    3  502    0  0.52289227756E+03  0.45984122620E+01  0.21366339326E+03  0.56488009785E+03  0.25500000920E-02 0.  1.
       -2    1    3    3    0  502 -0.52289227756E+03 -0.45984122620E+01 -0.14232157741E+04  0.15162389716E+04  0.25500000920E-02 0. -1.
</event>
<event>
 5   0  0.7305460E-06  0.2488863E+04  0.7818609E-02  0.8406964E-01
       -1   -1    0    0    0  501  0.00000000000E+00  0.00000000000E+00  0.21980002531E+04  0.21980002531E+04  0.50400001928E-02 0.  1.
        1   -1    0    0  501    0  0.00000000000E+00  0.00000000000E+00 -0.70455408991E+03  0.70455408993E+03  0.50400001928E-02 0. -1.
    10030    2    1    2    0    0  0.00000000000E+00  0.00000000000E+00  0.14934461631E+04  0.29025543430E+04  0.24888632489E+04 0.  0.
        4    1    3    3  502    0 -0.10587415145E+04  0.63832868010E+03  0.58092593298E+03  0.13659698573E+04  0.12699999809E+01 0. -1.
       -4    1    3    3    0  502  0.10587415145E+04 -0.63832868010E+03  0.91252023017E+03  0.15365844857E+04  0.12699999809E+01 0.  1.
</event>
<event>
 5   0  0.1918901E-05  0.2836188E+04  0.7818609E-02  0.8292121E-01
       -2   -1    0    0    0  501  0.00000000000E+00  0.00000000000E+00  0.13586604036E+04  0.13586604037E+04  0.25500000920E-02 0. -1.
        2   -1    0    0  501    0  0.00000000000E+00  0.00000000000E+00 -0.14801272520E+04  0.14801272520E+04  0.25500000920E-02 0.  1.
    10030    2    1    2    0    0  0.00000000000E+00  0.00000000000E+00 -0.12146684835E+03  0.28387876557E+04  0.28361877862E+04 0.  0.
        1    1    3    3  502    0  0.54892821825E+03  0.13051366206E+04 -0.14009357182E+03  0.14227895122E+04  0.50400001928E-02 0. -1.
       -1    1    3    3    0  502 -0.54892821825E+03 -0.13051366206E+04  0.18626723472E+02  0.14159981434E+04  0.50400001928E-02 0.  1.
</event>
<event>
 5   0  0.1960961E-05  0.2920935E+04  0.7818609E-02  0.8266676E-01
        2   -1    0    0  501    0  0.00000000000E+00  0.00000000000E+00  0.19258259515E+04  0.19258259515E+04  0.25500000920E-02 0. -1.
       -2   -1    0    0    0  501  0.00000000000E+00  0.00000000000E+00 -0.11075588004E+04  0.11075588004E+04  0.25500000920E-02 0.  1.
    10030    2    1    2    0    0  0.00000000000E+00  0.00000000000E+00  0.81826715109E+03  0.30333847519E+04  0.29209351110E+04 0.  0.
        5    1    3    3  502    0  0.36240057790E+03 -0.10115957942E+04 -0.61802590559E+03  0.12396121731E+04  0.46999998093E+01 0.  1.
       -5    1    3    3    0  502 -0.36240057790E+03  0.10115957942E+04  0.14362930567E+04  0.17937725788E+04  0.46999998093E+01 0. -1.
</event>
<event>
 5   0  0.1829810E-05  0.2925176E+04  0.7818609E-02  0.8265426E-01
        2   -1    0    0  501    0  0.00000000000E+00  0.00000000000E+00  0.23466378439E+04  0.23466378439E+04  0.25500000920E-02 0. -1.
       -2   -1    0    0    0  501  0.00000000000E+00  0.00000000000E+00 -0.91158667609E+03  0.91158667610E+03  0.25500000920E-02 0.  1.
    10030    2    1    2    0    0  0.00000000000E+00  0.00000000000E+00  0.14350511678E+04  0.32582245200E+04  0.29251760919E+04 0.  0.
        4    1    3    3  502    0  0.12905451090E+04 -0.29495239310E+02  0.14834062060E+04  0.19664364298E+04  0.12699999809E+01 0. -1.
       -4    1    3    3    0  502 -0.12905451090E+04  0.29495239310E+02 -0.48355038207E+02  0.12917880902E+04  0.12699999809E+01 0.  1.
</event>
<event>
 5   0  0.1937947E-05  0.2865586E+04  0.7818609E-02  0.8283191E-01
        2   -1    0    0  501    0  0.00000000000E+00  0.00000000000E+00  0.10199463260E+04  0.10199463260E+04  0.25500000920E-02 0.  1.
       -2   -1    0    0    0  501  0.00000000000E+00  0.00000000000E+00 -0.20127486616E+04  0.20127486616E+04  0.25500000920E-02 0. -1.
    10030    2    1    2    0    0  0.00000000000E+00  0.00000000000E+00 -0.99280233554E+03  0.30326949876E+04  0.28655858756E+04 0.  0.
        3    1    3    3  502    0 -0.29341484010E+03 -0.13018127106E+04 -0.10484394479E+04  0.16970662591E+04  0.10100000352E+00 0. -1.
       -3    1    3    3    0  502  0.29341484010E+03  0.13018127106E+04  0.55637112327E+02  0.13356287285E+04  0.10100000352E+00 0.  1.
</event>
<event>
 5   0  0.1960961E-05  0.2978059E+04  0.7818609E-02  0.8250024E-01
        2   -1    0    0  501    0  0.00000000000E+00  0.00000000000E+00  0.18577737285E+04  0.18577737285E+04  0.25500000920E-02 0. -1.
       -2   -1    0    0    0  501  0.00000000000E+00  0.00000000000E+00 -0.11934763605E+04  0.11934763605E+04  0.25500000920E-02 0.  1.
    10030    2    1    2    0    0  0.00000000000E+00  0.00000000000E+00  0.66429736794E+03  0.30512500890E+04  0.29780591184E+04 0.  0.
        5    1    3    3  502    0 -0.45562081174E+03  0.13918158095E+04  0.60792044788E+03  0.15856641929E+04  0.46999998093E+01 0. -1.
       -5    1    3    3    0  502  0.45562081174E+03 -0.13918158095E+04  0.56376920059E+02  0.14655858961E+04  0.46999998093E+01 0.  1.
</event>
<event>
 5   0  0.7305460E-06  0.2340354E+04  0.7818609E-02  0.8462178E-01
        1   -1    0    0  501    0  0.00000000000E+00  0.00000000000E+00  0.13593209448E+04  0.13593209448E+04  0.50400001928E-02 0. -1.
       -1   -1    0    0    0  501  0.00000000000E+00  0.00000000000E+00 -0.10073513858E+04  0.10073513858E+04  0.50400001928E-02 0.  1.
    10030    2    1    2    0    0  0.00000000000E+00  0.00000000000E+00  0.35196955896E+03  0.23666723306E+04  0.23403536805E+04 0.  0.
        4    1    3    3  502    0 -0.74356961405E+03  0.60559296333E+03 -0.50213333028E+03  0.10824869987E+04  0.12699999809E+01 0.  1.
       -4    1    3    3    0  502  0.74356961405E+03 -0.60559296333E+03  0.85410288925E+03  0.12841853318E+04  0.12699999809E+01 0. -1.
</event>
<event>
 5   0  0.8234888E-06  0.2893896E+04  0.7818609E-02  0.8274696E-01
       -1   -1    0    0    0  501  0.00000000000E+00  0.00000000000E+00  0.96508846273E+03  0.96508846275E+03  0.50400001928E-02 0. -1.
        1   -1    0    0  501    0  0.00000000000E+00  0.00000000000E+00 -0.21693954763E+04  0.21693954763E+04  0.50400001928E-02 0.  1.
    10030    2    1    2    0    0  0.00000000000E+00  0.00000000000E+00 -0.12043070135E+04  0.31344839390E+04  0.28938960211E+04 0.  0.
        3    1    3    3  502    0 -0.26980647191E+03  0.97882017153E+03  0.51446186445E+03  0.11382247057E+04  0.10100000352E+00 0. -1.
       -3    1    3    3    0  502  0.26980647191E+03 -0.97882017153E+03 -0.17187688780E+04  0.19962592333E+04  0.10100000352E+00 0.  1.
</event>
<event>
 5   0  0.7971153E-06  0.2382618E+04  0.7818609E-02  0.8446040E-01
       -1   -1    0    0    0  501  0.00000000000E+00  0.00000000000E+00  0.11269860214E+04  0.11269860214E+04  0.50400001928E-02 0. -1.
        1   -1    0    0  501    0  0.00000000000E+00  0.00000000000E+00 -0.12593029164E+04  0.12593029164E+04  0.50400001928E-02 0.  1.
    10030    2    1    2    0    0  0.00000000000E+00  0.00000000000E+00 -0.13231689501E+03  0.23862889378E+04  0.23826177062E+04 0.  0.
        5    1    3    3  502    0 -0.11017595483E+04 -0.43850470990E+03  0.48184933916E+02  0.11868042639E+04  0.46999998093E+01 0.  1.
       -5    1    3    3    0  502  0.11017595483E+04  0.43850470990E+03 -0.18050182893E+03  0.11994846740E+04  0.46999998093E+01 0. -1.
</event>
<event>
 5   0  0.1918901E-05  0.2942708E+04  0.7818609E-02  0.8260283E-01
        2   -1    0    0  501    0  0.00000000000E+00  0.00000000000E+00  0.23091448146E+04  0.23091448146E+04  0.25500000920E-02 0.  1.
       -2   -1    0    0    0  501  0.00000000000E+00  0.00000000000E+00 -0.93752583736E+03  0.93752583737E+03  0.25500000920E-02 0. -1.
    10030    2    1    2    0    0  0.00000000000E+00  0.00000000000E+00  0.13716189772E+04  0.32466706519E+04  0.29427082260E+04 0.  0.
        1    1    3    3  502    0  0.18588216515E+03  0.41539961522E+03  0.22295428860E+04  0.22755154362E+04  0.50400001928E-02 0.  1.
       -1    1    3    3    0  502 -0.18588216515E+03 -0.41539961522E+03 -0.85792390885E+03  0.97115521573E+03  0.50400001928E-02 0. -1.
</event>
<event>
 5   0  0.1960961E-05  0.2477388E+04  0.7818609E-02  0.8411086E-01
        2   -1    0    0  501    0  0.00000000000E+00  0.00000000000E+00  0.26514610631E+04  0.26514610631E+04  0.25500000920E-02 0.  1.
       -2   -1    0    0    0  501  0.00000000000E+00  0.00000000000E+00 -0.57868563273E+03  0.57868563274E+03  0.25500000920E-02 0. -1.
    10030    2    1    2    0    0  0.00000000000E+00  0.00000000000E+00  0.20727754304E+04  0.32301466959E+04  0.24773876749E+04 0.  0.
        5    1    3    3  502    0 -0.95168495359E+03  0.45408012282E+03  0.18893679569E+03  0.10712666389E+04  0.46999998093E+01 0. -1.
       -5    1    3    3    0  502  0.95168495359E+03 -0.45408012282E+03  0.18838386347E+04  0.21588800570E+04  0.46999998093E+01 0.  1.
</event>
<event>
 5   0  0.7971153E-06  0.2883350E+04  0.7818609E-02  0.8277849E-01
        1   -1    0    0  501    0  0.00000000000E+00  0.00000000000E+00  0.16711859159E+04  0.16711859159E+04  0.50400001928E-02 0.  1.
       -1   -1    0    0    0  501  0.00000000000E+00  0.00000000000E+00 -0.12436837908E+04  0.12436837908E+04  0.50400001928E-02 0. -1.
    10030    2    1    2    0    0  0.00000000000E+00  0.00000000000E+00  0.42750212508E+03  0.29148697067E+04  0.28833500204E+04 0.  0.
        5    1    3    3  502    0  0.11660658836E+04 -0.84536716952E+03  0.14942014597E+03  0.14479999193E+04  0.46999998093E+01 0.  1.
       -5    1    3    3    0  502 -0.11660658836E+04  0.84536716952E+03  0.27808197911E+03  0.14668697874E+04  0.46999998093E+01 0. -1.
</event>
<event>
 5   0  0.8122088E-06  0.2935542E+04  0.7818609E-02  0.8262380E-01
        1   -1    0    0  501    0  0.00000000000E+00  0.00000000000E+00  0.27452992981E+04  0.27452992981E+04  0.50400001928E-02 0. -1.
       -1   -1    0    0    0  501  0.00000000000E+00  0.00000000000E+00 -0.78474217804E+03  0.78474217806E+03  0.50400001928E-02 0.  1.
    10030    2    1    2    0    0  0.00000000000E+00  0.00000000000E+00  0.19605571200E+04  0.35300414761E+04  0.29355423012E+04 0.  0.
        1    1    3    3  502    0 -0.59039800548E+03  0.43110249571E+03  0.25108020146E+04  0.26150613612E+04  0.50400001928E-02 0. -1.
       -1    1    3    3    0  502  0.59039800548E+03 -0.43110249571E+03 -0.55024489453E+03  0.91498011490E+03  0.50400001928E-02 0.  1.
</event>
<event>
 5   0  0.1829810E-05  0.2680332E+04  0.7818609E-02  0.8341415E-01
        2   -1    0    0  501    0  0.00000000000E+00  0.00000000000E+00  0.19294974063E+04  0.19294974063E+04  0.25500000920E-02 0. -1.
       -2   -1    0    0    0  501  0.00000000000E+00  0.00000000000E+00 -0.93083544770E+03  0.93083544770E+03  0.25500000920E-02 0.  1.
    10030    2    1    2    0    0  0.00000000000E+00  0.00000000000E+00  0.99866195865E+03  0.28603328541E+04  0.26803317571E+04 0.  0.
        4    1    3    3  502    0  0.10217774114E+02  0.13399501769E+04  0.47614420609E+03  0.14220709537E+04  0.12699999809E+01 0. -1.
       -4    1    3    3    0  502 -0.10217774114E+02 -0.13399501769E+04  0.52251775256E+03  0.14382619004E+04  0.12699999809E+01 0.  1.
</event>
<event>
 5   0  0.8122088E-06  0.2664893E+04  0.7818609E-02  0.8346487E-01
        1   -1    0    0  501    0  0.00000000000E+00  0.00000000000E+00  0.24910992797E+04  0.24910992797E+04  0.50400001928E-02 0. -1.
       -1   -1    0    0    0  501  0.00000000000E+00  0.00000000000E+00 -0.71270266966E+03  0.71270266968E+03  0.50400001928E-02 0.  1.
    10030    2    1    2    0    0  0.00000000000E+00  0.00000000000E+00  0.17783966101E+04  0.32038019494E+04  0.26648925735E+04 0.  0.
        1    1    3    3  502    0  0.10790799619E+04 -0.68317108187E+03  0.43254749829E+03  0.13484189369E+04  0.50400001928E-02 0.  1.
       -1    1    3    3    0  502 -0.10790799619E+04  0.68317108187E+03  0.13458491118E+04  0.18553830125E+04  0.50400001928E-02 0. -1.
</event>
<event>
 5   0  0.1829810E-05  0.2866145E+04  0.7818609E-02  0.8283022E-01
       -2   -1    0    0    0  501  0.00000000000E+00  0.00000000000E+00  0.11968003065E+04  0.11968003065E+04  0.25500000920E-02 0. -1.
        2   -1    0    0  501    0  0.00000000000E+00  0.00000000000E+00 -0.17159896472E+04  0.17159896472E+04  0.25500000920E-02 0.  1.
    10030    2    1    2    0    0  0.00000000000E+00  0.00000000000E+00 -0.51918934064E+03  0.29127899537E+04  0.28661451015E+04 0.  0.
        4    1    3    3  502    0 -0.16205260829E+03 -0.38792660130E+03 -0.16519081437E+04  0.17045674595E+04  0.12699999809E+01 0.  1.
       -4    1    3    3    0  502  0.16205260829E+03  0.38792660130E+03  0.11327188031E+04  0.12082224942E+04  0.12699999809E+01 0. -1.
</event>
<event>
 5   0  0.1918901E-05  0.2881526E+04  0.7818609E-02  0.8278395E-01
       -2   -1    0    0    0  501  0.00000000000E+00  0.00000000000E+00  0.12013142925E+04  0.12013142925E+04  0.25500000920E-02 0. -1.
        2   -1    0    0  501    0  0.00000000000E+00  0.00000000000E+00 -0.17279391308E+04  0.17279391308E+04  0.25500000920E-02 0.  1.
    10030    2    1    2    0    0  0.00000000000E+00  0.00000000000E+00 -0.52662483827E+03  0.29292534234E+04  0.28815259669E+04 0.  0.
        1    1    3    3  502    0  0.30064450945E+03  0.13996355264E+04 -0.42858211696E+03  0.14943391043E+04  0.50400001928E-02 0.  1.
       -1    1    3    3    0  502 -0.30064450945E+03 -0.13996355264E+04 -0.98042721316E+02  0.14349143190E+04  0.50400001928E-02 0. -1.
</event>
<event>
 5   0  0.1960961E-05  0.2880973E+04  0.7818609E-02  0.8278561E-01
       -2   -1    0    0    0  501  0.00000000000E+00  0.00000000000E+00  0.21429367286E+04  0.21429367286E+04  0.25500000920E-02 0.  1.
        2   -1    0    0  501    0  0.00000000000E+00  0.00000000000E+00 -0.96829809886E+03  0.96829809886E+03  0.25500000920E-02 0. -1.
    10030    2    1    2    0    0  0.00000000000E+00  0.00000000000E+00  0.11746386297E+04  0.31112348274E+04  0.28809731413E+04 0.  0.
        5    1    3    3  502    0  0.45802758986E+02 -0.68520440175E+03 -0.78013032115E+03  0.10393403547E+04  0.46999998093E+01 0. -1.
       -5    1    3    3    0  502 -0.45802758986E+02  0.68520440175E+03  0.19547689509E+04  0.20718944727E+04  0.46999998093E+01 0.  1.
</event>
<event>
 5   0  0.8122088E-06  0.1554103E+04  0.7818609E-02  0.8849251E-01
        1   -1    0    0  501    0  0.00000000000E+00  0.00000000000E+00  0.48381025043E+03  0.48381025046E+03  0.50400001928E-02 0.  1.
       -1   -1    0    0    0  501  0.00000000000E+00  0.00000000000E+00 -0.12480286757E+04  0.12480286757E+04  0.50400001928E-02 0. -1.
    10030    2    1    2    0    0  0.00000000000E+00  0.00000000000E+00 -0.76421842529E+03  0.17318389262E+04  0.15541030419E+04 0.  0.
        1    1    3    3  502    0 -0.48093226527E+03 -0.44568194164E+02 -0.10604337965E+04  0.11652476151E+04  0.50400001928E-02 0. -1.
       -1    1    3    3    0  502  0.48093226527E+03  0.44568194164E+02  0.29621537117E+03  0.56659131113E+03  0.50400001928E-02 0.  1.
</event>
<event>
 5   0  0.6578125E-06  0.3070924E+04  0.7818609E-02  0.8223763E-01
       -3   -1    0    0    0  501  0.00000000000E+00  0.00000000000E+00  0.10440818692E+04  0.10440818741E+04  0.10100000352E+00 0.  1.
        3   -1    0    0  501    0  0.00000000000E+00  0.00000000000E+00 -0.22581023762E+04  0.22581023785E+04  0.10100000352E+00 0. -1.
    10030    2    1    2    0    0  0.00000000000E+00  0.00000000000E+00 -0.12140205070E+04  0.33021842526E+04  0.30709241356E+04 0.  0.
        3    1    3    3  502    0 -0.10866395934E+04  0.52691214561E+03  0.41267376441E+03  0.12762137992E+04  0.10100000352E+00 0.  1.
       -3    1    3    3    0  502  0.10866395934E+04 -0.52691214561E+03 -0.16266942714E+04  0.20259704534E+04  0.10100000352E+00 0. -1.
</event>
<event>
 5   0  0.1829810E-05  0.2031975E+04  0.7818609E-02  0.8591816E-01
       -2   -1    0    0    0  501  0.00000000000E+00  0.00000000000E+00  0.36650931815E+03  0.36650931816E+03  0.25500000920E-02 0. -1.
        2   -1    0    0  501    0  0.00000000000E+00  0.00000000000E+00 -0.28163829741E+04  0.28163829741E+04  0.25500000920E-02 0.  1.
    10030    2    1    2    0    0  0.00000000000E+00  0.00000000000E+00 -0.24498736560E+04  0.31828922923E+04  0.20319750033E+04 0.  0.
        4    1    3    3  502    0  0.77963779244E+03 -0.43480869973E+03 -0.46505314796E+03  0.10065633294E+04  0.12699999809E+01 0. -1.
       -4    1    3    3    0  502 -0.77963779244E+03  0.43480869973E+03 -0.19848205080E+04  0.21763289629E+04  0.12699999809E+01 0.  1.
</event>
<event>
 5   0  0.7305460E-06  0.2922897E+04  0.7818609E-02  0.8266097E-01
        1   -1    0    0  501    0  0.00000000000E+00  0.00000000000E+00  0.14609384867E+04  0.14609384867E+04  0.50400001928E-02 0. -1.
       -1   -1    0    0    0  501  0.00000000000E+00  0.00000000000E+00 -0.14619589685E+04  0.14619589685E+04  0.50400001928E-02 0.  1.
    10030    2    1    2    0    0  0.00000000000E+00  0.00000000000E+00 -0.10204818770E+01  0.29228974552E+04  0.29228972771E+04 0.  0.
        4    1    3    3  502    0 -0.10949948945E+04 -0.24135127077E+03 -0.93782895006E+03  0.14617759771E+04  0.12699999809E+01 0.  1.
       -4    1    3    3    0  502  0.10949948945E+04  0.24135127077E+03  0.93680846819E+03  0.14611214781E+04  0.12699999809E+01 0. -1.
</event>
<event>
 5   0  0.1829810E-05  0.2845596E+04  0.7818609E-02  0.8289251E-01
       -2   -1    0    0    0  501  0.00000000000E+00  0.00000000000E+00  0.94144117704E+03  0.94144117704E+03  0.25500000920E-02 0. -1.
        2   -1    0    0  501    0  0.00000000000E+00  0.00000000000E+00 -0.21502707625E+04  0.21502707625E+04  0.25500000920E-02 0.  1.
    10030    2    1    2    0    0  0.00000000000E+00  0.00000000000E+00 -0.12088295854E+04  0.30917119395E+04  0.28455955001E+04 0.  0.
        4    1    3    3  502    0 -0.61618352829E+03  0.43170655372E+03 -0.19164611110E+04  0.20588534411E+04  0.12699999809E+01 0.  1.
       -4    1    3    3    0  502  0.61618352829E+03 -0.43170655372E+03  0.70763152551E+03  0.10328584985E+04  0.12699999809E+01 0. -1.
</event>
<event>
 5   0  0.8055928E-06  0.2937068E+04  0.7818609E-02  0.8261933E-01
       -1   -1    0    0    0  501  0.00000000000E+00  0.00000000000E+00  0.13318967420E+04  0.13318967420E+04  0.50400001928E-02 0.  1.
        1   -1    0    0  501    0  0.00000000000E+00  0.00000000000E+00 -0.16191887592E+04  0.16191887592E+04  0.50400001928E-02 0. -1.
    10030    2    1    2    0    0  0.00000000000E+00  0.00000000000E+00 -0.28729201724E+03  0.29510855012E+04  0.29370680844E+04 0.  0.
        2    1    3    3  502    0  0.39335236665E+03 -0.12176777323E+04 -0.86758942707E+03  0.15460195853E+04  0.25500000920E-02 0. -1.
       -2    1    3    3    0  502 -0.39335236665E+03  0.12176777323E+04  0.58029740983E+03  0.14050659159E+04  0.25500000920E-02 0.  1.
</event>
<event>
 5   0  0.1918901E-05  0.2792731E+04  0.7818609E-02  0.8305529E-01
        2   -1    0    0  501    0  0.00000000000E+00  0.00000000000E+00  0.25655074126E+04  0.25655074126E+04  0.25500000920E-02 0. -1.
       -2   -1    0    0    0  501  0.00000000000E+00  0.00000000000E+00 -0.76002002562E+03  0.76002002562E+03  0.25500000920E-02 0.  1.
    10030    2    1    2    0    0  0.00000000000E+00  0.00000000000E+00  0.18054873870E+04  0.33255274382E+04  0.27927312864E+04 0.  0.
        1    1    3    3  502    0 -0.30609828702E+03  0.50004335959E+03 -0.60635393401E+03  0.84344805181E+03  0.50400001928E-02 0.  1.
       -1    1    3    3    0  502  0.30609828702E+03 -0.50004335959E+03  0.24118413210E+04  0.24820793864E+04  0.50400001928E-02 0. -1.
</event>
<event>
 5   0  0.8234888E-06  0.2173387E+04  0.7818609E-02  0.8529587E-01
        1   -1    0    0  501    0  0.00000000000E+00  0.00000000000E+00  0.66464399962E+03  0.66464399964E+03  0.50400001928E-02 0.  1.
       -1   -1    0    0    0  501  0.00000000000E+00  0.00000000000E+00 -0.17767445659E+04  0.17767445659E+04  0.50400001928E-02 0. -1.
    10030    2    1    2    0    0  0.00000000000E+00  0.00000000000E+00 -0.11121005663E+04  0.24413885655E+04  0.21733868635E+04 0.  0.
        3    1    3    3  502    0 -0.48306815836E+01 -0.45279655208E+03  0.55361606159E+03  0.71521941172E+03  0.10100000352E+00 0.  1.
       -3    1    3    3    0  502  0.48306815836E+01  0.45279655208E+03 -0.16657166278E+04  0.17261691538E+04  0.10100000352E+00 0. -1.
</event>
<event>
 5   0  0.8122088E-06  0.2970518E+04  0.7818609E-02  0.8252200E-01
       -1   -1    0    0    0  501  0.00000000000E+00  0.00000000000E+00  0.13791073319E+04  0.13791073319E+04  0.50400001928E-02 0. -1.
        1   -1    0    0  501    0  0.00000000000E+00  0.00000000000E+00 -0.15995807980E+04  0.15995807980E+04  0.50400001928E-02 0.  1.
    10030    2    1    2    0    0  0.00000000000E+00  0.00000000000E+00 -0.22047346612E+03  0.29786881300E+04  0.29705175351E+04 0.  0.
        1    1    3    3  502    0  0.44133215047E+03  0.19799352146E+03  0.12979114635E+04  0.13851172040E+04  0.50400001928E-02 0. -1.
       -1    1    3    3    0  502 -0.44133215047E+03 -0.19799352146E+03 -0.15183849296E+04  0.15935709260E+04  0.50400001928E-02 0.  1.
</event>
<event>
 5   0  0.8234888E-06  0.2834373E+04  0.7818609E-02  0.8292676E-01
        1   -1    0    0  501    0  0.00000000000E+00  0.00000000000E+00  0.13686759573E+04  0.13686759574E+04  0.50400001928E-02 0. -1.
       -1   -1    0    0    0  501  0.00000000000E+00  0.00000000000E+00 -0.14674167167E+04  0.14674167167E+04  0.50400001928E-02 0.  1.
    10030    2    1    2    0    0  0.00000000000E+00  0.00000000000E+00 -0.98740759347E+02  0.28360926741E+04  0.28343732849E+04 0.  0.
        3    1    3    3  502    0 -0.97005949678E+03 -0.65949963058E+03 -0.84512809528E+03  0.14457512572E+04  0.10100000352E+00 0. -1.
       -3    1    3    3    0  502  0.97005949678E+03  0.65949963058E+03  0.74638733593E+03  0.13903414169E+04  0.10100000352E+00 0.  1.
</event>
<event>
 5   0  0.1937947E-05  0.2939700E+04  0.7818609E-02  0.8261163E-01
        2   -1    0    0  501    0  0.00000000000E+00  0.00000000000E+00  0.13254404169E+04  0.13254404169E+04  0.25500000920E-02 0.  1.
       -2   -1    0    0    0  501  0.00000000000E+00  0.00000000000E+00 -0.16299932379E+04  0.16299932379E+04  0.25500000920E-02 0. -1.
    10030    2    1    2    0    0  0.00000000000E+00  0.00000000000E+00 -0.30455282093E+03  0.29554336548E+04  0.29396999281E+04 0.  0.
        3    1    3    3  502    0  0.40414850090E+03 -0.66877619719E+03  0.10993209222E+04  0.13487416776E+04  0.10100000352E+00 0.  1.
       -3    1    3    3    0  502 -0.40414850090E+03  0.66877619719E+03 -0.14038737431E+04  0.16066919772E+04  0.10100000352E+00 0. -1.
</event>
<event>
 5   0  0.1976233E-05  0.2823198E+04  0.7818609E-02  0.8296102E-01
        2   -1    0    0  501    0  0.00000000000E+00  0.00000000000E+00  0.11242585129E+04  0.11242585129E+04  0.25500000920E-02 0.  1.
       -2   -1    0    0    0  501  0.00000000000E+00  0.00000000000E+00 -0.17723782058E+04  0.17723782058E+04  0.25500000920E-02 0. -1.
    10030    2    1    2    0    0  0.00000000000E+00  0.00000000000E+00 -0.64811969295E+03  0.28966367187E+04  0.28231976806E+04 0.  0.
        2    1    3    3  502    0  0.28668579760E+03 -0.27469428638E+03 -0.17139059223E+04  0.17592950884E+04  0.25500000920E-02 0. -1.
       -2    1    3    3    0  502 -0.28668579760E+03  0.27469428638E+03  0.10657862293E+04  0.11373416304E+04  0.25500000920E-02 0.  1.
</event>
<event>
 5   0  0.7305460E-06  0.2912545E+04  0.7818609E-02  0.8269155E-01
        1   -1    0    0  501    0  0.00000000000E+00  0.00000000000E+00  0.13783144266E+04  0.13783144266E+04  0.50400001928E-02 0.  1.
       -1   -1    0    0    0  501  0.00000000000E+00  0.00000000000E+00 -0.15386394779E+04  0.15386394779E+04  0.50400001928E-02 0. -1.
    10030    2    1    2    0    0  0.00000000000E+00  0.00000000000E+00 -0.16032505129E+03  0.29169539045E+04  0.29125445849E+04 0.  0.
        4    1    3    3  502    0 -0.77589960209E+03 -0.14104823245E+03  0.11459509027E+04  0.13910858639E+04  0.12699999809E+01 0.  1.
       -4    1    3    3    0  502  0.77589960209E+03  0.14104823245E+03 -0.13062759540E+04  0.15258680406E+04  0.12699999809E+01 0. -1.
</event>
<event>
 5   0  0.1829810E-05  0.2879817E+04  0.7818609E-02  0.8278908E-01
       -2   -1    0    0    0  501  0.00000000000E+00  0.00000000000E+00  0.14295548214E+04  0.14295548214E+04  0.25500000920E-02 0.  1.
        2   -1    0    0  501    0  0.00000000000E+00  0.00000000000E+00 -0.14503374156E+04  0.14503374156E+04  0.25500000920E-02 0. -1.
    10030    2    1    2    0    0  0.00000000000E+00  0.00000000000E+00 -0.20782594200E+02  0.28798922370E+04  0.28798172477E+04 0.  0.
        4    1    3    3  502    0 -0.41190099838E+03 -0.84546734454E+03 -0.11007672344E+04  0.14478147604E+04  0.12699999809E+01 0. -1.
       -4    1    3    3    0  502  0.41190099838E+03  0.84546734454E+03  0.10799846402E+04  0.14320774766E+04  0.12699999809E+01 0.  1.
</event>
<event>
 5   0  0.1960961E-05  0.1857864E+04  0.7818609E-02  0.8676119E-01
       -2   -1    0    0    0  501  0.00000000000E+00  0.00000000000E+00  0.76845423747E+03  0.76845423748E+03  0.25500000920E-02 0. -1.
        2   -1    0    0  501    0  0.00000000000E+00  0.00000000000E+00 -0.11229222716E+04  0.11229222716E+04  0.25500000920E-02 0.  1.
    10030    2    1    2    0    0  0.00000000000E+00  0.00000000000E+00 -0.35446803412E+03  0.18913765091E+04  0.18578636957E+04 0.  0.
        5    1    3    3  502    0 -0.68368550861E+03  0.54701850154E+03 -0.49305106468E+03  0.10048763895E+04  0.46999998093E+01 0.  1.
       -5    1    3    3    0  502  0.68368550861E+03 -0.54701850154E+03  0.13858303056E+03  0.88650011961E+03  0.46999998093E+01 0. -1.
</event>
<event>
 5   0  0.7305460E-06  0.2932566E+04  0.7818609E-02  0.8263254E-01
        1   -1    0    0  501    0  0.00000000000E+00  0.00000000000E+00  0.16515232046E+04  0.16515232046E+04  0.50400001928E-02 0. -1.
       -1   -1    0    0    0  501  0.00000000000E+00  0.00000000000E+00 -0.13018195073E+04  0.13018195073E+04  0.50400001928E-02 0.  1.
    10030    2    1    2    0    0  0.00000000000E+00  0.00000000000E+00  0.34970369723E+03  0.29533427119E+04  0.29325655147E+04 0.  0.
        4    1    3    3  502    0  0.52328715174E+03 -0.10093042245E+04  0.11074033326E+04  0.15870942678E+04  0.12699999809E+01 0. -1.
       -4    1    3    3    0  502 -0.52328715174E+03  0.10093042245E+04 -0.75769963538E+03  0.13662484442E+04  0.12699999809E+01 0.  1.
</event>
<event>
 5   0  0.1829810E-05  0.2205411E+04  0.7818609E-02  0.8516179E-01
        2   -1    0    0  501    0  0.00000000000E+00  0.00000000000E+00  0.14400322580E+04  0.14400322580E+04  0.25500000920E-02 0. -1.
       -2   -1    0    0    0  501  0.00000000000E+00  0.00000000000E+00 -0.84439733674E+03  0.84439733675E+03  0.25500000920E-02 0.  1.
    10030    2    1    2    0    0  0.00000000000E+00  0.00000000000E+00  0.59563492125E+03  0.22844295947E+04  0.22054109853E+04 0.  0.
        4    1    3    3  502    0 -0.84439165020E+03 -0.46175384909E+02 -0.43523102917E+03  0.95108206100E+03  0.12699999809E+01 0.  1.
       -4    1    3    3    0  502  0.84439165020E+03  0.46175384909E+02  0.10308659504E+04  0.13333475337E+04  0.12699999809E+01 0. -1.
</event>
<event>
 5   0  0.8122088E-06  0.2985726E+04  0.7818609E-02  0.8247819E-01
       -1   -1    0    0    0  501  0.00000000000E+00  0.00000000000E+00  0.18693066385E+04  0.18693066385E+04  0.50400001928E-02 0.  1.
        1   -1    0    0  501    0  0.00000000000E+00  0.00000000000E+00 -0.11922279138E+04  0.11922279138E+04  0.50400001928E-02 0. -1.
    10030    2    1    2    0    0  0.00000000000E+00  0.00000000000E+00  0.67707872474E+03  0.30615345523E+04  0.29857257435E+04 0.  0.
        1    1    3    3  502    0 -0.13509573216E+04  0.63477927943E+03  0.31323204207E+03  0.15251703940E+04  0.50400001928E-02 0. -1.
       -1    1    3    3    0  502  0.13509573216E+04 -0.63477927943E+03  0.36384668267E+03  0.15363641583E+04  0.50400001928E-02 0.  1.
</event>
<event>
 5   0  0.1918901E-05  0.2570149E+04  0.7818609E-02  0.8378412E-01
       -2   -1    0    0    0  501  0.00000000000E+00  0.00000000000E+00  0.62265199957E+03  0.62265199958E+03  0.25500000920E-02 0. -1.
        2   -1    0    0  501    0  0.00000000000E+00  0.00000000000E+00 -0.26522308409E+04  0.26522308409E+04  0.25500000920E-02 0.  1.
    10030    2    1    2    0    0  0.00000000000E+00  0.00000000000E+00 -0.20295788413E+04  0.32748828405E+04  0.25701492847E+04 0.  0.
        1    1    3    3  502    0  0.82589103714E+02 -0.78513465792E+03  0.27722586798E+03  0.83672670151E+03  0.50400001928E-02 0. -1.
       -1    1    3    3    0  502 -0.82589103714E+02  0.78513465792E+03 -0.23068047093E+04  0.24381561390E+04  0.50400001928E-02 0.  1.
</event>
<event>
 5   0  0.7305460E-06  0.1454233E+04  0.7818609E-02  0.8915471E-01
       -1   -1    0    0    0  501  0.00000000000E+00  0.00000000000E+00  0.33955283611E+03  0.33955283614E+03  0.50400001928E-02 0. -1.
        1   -1    0    0  501    0  0.00000000000E+00  0.00000000000E+00 -0.15570434855E+04  0.15570434856E+04  0.50400001928E-02 0.  1.
    10030    2    1    2    0    0  0.00000000000E+00  0.00000000000E+00 -0.12174906494E+04  0.18965963217E+04  0.14542331746E+04 0.  0.
        4    1    3    3  502    0  0.61521384270E+03 -0.28565259339E+03 -0.26712859535E+03  0.72900258965E+03  0.12699999809E+01 0. -1.
       -4    1    3    3    0  502 -0.61521384270E+03  0.28565259339E+03 -0.95036205409E+03  0.11675937320E+04  0.12699999809E+01 0.  1.
</event>
<event>
 5   0  0.1976233E-05  0.2889595E+04  0.7818609E-02  0.8275980E-01
        2   -1    0    0  501    0  0.00000000000E+00  0.00000000000E+00  0.15794787579E+04  0.15794787579E+04  0.25500000920E-02 0.  1.
       -2   -1    0    0    0  501  0.00000000000E+00  0.00000000000E+00 -0.13216001554E+04  0.13216001554E+04  0.25500000920E-02 0. -1.
    10030    2    1    2    0    0  0.00000000000E+00  0.00000000000E+00  0.25787860257E+03  0.29010789133E+04  0.28895946926E+04 0.  0.
        2    1    3    3  502    0  0.98265177866E+03 -0.75671544351E+03 -0.61509753189E+03  0.13844015871E+04  0.25500000920E-02 0. -1.
       -2    1    3    3    0  502 -0.98265177866E+03  0.75671544351E+03  0.87297613446E+03  0.15166773262E+04  0.25500000920E-02 0.  1.
</event>
<event>
 5   0  0.1976233E-05  0.3029035E+04  0.7818609E-02  0.8235488E-01
        2   -1    0    0  501    0  0.00000000000E+00  0.00000000000E+00  0.13375082507E+04  0.13375082507E+04  0.25500000920E-02 0. -1.
       -2   -1    0    0    0  501  0.00000000000E+00  0.00000000000E+00 -0.17149524729E+04  0.17149524729E+04  0.25500000920E-02 0.  1.
    10030    2    1    2    0    0  0.00000000000E+00  0.00000000000E+00 -0.37744422218E+03  0.30524607236E+04  0.30290348840E+04 0.  0.
        2    1    3    3  502    0 -0.28956635770E+03 -0.77384600296E+03  0.10903762058E+04  0.13680667316E+04  0.25500000920E-02 0. -1.
       -2    1    3    3    0  502  0.28956635770E+03  0.77384600296E+03 -0.14678204280E+04  0.16843939921E+04  0.25500000920E-02 0.  1.
</event>
<event>
 5   0  0.7305460E-06  0.2504093E+04  0.7818609E-02  0.8401529E-01
       -1   -1    0    0    0  501  0.00000000000E+00  0.00000000000E+00  0.84826056951E+03  0.84826056953E+03  0.50400001928E-02 0.  1.
        1   -1    0    0  501    0  0.00000000000E+00  0.00000000000E+00 -0.18480417013E+04  0.18480417013E+04  0.50400001928E-02 0. -1.
    10030    2    1    2    0    0  0.00000000000E+00  0.00000000000E+00 -0.99978113178E+03  0.26963022708E+04  0.25040933737E+04 0.  0.
        4    1    3    3  502    0 -0.29700538845E+03 -0.39098791179E+03 -0.17400499512E+04  0.18079986708E+04  0.12699999809E+01 0. -1.
       -4    1    3    3    0  502  0.29700538845E+03  0.39098791179E+03  0.74026881943E+03  0.88830360005E+03  0.12699999809E+01 0.  1.
</event>
<event>
 5   0  0.7971153E-06  0.2579747E+04  0.7818609E-02  0.8375113E-01
        1   -1    0    0  501    0  0.00000000000E+00  0.00000000000E+00  0.12568879146E+04  0.12568879146E+04  0.50400001928E-02 0.  1.
       -1   -1    0    0    0  501  0.00000000000E+00  0.00000000000E+00 -0.13237247622E+04  0.13237247622E+04  0.50400001928E-02 0. -1.
    10030    2    1    2    0    0  0.00000000000E+00  0.00000000000E+00 -0.66836847679E+02  0.25806126768E+04  0.25797470076E+04 0.  0.
        5    1    3    3  502    0 -0.33588501663E+03  0.33697338025E+03 -0.12327293053E+04  0.13213680159E+04  0.46999998093E+01 0. -1.
       -5    1    3    3    0  502  0.33588501663E+03 -0.33697338025E+03  0.11658924576E+04  0.12592446609E+04  0.46999998093E+01 0.  1.
</event>
<event>
 5   0  0.8055928E-06  0.2938184E+04  0.7818609E-02  0.8261606E-01
        1   -1    0    0  501    0  0.00000000000E+00  0.00000000000E+00  0.15521949889E+04  0.15521949889E+04  0.50400001928E-02 0.  1.
       -1   -1    0    0    0  501  0.00000000000E+00  0.00000000000E+00 -0.13904382660E+04  0.13904382661E+04  0.50400001928E-02 0. -1.
    10030    2    1    2    0    0  0.00000000000E+00  0.00000000000E+00  0.16175672287E+03  0.29426332550E+04  0.29381840031E+04 0.  0.
        2    1    3    3  502    0 -0.13879789727E+04 -0.45237743906E+03  0.24574943358E+03  0.14803796000E+04  0.25500000920E-02 0.  1.
       -2    1    3    3    0  502  0.13879789727E+04  0.45237743906E+03 -0.83992710709E+02  0.14622536550E+04  0.25500000920E-02 0. -1.
</event>
<event>
 5   0  0.1937947E-05  0.2962976E+04  0.7818609E-02  0.8254383E-01
       -2   -1    0    0    0  501  0.00000000000E+00  0.00000000000E+00  0.99255862516E+03  0.99255862516E+03  0.25500000920E-02 0.  1.
        2   -1    0    0  501    0  0.00000000000E+00  0.00000000000E+00 -0.22112621869E+04  0.22112621869E+04  0.25500000920E-02 0. -1.
    10030    2    1    2    0    0  0.00000000000E+00  0.00000000000E+00 -0.12187035618E+04  0.32038208121E+04  0.29629764469E+04 0.  0.
        3    1    3    3  502    0 -0.99167551404E+02 -0.12126046741E+04 -0.15233814556E+04  0.19495987711E+04  0.10100000352E+00 0.  1.
       -3    1    3    3    0  502  0.99167551404E+02  0.12126046741E+04  0.30467789382E+03  0.12542220410E+04  0.10100000352E+00 0. -1.
</event>
<event>
 5   0  0.8055928E-06  0.2112530E+04  0.7818609E-02  0.8555744E-01
        1   -1    0    0  501    0  0.00000000000E+00  0.00000000000E+00  0.85715356421E+03  0.85715356423E+03  0.50400001928E-02 0. -1.
       -1   -1    0    0    0  501  0.00000000000E+00  0.00000000000E+00 -0.13016283605E+04  0.13016283605E+04  0.50400001928E-02 0.  1.
    10030    2    1    2    0    0  0.00000000000E+00  0.00000000000E+00 -0.44447479631E+03  0.21587819248E+04  0.21125296576E+04 0.  0.
        2    1    3    3  502    0  0.57410418588E+03 -0.20451905859E+03 -0.11038376777E+04  0.12609049449E+04  0.25500000920E-02 0.  1.
       -2    1    3    3    0  502 -0.57410418588E+03  0.20451905859E+03  0.65936288134E+03  0.89787697981E+03  0.25500000920E-02 0. -1.
</event>
<event>
 5   0  0.8122088E-06  0.2886096E+04  0.7818609E-02  0.8277026E-01
        1   -1    0    0  501    0  0.00000000000E+00  0.00000000000E+00  0.15947114513E+04  0.15947114513E+04  0.50400001928E-02 0. -1.
       -1   -1    0    0    0  501  0.00000000000E+00  0.00000000000E+00 -0.13058087955E+04  0.13058087955E+04  0.50400001928E-02 0.  1.
    10030    2    1    2    0    0  0.00000000000E+00  0.00000000000E+00  0.28890265583E+03  0.29005202468E+04  0.28860964913E+04 0.  0.
        1    1    3    3  502    0 -0.85915259971E+03 -0.68474013521E+02 -0.10187249854E+04  0.13344034158E+04  0.50400001928E-02 0.  1.
       -1    1    3    3    0  502  0.85915259971E+03  0.68474013521E+02  0.13076276412E+04  0.15661168310E+04  0.50400001928E-02 0. -1.
</event>
<event>
 5   0  0.1918901E-05  0.2872961E+04  0.7818609E-02  0.8280968E-01
        2   -1    0    0  501    0  0.00000000000E+00  0.00000000000E+00  0.12814241087E+04  0.12814241087E+04  0.25500000920E-02 0. -1.
       -2   -1    0    0    0  501  0.00000000000E+00  0.00000000000E+00 -0.16102995905E+04  0.16102995905E+04  0.25500000920E-02 0.  1.
    10030    2    1    2    0    0  0.00000000000E+00  0.00000000000E+00 -0.32887548179E+03  0.28917236992E+04  0.28729613415E+04 0.  0.
        1    1    3    3  502    0  0.26686046491E+03 -0.42982410068E+03  0.11887803065E+04  0.12919604802E+04  0.50400001928E-02 0. -1.
       -1    1    3    3    0  502 -0.26686046491E+03  0.42982410068E+03 -0.15176557883E+04  0.15997632190E+04  0.50400001928E-02 0.  1.
</event>
<event>
 5   0  0.6578125E-06  0.2902964E+04  0.7818609E-02  0.8271996E-01
        3   -1    0    0  501    0  0.00000000000E+00  0.00000000000E+00  0.23554703679E+04  0.23554703700E+04  0.10100000352E+00 0. -1.
       -3   -1    0    0    0  501  0.00000000000E+00  0.00000000000E+00 -0.89442832374E+03  0.89442832944E+03  0.10100000352E+00 0.  1.
    10030    2    1    2    0    0  0.00000000000E+00  0.00000000000E+00  0.14610420441E+04  0.32498986995E+04  0.29029636068E+04 0.  0.
        4    1    3    3  502    0  0.47053389858E+03  0.12866613827E+04  0.12673005823E+04  0.18662668733E+04  0.12699999809E+01 0. -1.
       -4    1    3    3    0  502 -0.47053389858E+03 -0.12866613827E+04  0.19374146180E+03  0.13836318262E+04  0.12699999809E+01 0.  1.
</event>
<event>
 5   0  0.7971153E-06  0.2474044E+04  0.7818609E-02  0.8412291E-01
       -1   -1    0    0    0  501  0.00000000000E+00  0.00000000000E+00  0.81328230412E+03  0.81328230414E+03  0.50400001928E-02 0. -1.
        1   -1    0    0  501    0  0.00000000000E+00  0.00000000000E+00 -0.18815400574E+04  0.18815400574E+04  0.50400001928E-02 0.  1.
    10030    2    1    2    0    0  0.00000000000E+00  0.00000000000E+00 -0.10682577532E+04  0.26948223615E+04  0.24740438421E+04 0.  0.
        5    1    3    3  502    0  0.11209128702E+04 -0.26812386794E+03 -0.44740847727E+02  0.11534122873E+04  0.46999998093E+01 0. -1.
       -5    1    3    3    0  502 -0.11209128702E+04  0.26812386794E+03 -0.10235169055E+04  0.15414100742E+04  0.46999998093E+01 0.  1.
</event>
<event>
 5   0  0.1976233E-05  0.2911793E+04  0.7818609E-02  0.8269377E-01
        2   -1    0    0  501    0  0.00000000000E+00  0.00000000000E+00  0.12180844582E+04  0.12180844582E+04  0.25500000920E-02 0. -1.
       -2   -1    0    0    0  501  0.00000000000E+00  0.00000000000E+00 -0.17401376791E+04  0.17401376791E+04  0.25500000920E-02 0.  1.
    10030    2    1    2    0    0  0.00000000000E+00  0.00000000000E+00 -0.52205322086E+03  0.29582221373E+04  0.29117930298E+04 0.  0.
        2    1    3    3  502    0  0.28390224183E+03  0.14004326792E+04 -0.54444161735E+03  0.15291268249E+04  0.25500000920E-02 0.  1.
       -2    1    3    3    0  502 -0.28390224183E+03 -0.14004326792E+04  0.22388396484E+02  0.14290953125E+04  0.25500000920E-02 0. -1.
</event>
<event>
 5   0  0.1976233E-05  0.2888959E+04  0.7818609E-02  0.8276170E-01
        2   -1    0    0  501    0  0.00000000000E+00  0.00000000000E+00  0.14702928731E+04  0.14702928731E+04  0.25500000920E-02 0. -1.
       -2   -1    0    0    0  501  0.00000000000E+00  0.00000000000E+00 -0.14191195445E+04  0.14191195445E+04  0.25500000920E-02 0.  1.
    10030    2    1    2    0    0  0.00000000000E+00  0.00000000000E+00  0.51173328586E+02  0.28894124177E+04  0.28889592261E+04 0.  0.
        2    1    3    3  502    0 -0.94159603050E+03  0.89336354499E+03 -0.60840538714E+03  0.14334778070E+04  0.25500000920E-02 0.  1.
       -2    1    3    3    0  502  0.94159603050E+03 -0.89336354499E+03  0.65957871572E+03  0.14559346106E+04  0.25500000920E-02 0. -1.
</event>
<event>
 5   0  0.8234888E-06  0.2937525E+04  0.7818609E-02  0.8261799E-01
       -1   -1    0    0    0  501  0.00000000000E+00  0.00000000000E+00  0.10987257691E+04  0.10987257691E+04  0.50400001928E-02 0.  1.
        1   -1    0    0  501    0  0.00000000000E+00  0.00000000000E+00 -0.19634234829E+04  0.19634234829E+04  0.50400001928E-02 0. -1.
    10030    2    1    2    0    0  0.00000000000E+00  0.00000000000E+00 -0.86469771384E+03  0.30621492520E+04  0.29375254731E+04 0.  0.
        3    1    3    3  502    0 -0.77684008016E+03 -0.81293052443E+01 -0.17317125396E+04  0.18979923408E+04  0.10100000352E+00 0. -1.
       -3    1    3    3    0  502  0.77684008016E+03  0.81293052443E+01  0.86701482572E+03  0.11641569112E+04  0.10100000352E+00 0.  1.
</event>
<event>
 5   0  0.1960961E-05  0.2935839E+04  0.7818609E-02  0.8262293E-01
       -2   -1    0    0    0  501  0.00000000000E+00  0.00000000000E+00  0.12871919173E+04  0.12871919173E+04  0.25500000920E-02 0.  1.
        2   -1    0    0  501    0  0.00000000000E+00  0.00000000000E+00 -0.16740224840E+04  0.16740224840E+04  0.25500000920E-02 0. -1.
    10030    2    1    2    0    0  0.00000000000E+00  0.00000000000E+00 -0.38683056673E+03  0.29612144014E+04  0.29358393763E+04 0.  0.
        5    1    3    3  502    0 -0.21027960986E+03 -0.11199321563E+04 -0.11267784941E+04  0.16025346841E+04  0.46999998093E+01 0. -1.
       -5    1    3    3    0  502  0.21027960986E+03  0.11199321563E+04  0.73994792733E+03  0.13586797173E+04  0.46999998093E+01 0.  1.
</event>
<event>
 5   0  0.7305460E-06  0.2964764E+04  0.7818609E-02  0.8253865E-01
        1   -1    0    0  501    0  0.00000000000E+00  0.00000000000E+00  0.14929799453E+04  0.14929799453E+04  0.50400001928E-02 0. -1.
       -1   -1    0    0    0  501  0.00000000000E+00  0.00000000000E+00 -0.14718595254E+04  0.14718595254E+04  0.50400001928E-02 0.  1.
    10030    2    1    2    0    0  0.00000000000E+00  0.00000000000E+00  0.21120419908E+02  0.29648394707E+04  0.29647642427E+04 0.  0.
        4    1    3    3  502    0 -0.34199393965E+03 -0.46920570172E+03 -0.13534176877E+04  0.14727032612E+04  0.12699999809E+01 0.  1.
       -4    1    3    3    0  502  0.34199393965E+03  0.46920570172E+03  0.13745381076E+04  0.14921362094E+04  0.12699999809E+01 0. -1.
</event>
<event>
 5   0  0.1976233E-05  0.2931630E+04  0.7818609E-02  0.8263528E-01
        2   -1    0    0  501    0  0.00000000000E+00  0.00000000000E+00  0.23706356928E+04  0.23706356928E+04  0.25500000920E-02 0. -1.
       -2   -1    0    0    0  501  0.00000000000E+00  0.00000000000E+00 -0.90634471186E+03  0.90634471186E+03  0.25500000920E-02 0.  1.
    10030    2    1    2    0    0  0.00000000000E+00  0.00000000000E+00  0.14642909810E+04  0.32769804047E+04  0.29316296655E+04 0.  0.
        2    1    3    3  502    0 -0.23556267348E+03 -0.13384126014E+04  0.11809171129E+03  0.13641054641E+04  0.25500000920E-02 0.  1.
       -2    1    3    3    0  502  0.23556267348E+03  0.13384126014E+04  0.13461992697E+04  0.19128749406E+04  0.25500000920E-02 0. -1.
</event>
<event>
 5   0  0.7971153E-06  0.1438895E+04  0.7818609E-02  0.8926136E-01
        1   -1    0    0  501    0  0.00000000000E+00  0.00000000000E+00  0.10587640440E+04  0.10587640440E+04  0.50400001928E-02 0. -1.
       -1   -1    0    0    0  501  0.00000000000E+00  0.00000000000E+00 -0.48887630669E+03  0.48887630672E+03  0.50400001928E-02 0.  1.
    10030    2    1    2    0    0  0.00000000000E+00  0.00000000000E+00  0.56988773733E+03  0.15476403508E+04  0.14388949309E+04 0.  0.
        5    1    3    3  502    0  0.23176109322E+03 -0.50272828862E+03 -0.20927539348E+03  0.59183377466E+03  0.46999998093E+01 0.  1.
       -5    1    3    3    0  502 -0.23176109322E+03  0.50272828862E+03  0.77916313081E+03  0.95580657610E+03  0.46999998093E+01 0. -1.
</event>
<event>
 5   0  0.6578125E-06  0.2875565E+04  0.7818609E-02  0.8280185E-01
        3   -1    0    0  501    0  0.00000000000E+00  0.00000000000E+00  0.21409391991E+04  0.21409392015E+04  0.10100000352E+00 0. -1.
       -3   -1    0    0    0  501  0.00000000000E+00  0.00000000000E+00 -0.96556635480E+03  0.96556636008E+03  0.10100000352E+00 0.  1.
    10030    2    1    2    0    0  0.00000000000E+00  0.00000000000E+00  0.11753728443E+04  0.31065055615E+04  0.28755652454E+04 0.  0.
        4    1    3    3  502    0  0.11992933907E+04  0.76599268122E+03  0.80952626526E+03  0.16371877753E+04  0.12699999809E+01 0.  1.
       -4    1    3    3    0  502 -0.11992933907E+04 -0.76599268122E+03  0.36584657903E+03  0.14693177862E+04  0.12699999809E+01 0. -1.
</event>
<event>
 5   0  0.8055928E-06  0.2952023E+04  0.7818609E-02  0.8257565E-01
       -1   -1    0    0    0  501  0.00000000000E+00  0.00000000000E+00  0.27939279072E+04  0.27939279073E+04  0.50400001928E-02 0.  1.
        1   -1    0    0  501    0  0.00000000000E+00  0.00000000000E+00 -0.77976589237E+03  0.77976589239E+03  0.50400001928E-02 0. -1.
    10030    2    1    2    0    0  0.00000000000E+00  0.00000000000E+00  0.20141620149E+04  0.35736937996E+04  0.29520228237E+04 0.  0.
        2    1    3    3  502    0 -0.21861894308E+03  0.28554670454E+03  0.27400792497E+04  0.27635783791E+04  0.25500000920E-02 0.  1.
       -2    1    3    3    0  502  0.21861894308E+03 -0.28554670454E+03 -0.72591723484E+03  0.81011542054E+03  0.25500000920E-02 0. -1.
</event>
<event>
 5   0  0.7971153E-06  0.2787867E+04  0.7818609E-02  0.8307045E-01
        1   -1    0    0  501    0  0.00000000000E+00  0.00000000000E+00  0.16056188514E+04  0.16056188514E+04  0.50400001928E-02 0.  1.
       -1   -1    0    0    0  501  0.00000000000E+00  0.00000000000E+00 -0.12101567105E+04  0.12101567105E+04  0.50400001928E-02 0. -1.
    10030    2    1    2    0    0  0.00000000000E+00  0.00000000000E+00  0.39546214084E+03  0.28157755619E+04  0.27878668745E+04 0.  0.
        5    1    3    3  502    0 -0.65840189340E+03  0.36806222271E+03  0.13816711397E+04  0.15741664719E+04  0.46999998093E+01 0.  1.
       -5    1    3    3    0  502  0.65840189340E+03 -0.36806222271E+03 -0.98620899883E+03  0.12416090900E+04  0.46999998093E+01 0. -1.
</event>
<event>
 5   0  0.1976233E-05  0.3024168E+04  0.7818609E-02  0.8236863E-01
        2   -1    0    0  501    0  0.00000000000E+00  0.00000000000E+00  0.88611736067E+03  0.88611736068E+03  0.25500000920E-02 0.  1.
       -2   -1    0    0    0  501  0.00000000000E+00  0.00000000000E+00 -0.25802435750E+04  0.25802435750E+04  0.25500000920E-02 0. -1.
    10030    2    1    2    0    0  0.00000000000E+00  0.00000000000E+00 -0.16941262143E+04  0.34663609357E+04  0.30241683991E+04 0.  0.
        2    1    3    3  502    0  0.63448479223E+03 -0.34548751964E+03 -0.23696232751E+04  0.24773064089E+04  0.25500000920E-02 0. -1.
       -2    1    3    3    0  502 -0.63448479223E+03  0.34548751964E+03  0.67549706077E+03  0.98905452676E+03  0.25500000920E-02 0.  1.
</event>
<event>
 5   0  0.1976233E-05  0.2587459E+04  0.7818609E-02  0.8372474E-01
       -2   -1    0    0    0  501  0.00000000000E+00  0.00000000000E+00  0.85998141866E+03  0.85998141866E+03  0.25500000920E-02 0.  1.
        2   -1    0    0  501    0  0.00000000000E+00  0.00000000000E+00 -0.19462460294E+04  0.19462460294E+04  0.25500000920E-02 0. -1.
    10030    2    1    2    0    0  0.00000000000E+00  0.00000000000E+00 -0.10862646107E+04  0.28062274480E+04  0.25874585379E+04 0.  0.
        2    1    3    3  502    0 -0.26474106814E+03 -0.10200090214E+04  0.27080704279E+03  0.10880453536E+04  0.25500000920E-02 0.  1.
       -2    1    3    3    0  502  0.26474106814E+03  0.10200090214E+04 -0.13570716535E+04  0.17181820945E+04  0.25500000920E-02 0. -1.
</event>
<event>
 5   0  0.7305460E-06  0.2899965E+04  0.7818609E-02  0.8272888E-01
       -1   -1    0    0    0  501  0.00000000000E+00  0.00000000000E+00  0.11718558600E+04  0.11718558600E+04  0.50400001928E-02 0.  1.
        1   -1    0    0  501    0  0.00000000000E+00  0.00000000000E+00 -0.17941193158E+04  0.17941193158E+04  0.50400001928E-02 0. -1.
    10030    2    1    2    0    0  0.00000000000E+00  0.00000000000E+00 -0.62226345580E+03  0.29659751757E+04  0.28999649885E+04 0.  0.
        4    1    3    3  502    0 -0.58053105958E+03 -0.15210164588E+03  0.10388745144E+04  0.11997554298E+04  0.12699999809E+01 0.  1.
       -4    1    3    3    0  502  0.58053105958E+03  0.15210164588E+03 -0.16611379702E+04  0.17662197459E+04  0.12699999809E+01 0. -1.
</event>
<event>
 5   0  0.1829810E-05  0.2495441E+04  0.7818609E-02  0.8404611E-01
        2   -1    0    0  501    0  0.00000000000E+00  0.00000000000E+00  0.12802535660E+04  0.12802535660E+04  0.25500000920E-02 0.  1.
       -2   -1    0    0    0  501  0.00000000000E+00  0.00000000000E+00 -0.12160144751E+04  0.12160144751E+04  0.25500000920E-02 0. -1.
    10030    2    1    2    0    0  0.00000000000E+00  0.00000000000E+00  0.64239090843E+02  0.24962680411E+04  0.24954413382E+04 0.  0.
        4    1    3    3  502    0 -0.31003543184E+03 -0.36601703326E+03  0.11843322017E+04  0.12777851206E+04  0.12699999809E+01 0.  1.
       -4    1    3    3    0  502  0.31003543184E+03  0.36601703326E+03 -0.11200931108E+04  0.12184829205E+04  0.12699999809E+01 0. -1.
</event>
<event>
 5   0  0.6578125E-06  0.2888535E+04  0.7818609E-02  0.8276297E-01
        3   -1    0    0  501    0  0.00000000000E+00  0.00000000000E+00  0.20003451237E+04  0.20003451263E+04  0.10100000352E+00 0. -1.
       -3   -1    0    0    0  501  0.00000000000E+00  0.00000000000E+00 -0.10427745107E+04  0.10427745156E+04  0.10100000352E+00 0.  1.
    10030    2    1    2    0    0  0.00000000000E+00  0.00000000000E+00  0.95757061302E+03  0.30431196419E+04  0.28885352129E+04 0.  0.
        5    1    3    3  502    0  0.11332051457E+04  0.14989218952E+01 -0.46452724387E+03  0.12247300924E+04  0.46999998093E+01 0.  1.
       -5    1    3    3    0  502 -0.11332051457E+04 -0.14989218952E+01  0.14220978569E+04  0.18183895495E+04  0.46999998093E+01 0. -1.
</event>
<event>
 5   0  0.6578125E-06  0.2912482E+04  0.7818609E-02  0.8269173E-01
        3   -1    0    0  501    0  0.00000000000E+00  0.00000000000E+00  0.29264792191E+04  0.29264792208E+04  0.10100000352E+00 0.  1.
       -3   -1    0    0    0  501  0.00000000000E+00  0.00000000000E+00 -0.72463782511E+03  0.72463783215E+03  0.10100000352E+00 0. -1.
    10030    2    1    2    0    0  0.00000000000E+00  0.00000000000E+00  0.22018413939E+04  0.36511170529E+04  0.29124817957E+04 0.  0.
        4    1    3    3  502    0  0.12852992240E+04  0.57309731746E+03  0.15703158184E+04  0.21086317869E+04  0.12699999809E+01 0.  1.
       -4    1    3    3    0  502 -0.12852992240E+04 -0.57309731746E+03  0.63152557557E+03  0.15424852660E+04  0.12699999809E+01 0. -1.
</event>
<event>
 5   0  0.8234888E-06  0.2902861E+04  0.7818609E-02  0.8272027E-01
        1   -1    0    0  501    0  0.00000000000E+00  0.00000000000E+00  0.19355850901E+04  0.19355850901E+04  0.50400001928E-02 0. -1.
       -1   -1    0    0    0  501  0.00000000000E+00  0.00000000000E+00 -0.10883791589E+04  0.10883791589E+04  0.50400001928E-02 0.  1.
    10030    2    1    2    0    0  0.00000000000E+00  0.00000000000E+00  0.84720593122E+03  0.30239642491E+04  0.29028609836E+04 0.  0.
        3    1    3    3  502    0 -0.60007786040E+03  0.12837172102E+04  0.75075426655E+03  0.16036381428E+04  0.10100000352E+00 0. -1.
       -3    1    3    3    0  502  0.60007786040E+03 -0.12837172102E+04  0.96451664674E+02  0.14203261062E+04  0.10100000352E+00 0.  1.
</event>
<event>
 5   0  0.1976233E-05  0.1596779E+04  0.7818609E-02  0.8822529E-01
       -2   -1    0    0    0  501  0.00000000000E+00  0.00000000000E+00  0.56737801244E+03  0.56737801245E+03  0.25500000920E-02 0.  1.
        2   -1    0    0  501    0  0.00000000000E+00  0.00000000000E+00 -0.11234585887E+04  0.11234585887E+04  0.25500000920E-02 0. -1.
    10030    2    1    2    0    0  0.00000000000E+00  0.00000000000E+00 -0.55608057623E+03  0.16908366011E+04  0.15967788840E+04 0.  0.
        2    1    3    3  502    0  0.36694475348E+02 -0.31130839935E+03  0.49949163335E+03  0.58970441394E+03  0.25500000920E-02 0.  1.
       -2    1    3    3    0  502 -0.36694475348E+02  0.31130839935E+03 -0.10555722096E+04  0.11011321872E+04  0.25500000920E-02 0. -1.
</event>
<event>
 5   0  0.8122088E-06  0.3009052E+04  0.7818609E-02  0.8241151E-01
       -1   -1    0    0    0  501  0.00000000000E+00  0.00000000000E+00  0.13420701594E+04  0.13420701594E+04  0.50400001928E-02 0.  1.
        1   -1    0    0  501    0  0.00000000000E+00  0.00000000000E+00 -0.16866473068E+04  0.16866473068E+04  0.50400001928E-02 0. -1.
    10030    2    1    2    0    0  0.00000000000E+00  0.00000000000E+00 -0.34457714740E+03  0.30287174663E+04  0.30090523558E+04 0.  0.
        1    1    3    3  502    0 -0.13152254407E+04 -0.61826456578E+03 -0.56410109470E+03  0.15589352386E+04  0.50400001928E-02 0. -1.
       -1    1    3    3    0  502  0.13152254407E+04  0.61826456578E+03  0.21952394730E+03  0.14697822276E+04  0.50400001928E-02 0.  1.
</event>
<event>
 5   0  0.1976233E-05  0.2847740E+04  0.7818609E-02  0.8288598E-01
       -2   -1    0    0    0  501  0.00000000000E+00  0.00000000000E+00  0.13826141313E+04  0.13826141313E+04  0.25500000920E-02 0. -1.
        2   -1    0    0  501    0  0.00000000000E+00  0.00000000000E+00 -0.14663570308E+04  0.14663570308E+04  0.25500000920E-02 0.  1.
    10030    2    1    2    0    0  0.00000000000E+00  0.00000000000E+00 -0.83742899539E+02  0.28489711621E+04  0.28477401232E+04 0.  0.
        2    1    3    3  502    0  0.28434799363E+03 -0.78874803874E+02  0.13516883285E+04  0.13835231669E+04  0.25500000920E-02 0. -1.
       -2    1    3    3    0  502 -0.28434799363E+03  0.78874803874E+02 -0.14354312280E+04  0.14654479951E+04  0.25500000920E-02 0.  1.
</event>
<event>
 5   0  0.1976233E-05  0.1738436E+04  0.7818609E-02  0.8739742E-01
        2   -1    0    0  501    0  0.00000000000E+00  0.00000000000E+00  0.14959740293E+04  0.14959740293E+04  0.25500000920E-02 0.  1.
       -2   -1    0    0    0  501  0.00000000000E+00  0.00000000000E+00 -0.50504869258E+03  0.50504869259E+03  0.25500000920E-02 0. -1.
    10030    2    1    2    0    0  0.00000000000E+00  0.00000000000E+00  0.99092533669E+03  0.20010227219E+04  0.17384357654E+04 0.  0.
        2    1    3    3  502    0 -0.82553178787E+03 -0.13985229765E+03  0.76412406221E+03  0.11335550187E+04  0.25500000920E-02 0.  1.
       -2    1    3    3    0  502  0.82553178787E+03  0.13985229765E+03  0.22680127448E+03  0.86746770318E+03  0.25500000920E-02 0. -1.
</event>
<event>
 5   0  0.8234888E-06  0.2712781E+04  0.7818609E-02  0.8330870E-01
       -1   -1    0    0    0  501  0.00000000000E+00  0.00000000000E+00  0.15511694973E+04  0.15511694973E+04  0.50400001928E-02 0. -1.
        1   -1    0    0  501    0  0.00000000000E+00  0.00000000000E+00 -0.11860695588E+04  0.11860695588E+04  0.50400001928E-02 0.  1.
    10030    2    1    2    0    0  0.00000000000E+00  0.00000000000E+00  0.36509993848E+03  0.27372390561E+04  0.27127808030E+04 0.  0.
        3    1    3    3  502    0 -0.71866910715E+03  0.90961255778E+03 -0.52801121656E+03  0.12738430617E+04  0.10100000352E+00 0. -1.
       -3    1    3    3    0  502  0.71866910715E+03 -0.90961255778E+03  0.89311115504E+03  0.14633959944E+04  0.10100000352E+00 0.  1.
</event>
<event>
 5   0  0.8122088E-06  0.2886103E+04  0.7818609E-02  0.8277024E-01
        1   -1    0    0  501    0  0.00000000000E+00  0.00000000000E+00  0.16783585581E+04  0.16783585581E+04  0.50400001928E-02 0.  1.
       -1   -1    0    0    0  501  0.00000000000E+00  0.00000000000E+00 -0.12407349262E+04  0.12407349263E+04  0.50400001928E-02 0. -1.
    10030    2    1    2    0    0  0.00000000000E+00  0.00000000000E+00  0.43762363185E+03  0.29190934844E+04  0.28861033120E+04 0.  0.
        1    1    3    3  502    0  0.65425706959E+03 -0.45372711170E+03  0.14360960680E+04  0.16420391352E+04  0.50400001928E-02 0.  1.
       -1    1    3    3    0  502 -0.65425706959E+03  0.45372711170E+03 -0.99847243613E+03  0.12770543492E+04  0.50400001928E-02 0. -1.
</event>
<event>
 5   0  0.8234888E-06  0.2874104E+04  0.7818609E-02  0.8280624E-01
        1   -1    0    0  501    0  0.00000000000E+00  0.00000000000E+00  0.26511955593E+04  0.26511955593E+04  0.50400001928E-02 0. -1.
       -1   -1    0    0    0  501  0.00000000000E+00  0.00000000000E+00 -0.77893861195E+03  0.77893861197E+03  0.50400001928E-02 0.  1.
    10030    2    1    2    0    0  0.00000000000E+00  0.00000000000E+00  0.18722569474E+04  0.34301341713E+04  0.28741040962E+04 0.  0.
        3    1    3    3  502    0  0.37684769428E+03  0.32601955628E+03  0.25447876647E+04  0.25931153473E+04  0.10100000352E+00 0. -1.
       -3    1    3    3    0  502 -0.37684769428E+03 -0.32601955628E+03 -0.67253071734E+03  0.83701882399E+03  0.10100000352E+00 0.  1.
</event>
<event>
 5   0  0.6578125E-06  0.1580827E+04  0.7818609E-02  0.8832414E-01
        3   -1    0    0  501    0  0.00000000000E+00  0.00000000000E+00  0.49503340044E+03  0.49503341075E+03  0.10100000352E+00 0. -1.
       -3   -1    0    0    0  501  0.00000000000E+00  0.00000000000E+00 -0.12620430041E+04  0.12620430082E+04  0.10100000352E+00 0.  1.
    10030    2    1    2    0    0  0.00000000000E+00  0.00000000000E+00 -0.76700960370E+03  0.17570764189E+04  0.15808269386E+04 0.  0.
        3    1    3    3  502    0  0.64397325859E+03 -0.39916302021E+03 -0.13318267986E+03  0.76926608589E+03  0.10100000352E+00 0.  1.
       -3    1    3    3    0  502 -0.64397325859E+03  0.39916302021E+03 -0.63382692384E+03  0.98781033304E+03  0.10100000352E+00 0. -1.
</event>
<event>
 5   0  0.7305460E-06  0.2897444E+04  0.7818609E-02  0.8273638E-01
       -1   -1    0    0    0  501  0.00000000000E+00  0.00000000000E+00  0.10426374321E+04  0.10426374321E+04  0.50400001928E-02 0. -1.
        1   -1    0    0  501    0  0.00000000000E+00  0.00000000000E+00 -0.20129670607E+04  0.20129670607E+04  0.50400001928E-02 0.  1.
    10030    2    1    2    0    0  0.00000000000E+00  0.00000000000E+00 -0.97032962860E+03  0.30556044928E+04  0.28974435678E+04 0.  0.
        4    1    3    3  502    0 -0.10101023086E+03  0.57626646523E+03  0.91251311455E+03  0.10839593640E+04  0.12699999809E+01 0. -1.
       -4    1    3    3    0  502  0.10101023086E+03 -0.57626646523E+03 -0.18828427431E+04  0.19716451288E+04  0.12699999809E+01 0.  1.
</event>
<event>
 5   0  0.7305460E-06  0.2926753E+04  0.7818609E-02  0.8264962E-01
       -1   -1    0    0    0  501  0.00000000000E+00  0.00000000000E+00  0.14103961199E+04  0.14103961199E+04  0.50400001928E-02 0. -1.
        1   -1    0    0  501    0  0.00000000000E+00  0.00000000000E+00 -0.15183467920E+04  0.15183467920E+04  0.50400001928E-02 0.  1.
    10030    2    1    2    0    0  0.00000000000E+00  0.00000000000E+00 -0.10795067208E+03  0.29287429119E+04  0.29267527563E+04 0.  0.
        4    1    3    3  502    0  0.88213701171E+02  0.11670959235E+04 -0.93296563071E+03  0.14967702004E+04  0.12699999809E+01 0.  1.
       -4    1    3    3    0  502 -0.88213701171E+02 -0.11670959235E+04  0.82501495864E+03  0.14319727116E+04  0.12699999809E+01 0. -1.
</event>
<event>
 5   0  0.1918901E-05  0.2587082E+04  0.7818609E-02  0.8372602E-01
       -2   -1    0    0    0  501  0.00000000000E+00  0.00000000000E+00  0.26771755896E+04  0.26771755896E+04  0.25500000920E-02 0.  1.
        2   -1    0    0  501    0  0.00000000000E+00  0.00000000000E+00 -0.62500512390E+03  0.62500512391E+03  0.25500000920E-02 0. -1.
    10030    2    1    2    0    0  0.00000000000E+00  0.00000000000E+00  0.20521704657E+04  0.33021807135E+04  0.25870821101E+04 0.  0.
        1    1    3    3  502    0 -0.92257500319E+03 -0.26859857863E+03 -0.79288847640E+02  0.96414550475E+03  0.50400001928E-02 0. -1.
       -1    1    3    3    0  502  0.92257500319E+03  0.26859857863E+03  0.21314593133E+04  0.23380352087E+04  0.50400001928E-02 0.  1.
</event>
<event>
 5   0  0.1937947E-05  0.2965528E+04  0.7818609E-02  0.8253644E-01
       -2   -1    0    0    0  501  0.00000000000E+00  0.00000000000E+00  0.12022895665E+04  0.12022895665E+04  0.25500000920E-02 0. -1.
        2   -1    0    0  501    0  0.00000000000E+00  0.00000000000E+00 -0.18286684648E+04  0.18286684648E+04  0.25500000920E-02 0.  1.
    10030    2    1    2    0    0  0.00000000000E+00  0.00000000000E+00 -0.62637889821E+03  0.30309580313E+04  0.29655279569E+04 0.  0.
        3    1    3    3  502    0 -0.10281886672E+04 -0.88388431740E+03  0.30018969564E+03  0.13887178567E+04  0.10100000352E+00 0. -1.
       -3    1    3    3    0  502  0.10281886672E+04  0.88388431740E+03 -0.92656859386E+03  0.16422401746E+04  0.10100000352E+00 0.  1.
</event>
<event>
 5   0  0.6578125E-06  0.2661235E+04  0.7818609E-02  0.8347694E-01
        3   -1    0    0  501    0  0.00000000000E+00  0.00000000000E+00  0.10720717059E+04  0.10720717107E+04  0.10100000352E+00 0.  1.
       -3   -1    0    0    0  501  0.00000000000E+00  0.00000000000E+00 -0.16515147814E+04  0.16515147845E+04  0.10100000352E+00 0. -1.
    10030    2    1    2    0    0  0.00000000000E+00  0.00000000000E+00 -0.57944307553E+03  0.27235864952E+04  0.26612345103E+04 0.  0.
        4    1    3    3  502    0 -0.99478106638E+03  0.31652837770E+03  0.55469238555E+03  0.11821441703E+04  0.12699999809E+01 0.  1.
       -4    1    3    3    0  502  0.99478106638E+03 -0.31652837770E+03 -0.11341354611E+04  0.15414423249E+04  0.12699999809E+01 0. -1.
</event>
<event>
 5   0  0.1976233E-05  0.2925365E+04  0.7818609E-02  0.8265370E-01
        2   -1    0    0  501    0  0.00000000000E+00  0.00000000000E+00  0.21169156279E+04  0.21169156279E+04  0.25500000920E-02 0.  1.
       -2   -1    0    0    0  501  0.00000000000E+00  0.00000000000E+00 -0.10106400738E+04  0.10106400738E+04  0.25500000920E-02 0. -1.
    10030    2    1    2    0    0  0.00000000000E+00  0.00000000000E+00  0.11062755541E+04  0.31275557017E+04  0.29253647748E+04 0.  0.
        2    1    3    3  502    0  0.53315880956E+03  0.78705563975E+03  0.17416014714E+04  0.19841599183E+04  0.25500000920E-02 0.  1.
       -2    1    3    3    0  502 -0.53315880956E+03 -0.78705563975E+03 -0.63532591732E+03  0.11433957834E+04  0.25500000920E-02 0. -1.
</event>
<event>
 5   0  0.1829810E-05  0.2011036E+04  0.7818609E-02  0.8601478E-01
       -2   -1    0    0    0  501  0.00000000000E+00  0.00000000000E+00  0.15745884483E+04  0.15745884483E+04  0.25500000920E-02 0.  1.
        2   -1    0    0  501    0  0.00000000000E+00  0.00000000000E+00 -0.64211450033E+03  0.64211450034E+03  0.25500000920E-02 0. -1.
    10030    2    1    2    0    0  0.00000000000E+00  0.00000000000E+00  0.93247394796E+03  0.22167029486E+04  0.20110356284E+04 0.  0.
        4    1    3    3  502    0  0.21040007605E+03 -0.49937154310E+03 -0.46739514739E+03  0.71561160329E+03  0.12699999809E+01 0. -1.
       -4    1    3    3    0  502 -0.21040007605E+03  0.49937154310E+03  0.13998690953E+04  0.15010913453E+04  0.12699999809E+01 0.  1.
</event>
<event>
 5   0  0.7305460E-06  0.2795260E+04  0.7818609E-02  0.8304741E-01
       -1   -1    0    0    0  501  0.00000000000E+00  0.00000000000E+00  0.94388437689E+03  0.94388437690E+03  0.50400001928E-02 0.  1.
        1   -1    0    0  501    0  0.00000000000E+00  0.00000000000E+00 -0.20695008374E+04  0.20695008374E+04  0.50400001928E-02 0. -1.
    10030    2    1    2    0    0  0.00000000000E+00  0.00000000000E+00 -0.11256164605E+04  0.30133852143E+04  0.27952599224E+04 0.  0.
        4    1    3    3  502    0 -0.17088449184E+02  0.10995752757E+04 -0.14926774433E+04  0.18540348876E+04  0.12699999809E+01 0. -1.
       -4    1    3    3    0  502  0.17088449184E+02 -0.10995752757E+04  0.36706098276E+03  0.11593503267E+04  0.12699999809E+01 0.  1.
</event>
<event>
 5   0  0.1960961E-05  0.2755970E+04  0.7818609E-02  0.8317070E-01
        2   -1    0    0  501    0  0.00000000000E+00  0.00000000000E+00  0.22743595686E+04  0.22743595686E+04  0.25500000920E-02 0. -1.
       -2   -1    0    0    0  501  0.00000000000E+00  0.00000000000E+00 -0.83489106519E+03  0.83489106520E+03  0.25500000920E-02 0.  1.
    10030    2    1    2    0    0  0.00000000000E+00  0.00000000000E+00  0.14394685034E+04  0.31092506338E+04  0.27559698713E+04 0.  0.
        5    1    3    3  502    0  0.72392042995E+03 -0.98634486940E+03  0.14349405022E+04  0.18857394638E+04  0.46999998093E+01 0. -1.
       -5    1    3    3    0  502 -0.72392042995E+03  0.98634486940E+03  0.45280011398E+01  0.12235111700E+04  0.46999998093E+01 0.  1.
</event>
<event>
 5   0  0.1918901E-05  0.2862299E+04  0.7818609E-02  0.8284184E-01
       -2   -1    0    0    0  501  0.00000000000E+00  0.00000000000E+00  0.10863287936E+04  0.10863287936E+04  0.25500000920E-02 0. -1.
        2   -1    0    0  501    0  0.00000000000E+00  0.00000000000E+00 -0.18854221302E+04  0.18854221302E+04  0.25500000920E-02 0.  1.
    10030    2    1    2    0    0  0.00000000000E+00  0.00000000000E+00 -0.79909333662E+03  0.29717509238E+04  0.28622986204E+04 0.  0.
        1    1    3    3  502    0  0.98864938958E+03 -0.77991590474E+02 -0.14708355909E+04  0.17739412728E+04  0.50400001928E-02 0.  1.
       -1    1    3    3    0  502 -0.98864938958E+03  0.77991590474E+02  0.67174225431E+03  0.11978096510E+04  0.50400001928E-02 0. -1.
</event>
<event>
 5   0  0.7305460E-06  0.2937255E+04  0.7818609E-02  0.8261879E-01
       -1   -1    0    0    0  501  0.00000000000E+00  0.00000000000E+00  0.11356938750E+04  0.11356938750E+04  0.50400001928E-02 0. -1.
        1   -1    0    0  501    0  0.00000000000E+00  0.00000000000E+00 -0.18991622430E+04  0.18991622430E+04  0.50400001928E-02 0.  1.
    10030    2    1    2    0    0  0.00000000000E+00  0.00000000000E+00 -0.76346836800E+03  0.30348561179E+04  0.29372551315E+04 0.  0.
        4    1    3    3  502    0 -0.37397866775E+03  0.10073845861E+04  0.65262086775E+03  0.12572188983E+04  0.12699999809E+01 0. -1.
       -4    1    3    3    0  502  0.37397866775E+03 -0.10073845861E+04 -0.14160892357E+04  0.17776372197E+04  0.12699999809E+01 0.  1.
</event>
<event>
 5   0  0.8234888E-06  0.2767535E+04  0.7818609E-02  0.8313419E-01
        1   -1    0    0  501    0  0.00000000000E+00  0.00000000000E+00  0.13515465255E+04  0.13515465255E+04  0.50400001928E-02 0.  1.
       -1   -1    0    0    0  501  0.00000000000E+00  0.00000000000E+00 -0.14167567709E+04  0.14167567709E+04  0.50400001928E-02 0. -1.
    10030    2    1    2    0    0  0.00000000000E+00  0.00000000000E+00 -0.65210245365E+02  0.27683032964E+04  0.27675351424E+04 0.  0.
        3    1    3    3  502    0  0.12336351698E+04  0.60188283948E+02 -0.65674491123E+03  0.13988539060E+04  0.10100000352E+00 0. -1.
       -3    1    3    3    0  502 -0.12336351698E+04 -0.60188283948E+02  0.59153466587E+03  0.13694493904E+04  0.10100000352E+00 0.  1.
</event>
<event>
 5   0  0.1829810E-05  0.1960685E+04  0.7818609E-02  0.8625225E-01
        2   -1    0    0  501    0  0.00000000000E+00  0.00000000000E+00  0.73762943631E+03  0.73762943631E+03  0.25500000920E-02 0. -1.
       -2   -1    0    0    0  501  0.00000000000E+00  0.00000000000E+00 -0.13029193846E+04  0.13029193846E+04  0.25500000920E-02 0.  1.
    10030    2    1    2    0    0  0.00000000000E+00  0.00000000000E+00 -0.56528994824E+03  0.20405488209E+04  0.19606852794E+04 0.  0.
        4    1    3    3  502    0  0.39946048360E+03  0.45076126823E+03 -0.10876605691E+04  0.12432865821E+04  0.12699999809E+01 0.  1.
       -4    1    3    3    0  502 -0.39946048360E+03 -0.45076126823E+03  0.52237062084E+03  0.79726223873E+03  0.12699999809E+01 0. -1.
</event>
<event>
 5   0  0.1937947E-05  0.2992884E+04  0.7818609E-02  0.8245766E-01
       -2   -1    0    0    0  501  0.00000000000E+00  0.00000000000E+00  0.71272222081E+03  0.71272222081E+03  0.25500000920E-02 0. -1.
        2   -1    0    0  501    0  0.00000000000E+00  0.00000000000E+00 -0.31419509886E+04  0.31419509886E+04  0.25500000920E-02 0.  1.
    10030    2    1    2    0    0  0.00000000000E+00  0.00000000000E+00 -0.24292287678E+04  0.38546732094E+04  0.29928837507E+04 0.  0.
        3    1    3    3  502    0  0.12820275900E+03  0.14621791886E+04 -0.83926180979E+03  0.16907880774E+04  0.10100000352E+00 0.  1.
       -3    1    3    3    0  502 -0.12820275900E+03 -0.14621791886E+04 -0.15899669580E+04  0.21638851321E+04  0.10100000352E+00 0. -1.
</event>
<event>
 5   0  0.1976233E-05  0.2816702E+04  0.7818609E-02  0.8298102E-01
        2   -1    0    0  501    0  0.00000000000E+00  0.00000000000E+00  0.15643558556E+04  0.15643558556E+04  0.25500000920E-02 0.  1.
       -2   -1    0    0    0  501  0.00000000000E+00  0.00000000000E+00 -0.12679035033E+04  0.12679035033E+04  0.25500000920E-02 0. -1.
    10030    2    1    2    0    0  0.00000000000E+00  0.00000000000E+00  0.29645235231E+03  0.28322593589E+04  0.28167018087E+04 0.  0.
        2    1    3    3  502    0  0.14823133803E+03  0.89995994715E+03  0.12272571056E+04  0.15290717574E+04  0.25500000920E-02 0.  1.
       -2    1    3    3    0  502 -0.14823133803E+03 -0.89995994715E+03 -0.93080475327E+03  0.13031876015E+04  0.25500000920E-02 0. -1.
</event>
<event>
 5   0  0.1976233E-05  0.2888634E+04  0.7818609E-02  0.8276267E-01
       -2   -1    0    0    0  501  0.00000000000E+00  0.00000000000E+00  0.28184201363E+04  0.28184201363E+04  0.25500000920E-02 0. -1.
        2   -1    0    0  501    0  0.00000000000E+00  0.00000000000E+00 -0.74014909662E+03  0.74014909662E+03  0.25500000920E-02 0.  1.
    10030    2    1    2    0    0  0.00000000000E+00  0.00000000000E+00  0.20782710397E+04  0.35585692329E+04  0.28886336686E+04 0.  0.
        2    1    3    3  502    0 -0.44206158619E+03  0.28598067018E+03 -0.61771739082E+03  0.81165150442E+03  0.25500000920E-02 0.  1.
       -2    1    3    3    0  502  0.44206158619E+03 -0.28598067018E+03  0.26959884305E+04  0.27469177285E+04  0.25500000920E-02 0. -1.
</event>
<event>
 5   0  0.1829810E-05  0.1566550E+04  0.7818609E-02  0.8841365E-01
       -2   -1    0    0    0  501  0.00000000000E+00  0.00000000000E+00  0.37277859887E+03  0.37277859888E+03  0.25500000920E-02 0. -1.
        2   -1    0    0  501    0  0.00000000000E+00  0.00000000000E+00 -0.16458027201E+04  0.16458027201E+04  0.25500000920E-02 0.  1.
    10030    2    1    2    0    0  0.00000000000E+00  0.00000000000E+00 -0.12730241213E+04  0.20185813190E+04  0.15665503912E+04 0.  0.
        4    1    3    3  502    0 -0.15558038657E+03 -0.76202425093E+03 -0.75623095959E+03  0.10847917279E+04  0.12699999809E+01 0.  1.
       -4    1    3    3    0  502  0.15558038657E+03  0.76202425093E+03 -0.51679316167E+03  0.93378959115E+03  0.12699999809E+01 0. -1.
</event>
<event>
 5   0  0.1960961E-05  0.2844333E+04  0.7818609E-02  0.8289635E-01
        2   -1    0    0  501    0  0.00000000000E+00  0.00000000000E+00  0.28646755436E+04  0.28646755436E+04  0.25500000920E-02 0. -1.
       -2   -1    0    0    0  501  0.00000000000E+00  0.00000000000E+00 -0.70603367331E+03  0.70603367332E+03  0.25500000920E-02 0.  1.
    10030    2    1    2    0    0  0.00000000000E+00  0.00000000000E+00  0.21586418703E+04  0.35707092169E+04  0.28443328897E+04 0.  0.
        5    1    3    3  502    0 -0.92686984516E+03 -0.61689296016E+03 -0.31450290453E+02  0.11138473167E+04  0.46999998093E+01 0.  1.
       -5    1    3    3    0  502  0.92686984516E+03  0.61689296016E+03  0.21900921607E+04  0.24568619002E+04  0.46999998093E+01 0. -1.
</event>
<event>
 5   0  0.1960961E-05  0.2753246E+04  0.7818609E-02  0.8317932E-01
        2   -1    0    0  501    0  0.00000000000E+00  0.00000000000E+00  0.23695723515E+04  0.23695723515E+04  0.25500000920E-02 0. -1.
       -2   -1    0    0    0  501  0.00000000000E+00  0.00000000000E+00 -0.79976049298E+03  0.79976049299E+03  0.25500000920E-02 0.  1.
    10030    2    1    2    0    0  0.00000000000E+00  0.00000000000E+00  0.15698118586E+04  0.31693328445E+04  0.27532456135E+04 0.  0.
        5    1    3    3  502    0 -0.43709463900E+03 -0.97713110389E+03 -0.21148752169E+03  0.10911397617E+04  0.46999998093E+01 0.  1.
       -5    1    3    3    0  502  0.43709463900E+03  0.97713110389E+03  0.17812993803E+04  0.20781930829E+04  0.46999998093E+01 0. -1.
</event>
<event>
 5   0  0.1937947E-05  0.2787206E+04  0.7818609E-02  0.8307252E-01
       -2   -1    0    0    0  501  0.00000000000E+00  0.00000000000E+00  0.90583315960E+03  0.90583315960E+03  0.25500000920E-02 0. -1.
        2   -1    0    0  501    0  0.00000000000E+00  0.00000000000E+00 -0.21440248412E+04  0.21440248412E+04  0.25500000920E-02 0.  1.
    10030    2    1    2    0    0  0.00000000000E+00  0.00000000000E+00 -0.12381916816E+04  0.30498580008E+04  0.27872056229E+04 0.  0.
        3    1    3    3  502    0 -0.28516202386E+03 -0.12711818557E+04 -0.11606129475E+04  0.17447759496E+04  0.10100000352E+00 0.  1.
       -3    1    3    3    0  502  0.28516202386E+03  0.12711818557E+04 -0.77578734009E+02  0.13050820512E+04  0.10100000352E+00 0. -1.
</event>
<event>
 5   0  0.8122088E-06  0.1525526E+04  0.7818609E-02  0.8867653E-01
        1   -1    0    0  501    0  0.00000000000E+00  0.00000000000E+00  0.16588680297E+04  0.16588680297E+04  0.50400001928E-02 0. -1.
       -1   -1    0    0    0  501  0.00000000000E+00  0.00000000000E+00 -0.35072571576E+03  0.35072571579E+03  0.50400001928E-02 0.  1.
    10030    2    1    2    0    0  0.00000000000E+00  0.00000000000E+00  0.13081423139E+04  0.20095937455E+04  0.15255263709E+04 0.  0.
        1    1    3    3  502    0  0.39864341882E+03  0.60854869948E+03  0.95607641380E+03  0.12013867837E+04  0.50400001928E-02 0. -1.
       -1    1    3    3    0  502 -0.39864341882E+03 -0.60854869948E+03  0.35206590013E+03  0.80820696178E+03  0.50400001928E-02 0.  1.
</event>
<event>
 5   0  0.8122088E-06  0.2873483E+04  0.7818609E-02  0.8280811E-01
        1   -1    0    0  501    0  0.00000000000E+00  0.00000000000E+00  0.10284954009E+04  0.10284954009E+04  0.50400001928E-02 0.  1.
       -1   -1    0    0    0  501  0.00000000000E+00  0.00000000000E+00 -0.20070351121E+04  0.20070351121E+04  0.50400001928E-02 0. -1.
    10030    2    1    2    0    0  0.00000000000E+00  0.00000000000E+00 -0.97853971126E+03  0.30355305130E+04  0.28734831701E+04 0.  0.
        1    1    3    3  502    0  0.14315449427E+04 -0.10071834616E+03 -0.41637657048E+03  0.14942672307E+04  0.50400001928E-02 0.  1.
       -1    1    3    3    0  502 -0.14315449427E+04  0.10071834616E+03 -0.56216314078E+03  0.15412632823E+04  0.50400001928E-02 0. -1.
</event>
<event>
 5   0  0.1976233E-05  0.2865358E+04  0.7818609E-02  0.8283260E-01
        2   -1    0    0  501    0  0.00000000000E+00  0.00000000000E+00  0.15822698702E+04  0.15822698702E+04  0.25500000920E-02 0.  1.
       -2   -1    0    0    0  501  0.00000000000E+00  0.00000000000E+00 -0.12972304252E+04  0.12972304252E+04  0.25500000920E-02 0. -1.
    10030    2    1    2    0    0  0.00000000000E+00  0.00000000000E+00  0.28503944491E+03  0.28795002954E+04  0.28653576506E+04 0.  0.
        2    1    3    3  502    0  0.19527233581E+03 -0.11153445072E+04  0.10246014333E+04  0.15270667150E+04  0.25500000920E-02 0.  1.
       -2    1    3    3    0  502 -0.19527233581E+03  0.11153445072E+04 -0.73956198835E+03  0.13524335804E+04  0.25500000920E-02 0. -1.
</event>
<event>
 5   0  0.1829810E-05  0.2104195E+04  0.7818609E-02  0.8559398E-01
        2   -1    0    0  501    0  0.00000000000E+00  0.00000000000E+00  0.17371775912E+04  0.17371775912E+04  0.25500000920E-02 0.  1.
       -2   -1    0    0    0  501  0.00000000000E+00  0.00000000000E+00 -0.63718823615E+03  0.63718823615E+03  0.25500000920E-02 0. -1.
    10030    2    1    2    0    0  0.00000000000E+00  0.00000000000E+00  0.10999893550E+04  0.23743658273E+04  0.21041949769E+04 0.  0.
        4    1    3    3  502    0 -0.98269802455E+03  0.28226080714E+03  0.27006836577E+03  0.10574994590E+04  0.12699999809E+01 0. -1.
       -4    1    3    3    0  502  0.98269802455E+03 -0.28226080714E+03  0.82992098925E+03  0.13168663683E+04  0.12699999809E+01 0.  1.
</event>
<event>
 5   0  0.7971153E-06  0.3042326E+04  0.7818609E-02  0.8231747E-01
       -1   -1    0    0    0  501  0.00000000000E+00  0.00000000000E+00  0.15236710086E+04  0.15236710086E+04  0.50400001928E-02 0. -1.
        1   -1    0    0  501    0  0.00000000000E+00  0.00000000000E+00 -0.15186588693E+04  0.15186588693E+04  0.50400001928E-02 0.  1.
    10030    2    1    2    0    0  0.00000000000E+00  0.00000000000E+00  0.50121393212E+01  0.30423298779E+04  0.30423257492E+04 0.  0.
        5    1    3    3  502    0  0.97927685776E+03  0.84131120329E+03 -0.80193687585E+03  0.15198396454E+04  0.46999998093E+01 0.  1.
       -5    1    3    3    0  502 -0.97927685776E+03 -0.84131120329E+03  0.80694901517E+03  0.15224902325E+04  0.46999998093E+01 0. -1.
</event>
<event>
 5   0  0.1829810E-05  0.2682373E+04  0.7818609E-02  0.8340747E-01
       -2   -1    0    0    0  501  0.00000000000E+00  0.00000000000E+00  0.11780611431E+04  0.11780611431E+04  0.25500000920E-02 0.  1.
        2   -1    0    0  501    0  0.00000000000E+00  0.00000000000E+00 -0.15268996981E+04  0.15268996981E+04  0.25500000920E-02 0. -1.
    10030    2    1    2    0    0  0.00000000000E+00  0.00000000000E+00 -0.34883855497E+03  0.27049608412E+04  0.26823729821E+04 0.  0.
        4    1    3    3  502    0  0.55255920770E+03  0.39605975064E+03  0.99142800640E+03  0.12021298220E+04  0.12699999809E+01 0.  1.
       -4    1    3    3    0  502 -0.55255920770E+03 -0.39605975064E+03 -0.13402665614E+04  0.15028310193E+04  0.12699999809E+01 0. -1.
</event>
<event>
 5   0  0.7971153E-06  0.2906441E+04  0.7818609E-02  0.8270964E-01
       -1   -1    0    0    0  501  0.00000000000E+00  0.00000000000E+00  0.11715474149E+04  0.11715474149E+04  0.50400001928E-02 0.  1.
        1   -1    0    0  501    0  0.00000000000E+00  0.00000000000E+00 -0.18026157536E+04  0.18026157536E+04  0.50400001928E-02 0. -1.
    10030    2    1    2    0    0  0.00000000000E+00  0.00000000000E+00 -0.63106833866E+03  0.29741631685E+04  0.29064410032E+04 0.  0.
        5    1    3    3  502    0 -0.64202325897E+03 -0.12670237443E+04 -0.62974698695E+03  0.15537523584E+04  0.46999998093E+01 0.  1.
       -5    1    3    3    0  502  0.64202325897E+03  0.12670237443E+04 -0.13213517066E+01  0.14204108101E+04  0.46999998093E+01 0. -1.
</event>
<event>
 5   0  0.7305460E-06  0.2983406E+04  0.7818609E-02  0.8248485E-01
       -1   -1    0    0    0  501  0.00000000000E+00  0.00000000000E+00  0.13066317115E+04  0.13066317116E+04  0.50400001928E-02 0. -1.
        1   -1    0    0  501    0  0.00000000000E+00  0.00000000000E+00 -0.17029875793E+04  0.17029875793E+04  0.50400001928E-02 0.  1.
    10030    2    1    2    0    0  0.00000000000E+00  0.00000000000E+00 -0.39635586775E+03  0.30096192908E+04  0.29834058225E+04 0.  0.
        4    1    3    3  502    0 -0.46801955003E+03  0.11565219450E+04  0.62668042489E+03  0.13961788124E+04  0.12699999809E+01 0. -1.
       -4    1    3    3    0  502  0.46801955003E+03 -0.11565219450E+04 -0.10230362926E+04  0.16134404784E+04  0.12699999809E+01 0.  1.
</event>
<event>
 5   0  0.8122088E-06  0.2029306E+04  0.7818609E-02  0.8593041E-01
        1   -1    0    0  501    0  0.00000000000E+00  0.00000000000E+00  0.16308903431E+04  0.16308903432E+04  0.50400001928E-02 0. -1.
       -1   -1    0    0    0  501  0.00000000000E+00  0.00000000000E+00 -0.63126278345E+03  0.63126278347E+03  0.50400001928E-02 0.  1.
    10030    2    1    2    0    0  0.00000000000E+00  0.00000000000E+00  0.99962755970E+03  0.22621531266E+04  0.20293056719E+04 0.  0.
        1    1    3    3  502    0  0.95799896013E+03  0.25201870850E+02  0.12821269838E+03  0.96686898696E+03  0.50400001928E-02 0. -1.
       -1    1    3    3    0  502 -0.95799896013E+03 -0.25201870850E+02  0.87141486132E+03  0.12952841397E+04  0.50400001928E-02 0.  1.
</event>
<event>
 5   0  0.8122088E-06  0.2590893E+04  0.7818609E-02  0.8371301E-01
        1   -1    0    0  501    0  0.00000000000E+00  0.00000000000E+00  0.17195983890E+04  0.17195983890E+04  0.50400001928E-02 0.  1.
       -1   -1    0    0    0  501  0.00000000000E+00  0.00000000000E+00 -0.97591501236E+03  0.97591501237E+03  0.50400001928E-02 0. -1.
    10030    2    1    2    0    0  0.00000000000E+00  0.00000000000E+00  0.74368337663E+03  0.26955134014E+04  0.25908931920E+04 0.  0.
        1    1    3    3  502    0 -0.61454825542E+03 -0.10804639341E+04  0.75141646633E+03  0.14524801469E+04  0.50400001928E-02 0.  1.
       -1    1    3    3    0  502  0.61454825542E+03  0.10804639341E+04 -0.77330896912E+01  0.12430332545E+04  0.50400001928E-02 0. -1.
</event>
<event>
 5   0  0.8122088E-06  0.3032852E+04  0.7818609E-02  0.8234412E-01
        1   -1    0    0  501    0  0.00000000000E+00  0.00000000000E+00  0.36227462444E+04  0.36227462444E+04  0.50400001928E-02 0. -1.
       -1   -1    0    0    0  501  0.00000000000E+00  0.00000000000E+00 -0.63475247745E+03  0.63475247747E+03  0.50400001928E-02 0.  1.
    10030    2    1    2    0    0  0.00000000000E+00  0.00000000000E+00  0.29879937670E+04  0.42574987219E+04  0.30328515650E+04 0.  0.
        1    1    3    3  502    0  0.91196683744E+03  0.32400653326E+02  0.31941610957E+04  0.33219570166E+04  0.50400001928E-02 0. -1.
       -1    1    3    3    0  502 -0.91196683744E+03 -0.32400653326E+02 -0.20616732869E+03  0.93554170531E+03  0.50400001928E-02 0.  1.
</event>
<event>
 5   0  0.8055928E-06  0.2914196E+04  0.7818609E-02  0.8268666E-01
       -1   -1    0    0    0  501  0.00000000000E+00  0.00000000000E+00  0.15457449368E+04  0.15457449368E+04  0.50400001928E-02 0.  1.
        1   -1    0    0  501    0  0.00000000000E+00  0.00000000000E+00 -0.13735346973E+04  0.13735346973E+04  0.50400001928E-02 0. -1.
    10030    2    1    2    0    0  0.00000000000E+00  0.00000000000E+00  0.17221023950E+03  0.29192796341E+04  0.29141958093E+04 0.  0.
        2    1    3    3  502    0 -0.92787720447E+03  0.90647115365E+03 -0.57874557922E+03  0.14204198339E+04  0.25500000920E-02 0. -1.
       -2    1    3    3    0  502  0.92787720447E+03 -0.90647115365E+03  0.75095581871E+03  0.14988598002E+04  0.25500000920E-02 0.  1.
</event>
<event>
 5   0  0.7971153E-06  0.2980721E+04  0.7818609E-02  0.8249257E-01
       -1   -1    0    0    0  501  0.00000000000E+00  0.00000000000E+00  0.83831993690E+03  0.83831993692E+03  0.50400001928E-02 0.  1.
        1   -1    0    0  501    0  0.00000000000E+00  0.00000000000E+00 -0.26495553421E+04  0.26495553421E+04  0.50400001928E-02 0. -1.
    10030    2    1    2    0    0  0.00000000000E+00  0.00000000000E+00 -0.18112354052E+04  0.34878752790E+04  0.29807214343E+04 0.  0.
        5    1    3    3  502    0  0.45500352455E+03  0.49638639722E+03 -0.24613932700E+04  0.25518437614E+04  0.46999998093E+01 0. -1.
       -5    1    3    3    0  502 -0.45500352455E+03 -0.49638639722E+03  0.65015786487E+03  0.93603151761E+03  0.46999998093E+01 0.  1.
</event>
<event>
 5   0  0.1937947E-05  0.2911266E+04  0.7818609E-02  0.8269533E-01
        2   -1    0    0  501    0  0.00000000000E+00  0.00000000000E+00  0.16630548768E+04  0.16630548768E+04  0.25500000920E-02 0.  1.
       -2   -1    0    0    0  501  0.00000000000E+00  0.00000000000E+00 -0.12740816645E+04  0.12740816645E+04  0.25500000920E-02 0. -1.
    10030    2    1    2    0    0  0.00000000000E+00  0.00000000000E+00  0.38897321229E+03  0.29371365413E+04  0.29112662026E+04 0.  0.
        3    1    3    3  502    0  0.66690802563E+03  0.12573539119E+04  0.50242431959E+03  0.15093493239E+04  0.10100000352E+00 0.  1.
       -3    1    3    3    0  502 -0.66690802563E+03 -0.12573539119E+04 -0.11345110730E+03  0.14277872175E+04  0.10100000352E+00 0. -1.
</event>
<event>
 5   0  0.8234888E-06  0.2620221E+04  0.7818609E-02  0.8361365E-01
        1   -1    0    0  501    0  0.00000000000E+00  0.00000000000E+00  0.13184390415E+04  0.13184390415E+04  0.50400001928E-02 0.  1.
       -1   -1    0    0    0  501  0.00000000000E+00  0.00000000000E+00 -0.13018345111E+04  0.13018345111E+04  0.50400001928E-02 0. -1.
    10030    2    1    2    0    0  0.00000000000E+00  0.00000000000E+00  0.16604530376E+02  0.26202735526E+04  0.26202209410E+04 0.  0.
        3    1    3    3  502    0  0.36424474658E+03 -0.11203571904E+04  0.58147602403E+03  0.13137689471E+04  0.10100000352E+00 0.  1.
       -3    1    3    3    0  502 -0.36424474658E+03  0.11203571904E+04 -0.56487149366E+03  0.13065046055E+04  0.10100000352E+00 0. -1.
</event>
<event>
 5   0  0.8055928E-06  0.2829234E+04  0.7818609E-02  0.8294250E-01
        1   -1    0    0  501    0  0.00000000000E+00  0.00000000000E+00  0.88273559523E+03  0.88273559524E+03  0.50400001928E-02 0.  1.
       -1   -1    0    0    0  501  0.00000000000E+00  0.00000000000E+00 -0.22669763523E+04  0.22669763523E+04  0.50400001928E-02 0. -1.
    10030    2    1    2    0    0  0.00000000000E+00  0.00000000000E+00 -0.13842407571E+04  0.31497119475E+04  0.28292336204E+04 0.  0.
        2    1    3    3  502    0 -0.66722982894E+03 -0.10337848222E+04 -0.14692094979E+04  0.19163724200E+04  0.25500000920E-02 0. -1.
       -2    1    3    3    0  502  0.66722982894E+03  0.10337848222E+04  0.84968740833E+02  0.12333395276E+04  0.25500000920E-02 0.  1.
</event>
<event>
 5   0  0.1960961E-05  0.2889322E+04  0.7818609E-02  0.8276061E-01
       -2   -1    0    0    0  501  0.00000000000E+00  0.00000000000E+00  0.99282879693E+03  0.99282879693E+03  0.25500000920E-02 0.  1.
        2   -1    0    0  501    0  0.00000000000E+00  0.00000000000E+00 -0.21021206763E+04  0.21021206763E+04  0.25500000920E-02 0. -1.
    10030    2    1    2    0    0  0.00000000000E+00  0.00000000000E+00 -0.11092918794E+04  0.30949494733E+04  0.28893223718E+04 0.  0.
        5    1    3    3  502    0  0.22964397718E+03  0.31755798794E+03  0.93479541880E+03  0.10136291220E+04  0.46999998093E+01 0.  1.
       -5    1    3    3    0  502 -0.22964397718E+03 -0.31755798794E+03 -0.20440872982E+04  0.20813203513E+04  0.46999998093E+01 0. -1.
</event>
<event>
 5   0  0.1937947E-05  0.2814765E+04  0.7818609E-02  0.8298699E-01
        2   -1    0    0  501    0  0.00000000000E+00  0.00000000000E+00  0.18118644054E+04  0.18118644054E+04  0.25500000920E-02 0.  1.
       -2   -1    0    0    0  501  0.00000000000E+00  0.00000000000E+00 -0.10931973592E+04  0.10931973592E+04  0.25500000920E-02 0. -1.
    10030    2    1    2    0    0  0.00000000000E+00  0.00000000000E+00  0.71866704621E+03  0.29050617646E+04  0.28147649161E+04 0.  0.
        3    1    3    3  502    0  0.72276860376E+02  0.39943843352E+03 -0.10314682261E+04  0.11084681856E+04  0.10100000352E+00 0. -1.
       -3    1    3    3    0  502 -0.72276860376E+02 -0.39943843352E+03  0.17501352723E+04  0.17965935791E+04  0.10100000352E+00 0.  1.
</event>
<event>
 5   0  0.8122088E-06  0.2879214E+04  0.7818609E-02  0.8279089E-01
       -1   -1    0    0    0  501  0.00000000000E+00  0.00000000000E+00  0.10353750766E+04  0.10353750766E+04  0.50400001928E-02 0. -1.
        1   -1    0    0  501    0  0.00000000000E+00  0.00000000000E+00 -0.20016589480E+04  0.20016589480E+04  0.50400001928E-02 0.  1.
    10030    2    1    2    0    0  0.00000000000E+00  0.00000000000E+00 -0.96628387147E+03  0.30370340246E+04  0.28792136333E+04 0.  0.
        1    1    3    3  502    0 -0.12194896616E+04 -0.93359849024E+02 -0.12841038023E+04  0.17733566114E+04  0.50400001928E-02 0.  1.
       -1    1    3    3    0  502  0.12194896616E+04  0.93359849024E+02  0.31781993086E+03  0.12636774132E+04  0.50400001928E-02 0. -1.
</event>
<event>
 5   0  0.1829810E-05  0.2858970E+04  0.7818609E-02  0.8285191E-01
        2   -1    0    0  501    0  0.00000000000E+00  0.00000000000E+00  0.17758615525E+04  0.17758615525E+04  0.25500000920E-02 0.  1.
       -2   -1    0    0    0  501  0.00000000000E+00  0.00000000000E+00 -0.11506684363E+04  0.11506684363E+04  0.25500000920E-02 0. -1.
    10030    2    1    2    0    0  0.00000000000E+00  0.00000000000E+00  0.62519311625E+03  0.29265299888E+04  0.28589703291E+04 0.  0.
        4    1    3    3  502    0  0.22336931317E+03 -0.13887551780E+04  0.57335417164E+03  0.15189705110E+04  0.12699999809E+01 0. -1.
       -4    1    3    3    0  502 -0.22336931317E+03  0.13887551780E+04  0.51838944611E+02  0.14075594778E+04  0.12699999809E+01 0.  1.
</event>
<event>
 5   0  0.1918901E-05  0.2797829E+04  0.7818609E-02  0.8303943E-01
       -2   -1    0    0    0  501  0.00000000000E+00  0.00000000000E+00  0.13026860667E+04  0.13026860667E+04  0.25500000920E-02 0.  1.
        2   -1    0    0  501    0  0.00000000000E+00  0.00000000000E+00 -0.15022511895E+04  0.15022511895E+04  0.25500000920E-02 0. -1.
    10030    2    1    2    0    0  0.00000000000E+00  0.00000000000E+00 -0.19956512274E+03  0.28049372562E+04  0.27978289392E+04 0.  0.
        1    1    3    3  502    0 -0.36905444658E+03 -0.12895706909E+04 -0.49799183785E+03  0.14308003432E+04  0.50400001928E-02 0.  1.
       -1    1    3    3    0  502  0.36905444658E+03  0.12895706909E+04  0.29842671511E+03  0.13741369130E+04  0.50400001928E-02 0. -1.
</event>
<event>
 5   0  0.1937947E-05  0.1457904E+04  0.7818609E-02  0.8912939E-01
       -2   -1    0    0    0  501  0.00000000000E+00  0.00000000000E+00  0.89859868253E+03  0.89859868253E+03  0.25500000920E-02 0. -1.
        2   -1    0    0  501    0  0.00000000000E+00  0.00000000000E+00 -0.59133297144E+03  0.59133297144E+03  0.25500000920E-02 0.  1.
    10030    2    1    2    0    0  0.00000000000E+00  0.00000000000E+00  0.30726571109E+03  0.14899316540E+04  0.14579040148E+04 0.  0.
        3    1    3    3  502    0  0.67644394925E+03  0.26877129598E+03  0.19395326478E+03  0.75328102667E+03  0.10100000352E+00 0. -1.
       -3    1    3    3    0  502 -0.67644394925E+03 -0.26877129598E+03  0.11331244631E+03  0.73665062730E+03  0.10100000352E+00 0.  1.
</event>
<event>
 5   0  0.7971153E-06  0.2835129E+04  0.7818609E-02  0.8292444E-01
        1   -1    0    0  501    0  0.00000000000E+00  0.00000000000E+00  0.15358849599E+04  0.15358849599E+04  0.50400001928E-02 0.  1.
       -1   -1    0    0    0  501  0.00000000000E+00  0.00000000000E+00 -0.13083595131E+04  0.13083595131E+04  0.50400001928E-02 0. -1.
    10030    2    1    2    0    0  0.00000000000E+00  0.00000000000E+00  0.22752544676E+03  0.28442444730E+04  0.28351294139E+04 0.  0.
        5    1    3    3  502    0 -0.10840424860E+04 -0.65287037662E+03  0.75462774285E+03  0.14733882586E+04  0.46999998093E+01 0.  1.
       -5    1    3    3    0  502  0.10840424860E+04  0.65287037662E+03 -0.52710229609E+03  0.13708562145E+04  0.46999998093E+01 0. -1.
</event>
<event>
 5   0  0.8055928E-06  0.1509504E+04  0.7818609E-02  0.8878157E-01
       -1   -1    0    0    0  501  0.00000000000E+00  0.00000000000E+00  0.14285747514E+04  0.14285747514E+04  0.50400001928E-02 0. -1.
        1   -1    0    0  501    0  0.00000000000E+00  0.00000000000E+00 -0.39875466317E+03  0.39875466320E+03  0.50400001928E-02 0.  1.
    10030    2    1    2    0    0  0.00000000000E+00  0.00000000000E+00  0.10298200882E+04  0.18273294146E+04  0.15095043476E+04 0.  0.
        2    1    3    3  502    0  0.71735321770E+03 -0.11974442996E+03  0.27064148509E+03  0.77600333821E+03  0.25500000920E-02 0. -1.
       -2    1    3    3    0  502 -0.71735321770E+03  0.11974442996E+03  0.75917860315E+03  0.10513260764E+04  0.25500000920E-02 0.  1.
</event>
<event>
 5   0  0.8122088E-06  0.2640821E+04  0.7818609E-02  0.8354466E-01
       -1   -1    0    0    0  501  0.00000000000E+00  0.00000000000E+00  0.98759637737E+03  0.98759637738E+03  0.50400001928E-02 0.  1.
        1   -1    0    0  501    0  0.00000000000E+00  0.00000000000E+00 -0.17653807362E+04  0.17653807362E+04  0.50400001928E-02 0. -1.
    10030    2    1    2    0    0  0.00000000000E+00  0.00000000000E+00 -0.77778435887E+03  0.27529771136E+04  0.26408207965E+04 0.  0.
        1    1    3    3  502    0 -0.37390283597E+02 -0.12100678264E+04 -0.93836542379E+03  0.15317283853E+04  0.50400001928E-02 0. -1.
       -1    1    3    3    0  502  0.37390283597E+02  0.12100678264E+04  0.16058106492E+03  0.12212487283E+04  0.50400001928E-02 0.  1.
</event>
<event>
 5   0  0.1976233E-05  0.2885710E+04  0.7818609E-02  0.8277142E-01
        2   -1    0    0  501    0  0.00000000000E+00  0.00000000000E+00  0.20111329454E+04  0.20111329454E+04  0.25500000920E-02 0. -1.
       -2   -1    0    0    0  501  0.00000000000E+00  0.00000000000E+00 -0.10351531599E+04  0.10351531599E+04  0.25500000920E-02 0.  1.
    10030    2    1    2    0    0  0.00000000000E+00  0.00000000000E+00  0.97597978551E+03  0.30462861053E+04  0.28857100502E+04 0.  0.
        2    1    3    3  502    0  0.31687747687E+03 -0.41131256253E+03  0.19090943613E+04  0.19784414673E+04  0.25500000920E-02 0. -1.
       -2    1    3    3    0  502 -0.31687747687E+03  0.41131256253E+03 -0.93311457576E+03  0.10678446380E+04  0.25500000920E-02 0.  1.
</event>
<event>
 5   0  0.1829810E-05  0.1437552E+04  0.7818609E-02  0.8927076E-01
        2   -1    0    0  501    0  0.00000000000E+00  0.00000000000E+00  0.63469106504E+03  0.63469106504E+03  0.25500000920E-02 0. -1.
       -2   -1    0    0    0  501  0.00000000000E+00  0.00000000000E+00 -0.81400085861E+03  0.81400085861E+03  0.25500000920E-02 0.  1.
    10030    2    1    2    0    0  0.00000000000E+00  0.00000000000E+00 -0.17930979357E+03  0.14486919237E+04  0.14375521860E+04 0.  0.
        4    1    3    3  502    0 -0.25394571531E+03  0.14151823684E+03 -0.75210842579E+03  0.80634021029E+03  0.12699999809E+01 0.  1.
       -4    1    3    3    0  502  0.25394571531E+03 -0.14151823684E+03  0.57279863222E+03  0.64235171336E+03  0.12699999809E+01 0. -1.
</event>
<event>
 5   0  0.8055928E-06  0.2874714E+04  0.7818609E-02  0.8280441E-01
       -1   -1    0    0    0  501  0.00000000000E+00  0.00000000000E+00  0.12663880916E+04  0.12663880916E+04  0.50400001928E-02 0. -1.
        1   -1    0    0  501    0  0.00000000000E+00  0.00000000000E+00 -0.16314077557E+04  0.16314077557E+04  0.50400001928E-02 0.  1.
    10030    2    1    2    0    0  0.00000000000E+00  0.00000000000E+00 -0.36501966410E+03  0.28977958473E+04  0.28747141453E+04 0.  0.
        2    1    3    3  502    0  0.96076479841E+03 -0.90016814869E+03  0.39885624789E+03  0.13756663841E+04  0.25500000920E-02 0. -1.
       -2    1    3    3    0  502 -0.96076479841E+03  0.90016814869E+03 -0.76387591198E+03  0.15221294632E+04  0.25500000920E-02 0.  1.
</event>
<event>
 5   0  0.7971153E-06  0.2882076E+04  0.7818609E-02  0.8278230E-01
       -1   -1    0    0    0  501  0.00000000000E+00  0.00000000000E+00  0.18984738621E+04  0.18984738621E+04  0.50400001928E-02 0.  1.
        1   -1    0    0  501    0  0.00000000000E+00  0.00000000000E+00 -0.10938211326E+04  0.10938211326E+04  0.50400001928E-02 0. -1.
    10030    2    1    2    0    0  0.00000000000E+00  0.00000000000E+00  0.80465272950E+03  0.29922949948E+04  0.28820762170E+04 0.  0.
        5    1    3    3  502    0  0.74512913844E+03 -0.80691443305E+03 -0.56621587613E+03  0.12356985246E+04  0.46999998093E+01 0. -1.
       -5    1    3    3    0  502 -0.74512913844E+03  0.80691443305E+03  0.13708686056E+04  0.17565964702E+04  0.46999998093E+01 0.  1.
</event>
<event>
 5   0  0.8055928E-06  0.2762310E+04  0.7818609E-02  0.8315066E-01
        1   -1    0    0  501    0  0.00000000000E+00  0.00000000000E+00  0.26036808949E+04  0.26036808949E+04  0.50400001928E-02 0.  1.
       -1   -1    0    0    0  501  0.00000000000E+00  0.00000000000E+00 -0.73265098653E+03  0.73265098655E+03  0.50400001928E-02 0. -1.
    10030    2    1    2    0    0  0.00000000000E+00  0.00000000000E+00  0.18710299083E+04  0.33363318814E+04  0.27623101754E+04 0.  0.
        2    1    3    3  502    0 -0.54220391678E+03  0.41543498903E+03 -0.51436322600E+03  0.85506774336E+03  0.25500000920E-02 0. -1.
       -2    1    3    3    0  502  0.54220391678E+03 -0.41543498903E+03  0.23853931343E+04  0.24812641381E+04  0.25500000920E-02 0.  1.
</event>
<event>
 5   0  0.1976233E-05  0.2474004E+04  0.7818609E-02  0.8412306E-01
       -2   -1    0    0    0  501  0.00000000000E+00  0.00000000000E+00  0.16228345655E+04  0.16228345655E+04  0.25500000920E-02 0.  1.
        2   -1    0    0  501    0  0.00000000000E+00  0.00000000000E+00 -0.94290235671E+03  0.94290235671E+03  0.25500000920E-02 0. -1.
    10030    2    1    2    0    0  0.00000000000E+00  0.00000000000E+00  0.67993220878E+03  0.25657369222E+04  0.24740044756E+04 0.  0.
        2    1    3    3  502    0 -0.13890825502E+03 -0.12291735151E+04  0.34348343081E+03  0.12838005689E+04  0.25500000920E-02 0.  1.
       -2    1    3    3    0  502  0.13890825502E+03  0.12291735151E+04  0.33644877797E+03  0.12819363533E+04  0.25500000920E-02 0. -1.
</event>
<event>
 5   0  0.1937947E-05  0.2682313E+04  0.7818609E-02  0.8340767E-01
       -2   -1    0    0    0  501  0.00000000000E+00  0.00000000000E+00  0.14399174417E+04  0.14399174417E+04  0.25500000920E-02 0. -1.
        2   -1    0    0  501    0  0.00000000000E+00  0.00000000000E+00 -0.12491690660E+04  0.12491690660E+04  0.25500000920E-02 0.  1.
    10030    2    1    2    0    0  0.00000000000E+00  0.00000000000E+00  0.19074837570E+03  0.26890865077E+04  0.26823126781E+04 0.  0.
        3    1    3    3  502    0  0.42046323284E+03 -0.98103504393E+03  0.90950949652E+03  0.14022933438E+04  0.10100000352E+00 0. -1.
       -3    1    3    3    0  502 -0.42046323284E+03  0.98103504393E+03 -0.71876112083E+03  0.12867931639E+04  0.10100000352E+00 0.  1.
</event>
<event>
 5   0  0.1976233E-05  0.1579728E+04  0.7818609E-02  0.8833099E-01
        2   -1    0    0  501    0  0.00000000000E+00  0.00000000000E+00  0.62020002442E+03  0.62020002442E+03  0.25500000920E-02 0. -1.
       -2   -1    0    0    0  501  0.00000000000E+00  0.00000000000E+00 -0.10059419791E+04  0.10059419791E+04  0.25500000920E-02 0.  1.
    10030    2    1    2    0    0  0.00000000000E+00  0.00000000000E+00 -0.38574195466E+03  0.16261420035E+04  0.15797281285E+04 0.  0.
        2    1    3    3  502    0 -0.60900602600E+03 -0.20755390237E+03  0.27875882899E+03  0.70119430035E+03  0.25500000920E-02 0. -1.
       -2    1    3    3    0  502  0.60900602600E+03  0.20755390237E+03 -0.66450078365E+03  0.92494770315E+03  0.25500000920E-02 0.  1.
</event>
<event>
 5   0  0.8234888E-06  0.2933747E+04  0.7818609E-02  0.8262907E-01
       -1   -1    0    0    0  501  0.00000000000E+00  0.00000000000E+00  0.12267264963E+04  0.12267264963E+04  0.50400001928E-02 0. -1.
        1   -1    0    0  501    0  0.00000000000E+00  0.00000000000E+00 -0.17540326463E+04  0.17540326464E+04  0.50400001928E-02 0.  1.
    10030    2    1    2    0    0  0.00000000000E+00  0.00000000000E+00 -0.52730615006E+03  0.29807591427E+04  0.29337473120E+04 0.  0.
        3    1    3    3  502    0 -0.28438692146E+03  0.93779418280E+03  0.84534334935E+03  0.12941944363E+04  0.10100000352E+00 0. -1.
       -3    1    3    3    0  502  0.28438692146E+03 -0.93779418280E+03 -0.13726494994E+04  0.16865647064E+04  0.10100000352E+00 0.  1.
</event>
<event>
 5   0  0.7971153E-06  0.2450124E+04  0.7818609E-02  0.8420973E-01
       -1   -1    0    0    0  501  0.00000000000E+00  0.00000000000E+00  0.68619964889E+03  0.68619964891E+03  0.50400001928E-02 0. -1.
        1   -1    0    0  501    0  0.00000000000E+00  0.00000000000E+00 -0.21870852298E+04  0.21870852298E+04  0.50400001928E-02 0.  1.
    10030    2    1    2    0    0  0.00000000000E+00  0.00000000000E+00 -0.15008855809E+04  0.28732848787E+04  0.24501241738E+04 0.  0.
        5    1    3    3  502    0 -0.49174685582E+03  0.27466759660E+03 -0.20262184548E+04  0.21030550577E+04  0.46999998093E+01 0.  1.
       -5    1    3    3    0  502  0.49174685582E+03 -0.27466759660E+03  0.52533287392E+03  0.77022982106E+03  0.46999998093E+01 0. -1.
</event>
<event>
 5   0  0.1937947E-05  0.2843105E+04  0.7818609E-02  0.8290009E-01
       -2   -1    0    0    0  501  0.00000000000E+00  0.00000000000E+00  0.12302764030E+04  0.12302764030E+04  0.25500000920E-02 0. -1.
        2   -1    0    0  501    0  0.00000000000E+00  0.00000000000E+00 -0.16425676265E+04  0.16425676265E+04  0.25500000920E-02 0.  1.
    10030    2    1    2    0    0  0.00000000000E+00  0.00000000000E+00 -0.41229122347E+03  0.28728440295E+04  0.28431054791E+04 0.  0.
        3    1    3    3  502    0 -0.21681061353E+03 -0.22136487721E+03 -0.16080300391E+04  0.16376110246E+04  0.10100000352E+00 0.  1.
       -3    1    3    3    0  502  0.21681061353E+03  0.22136487721E+03  0.11957388157E+04  0.12352330049E+04  0.10100000352E+00 0. -1.
</event>
<event>
 5   0  0.7971153E-06  0.2907696E+04  0.7818609E-02  0.8270592E-01
       -1   -1    0    0    0  501  0.00000000000E+00  0.00000000000E+00  0.14553133585E+04  0.14553133585E+04  0.50400001928E-02 0.  1.
        1   -1    0    0  501    0  0.00000000000E+00  0.00000000000E+00 -0.14523836258E+04  0.14523836258E+04  0.50400001928E-02 0. -1.
    10030    2    1    2    0    0  0.00000000000E+00  0.00000000000E+00  0.29297327345E+01  0.29076969843E+04  0.29076955083E+04 0.  0.
        5    1    3    3  502    0  0.50294469687E+03 -0.97234077144E+02  0.13620696024E+04  0.14552194081E+04  0.46999998093E+01 0.  1.
       -5    1    3    3    0  502 -0.50294469687E+03  0.97234077144E+02 -0.13591398697E+04  0.14524775762E+04  0.46999998093E+01 0. -1.
</event>
<event>
 5   0  0.8055928E-06  0.2834200E+04  0.7818609E-02  0.8292729E-01
       -1   -1    0    0    0  501  0.00000000000E+00  0.00000000000E+00  0.21565959008E+04  0.21565959008E+04  0.50400001928E-02 0.  1.
        1   -1    0    0  501    0  0.00000000000E+00  0.00000000000E+00 -0.93117671538E+03  0.93117671540E+03  0.50400001928E-02 0. -1.
    10030    2    1    2    0    0  0.00000000000E+00  0.00000000000E+00  0.12254191854E+04  0.30877726162E+04  0.28341996312E+04 0.  0.
        2    1    3    3  502    0 -0.25769397351E+03 -0.10046574492E+04 -0.43930747716E+03  0.11263808564E+04  0.25500000920E-02 0. -1.
       -2    1    3    3    0  502  0.25769397351E+03  0.10046574492E+04  0.16647266626E+04  0.19613917598E+04  0.25500000920E-02 0.  1.
</event>
<event>
 5   0  0.1960961E-05  0.1620565E+04  0.7818609E-02  0.8808013E-01
       -2   -1    0    0    0  501  0.00000000000E+00  0.00000000000E+00  0.83990865919E+03  0.83990865919E+03  0.25500000920E-02 0. -1.
        2   -1    0    0  501    0  0.00000000000E+00  0.00000000000E+00 -0.78170124970E+03  0.78170124971E+03  0.25500000920E-02 0.  1.
    10030    2    1    2    0    0  0.00000000000E+00  0.00000000000E+00  0.58207409485E+02  0.16216099089E+04  0.16205648997E+04 0.  0.
        5    1    3    3  502    0  0.11413281237E+03  0.77745816657E+03  0.22688757829E+03  0.81790437266E+03  0.46999998093E+01 0. -1.
       -5    1    3    3    0  502 -0.11413281237E+03 -0.77745816657E+03 -0.16868016880E+03  0.80370553624E+03  0.46999998093E+01 0.  1.
</event>
<event>
 5   0  0.8122088E-06  0.1504586E+04  0.7818609E-02  0.8881409E-01
       -1   -1    0    0    0  501  0.00000000000E+00  0.00000000000E+00  0.66990534254E+03  0.66990534256E+03  0.50400001928E-02 0.  1.
        1   -1    0    0  501    0  0.00000000000E+00  0.00000000000E+00 -0.84481263293E+03  0.84481263294E+03  0.50400001928E-02 0. -1.
    10030    2    1    2    0    0  0.00000000000E+00  0.00000000000E+00 -0.17490729039E+03  0.15147179755E+04  0.15045856523E+04 0.  0.
        1    1    3    3  502    0 -0.14625264615E+03 -0.73378560521E+03 -0.87392201718E+01  0.74826968729E+03  0.50400001928E-02 0.  1.
       -1    1    3    3    0  502  0.14625264615E+03  0.73378560521E+03 -0.16616807022E+03  0.76644828821E+03  0.50400001928E-02 0. -1.
</event>
<event>
 5   0  0.1937947E-05  0.2931514E+04  0.7818609E-02  0.8263562E-01
       -2   -1    0    0    0  501  0.00000000000E+00  0.00000000000E+00  0.12200434166E+04  0.12200434166E+04  0.25500000920E-02 0. -1.
        2   -1    0    0  501    0  0.00000000000E+00  0.00000000000E+00 -0.17609567317E+04  0.17609567317E+04  0.25500000920E-02 0.  1.
    10030    2    1    2    0    0  0.00000000000E+00  0.00000000000E+00 -0.54091331514E+03  0.29810001483E+04  0.29315140576E+04 0.  0.
        3    1    3    3  502    0 -0.56194998745E+02  0.11411999451E+04 -0.12040774786E+04  0.16599089666E+04  0.10100000352E+00 0.  1.
       -3    1    3    3    0  502  0.56194998745E+02 -0.11411999451E+04  0.66316416346E+03  0.13210911818E+04  0.10100000352E+00 0. -1.
</event>
<event>
 5   0  0.1829810E-05  0.2556835E+04  0.7818609E-02  0.8383013E-01
       -2   -1    0    0    0  501  0.00000000000E+00  0.00000000000E+00  0.12569774832E+04  0.12569774832E+04  0.25500000920E-02 0. -1.
        2   -1    0    0  501    0  0.00000000000E+00  0.00000000000E+00 -0.13002233925E+04  0.13002233925E+04  0.25500000920E-02 0.  1.
    10030    2    1    2    0    0  0.00000000000E+00  0.00000000000E+00 -0.43245909302E+02  0.25572008758E+04  0.25568351747E+04 0.  0.
        4    1    3    3  502    0 -0.75158833438E+03 -0.53974147075E+02 -0.10545105569E+04  0.12960680385E+04  0.12699999809E+01 0.  1.
       -4    1    3    3    0  502  0.75158833438E+03  0.53974147075E+02  0.10112646476E+04  0.12611328373E+04  0.12699999809E+01 0. -1.
</event>
<event>
 5   0  0.1937947E-05  0.2921779E+04  0.7818609E-02  0.8266427E-01
       -2   -1    0    0    0  501  0.00000000000E+00  0.00000000000E+00  0.19404557110E+04  0.19404557110E+04  0.25500000920E-02 0.  1.
        2   -1    0    0  501    0  0.00000000000E+00  0.00000000000E+00 -0.10998437810E+04  0.10998437810E+04  0.25500000920E-02 0. -1.
    10030    2    1    2    0    0  0.00000000000E+00  0.00000000000E+00  0.84061192999E+03  0.30402994921E+04  0.29217790102E+04 0.  0.
        3    1    3    3  502    0 -0.85690177783E+03 -0.11795236771E+04  0.51703579127E+03  0.15468945605E+04  0.10100000352E+00 0. -1.
       -3    1    3    3    0  502  0.85690177783E+03  0.11795236771E+04  0.32357613872E+03  0.14934049315E+04  0.10100000352E+00 0.  1.
</event>
<event>
 5   0  0.8055928E-06  0.2847935E+04  0.7818609E-02  0.8288539E-01
        1   -1    0    0  501    0  0.00000000000E+00  0.00000000000E+00  0.16857281287E+04  0.16857281287E+04  0.50400001928E-02 0. -1.
       -1   -1    0    0    0  501  0.00000000000E+00  0.00000000000E+00 -0.12028531331E+04  0.12028531331E+04  0.50400001928E-02 0.  1.
    10030    2    1    2    0    0  0.00000000000E+00  0.00000000000E+00  0.48287499562E+03  0.28885812617E+04  0.28479349438E+04 0.  0.
        2    1    3    3  502    0 -0.10706607512E+04 -0.41993125878E+03  0.10930799340E+04  0.15866570040E+04  0.25500000920E-02 0. -1.
       -2    1    3    3    0  502  0.10706607512E+04  0.41993125878E+03 -0.61020493834E+03  0.13019242578E+04  0.25500000920E-02 0.  1.
</event>
<event>
 5   0  0.1829810E-05  0.1513898E+04  0.7818609E-02  0.8875263E-01
       -2   -1    0    0    0  501  0.00000000000E+00  0.00000000000E+00  0.87348519053E+03  0.87348519053E+03  0.25500000920E-02 0.  1.
        2   -1    0    0  501    0  0.00000000000E+00  0.00000000000E+00 -0.65596091814E+03  0.65596091815E+03  0.25500000920E-02 0. -1.
    10030    2    1    2    0    0  0.00000000000E+00  0.00000000000E+00  0.21752427239E+03  0.15294461087E+04  0.15138984742E+04 0.  0.
        4    1    3    3  502    0  0.19667197850E+03  0.67433293816E+03  0.39373304311E+03  0.80525281791E+03  0.12699999809E+01 0.  1.
       -4    1    3    3    0  502 -0.19667197850E+03 -0.67433293816E+03 -0.17620877072E+03  0.72419329077E+03  0.12699999809E+01 0. -1.
</event>
<event>
 5   0  0.7971153E-06  0.1739313E+04  0.7818609E-02  0.8739255E-01
       -1   -1    0    0    0  501  0.00000000000E+00  0.00000000000E+00  0.35165764557E+03  0.35165764561E+03  0.50400001928E-02 0. -1.
        1   -1    0    0  501    0  0.00000000000E+00  0.00000000000E+00 -0.21506775244E+04  0.21506775244E+04  0.50400001928E-02 0.  1.
    10030    2    1    2    0    0  0.00000000000E+00  0.00000000000E+00 -0.17990198788E+04  0.25023351700E+04  0.17393127317E+04 0.  0.
        5    1    3    3  502    0 -0.70627869284E+03 -0.31102283075E+03 -0.32274821573E+03  0.83651257848E+03  0.46999998093E+01 0. -1.
       -5    1    3    3    0  502  0.70627869284E+03  0.31102283075E+03 -0.14762716631E+04  0.16658225915E+04  0.46999998093E+01 0.  1.
</event>
<event>
 5   0  0.1960961E-05  0.2979603E+04  0.7818609E-02  0.8249580E-01
        2   -1    0    0  501    0  0.00000000000E+00  0.00000000000E+00  0.19148385282E+04  0.19148385282E+04  0.25500000920E-02 0. -1.
       -2   -1    0    0    0  501  0.00000000000E+00  0.00000000000E+00 -0.11591097812E+04  0.11591097812E+04  0.25500000920E-02 0.  1.
    10030    2    1    2    0    0  0.00000000000E+00  0.00000000000E+00  0.75572874702E+03  0.30739483094E+04  0.29796027034E+04 0.  0.
        5    1    3    3  502    0 -0.30315123595E+03  0.13259118506E+04  0.10050133704E+04  0.16911584408E+04  0.46999998093E+01 0. -1.
       -5    1    3    3    0  502  0.30315123595E+03 -0.13259118506E+04 -0.24928462336E+03  0.13827898686E+04  0.46999998093E+01 0.  1.
</event>
<event>
 5   0  0.8055928E-06  0.2790875E+04  0.7818609E-02  0.8306107E-01
        1   -1    0    0  501    0  0.00000000000E+00  0.00000000000E+00  0.15661956872E+04  0.15661956872E+04  0.50400001928E-02 0. -1.
       -1   -1    0    0    0  501  0.00000000000E+00  0.00000000000E+00 -0.12432963303E+04  0.12432963304E+04  0.50400001928E-02 0.  1.
    10030    2    1    2    0    0  0.00000000000E+00  0.00000000000E+00  0.32289935686E+03  0.28094920176E+04  0.27908746661E+04 0.  0.
        2    1    3    3  502    0 -0.36784018198E+03 -0.73280091975E+03  0.12981150849E+04  0.15353847600E+04  0.25500000920E-02 0. -1.
       -2    1    3    3    0  502  0.36784018198E+03  0.73280091975E+03 -0.97521572809E+03  0.12741072576E+04  0.25500000920E-02 0.  1.
</event>
<event>
 5   0  0.8234888E-06  0.2900161E+04  0.7818609E-02  0.8272830E-01
       -1   -1    0    0    0  501  0.00000000000E+00  0.00000000000E+00  0.11573714312E+04  0.11573714312E+04  0.50400001928E-02 0.  1.
        1   -1    0    0  501    0  0.00000000000E+00  0.00000000000E+00 -0.18168179767E+04  0.18168179767E+04  0.50400001928E-02 0. -1.
    10030    2    1    2    0    0  0.00000000000E+00  0.00000000000E+00 -0.65944654554E+03  0.29741894079E+04  0.29001608383E+04 0.  0.
        3    1    3    3  502    0 -0.91084592193E+03 -0.76205003013E+03  0.52360571125E+03  0.12978919419E+04  0.10100000352E+00 0.  1.
       -3    1    3    3    0  502  0.91084592193E+03  0.76205003013E+03 -0.11830522568E+04  0.16762974660E+04  0.10100000352E+00 0. -1.
</event>
<event>
 5   0  0.7971153E-06  0.2896490E+04  0.7818609E-02  0.8273922E-01
       -1   -1    0    0    0  501  0.00000000000E+00  0.00000000000E+00  0.20955057560E+04  0.20955057560E+04  0.50400001928E-02 0.  1.
        1   -1    0    0  501    0  0.00000000000E+00  0.00000000000E+00 -0.10009106114E+04  0.10009106114E+04  0.50400001928E-02 0. -1.
    10030    2    1    2    0    0  0.00000000000E+00  0.00000000000E+00  0.10945951446E+04  0.30964163675E+04  0.28964902538E+04 0.  0.
        5    1    3    3  502    0  0.11809442993E+04  0.73990940191E+03  0.12602022042E+03  0.13992850128E+04  0.46999998093E+01 0. -1.
       -5    1    3    3    0  502 -0.11809442993E+04 -0.73990940191E+03  0.96857492421E+03  0.16971313547E+04  0.46999998093E+01 0.  1.
</event>
<event>
 5   0  0.1960961E-05  0.1990411E+04  0.7818609E-02  0.8611117E-01
       -2   -1    0    0    0  501  0.00000000000E+00  0.00000000000E+00  0.10057726231E+04  0.10057726231E+04  0.25500000920E-02 0. -1.
        2   -1    0    0  501    0  0.00000000000E+00  0.00000000000E+00 -0.98474902782E+03  0.98474902783E+03  0.25500000920E-02 0.  1.
    10030    2    1    2    0    0  0.00000000000E+00  0.00000000000E+00  0.21023595274E+02  0.19905216509E+04  0.19904106238E+04 0.  0.
        5    1    3    3  502    0  0.51661785390E+03 -0.94188502585E+02 -0.83490275833E+03  0.98633168196E+03  0.46999998093E+01 0.  1.
       -5    1    3    3    0  502 -0.51661785390E+03  0.94188502585E+02  0.85592635360E+03  0.10041899690E+04  0.46999998093E+01 0. -1.
</event>
<event>
 5   0  0.8122088E-06  0.2766912E+04  0.7818609E-02  0.8313615E-01
        1   -1    0    0  501    0  0.00000000000E+00  0.00000000000E+00  0.19428291712E+04  0.19428291713E+04  0.50400001928E-02 0. -1.
       -1   -1    0    0    0  501  0.00000000000E+00  0.00000000000E+00 -0.98513572345E+03  0.98513572346E+03  0.50400001928E-02 0.  1.
    10030    2    1    2    0    0  0.00000000000E+00  0.00000000000E+00  0.95769344780E+03  0.29279648947E+04  0.27669119402E+04 0.  0.
        1    1    3    3  502    0  0.54619589225E+03 -0.60156451677E+03  0.16637267348E+04  0.18515389461E+04  0.50400001928E-02 0.  1.
       -1    1    3    3    0  502 -0.54619589225E+03  0.60156451677E+03 -0.70603328703E+03  0.10764259487E+04  0.50400001928E-02 0. -1.
</event>
<event>
 5   0  0.7971153E-06  0.2497863E+04  0.7818609E-02  0.8403747E-01
       -1   -1    0    0    0  501  0.00000000000E+00  0.00000000000E+00  0.80415868038E+03  0.80415868040E+03  0.50400001928E-02 0. -1.
        1   -1    0    0  501    0  0.00000000000E+00  0.00000000000E+00 -0.19397041019E+04  0.19397041019E+04  0.50400001928E-02 0.  1.
    10030    2    1    2    0    0  0.00000000000E+00  0.00000000000E+00 -0.11355454215E+04  0.27438627823E+04  0.24978629994E+04 0.  0.
        5    1    3    3  502    0 -0.49524939822E+03  0.19191716137E+03  0.67390486989E+03  0.85806411586E+03  0.46999998093E+01 0. -1.
       -5    1    3    3    0  502  0.49524939822E+03 -0.19191716137E+03 -0.18094502914E+04  0.18857986665E+04  0.46999998093E+01 0.  1.
</event>
<event>
 5   0  0.7305460E-06  0.2520079E+04  0.7818609E-02  0.8395867E-01
       -1   -1    0    0    0  501  0.00000000000E+00  0.00000000000E+00  0.19246879606E+04  0.19246879606E+04  0.50400001928E-02 0.  1.
        1   -1    0    0  501    0  0.00000000000E+00  0.00000000000E+00 -0.82491262115E+03  0.82491262117E+03  0.50400001928E-02 0. -1.
    10030    2    1    2    0    0  0.00000000000E+00  0.00000000000E+00  0.10997753395E+04  0.27496005818E+04  0.25200788801E+04 0.  0.
        4    1    3    3  502    0 -0.12080075318E+04  0.23617884820E+03  0.84394285558E+03  0.14924154252E+04  0.12699999809E+01 0. -1.
       -4    1    3    3    0  502  0.12080075318E+04 -0.23617884820E+03  0.25583248387E+03  0.12571851565E+04  0.12699999809E+01 0.  1.
</event>
<event>
 5   0  0.8055928E-06  0.2940777E+04  0.7818609E-02  0.8260847E-01
       -1   -1    0    0    0  501  0.00000000000E+00  0.00000000000E+00  0.14041857240E+04  0.14041857240E+04  0.50400001928E-02 0.  1.
        1   -1    0    0  501    0  0.00000000000E+00  0.00000000000E+00 -0.15397125198E+04  0.15397125198E+04  0.50400001928E-02 0. -1.
    10030    2    1    2    0    0  0.00000000000E+00  0.00000000000E+00 -0.13552679583E+03  0.29438982438E+04  0.29407769989E+04 0.  0.
        2    1    3    3  502    0  0.13183678602E+04  0.58291003571E+03  0.22265555513E+03  0.14585792474E+04  0.25500000920E-02 0.  1.
       -2    1    3    3    0  502 -0.13183678602E+04 -0.58291003571E+03 -0.35818235096E+03  0.14853189964E+04  0.25500000920E-02 0. -1.
</event>
<event>
 5   0  0.1976233E-05  0.2937976E+04  0.7818609E-02  0.8261667E-01
       -2   -1    0    0    0  501  0.00000000000E+00  0.00000000000E+00  0.14134048720E+04  0.14134048720E+04  0.25500000920E-02 0. -1.
        2   -1    0    0  501    0  0.00000000000E+00  0.00000000000E+00 -0.15267573963E+04  0.15267573963E+04  0.25500000920E-02 0.  1.
    10030    2    1    2    0    0  0.00000000000E+00  0.00000000000E+00 -0.11335252430E+03  0.29401622684E+04  0.29379764073E+04 0.  0.
        2    1    3    3  502    0  0.85857007992E+03 -0.74114144423E+03 -0.99090877498E+03  0.15060987427E+04  0.25500000920E-02 0.  1.
       -2    1    3    3    0  502 -0.85857007992E+03  0.74114144423E+03  0.87755625068E+03  0.14340635257E+04  0.25500000920E-02 0. -1.
</event>
<event>
 5   0  0.1937947E-05  0.2941531E+04  0.7818609E-02  0.8260627E-01
       -2   -1    0    0    0  501  0.00000000000E+00  0.00000000000E+00  0.18001295548E+04  0.18001295548E+04  0.25500000920E-02 0. -1.
        2   -1    0    0  501    0  0.00000000000E+00  0.00000000000E+00 -0.12016638032E+04  0.12016638032E+04  0.25500000920E-02 0.  1.
    10030    2    1    2    0    0  0.00000000000E+00  0.00000000000E+00  0.59846575153E+03  0.30017933580E+04  0.29415305724E+04 0.  0.
        3    1    3    3  502    0 -0.14217848903E+04  0.39218348642E+02  0.68125519419E+03  0.15770602408E+04  0.10100000352E+00 0. -1.
       -3    1    3    3    0  502  0.14217848903E+04 -0.39218348642E+02 -0.82789442659E+02  0.14247331172E+04  0.10100000352E+00 0.  1.
</event>
<event>
 5   0  0.1829810E-05  0.2847087E+04  0.7818609E-02  0.8288797E-01
        2   -1    0    0  501    0  0.00000000000E+00  0.00000000000E+00  0.16681257721E+04  0.16681257721E+04  0.25500000920E-02 0. -1.
       -2   -1    0    0    0  501  0.00000000000E+00  0.00000000000E+00 -0.12148221936E+04  0.12148221936E+04  0.25500000920E-02 0.  1.
    10030    2    1    2    0    0  0.00000000000E+00  0.00000000000E+00  0.45330357848E+03  0.28829479657E+04  0.28470870796E+04 0.  0.
        4    1    3    3  502    0  0.74025349133E+03 -0.92934704267E+03 -0.56732485924E+03  0.13166321681E+04  0.12699999809E+01 0.  1.
       -4    1    3    3    0  502 -0.74025349133E+03  0.92934704267E+03  0.10206284377E+04  0.15663157976E+04  0.12699999809E+01 0. -1.
</event>
<event>
 5   0  0.7971153E-06  0.2929895E+04  0.7818609E-02  0.8264038E-01
        1   -1    0    0  501    0  0.00000000000E+00  0.00000000000E+00  0.77465264680E+03  0.77465264682E+03  0.50400001928E-02 0. -1.
       -1   -1    0    0    0  501  0.00000000000E+00  0.00000000000E+00 -0.27703653580E+04  0.27703653580E+04  0.50400001928E-02 0.  1.
    10030    2    1    2    0    0  0.00000000000E+00  0.00000000000E+00 -0.19957127112E+04  0.35450180048E+04  0.29298947812E+04 0.  0.
        5    1    3    3  502    0 -0.49070585858E+03  0.11196737172E+04 -0.21175388164E+02  0.12226741020E+04  0.46999998093E+01 0. -1.
       -5    1    3    3    0  502  0.49070585858E+03 -0.11196737172E+04 -0.19745373230E+04  0.23223439028E+04  0.46999998093E+01 0.  1.
</event>
<event>
 5   0  0.1918901E-05  0.2627912E+04  0.7818609E-02  0.8358782E-01
        2   -1    0    0  501    0  0.00000000000E+00  0.00000000000E+00  0.11288110944E+04  0.11288110944E+04  0.25500000920E-02 0.  1.
       -2   -1    0    0    0  501  0.00000000000E+00  0.00000000000E+00 -0.15294675834E+04  0.15294675834E+04  0.25500000920E-02 0. -1.
    10030    2    1    2    0    0  0.00000000000E+00  0.00000000000E+00 -0.40065648899E+03  0.26582786779E+04  0.26279117008E+04 0.  0.
        1    1    3    3  502    0  0.42532063513E+03 -0.17516702478E+03  0.10447067453E+04  0.11414873249E+04  0.50400001928E-02 0.  1.
       -1    1    3    3    0  502 -0.42532063513E+03  0.17516702478E+03 -0.14453632343E+04  0.15167913529E+04  0.50400001928E-02 0. -1.
</event>
<event>
 5   0  0.1960961E-05  0.1968650E+04  0.7818609E-02  0.8621420E-01
        2   -1    0    0  501    0  0.00000000000E+00  0.00000000000E+00  0.24858015881E+04  0.24858015881E+04  0.25500000920E-02 0. -1.
       -2   -1    0    0    0  501  0.00000000000E+00  0.00000000000E+00 -0.38977203550E+03  0.38977203551E+03  0.25500000920E-02 0.  1.
    10030    2    1    2    0    0  0.00000000000E+00  0.00000000000E+00  0.20960295526E+04  0.28755736236E+04  0.19686502430E+04 0.  0.
        5    1    3    3  502    0 -0.65051123927E+03 -0.44503678767E+03  0.19092619664E+04  0.20655570583E+04  0.46999998093E+01 0. -1.
       -5    1    3    3    0  502  0.65051123927E+03  0.44503678767E+03  0.18676758619E+03  0.81001656529E+03  0.46999998093E+01 0.  1.
</event>
<event>
 5   0  0.7305460E-06  0.1766638E+04  0.7818609E-02  0.8724245E-01
        1   -1    0    0  501    0  0.00000000000E+00  0.00000000000E+00  0.17060735305E+04  0.17060735305E+04  0.50400001928E-02 0.  1.
       -1   -1    0    0    0  501  0.00000000000E+00  0.00000000000E+00 -0.45733824908E+03  0.45733824911E+03  0.50400001928E-02 0. -1.
    10030    2    1    2    0    0  0.00000000000E+00  0.00000000000E+00  0.12487352814E+04  0.21634117796E+04  0.17666382553E+04 0.  0.
        4    1    3    3  502    0 -0.21321354132E+03 -0.26554298695E+03  0.16224502455E+04  0.16578056291E+04  0.12699999809E+01 0.  1.
       -4    1    3    3    0  502  0.21321354132E+03  0.26554298695E+03 -0.37371496406E+03  0.50560615045E+03  0.12699999809E+01 0. -1.
</event>
<event>
 5   0  0.8055928E-06  0.2950475E+04  0.7818609E-02  0.8258016E-01
        1   -1    0    0  501    0  0.00000000000E+00  0.00000000000E+00  0.16017317541E+04  0.16017317541E+04  0.50400001928E-02 0.  1.
       -1   -1    0    0    0  501  0.00000000000E+00  0.00000000000E+00 -0.13587333214E+04  0.13587333214E+04  0.50400001928E-02 0. -1.
    10030    2    1    2    0    0  0.00000000000E+00  0.00000000000E+00  0.24299843273E+03  0.29604650755E+04  0.29504754236E+04 0.  0.
        2    1    3    3  502    0 -0.11995390654E+04  0.32154120168E+03 -0.67746531427E+03  0.14146525955E+04  0.25500000920E-02 0. -1.
       -2    1    3    3    0  502  0.11995390654E+04 -0.32154120168E+03  0.92046374699E+03  0.15458124800E+04  0.25500000920E-02 0.  1.
</event>
<event>
 5   0  0.8055928E-06  0.2737433E+04  0.7818609E-02  0.8322960E-01
       -1   -1    0    0    0  501  0.00000000000E+00  0.00000000000E+00  0.85389123003E+03  0.85389123005E+03  0.50400001928E-02 0. -1.
        1   -1    0    0  501    0  0.00000000000E+00  0.00000000000E+00 -0.21939386812E+04  0.21939386812E+04  0.50400001928E-02 0.  1.
    10030    2    1    2    0    0  0.00000000000E+00  0.00000000000E+00 -0.13400474512E+04  0.30478299112E+04  0.27374331036E+04 0.  0.
        2    1    3    3  502    0  0.27303301991E+03  0.12945110835E+04 -0.27941743438E+03  0.13521760528E+04  0.25500000920E-02 0. -1.
       -2    1    3    3    0  502 -0.27303301991E+03 -0.12945110835E+04 -0.10606300168E+04  0.16956538584E+04  0.25500000920E-02 0.  1.
</event>
<event>
 5   0  0.7971153E-06  0.2921283E+04  0.7818609E-02  0.8266573E-01
        1   -1    0    0  501    0  0.00000000000E+00  0.00000000000E+00  0.15994066232E+04  0.15994066232E+04  0.50400001928E-02 0. -1.
       -1   -1    0    0    0  501  0.00000000000E+00  0.00000000000E+00 -0.13339157892E+04  0.13339157893E+04  0.50400001928E-02 0.  1.
    10030    2    1    2    0    0  0.00000000000E+00  0.00000000000E+00  0.26549083393E+03  0.29333224124E+04  0.29212831072E+04 0.  0.
        5    1    3    3  502    0  0.73154003543E+03  0.32858595172E+03  0.13585681809E+04  0.15776086788E+04  0.46999998093E+01 0. -1.
       -5    1    3    3    0  502 -0.73154003543E+03 -0.32858595172E+03 -0.10930773470E+04  0.13557137337E+04  0.46999998093E+01 0.  1.
</event>
<event>
 5   0  0.8055928E-06  0.2891412E+04  0.7818609E-02  0.8275437E-01
        1   -1    0    0  501    0  0.00000000000E+00  0.00000000000E+00  0.15172457578E+04  0.15172457578E+04  0.50400001928E-02 0. -1.
       -1   -1    0    0    0  501  0.00000000000E+00  0.00000000000E+00 -0.13775396232E+04  0.13775396232E+04  0.50400001928E-02 0.  1.
    10030    2    1    2    0    0  0.00000000000E+00  0.00000000000E+00  0.13970613461E+03  0.28947853810E+04  0.28914122151E+04 0.  0.
        2    1    3    3  502    0 -0.91059302496E+03 -0.31520319101E+03 -0.10091488544E+04  0.13953186443E+04  0.25500000920E-02 0.  1.
       -2    1    3    3    0  502  0.91059302496E+03  0.31520319101E+03  0.11488549890E+04  0.14994667367E+04  0.25500000920E-02 0. -1.
</event>
<event>
 5   0  0.1976233E-05  0.2872043E+04  0.7818609E-02  0.8281244E-01
       -2   -1    0    0    0  501  0.00000000000E+00  0.00000000000E+00  0.10933537138E+04  0.10933537138E+04  0.25500000920E-02 0.  1.
        2   -1    0    0  501    0  0.00000000000E+00  0.00000000000E+00 -0.18860849205E+04  0.18860849205E+04  0.25500000920E-02 0. -1.
    10030    2    1    2    0    0  0.00000000000E+00  0.00000000000E+00 -0.79273120668E+03  0.29794386343E+04  0.28720431420E+04 0.  0.
        2    1    3    3  502    0 -0.38828006859E+03  0.10082171369E+04 -0.13777281170E+04  0.17508277960E+04  0.25500000920E-02 0. -1.
       -2    1    3    3    0  502  0.38828006859E+03 -0.10082171369E+04  0.58499691033E+03  0.12286108383E+04  0.25500000920E-02 0.  1.
</event>
<event>
 5   0  0.1976233E-05  0.2468458E+04  0.7818609E-02  0.8414309E-01
        2   -1    0    0  501    0  0.00000000000E+00  0.00000000000E+00  0.23420760404E+04  0.23420760404E+04  0.25500000920E-02 0. -1.
       -2   -1    0    0    0  501  0.00000000000E+00  0.00000000000E+00 -0.65041517650E+03  0.65041517650E+03  0.25500000920E-02 0.  1.
    10030    2    1    2    0    0  0.00000000000E+00  0.00000000000E+00  0.16916608639E+04  0.29924912169E+04  0.24684584673E+04 0.  0.
        2    1    3    3  502    0  0.22234693056E+03  0.99270368741E+03 -0.14069857862E+01  0.10173007167E+04  0.25500000920E-02 0.  1.
       -2    1    3    3    0  502 -0.22234693056E+03 -0.99270368741E+03  0.16930678497E+04  0.19751905002E+04  0.25500000920E-02 0. -1.
</event>
<event>
 5   0  0.1937947E-05  0.2850736E+04  0.7818609E-02  0.8287688E-01
       -2   -1    0    0    0  501  0.00000000000E+00  0.00000000000E+00  0.77417447414E+03  0.77417447414E+03  0.25500000920E-02 0.  1.
        2   -1    0    0  501    0  0.00000000000E+00  0.00000000000E+00 -0.26243094993E+04  0.26243094993E+04  0.25500000920E-02 0. -1.
    10030    2    1    2    0    0  0.00000000000E+00  0.00000000000E+00 -0.18501350252E+04  0.33984839735E+04  0.28507356430E+04 0.  0.
        3    1    3    3  502    0  0.10746041956E+04 -0.93628727590E+03 -0.90564706397E+03  0.16886694925E+04  0.10100000352E+00 0. -1.
       -3    1    3    3    0  502 -0.10746041956E+04  0.93628727590E+03 -0.94448796124E+03  0.17098144810E+04  0.10100000352E+00 0.  1.
</event>
<event>
 5   0  0.8122088E-06  0.2889222E+04  0.7818609E-02  0.8276092E-01
       -1   -1    0    0    0  501  0.00000000000E+00  0.00000000000E+00  0.82797098555E+03  0.82797098556E+03  0.50400001928E-02 0. -1.
        1   -1    0    0  501    0  0.00000000000E+00  0.00000000000E+00 -0.25204992491E+04  0.25204992491E+04  0.50400001928E-02 0.  1.
    10030    2    1    2    0    0  0.00000000000E+00  0.00000000000E+00 -0.16925282636E+04  0.33484702347E+04  0.28892215197E+04 0.  0.
        1    1    3    3  502    0  0.51351570390E+03 -0.10970885779E+04  0.66000395969E+02  0.12131190288E+04  0.50400001928E-02 0. -1.
       -1    1    3    3    0  502 -0.51351570390E+03  0.10970885779E+04 -0.17585286596E+04  0.21353512059E+04  0.50400001928E-02 0.  1.
</event>
<event>
 5   0  0.8055928E-06  0.1478922E+04  0.7818609E-02  0.8898592E-01
        1   -1    0    0  501    0  0.00000000000E+00  0.00000000000E+00  0.34877006050E+03  0.34877006054E+03  0.50400001928E-02 0.  1.
       -1   -1    0    0    0  501  0.00000000000E+00  0.00000000000E+00 -0.15678017780E+04  0.15678017780E+04  0.50400001928E-02 0. -1.
    10030    2    1    2    0    0  0.00000000000E+00  0.00000000000E+00 -0.12190317175E+04  0.19165718386E+04  0.14789216626E+04 0.  0.
        2    1    3    3  502    0  0.15022454521E+03 -0.71794851851E+03 -0.73097960097E+03  0.10355426917E+04  0.25500000920E-02 0. -1.
       -2    1    3    3    0  502 -0.15022454521E+03  0.71794851851E+03 -0.48805211656E+03  0.88102914691E+03  0.25500000920E-02 0.  1.
</event>
<event>
 5   0  0.8055928E-06  0.1840410E+04  0.7818609E-02  0.8685100E-01
       -1   -1    0    0    0  501  0.00000000000E+00  0.00000000000E+00  0.83017822258E+03  0.83017822259E+03  0.50400001928E-02 0. -1.
        1   -1    0    0  501    0  0.00000000000E+00  0.00000000000E+00 -0.10199940412E+04  0.10199940413E+04  0.50400001928E-02 0.  1.
    10030    2    1    2    0    0  0.00000000000E+00  0.00000000000E+00 -0.18981581866E+03  0.18501722638E+04  0.18404095634E+04 0.  0.
        2    1    3    3  502    0 -0.15420486053E+03  0.90527225059E+03 -0.35604704200E+02  0.91900200308E+03  0.25500000920E-02 0. -1.
       -2    1    3    3    0  502  0.15420486053E+03 -0.90527225059E+03 -0.15421111446E+03  0.93117026076E+03  0.25500000920E-02 0.  1.
</event>
<event>
 5   0  0.1937947E-05  0.3055410E+04  0.7818609E-02  0.8228083E-01
        2   -1    0    0  501    0  0.00000000000E+00  0.00000000000E+00  0.16236564919E+04  0.16236564919E+04  0.25500000920E-02 0. -1.
       -2   -1    0    0    0  501  0.00000000000E+00  0.00000000000E+00 -0.14374237929E+04  0.14374237929E+04  0.25500000920E-02 0.  1.
    10030    2    1    2    0    0  0.00000000000E+00  0.00000000000E+00  0.18623269900E+03  0.30610802847E+04  0.30554099384E+04 0.  0.
        3    1    3    3  502    0 -0.52759642672E+02 -0.13552360714E+04  0.79758136342E+03  0.15733990055E+04  0.10100000352E+00 0. -1.
       -3    1    3    3    0  502  0.52759642672E+02  0.13552360714E+04 -0.61134866442E+03  0.14876812793E+04  0.10100000352E+00 0.  1.
</event>
<event>
 5   0  0.1976233E-05  0.2974358E+04  0.7818609E-02  0.8251091E-01
        2   -1    0    0  501    0  0.00000000000E+00  0.00000000000E+00  0.12485883360E+04  0.12485883360E+04  0.25500000920E-02 0. -1.
       -2   -1    0    0    0  501  0.00000000000E+00  0.00000000000E+00 -0.17713618024E+04  0.17713618024E+04  0.25500000920E-02 0.  1.
    10030    2    1    2    0    0  0.00000000000E+00  0.00000000000E+00 -0.52277346642E+03  0.30199501383E+04  0.29743582065E+04 0.  0.
        2    1    3    3  502    0 -0.11903070793E+04  0.73036318851E+03  0.25776321468E+03  0.14201067583E+04  0.25500000920E-02 0. -1.
       -2    1    3    3    0  502  0.11903070793E+04 -0.73036318851E+03 -0.78053668110E+03  0.15998433800E+04  0.25500000920E-02 0.  1.
</event>
<event>
 5   0  0.1976233E-05  0.1851359E+04  0.7818609E-02  0.8679454E-01
        2   -1    0    0  501    0  0.00000000000E+00  0.00000000000E+00  0.25232742010E+03  0.25232742011E+03  0.25500000920E-02 0.  1.
       -2   -1    0    0    0  501  0.00000000000E+00  0.00000000000E+00 -0.33959135523E+04  0.33959135523E+04  0.25500000920E-02 0. -1.
    10030    2    1    2    0    0  0.00000000000E+00  0.00000000000E+00 -0.31435861322E+04  0.36482409724E+04  0.18513585342E+04 0.  0.
        2    1    3    3  502    0  0.66869025176E+03  0.58294963505E+03 -0.20928049748E+04  0.22730617221E+04  0.25500000920E-02 0. -1.
       -2    1    3    3    0  502 -0.66869025176E+03 -0.58294963505E+03 -0.10507811574E+04  0.13751792503E+04  0.25500000920E-02 0.  1.
</event>
<event>
 5   0  0.7305460E-06  0.2904271E+04  0.7818609E-02  0.8271608E-01
       -1   -1    0    0    0  501  0.00000000000E+00  0.00000000000E+00  0.11835444450E+04  0.11835444450E+04  0.50400001928E-02 0.  1.
        1   -1    0    0  501    0  0.00000000000E+00  0.00000000000E+00 -0.17816796646E+04  0.17816796646E+04  0.50400001928E-02 0. -1.
    10030    2    1    2    0    0  0.00000000000E+00  0.00000000000E+00 -0.59813521959E+03  0.29652241096E+04  0.29042706966E+04 0.  0.
        4    1    3    3  502    0 -0.55002927765E+03  0.24353055057E+03  0.10503581544E+04  0.12104103439E+04  0.12699999809E+01 0.  1.
       -4    1    3    3    0  502  0.55002927765E+03 -0.24353055057E+03 -0.16484933740E+04  0.17548137657E+04  0.12699999809E+01 0. -1.
</event>
<event>
 5   0  0.6578125E-06  0.1883139E+04  0.7818609E-02  0.8663295E-01
       -3   -1    0    0    0  501  0.00000000000E+00  0.00000000000E+00  0.61013137397E+03  0.61013138233E+03  0.10100000352E+00 0. -1.
        3   -1    0    0  501    0  0.00000000000E+00  0.00000000000E+00 -0.14530529066E+04  0.14530529101E+04  0.10100000352E+00 0.  1.
    10030    2    1    2    0    0  0.00000000000E+00  0.00000000000E+00 -0.84292153261E+03  0.20631842924E+04  0.18831390587E+04 0.  0.
        3    1    3    3  502    0 -0.29196252147E+03 -0.17997267918E+03 -0.13821799465E+04  0.14240975015E+04  0.10100000352E+00 0.  1.
       -3    1    3    3    0  502  0.29196252147E+03  0.17997267918E+03  0.53925841385E+03  0.63908679090E+03  0.10100000352E+00 0. -1.
</event>
<event>
 5   0  0.1918901E-05  0.2827348E+04  0.7818609E-02  0.8294828E-01
       -2   -1    0    0    0  501  0.00000000000E+00  0.00000000000E+00  0.11703951807E+04  0.11703951807E+04  0.25500000920E-02 0.  1.
        2   -1    0    0  501    0  0.00000000000E+00  0.00000000000E+00 -0.17075207890E+04  0.17075207890E+04  0.25500000920E-02 0. -1.
    10030    2    1    2    0    0  0.00000000000E+00  0.00000000000E+00 -0.53712560835E+03  0.28779159697E+04  0.28273479464E+04 0.  0.
        1    1    3    3  502    0 -0.74412419493E+03  0.68995757853E+03 -0.12703976924E+04  0.16259374448E+04  0.50400001928E-02 0. -1.
       -1    1    3    3    0  502  0.74412419493E+03 -0.68995757853E+03  0.73327208403E+03  0.12519785249E+04  0.50400001928E-02 0.  1.
</event>
<event>
 5   0  0.1937947E-05  0.2958398E+04  0.7818609E-02  0.8255711E-01
        2   -1    0    0  501    0  0.00000000000E+00  0.00000000000E+00  0.25203564946E+04  0.25203564946E+04  0.25500000920E-02 0.  1.
       -2   -1    0    0    0  501  0.00000000000E+00  0.00000000000E+00 -0.86814303302E+03  0.86814303303E+03  0.25500000920E-02 0. -1.
    10030    2    1    2    0    0  0.00000000000E+00  0.00000000000E+00  0.16522134616E+04  0.33884995277E+04  0.29583981690E+04 0.  0.
        3    1    3    3  502    0  0.11645575015E+04  0.40180138968E+03 -0.11170361283E+03  0.12369786733E+04  0.10100000352E+00 0. -1.
       -3    1    3    3    0  502 -0.11645575015E+04 -0.40180138968E+03  0.17639170744E+04  0.21515208543E+04  0.10100000352E+00 0.  1.
</event>
<event>
 5   0  0.6578125E-06  0.3141633E+04  0.7818609E-02  0.8204404E-01
       -4   -1    0    0    0  501  0.00000000000E+00  0.00000000000E+00  0.18182644431E+04  0.18182648866E+04  0.12699999809E+01 0.  1.
        4   -1    0    0  501    0  0.00000000000E+00  0.00000000000E+00 -0.13570427214E+04  0.13570433157E+04  0.12699999809E+01 0. -1.
    10030    2    1    2    0    0  0.00000000000E+00  0.00000000000E+00  0.46122172162E+03  0.31753082023E+04  0.31416328084E+04 0.  0.
        5    1    3    3  502    0 -0.81468755583E+03 -0.12682854321E+04  0.67713636109E+03  0.16525130839E+04  0.46999998093E+01 0.  1.
       -5    1    3    3    0  502  0.81468755583E+03  0.12682854321E+04 -0.21591463948E+03  0.15227951184E+04  0.46999998093E+01 0. -1.
</event>
<event>
 5   0  0.1937947E-05  0.2921382E+04  0.7818609E-02  0.8266544E-01
       -2   -1    0    0    0  501  0.00000000000E+00  0.00000000000E+00  0.13028166079E+04  0.13028166079E+04  0.25500000920E-02 0. -1.
        2   -1    0    0  501    0  0.00000000000E+00  0.00000000000E+00 -0.16376963195E+04  0.16376963195E+04  0.25500000920E-02 0.  1.
    10030    2    1    2    0    0  0.00000000000E+00  0.00000000000E+00 -0.33487971156E+03  0.29405129274E+04  0.29213818400E+04 0.  0.
        3    1    3    3  502    0 -0.17103666495E+03 -0.14232202169E+04  0.11512727947E+03  0.14380763635E+04  0.10100000352E+00 0.  1.
       -3    1    3    3    0  502  0.17103666495E+03  0.14232202169E+04 -0.45000699103E+03  0.15024365640E+04  0.10100000352E+00 0. -1.
</event>
<event>
 5   0  0.1976233E-05  0.1987127E+04  0.7818609E-02  0.8612663E-01
       -2   -1    0    0    0  501  0.00000000000E+00  0.00000000000E+00  0.68151167694E+03  0.68151167694E+03  0.25500000920E-02 0. -1.
        2   -1    0    0  501    0  0.00000000000E+00  0.00000000000E+00 -0.14484976313E+04  0.14484976313E+04  0.25500000920E-02 0.  1.
    10030    2    1    2    0    0  0.00000000000E+00  0.00000000000E+00 -0.76698595435E+03  0.21300093082E+04  0.19871266188E+04 0.  0.
        2    1    3    3  502    0 -0.57784855558E+02  0.18187801702E+03 -0.14286678933E+04  0.14413572256E+04  0.25500000920E-02 0.  1.
       -2    1    3    3    0  502  0.57784855558E+02 -0.18187801702E+03  0.66168193891E+03  0.68865208262E+03  0.25500000920E-02 0. -1.
</event>
<event>
 5   0  0.1937947E-05  0.2893232E+04  0.7818609E-02  0.8274894E-01
       -2   -1    0    0    0  501  0.00000000000E+00  0.00000000000E+00  0.97585395669E+03  0.97585395670E+03  0.25500000920E-02 0.  1.
        2   -1    0    0  501    0  0.00000000000E+00  0.00000000000E+00 -0.21444791885E+04  0.21444791885E+04  0.25500000920E-02 0. -1.
    10030    2    1    2    0    0  0.00000000000E+00  0.00000000000E+00 -0.11686252318E+04  0.31203331452E+04  0.28932324491E+04 0.  0.
        3    1    3    3  502    0  0.97356643974E+03  0.10675272738E+03 -0.17325264961E+04  0.19901949220E+04  0.10100000352E+00 0. -1.
       -3    1    3    3    0  502 -0.97356643974E+03 -0.10675272738E+03  0.56390126436E+03  0.11301382232E+04  0.10100000352E+00 0.  1.
</event>
<event>
 5   0  0.7971153E-06  0.1862310E+04  0.7818609E-02  0.8673848E-01
        1   -1    0    0  501    0  0.00000000000E+00  0.00000000000E+00  0.10334667944E+04  0.10334667944E+04  0.50400001928E-02 0.  1.
       -1   -1    0    0    0  501  0.00000000000E+00  0.00000000000E+00 -0.83897156279E+03  0.83897156281E+03  0.50400001928E-02 0. -1.
    10030    2    1    2    0    0  0.00000000000E+00  0.00000000000E+00  0.19449523158E+03  0.18724383572E+04  0.18623095893E+04 0.  0.
        5    1    3    3  502    0  0.32828325349E+03 -0.79677445567E+03 -0.25738554208E+03  0.89938247425E+03  0.46999998093E+01 0. -1.
       -5    1    3    3    0  502 -0.32828325349E+03  0.79677445567E+03  0.45188077366E+03  0.97305588294E+03  0.46999998093E+01 0.  1.
</event>
<event>
 5   0  0.7971153E-06  0.2892109E+04  0.7818609E-02  0.8275229E-01
        1   -1    0    0  501    0  0.00000000000E+00  0.00000000000E+00  0.19427032500E+04  0.19427032500E+04  0.50400001928E-02 0.  1.
       -1   -1    0    0    0  501  0.00000000000E+00  0.00000000000E+00 -0.10763731691E+04  0.10763731691E+04  0.50400001928E-02 0. -1.
    10030    2    1    2    0    0  0.00000000000E+00  0.00000000000E+00  0.86633008087E+03  0.30190764191E+04  0.28921090255E+04 0.  0.
        5    1    3    3  502    0 -0.99794272967E+03 -0.80211011569E+03  0.11348199028E+04  0.17108794906E+04  0.46999998093E+01 0.  1.
       -5    1    3    3    0  502  0.99794272967E+03  0.80211011569E+03 -0.26848982197E+03  0.13081969286E+04  0.46999998093E+01 0. -1.
</event>
<event>
 5   0  0.1918901E-05  0.2861676E+04  0.7818609E-02  0.8284372E-01
       -2   -1    0    0    0  501  0.00000000000E+00  0.00000000000E+00  0.79215442719E+03  0.79215442719E+03  0.25500000920E-02 0. -1.
        2   -1    0    0  501    0  0.00000000000E+00  0.00000000000E+00 -0.25844666546E+04  0.25844666546E+04  0.25500000920E-02 0.  1.
    10030    2    1    2    0    0  0.00000000000E+00  0.00000000000E+00 -0.17923122274E+04  0.33766210818E+04  0.28616755248E+04 0.  0.
        1    1    3    3  502    0 -0.19810220534E+02 -0.91189779604E+03  0.40464837144E+03  0.99784284324E+03  0.50400001928E-02 0. -1.
       -1    1    3    3    0  502  0.19810220534E+02  0.91189779604E+03 -0.21969605988E+04  0.23787782385E+04  0.50400001928E-02 0.  1.
</event>
<event>
 5   0  0.8055928E-06  0.2852423E+04  0.7818609E-02  0.8287175E-01
        1   -1    0    0  501    0  0.00000000000E+00  0.00000000000E+00  0.19180526800E+04  0.19180526800E+04  0.50400001928E-02 0.  1.
       -1   -1    0    0    0  501  0.00000000000E+00  0.00000000000E+00 -0.10604920939E+04  0.10604920939E+04  0.50400001928E-02 0. -1.
    10030    2    1    2    0    0  0.00000000000E+00  0.00000000000E+00  0.85756058613E+03  0.29785447739E+04  0.28524233226E+04 0.  0.
        2    1    3    3  502    0  0.38805775249E+03  0.65193283426E+03  0.16898513806E+04  0.18523506493E+04  0.25500000920E-02 0.  1.
       -2    1    3    3    0  502 -0.38805775249E+03 -0.65193283426E+03 -0.83229079443E+03  0.11261941245E+04  0.25500000920E-02 0. -1.
</event>
<event>
 5   0  0.1976233E-05  0.2303325E+04  0.7818609E-02  0.8476611E-01
       -2   -1    0    0    0  501  0.00000000000E+00  0.00000000000E+00  0.11257933321E+04  0.11257933321E+04  0.25500000920E-02 0.  1.
        2   -1    0    0  501    0  0.00000000000E+00  0.00000000000E+00 -0.11781261497E+04  0.11781261497E+04  0.25500000920E-02 0. -1.
    10030    2    1    2    0    0  0.00000000000E+00  0.00000000000E+00 -0.52332817620E+02  0.23039194817E+04  0.23033250432E+04 0.  0.
        2    1    3    3  502    0 -0.38323548951E+03 -0.93283756749E+03  0.53009867992E+03  0.11393243516E+04  0.25500000920E-02 0.  1.
       -2    1    3    3    0  502  0.38323548951E+03  0.93283756749E+03 -0.58243149754E+03  0.11645951301E+04  0.25500000920E-02 0. -1.
</event>
<event>
 5   0  0.8122088E-06  0.1593883E+04  0.7818609E-02  0.8824315E-01
        1   -1    0    0  501    0  0.00000000000E+00  0.00000000000E+00  0.61620186371E+03  0.61620186373E+03  0.50400001928E-02 0. -1.
       -1   -1    0    0    0  501  0.00000000000E+00  0.00000000000E+00 -0.10306941643E+04  0.10306941643E+04  0.50400001928E-02 0.  1.
    10030    2    1    2    0    0  0.00000000000E+00  0.00000000000E+00 -0.41449230062E+03  0.16468960281E+04  0.15938828878E+04 0.  0.
        1    1    3    3  502    0 -0.28850662649E+03 -0.67053199580E+03 -0.53767376137E+03  0.90661033780E+03  0.50400001928E-02 0.  1.
       -1    1    3    3    0  502  0.28850662649E+03  0.67053199580E+03  0.12318146075E+03  0.74028569027E+03  0.50400001928E-02 0. -1.
</event>
<event>
 5   0  0.1829810E-05  0.2591638E+04  0.7818609E-02  0.8371047E-01
        2   -1    0    0  501    0  0.00000000000E+00  0.00000000000E+00  0.21501365237E+04  0.21501365237E+04  0.25500000920E-02 0.  1.
       -2   -1    0    0    0  501  0.00000000000E+00  0.00000000000E+00 -0.78094866931E+03  0.78094866931E+03  0.25500000920E-02 0. -1.
    10030    2    1    2    0    0  0.00000000000E+00  0.00000000000E+00  0.13691878543E+04  0.29310851930E+04  0.25916375186E+04 0.  0.
        4    1    3    3  502    0 -0.48617795018E+03 -0.11455844124E+04  0.10930195300E+04  0.16563290588E+04  0.12699999809E+01 0.  1.
       -4    1    3    3    0  502  0.48617795018E+03  0.11455844124E+04  0.27616832433E+03  0.12747561341E+04  0.12699999809E+01 0. -1.
</event>
<event>
 5   0  0.7305460E-06  0.1806802E+04  0.7818609E-02  0.8702691E-01
       -1   -1    0    0    0  501  0.00000000000E+00  0.00000000000E+00  0.11547813231E+04  0.11547813231E+04  0.50400001928E-02 0.  1.
        1   -1    0    0  501    0  0.00000000000E+00  0.00000000000E+00 -0.70674277700E+03  0.70674277702E+03  0.50400001928E-02 0. -1.
    10030    2    1    2    0    0  0.00000000000E+00  0.00000000000E+00  0.44803854607E+03  0.18615241001E+04  0.18068019915E+04 0.  0.
        4    1    3    3  502    0  0.51416078139E+03  0.67331751067E+03  0.54723052507E+03  0.10085537367E+04  0.12699999809E+01 0.  1.
       -4    1    3    3    0  502 -0.51416078139E+03 -0.67331751067E+03 -0.99191979005E+02  0.85297036343E+03  0.12699999809E+01 0. -1.
</event>
<event>
 5   0  0.1960961E-05  0.2866349E+04  0.7818609E-02  0.8282961E-01
       -2   -1    0    0    0  501  0.00000000000E+00  0.00000000000E+00  0.10933463135E+04  0.10933463135E+04  0.25500000920E-02 0. -1.
        2   -1    0    0  501    0  0.00000000000E+00  0.00000000000E+00 -0.18786262677E+04  0.18786262677E+04  0.25500000920E-02 0.  1.
    10030    2    1    2    0    0  0.00000000000E+00  0.00000000000E+00 -0.78527995421E+03  0.29719725813E+04  0.28663489699E+04 0.  0.
        5    1    3    3  502    0  0.18426358246E+03  0.11490588723E+04 -0.12599307722E+04  0.17151492648E+04  0.46999998093E+01 0.  1.
       -5    1    3    3    0  502 -0.18426358246E+03 -0.11490588723E+04  0.47465081797E+03  0.12568233165E+04  0.46999998093E+01 0. -1.
</event>
<event>
 5   0  0.7305460E-06  0.1539190E+04  0.7818609E-02  0.8858802E-01
        1   -1    0    0  501    0  0.00000000000E+00  0.00000000000E+00  0.10107948064E+04  0.10107948064E+04  0.50400001928E-02 0.  1.
       -1   -1    0    0    0  501  0.00000000000E+00  0.00000000000E+00 -0.58595117386E+03  0.58595117388E+03  0.50400001928E-02 0. -1.
    10030    2    1    2    0    0  0.00000000000E+00  0.00000000000E+00  0.42484363251E+03  0.15967459803E+04  0.15391899212E+04 0.  0.
        4    1    3    3  502    0 -0.76732058483E+03 -0.92355790599E+01  0.27298832946E+03  0.81448782480E+03  0.12699999809E+01 0. -1.
       -4    1    3    3    0  502  0.76732058483E+03  0.92355790599E+01  0.15185530306E+03  0.78225815547E+03  0.12699999809E+01 0.  1.
</event>
<event>
 5   0  0.7971153E-06  0.2014844E+04  0.7818609E-02  0.8599712E-01
        1   -1    0    0  501    0  0.00000000000E+00  0.00000000000E+00  0.20886405671E+04  0.20886405671E+04  0.50400001928E-02 0. -1.
       -1   -1    0    0    0  501  0.00000000000E+00  0.00000000000E+00 -0.48591393454E+03  0.48591393457E+03  0.50400001928E-02 0.  1.
    10030    2    1    2    0    0  0.00000000000E+00  0.00000000000E+00  0.16027266325E+04  0.25745545017E+04  0.20148444663E+04 0.  0.
        5    1    3    3  502    0 -0.20470583079E+03 -0.96743310298E+03  0.10473050776E+04  0.14403823456E+04  0.46999998093E+01 0. -1.
       -5    1    3    3    0  502  0.20470583079E+03  0.96743310298E+03  0.55542155491E+03  0.11341721561E+04  0.46999998093E+01 0.  1.
</event>
<event>
 5   0  0.1918901E-05  0.3475297E+04  0.7818609E-02  0.8119669E-01
       -2   -1    0    0    0  501  0.00000000000E+00  0.00000000000E+00  0.18164642264E+04  0.18164642264E+04  0.25500000920E-02 0. -1.
        2   -1    0    0  501    0  0.00000000000E+00  0.00000000000E+00 -0.16622522609E+04  0.16622522609E+04  0.25500000920E-02 0.  1.
    10030    2    1    2    0    0  0.00000000000E+00  0.00000000000E+00  0.15421196550E+03  0.34787164873E+04  0.34752966878E+04 0.  0.
        1    1    3    3  502    0 -0.43821110326E+03  0.28105944709E+03  0.17365667574E+04  0.18129223609E+04  0.50400001928E-02 0. -1.
       -1    1    3    3    0  502  0.43821110326E+03 -0.28105944709E+03 -0.15823547919E+04  0.16657941263E+04  0.50400001928E-02 0.  1.
</event>
<event>
 5   0  0.7971153E-06  0.2280864E+04  0.7818609E-02  0.8485504E-01
       -1   -1    0    0    0  501  0.00000000000E+00  0.00000000000E+00  0.79549101793E+03  0.79549101795E+03  0.50400001928E-02 0. -1.
        1   -1    0    0  501    0  0.00000000000E+00  0.00000000000E+00 -0.16349468025E+04  0.16349468025E+04  0.50400001928E-02 0.  1.
    10030    2    1    2    0    0  0.00000000000E+00  0.00000000000E+00 -0.83945578460E+03  0.24304378205E+04  0.22808643066E+04 0.  0.
        5    1    3    3  502    0  0.96074470916E+03  0.59384446210E+03 -0.58781161446E+03  0.12732738219E+04  0.46999998093E+01 0.  1.
       -5    1    3    3    0  502 -0.96074470916E+03 -0.59384446210E+03 -0.25164417014E+03  0.11571639986E+04  0.46999998093E+01 0. -1.
</event>
<event>
 5   0  0.1918901E-05  0.2924453E+04  0.7818609E-02  0.8265639E-01
       -2   -1    0    0    0  501  0.00000000000E+00  0.00000000000E+00  0.82134255533E+03  0.82134255533E+03  0.25500000920E-02 0. -1.
        2   -1    0    0  501    0  0.00000000000E+00  0.00000000000E+00 -0.26031854913E+04  0.26031854913E+04  0.25500000920E-02 0.  1.
    10030    2    1    2    0    0  0.00000000000E+00  0.00000000000E+00 -0.17818429360E+04  0.34245280466E+04  0.29244534692E+04 0.  0.
        1    1    3    3  502    0 -0.54574186148E+01 -0.13061642128E+04 -0.16605905874E+04  0.21127365745E+04  0.50400001928E-02 0.  1.
       -1    1    3    3    0  502  0.54574186148E+01  0.13061642128E+04 -0.12125234859E+03  0.13117914721E+04  0.50400001928E-02 0. -1.
</event>
<event>
 5   0  0.8234888E-06  0.2579866E+04  0.7818609E-02  0.8375073E-01
       -1   -1    0    0    0  501  0.00000000000E+00  0.00000000000E+00  0.92114958411E+03  0.92114958413E+03  0.50400001928E-02 0. -1.
        1   -1    0    0  501    0  0.00000000000E+00  0.00000000000E+00 -0.18063587426E+04  0.18063587426E+04  0.50400001928E-02 0.  1.
    10030    2    1    2    0    0  0.00000000000E+00  0.00000000000E+00 -0.88520915850E+03  0.27275083268E+04  0.25798655814E+04 0.  0.
        3    1    3    3  502    0  0.71618341404E+03 -0.76386483734E+03  0.35384628596E+03  0.11052671064E+04  0.10100000352E+00 0. -1.
       -3    1    3    3    0  502 -0.71618341404E+03  0.76386483734E+03 -0.12390554445E+04  0.16222412203E+04  0.10100000352E+00 0.  1.
</event>
<event>
 5   0  0.7971153E-06  0.2116479E+04  0.7818609E-02  0.8554019E-01
        1   -1    0    0  501    0  0.00000000000E+00  0.00000000000E+00  0.19549948534E+04  0.19549948534E+04  0.50400001928E-02 0. -1.
       -1   -1    0    0    0  501  0.00000000000E+00  0.00000000000E+00 -0.57282550589E+03  0.57282550591E+03  0.50400001928E-02 0.  1.
    10030    2    1    2    0    0  0.00000000000E+00  0.00000000000E+00  0.13821693475E+04  0.25278203593E+04  0.21164790724E+04 0.  0.
        5    1    3    3  502    0  0.99683212732E+03  0.35515907854E+03  0.69830677926E+03  0.12678591046E+04  0.46999998093E+01 0.  1.
       -5    1    3    3    0  502 -0.99683212732E+03 -0.35515907854E+03  0.68386256824E+03  0.12599612547E+04  0.46999998093E+01 0. -1.
</event>
<event>
 5   0  0.1829810E-05  0.2874514E+04  0.7818609E-02  0.8280501E-01
       -2   -1    0    0    0  501  0.00000000000E+00  0.00000000000E+00  0.14756224398E+04  0.14756224398E+04  0.25500000920E-02 0. -1.
        2   -1    0    0  501    0  0.00000000000E+00  0.00000000000E+00 -0.13998890432E+04  0.13998890432E+04  0.25500000920E-02 0.  1.
    10030    2    1    2    0    0  0.00000000000E+00  0.00000000000E+00  0.75733396617E+02  0.28755114830E+04  0.28745140010E+04 0.  0.
        4    1    3    3  502    0  0.63688869257E+03 -0.82336950872E+03  0.10292411281E+04  0.14638659321E+04  0.12699999809E+01 0. -1.
       -4    1    3    3    0  502 -0.63688869257E+03  0.82336950872E+03 -0.95350773145E+03  0.14116455509E+04  0.12699999809E+01 0.  1.
</event>
<event>
 5   0  0.1976233E-05  0.2776221E+04  0.7818609E-02  0.8310689E-01
       -2   -1    0    0    0  501  0.00000000000E+00  0.00000000000E+00  0.70566794942E+03  0.70566794943E+03  0.25500000920E-02 0.  1.
        2   -1    0    0  501    0  0.00000000000E+00  0.00000000000E+00 -0.27305339596E+04  0.27305339596E+04  0.25500000920E-02 0. -1.
    10030    2    1    2    0    0  0.00000000000E+00  0.00000000000E+00 -0.20248660101E+04  0.34362019090E+04  0.27762206685E+04 0.  0.
        2    1    3    3  502    0 -0.13378769740E+04  0.19430417232E+03 -0.14022311694E+04  0.19477990557E+04  0.25500000920E-02 0. -1.
       -2    1    3    3    0  502  0.13378769740E+04 -0.19430417232E+03 -0.62263484076E+03  0.14884028533E+04  0.25500000920E-02 0.  1.
</event>
<event>
 5   0  0.7305460E-06  0.2467470E+04  0.7818609E-02  0.8414667E-01
        1   -1    0    0  501    0  0.00000000000E+00  0.00000000000E+00  0.27241543982E+04  0.27241543982E+04  0.50400001928E-02 0.  1.
       -1   -1    0    0    0  501  0.00000000000E+00  0.00000000000E+00 -0.55874290234E+03  0.55874290237E+03  0.50400001928E-02 0. -1.
    10030    2    1    2    0    0  0.00000000000E+00  0.00000000000E+00  0.21654114958E+04  0.32828973006E+04  0.24674699065E+04 0.  0.
        4    1    3    3  502    0 -0.22417273371E+03  0.65704211930E+03 -0.27420682265E+03  0.74642397842E+03  0.12699999809E+01 0. -1.
       -4    1    3    3    0  502  0.22417273371E+03 -0.65704211930E+03  0.24396183185E+04  0.25364733221E+04  0.12699999809E+01 0.  1.
</event>
<event>
 5   0  0.1960961E-05  0.2771492E+04  0.7818609E-02  0.8312174E-01
       -2   -1    0    0    0  501  0.00000000000E+00  0.00000000000E+00  0.25612913269E+04  0.25612913269E+04  0.25500000920E-02 0. -1.
        2   -1    0    0  501    0  0.00000000000E+00  0.00000000000E+00 -0.74973613727E+03  0.74973613728E+03  0.25500000920E-02 0.  1.
    10030    2    1    2    0    0  0.00000000000E+00  0.00000000000E+00  0.18115551896E+04  0.33110274642E+04  0.27714924975E+04 0.  0.
        5    1    3    3  502    0 -0.45106874190E+02  0.12784372303E+04  0.15422527170E+04  0.20037469688E+04  0.46999998093E+01 0. -1.
       -5    1    3    3    0  502  0.45106874190E+02 -0.12784372303E+04  0.26930247262E+03  0.13072804954E+04  0.46999998093E+01 0.  1.
</event>
<event>
 5   0  0.8122088E-06  0.2987684E+04  0.7818609E-02  0.8247257E-01
        1   -1    0    0  501    0  0.00000000000E+00  0.00000000000E+00  0.95590103963E+03  0.95590103965E+03  0.50400001928E-02 0. -1.
       -1   -1    0    0    0  501  0.00000000000E+00  0.00000000000E+00 -0.23345137457E+04  0.23345137457E+04  0.50400001928E-02 0.  1.
    10030    2    1    2    0    0  0.00000000000E+00  0.00000000000E+00 -0.13786127061E+04  0.32904147854E+04  0.29876841310E+04 0.  0.
        1    1    3    3  502    0  0.59110998606E+03 -0.26914650733E+03  0.79225913107E+03  0.10244634639E+04  0.50400001928E-02 0. -1.
       -1    1    3    3    0  502 -0.59110998606E+03  0.26914650733E+03 -0.21708718371E+04  0.22659513215E+04  0.50400001928E-02 0.  1.
</event>
<event>
 5   0  0.1829810E-05  0.2877222E+04  0.7818609E-02  0.8279687E-01
       -2   -1    0    0    0  501  0.00000000000E+00  0.00000000000E+00  0.13762374128E+04  0.13762374128E+04  0.25500000920E-02 0.  1.
        2   -1    0    0  501    0  0.00000000000E+00  0.00000000000E+00 -0.15038114723E+04  0.15038114723E+04  0.25500000920E-02 0. -1.
    10030    2    1    2    0    0  0.00000000000E+00  0.00000000000E+00 -0.12757405941E+03  0.28800488851E+04  0.28772220005E+04 0.  0.
        4    1    3    3  502    0 -0.53056894690E+03 -0.12732980223E+04  0.34503649941E+03  0.14219152787E+04  0.12699999809E+01 0.  1.
       -4    1    3    3    0  502  0.53056894690E+03  0.12732980223E+04 -0.47261055882E+03  0.14581336064E+04  0.12699999809E+01 0. -1.
</event>
<event>
 5   0  0.8055928E-06  0.2849245E+04  0.7818609E-02  0.8288141E-01
        1   -1    0    0  501    0  0.00000000000E+00  0.00000000000E+00  0.20015916327E+04  0.20015916327E+04  0.50400001928E-02 0. -1.
       -1   -1    0    0    0  501  0.00000000000E+00  0.00000000000E+00 -0.10139678869E+04  0.10139678869E+04  0.50400001928E-02 0.  1.
    10030    2    1    2    0    0  0.00000000000E+00  0.00000000000E+00  0.98762374579E+03  0.30155595196E+04  0.28492452602E+04 0.  0.
        2    1    3    3  502    0  0.90860260389E+03  0.65972547919E+03  0.14217767729E+04  0.18116968818E+04  0.25500000920E-02 0. -1.
       -2    1    3    3    0  502 -0.90860260389E+03 -0.65972547919E+03 -0.43415302708E+03  0.12038626378E+04  0.25500000920E-02 0.  1.
</event>
<event>
 5   0  0.8055928E-06  0.2903914E+04  0.7818609E-02  0.8271714E-01
       -1   -1    0    0    0  501  0.00000000000E+00  0.00000000000E+00  0.15897839841E+04  0.15897839841E+04  0.50400001928E-02 0.  1.
        1   -1    0    0  501    0  0.00000000000E+00  0.00000000000E+00 -0.13260791444E+04  0.13260791444E+04  0.50400001928E-02 0. -1.
    10030    2    1    2    0    0  0.00000000000E+00  0.00000000000E+00  0.26370483963E+03  0.29158631285E+04  0.29039141760E+04 0.  0.
        2    1    3    3  502    0  0.49796818463E+03  0.58402210827E+03  0.13694519862E+04  0.15698575981E+04  0.25500000920E-02 0.  1.
       -2    1    3    3    0  502 -0.49796818463E+03 -0.58402210827E+03 -0.11057471465E+04  0.13460055304E+04  0.25500000920E-02 0. -1.
</event>
<event>
 5   0  0.1976233E-05  0.1942239E+04  0.7818609E-02  0.8634112E-01
        2   -1    0    0  501    0  0.00000000000E+00  0.00000000000E+00  0.93803131497E+03  0.93803131497E+03  0.25500000920E-02 0.  1.
       -2   -1    0    0    0  501  0.00000000000E+00  0.00000000000E+00 -0.10053747128E+04  0.10053747128E+04  0.25500000920E-02 0. -1.
    10030    2    1    2    0    0  0.00000000000E+00  0.00000000000E+00 -0.67343397846E+02  0.19434060278E+04  0.19422388771E+04 0.  0.
        2    1    3    3  502    0 -0.64806735852E+02  0.13647129839E+03 -0.99354407533E+03  0.10049647546E+04  0.25500000920E-02 0. -1.
       -2    1    3    3    0  502  0.64806735852E+02 -0.13647129839E+03  0.92620067749E+03  0.93844127322E+03  0.25500000920E-02 0.  1.
</event>
<event>
 5   0  0.7971153E-06  0.2318555E+04  0.7818609E-02  0.8470641E-01
       -1   -1    0    0    0  501  0.00000000000E+00  0.00000000000E+00  0.77778969150E+03  0.77778969152E+03  0.50400001928E-02 0.  1.
        1   -1    0    0  501    0  0.00000000000E+00  0.00000000000E+00 -0.17278758358E+04  0.17278758358E+04  0.50400001928E-02 0. -1.
    10030    2    1    2    0    0  0.00000000000E+00  0.00000000000E+00 -0.95008614433E+03  0.25056655274E+04  0.23185547337E+04 0.  0.
        5    1    3    3  502    0  0.38438644940E+03 -0.99185256237E+03  0.22992051584E+02  0.10639902125E+04  0.46999998093E+01 0.  1.
       -5    1    3    3    0  502 -0.38438644940E+03  0.99185256237E+03 -0.97307819592E+03  0.14416753148E+04  0.46999998093E+01 0. -1.
</event>
<event>
 5   0  0.7305460E-06  0.3027083E+04  0.7818609E-02  0.8236039E-01
        1   -1    0    0  501    0  0.00000000000E+00  0.00000000000E+00  0.13524614229E+04  0.13524614229E+04  0.50400001928E-02 0.  1.
       -1   -1    0    0    0  501  0.00000000000E+00  0.00000000000E+00 -0.16938060657E+04  0.16938060657E+04  0.50400001928E-02 0. -1.
    10030    2    1    2    0    0  0.00000000000E+00  0.00000000000E+00 -0.34134464278E+03  0.30462674886E+04  0.30270826628E+04 0.  0.
        4    1    3    3  502    0  0.11392692196E+04 -0.64770040590E+03  0.59132909020E+03  0.14377488920E+04  0.12699999809E+01 0.  1.
       -4    1    3    3    0  502 -0.11392692196E+04  0.64770040590E+03 -0.93267373299E+03  0.16085185966E+04  0.12699999809E+01 0. -1.
</event>
<event>
 5   0  0.7971153E-06  0.2890949E+04  0.7818609E-02  0.8275575E-01
       -1   -1    0    0    0  501  0.00000000000E+00  0.00000000000E+00  0.15025743725E+04  0.15025743725E+04  0.50400001928E-02 0.  1.
        1   -1    0    0  501    0  0.00000000000E+00  0.00000000000E+00 -0.13905448392E+04  0.13905448392E+04  0.50400001928E-02 0. -1.
    10030    2    1    2    0    0  0.00000000000E+00  0.00000000000E+00  0.11202953332E+03  0.28931192117E+04  0.28909493521E+04 0.  0.
        5    1    3    3  502    0  0.78950966432E+03  0.49692978307E+03 -0.10489472107E+04  0.14037724389E+04  0.46999998093E+01 0. -1.
       -5    1    3    3    0  502 -0.78950966432E+03 -0.49692978307E+03  0.11609767440E+04  0.14893467728E+04  0.46999998093E+01 0.  1.
</event>
<event>
 5   0  0.1976233E-05  0.2833276E+04  0.7818609E-02  0.8293011E-01
       -2   -1    0    0    0  501  0.00000000000E+00  0.00000000000E+00  0.97433793556E+03  0.97433793556E+03  0.25500000920E-02 0. -1.
        2   -1    0    0  501    0  0.00000000000E+00  0.00000000000E+00 -0.20597192645E+04  0.20597192645E+04  0.25500000920E-02 0.  1.
    10030    2    1    2    0    0  0.00000000000E+00  0.00000000000E+00 -0.10853813290E+04  0.30340572001E+04  0.28332755715E+04 0.  0.
        2    1    3    3  502    0 -0.24995497540E+03 -0.51754791622E+03  0.84387524532E+03  0.10210086998E+04  0.25500000920E-02 0. -1.
       -2    1    3    3    0  502  0.24995497540E+03  0.51754791622E+03 -0.19292565743E+04  0.20130485003E+04  0.25500000920E-02 0.  1.
</event>
<event>
 5   0  0.1976233E-05  0.2946958E+04  0.7818609E-02  0.8259042E-01
       -2   -1    0    0    0  501  0.00000000000E+00  0.00000000000E+00  0.10361613226E+04  0.10361613226E+04  0.25500000920E-02 0.  1.
        2   -1    0    0  501    0  0.00000000000E+00  0.00000000000E+00 -0.20953684744E+04  0.20953684744E+04  0.25500000920E-02 0. -1.
    10030    2    1    2    0    0  0.00000000000E+00  0.00000000000E+00 -0.10592071519E+04  0.31315297970E+04  0.29469575971E+04 0.  0.
        2    1    3    3  502    0 -0.12867019304E+04 -0.25127736393E+02 -0.12921158737E+04  0.18236766961E+04  0.25500000920E-02 0.  1.
       -2    1    3    3    0  502  0.12867019304E+04  0.25127736393E+02  0.23290872187E+03  0.13078531009E+04  0.25500000920E-02 0. -1.
</event>
<event>
 5   0  0.8122088E-06  0.3022186E+04  0.7818609E-02  0.8237424E-01
        1   -1    0    0  501    0  0.00000000000E+00  0.00000000000E+00  0.18047081090E+04  0.18047081090E+04  0.50400001928E-02 0.  1.
       -1   -1    0    0    0  501  0.00000000000E+00  0.00000000000E+00 -0.12652469819E+04  0.12652469819E+04  0.50400001928E-02 0. -1.
    10030    2    1    2    0    0  0.00000000000E+00  0.00000000000E+00  0.53946112713E+03  0.30699550909E+04  0.30221856251E+04 0.  0.
        1    1    3    3  502    0  0.63834570391E+03  0.28204322104E+03  0.16312019752E+04  0.17742191241E+04  0.50400001928E-02 0.  1.
       -1    1    3    3    0  502 -0.63834570391E+03 -0.28204322104E+03 -0.10917408481E+04  0.12957359668E+04  0.50400001928E-02 0. -1.
</event>
<event>
 5   0  0.1937947E-05  0.2898540E+04  0.7818609E-02  0.8273312E-01
       -2   -1    0    0    0  501  0.00000000000E+00  0.00000000000E+00  0.85000193906E+03  0.85000193906E+03  0.25500000920E-02 0.  1.
        2   -1    0    0  501    0  0.00000000000E+00  0.00000000000E+00 -0.24710336368E+04  0.24710336368E+04  0.25500000920E-02 0. -1.
    10030    2    1    2    0    0  0.00000000000E+00  0.00000000000E+00 -0.16210316978E+04  0.33210355759E+04  0.28985398964E+04 0.  0.
        3    1    3    3  502    0  0.51047738388E+03 -0.11933877959E+04 -0.15491738311E+04  0.20210643631E+04  0.10100000352E+00 0. -1.
       -3    1    3    3    0  502 -0.51047738388E+03  0.11933877959E+04 -0.71857866714E+02  0.12999712128E+04  0.10100000352E+00 0.  1.
</event>
<event>
 5   0  0.1937947E-05  0.2576576E+04  0.7818609E-02  0.8376202E-01
        2   -1    0    0  501    0  0.00000000000E+00  0.00000000000E+00  0.21552392310E+04  0.21552392310E+04  0.25500000920E-02 0. -1.
       -2   -1    0    0    0  501  0.00000000000E+00  0.00000000000E+00 -0.77007037259E+03  0.77007037259E+03  0.25500000920E-02 0.  1.
    10030    2    1    2    0    0  0.00000000000E+00  0.00000000000E+00  0.13851688584E+04  0.29253096036E+04  0.25765759276E+04 0.  0.
        3    1    3    3  502    0 -0.11116629922E+03  0.72772967921E+03  0.18929092599E+04  0.20310228725E+04  0.10100000352E+00 0. -1.
       -3    1    3    3    0  502  0.11116629922E+03 -0.72772967921E+03 -0.50774040144E+03  0.89428673117E+03  0.10100000352E+00 0.  1.
</event>
<event>
 5   0  0.1829810E-05  0.1804872E+04  0.7818609E-02  0.8703713E-01
       -2   -1    0    0    0  501  0.00000000000E+00  0.00000000000E+00  0.61883999825E+03  0.61883999825E+03  0.25500000920E-02 0.  1.
        2   -1    0    0  501    0  0.00000000000E+00  0.00000000000E+00 -0.13159951193E+04  0.13159951193E+04  0.25500000920E-02 0. -1.
    10030    2    1    2    0    0  0.00000000000E+00  0.00000000000E+00 -0.69715512104E+03  0.19348351175E+04  0.18048716490E+04 0.  0.
        4    1    3    3  502    0 -0.24474283489E+03 -0.75554457681E+03 -0.80796996743E+03  0.11329447224E+04  0.12699999809E+01 0. -1.
       -4    1    3    3    0  502  0.24474283489E+03  0.75554457681E+03  0.11081484639E+03  0.80189039517E+03  0.12699999809E+01 0.  1.
</event>
<event>
 5   0  0.7305460E-06  0.1600175E+04  0.7818609E-02  0.8820441E-01
       -1   -1    0    0    0  501  0.00000000000E+00  0.00000000000E+00  0.74150519479E+03  0.74150519480E+03  0.50400001928E-02 0. -1.
        1   -1    0    0  501    0  0.00000000000E+00  0.00000000000E+00 -0.86329802710E+03  0.86329802711E+03  0.50400001928E-02 0.  1.
    10030    2    1    2    0    0  0.00000000000E+00  0.00000000000E+00 -0.12179283231E+03  0.16048032219E+04  0.16001749551E+04 0.  0.
        4    1    3    3  502    0 -0.44014769168E+03  0.33529783094E+03 -0.64048120111E+03  0.84638785896E+03  0.12699999809E+01 0.  1.
       -4    1    3    3    0  502  0.44014769168E+03 -0.33529783094E+03  0.51868836880E+03  0.75841536295E+03  0.12699999809E+01 0. -1.
</event>
<event>
 5   0  0.7305460E-06  0.2749208E+04  0.7818609E-02  0.8319213E-01
        1   -1    0    0  501    0  0.00000000000E+00  0.00000000000E+00  0.92163111725E+03  0.92163111727E+03  0.50400001928E-02 0. -1.
       -1   -1    0    0    0  501  0.00000000000E+00  0.00000000000E+00 -0.20502080007E+04  0.20502080007E+04  0.50400001928E-02 0.  1.
    10030    2    1    2    0    0  0.00000000000E+00  0.00000000000E+00 -0.11285768834E+04  0.29718391179E+04  0.27492075151E+04 0.  0.
        4    1    3    3  502    0  0.11418756825E+04  0.17625964813E+03 -0.13693004458E+04  0.17916285502E+04  0.12699999809E+01 0.  1.
       -4    1    3    3    0  502 -0.11418756825E+04 -0.17625964813E+03  0.24072356238E+03  0.11802105678E+04  0.12699999809E+01 0. -1.
</event>
<event>
 5   0  0.1937947E-05  0.2881947E+04  0.7818609E-02  0.8278269E-01
       -2   -1    0    0    0  501  0.00000000000E+00  0.00000000000E+00  0.97923798906E+03  0.97923798907E+03  0.25500000920E-02 0.  1.
        2   -1    0    0  501    0  0.00000000000E+00  0.00000000000E+00 -0.21204293418E+04  0.21204293418E+04  0.25500000920E-02 0. -1.
    10030    2    1    2    0    0  0.00000000000E+00  0.00000000000E+00 -0.11411913527E+04  0.30996673309E+04  0.28819472338E+04 0.  0.
        3    1    3    3  502    0  0.83770002684E+03  0.11073345744E+04 -0.15616307286E+03  0.13972537745E+04  0.10100000352E+00 0.  1.
       -3    1    3    3    0  502 -0.83770002684E+03 -0.11073345744E+04 -0.98502827986E+03  0.17024135564E+04  0.10100000352E+00 0. -1.
</event>
<event>
 5   0  0.7305460E-06  0.2908706E+04  0.7818609E-02  0.8270292E-01
        1   -1    0    0  501    0  0.00000000000E+00  0.00000000000E+00  0.17940312644E+04  0.17940312644E+04  0.50400001928E-02 0. -1.
       -1   -1    0    0    0  501  0.00000000000E+00  0.00000000000E+00 -0.11789887177E+04  0.11789887177E+04  0.50400001928E-02 0.  1.
    10030    2    1    2    0    0  0.00000000000E+00  0.00000000000E+00  0.61504254669E+03  0.29730199821E+04  0.29087059803E+04 0.  0.
        4    1    3    3  502    0  0.66814790337E+03  0.17941911565E+03  0.16150756136E+04  0.17570098720E+04  0.12699999809E+01 0. -1.
       -4    1    3    3    0  502 -0.66814790337E+03 -0.17941911565E+03 -0.10000330669E+04  0.12160101100E+04  0.12699999809E+01 0.  1.
</event>
<event>
 5   0  0.1937947E-05  0.2907752E+04  0.7818609E-02  0.8270575E-01
       -2   -1    0    0    0  501  0.00000000000E+00  0.00000000000E+00  0.96296229038E+03  0.96296229038E+03  0.25500000920E-02 0.  1.
        2   -1    0    0  501    0  0.00000000000E+00  0.00000000000E+00 -0.21950558846E+04  0.21950558846E+04  0.25500000920E-02 0. -1.
    10030    2    1    2    0    0  0.00000000000E+00  0.00000000000E+00 -0.12320935943E+04  0.31580181750E+04  0.29077524256E+04 0.  0.
        3    1    3    3  502    0  0.10058067715E+04  0.30627725402E+03 -0.17066147491E+04  0.20044916887E+04  0.10100000352E+00 0. -1.
       -3    1    3    3    0  502 -0.10058067715E+04 -0.30627725402E+03  0.47452115489E+03  0.11535264863E+04  0.10100000352E+00 0.  1.
</event>
<event>
 5   0  0.1937947E-05  0.2845879E+04  0.7818609E-02  0.8289165E-01
        2   -1    0    0  501    0  0.00000000000E+00  0.00000000000E+00  0.16845380943E+04  0.16845380943E+04  0.25500000920E-02 0. -1.
       -2   -1    0    0    0  501  0.00000000000E+00  0.00000000000E+00 -0.12019652270E+04  0.12019652270E+04  0.25500000920E-02 0.  1.
    10030    2    1    2    0    0  0.00000000000E+00  0.00000000000E+00  0.48257286728E+03  0.28865033213E+04  0.28458785729E+04 0.  0.
        3    1    3    3  502    0 -0.20122226447E+03 -0.24032871094E+03  0.16490868666E+04  0.16786112691E+04  0.10100000352E+00 0. -1.
       -3    1    3    3    0  502  0.20122226447E+03  0.24032871094E+03 -0.11665139993E+04  0.12078920522E+04  0.10100000352E+00 0.  1.
</event>
<event>
 5   0  0.7305460E-06  0.2882367E+04  0.7818609E-02  0.8278143E-01
        1   -1    0    0  501    0  0.00000000000E+00  0.00000000000E+00  0.20849096112E+04  0.20849096112E+04  0.50400001928E-02 0. -1.
       -1   -1    0    0    0  501  0.00000000000E+00  0.00000000000E+00 -0.99621123996E+03  0.99621123997E+03  0.50400001928E-02 0.  1.
    10030    2    1    2    0    0  0.00000000000E+00  0.00000000000E+00  0.10886983712E+04  0.30811208512E+04  0.28823673527E+04 0.  0.
        4    1    3    3  502    0  0.73621685131E+03  0.12096620402E+04  0.83060420936E+03  0.16417071813E+04  0.12699999809E+01 0. -1.
       -4    1    3    3    0  502 -0.73621685131E+03 -0.12096620402E+04  0.25809416186E+03  0.14394136699E+04  0.12699999809E+01 0.  1.
</event>
<event>
 5   0  0.8234888E-06  0.2722961E+04  0.7818609E-02  0.8327593E-01
       -1   -1    0    0    0  501  0.00000000000E+00  0.00000000000E+00  0.86173590155E+03  0.86173590157E+03  0.50400001928E-02 0. -1.
        1   -1    0    0  501    0  0.00000000000E+00  0.00000000000E+00 -0.21510402514E+04  0.21510402514E+04  0.50400001928E-02 0.  1.
    10030    2    1    2    0    0  0.00000000000E+00  0.00000000000E+00 -0.12893043499E+04  0.30127761530E+04  0.27229606023E+04 0.  0.
        3    1    3    3  502    0  0.76859120684E+03 -0.40733750912E+03 -0.18034918085E+04  0.20023084185E+04  0.10100000352E+00 0.  1.
       -3    1    3    3    0  502 -0.76859120684E+03  0.40733750912E+03  0.51418745860E+03  0.10104677344E+04  0.10100000352E+00 0. -1.
</event>
<event>
 5   0  0.7305460E-06  0.2911930E+04  0.7818609E-02  0.8269337E-01
       -1   -1    0    0    0  501  0.00000000000E+00  0.00000000000E+00  0.14553499676E+04  0.14553499676E+04  0.50400001928E-02 0. -1.
        1   -1    0    0  501    0  0.00000000000E+00  0.00000000000E+00 -0.14565802401E+04  0.14565802401E+04  0.50400001928E-02 0.  1.
    10030    2    1    2    0    0  0.00000000000E+00  0.00000000000E+00 -0.12302724611E+01  0.29119302077E+04  0.29119299478E+04 0.  0.
        4    1    3    3  502    0  0.68541034162E+03  0.51471946070E+03 -0.11775217510E+04  0.14564623396E+04  0.12699999809E+01 0.  1.
       -4    1    3    3    0  502 -0.68541034162E+03 -0.51471946070E+03  0.11762914785E+04  0.14554678681E+04  0.12699999809E+01 0. -1.
</event>
<event>
 5   0  0.1960961E-05  0.2466087E+04  0.7818609E-02  0.8415168E-01
        2   -1    0    0  501    0  0.00000000000E+00  0.00000000000E+00  0.10303012796E+04  0.10303012796E+04  0.25500000920E-02 0.  1.
       -2   -1    0    0    0  501  0.00000000000E+00  0.00000000000E+00 -0.14756810478E+04  0.14756810478E+04  0.25500000920E-02 0. -1.
    10030    2    1    2    0    0  0.00000000000E+00  0.00000000000E+00 -0.44537976817E+03  0.25059823274E+04  0.24660868370E+04 0.  0.
        5    1    3    3  502    0  0.67495887609E+03  0.35815748491E+03 -0.12060893216E+04  0.14277674216E+04  0.46999998093E+01 0. -1.
       -5    1    3    3    0  502 -0.67495887609E+03 -0.35815748491E+03  0.76070955346E+03  0.10782149058E+04  0.46999998093E+01 0.  1.
</event>
<event>
 5   0  0.7305460E-06  0.2497559E+04  0.7818609E-02  0.8403856E-01
        1   -1    0    0  501    0  0.00000000000E+00  0.00000000000E+00  0.12190973101E+04  0.12190973102E+04  0.50400001928E-02 0.  1.
       -1   -1    0    0    0  501  0.00000000000E+00  0.00000000000E+00 -0.12791838847E+04  0.12791838847E+04  0.50400001928E-02 0. -1.
    10030    2    1    2    0    0  0.00000000000E+00  0.00000000000E+00 -0.60086574573E+02  0.24982811949E+04  0.24975585143E+04 0.  0.
        4    1    3    3  502    0  0.46750528986E+03  0.10377589961E+03  0.11235975797E+04  0.12213941900E+04  0.12699999809E+01 0.  1.
       -4    1    3    3    0  502 -0.46750528986E+03 -0.10377589961E+03 -0.11836841542E+04  0.12768870049E+04  0.12699999809E+01 0. -1.
</event>
<event>
 5   0  0.8055928E-06  0.2891951E+04  0.7818609E-02  0.8275276E-01
       -1   -1    0    0    0  501  0.00000000000E+00  0.00000000000E+00  0.14142986728E+04  0.14142986728E+04  0.50400001928E-02 0. -1.
        1   -1    0    0  501    0  0.00000000000E+00  0.00000000000E+00 -0.14783618475E+04  0.14783618475E+04  0.50400001928E-02 0.  1.
    10030    2    1    2    0    0  0.00000000000E+00  0.00000000000E+00 -0.64063174705E+02  0.28926605203E+04  0.28919510361E+04 0.  0.
        2    1    3    3  502    0  0.15094719290E+03 -0.13166488184E+04 -0.61052979579E+03  0.14591421444E+04  0.25500000920E-02 0.  1.
       -2    1    3    3    0  502 -0.15094719290E+03  0.13166488184E+04  0.54646662108E+03  0.14335183759E+04  0.25500000920E-02 0. -1.
</event>
<event>
 5   0  0.7971153E-06  0.2954021E+04  0.7818609E-02  0.8256984E-01
        1   -1    0    0  501    0  0.00000000000E+00  0.00000000000E+00  0.22315065268E+04  0.22315065268E+04  0.50400001928E-02 0.  1.
       -1   -1    0    0    0  501  0.00000000000E+00  0.00000000000E+00 -0.97761785029E+03  0.97761785031E+03  0.50400001928E-02 0. -1.
    10030    2    1    2    0    0  0.00000000000E+00  0.00000000000E+00  0.12538886765E+04  0.32091243771E+04  0.29540214039E+04 0.  0.
        5    1    3    3  502    0  0.84330546551E+03  0.25930573585E+03  0.19137786525E+04  0.21073619512E+04  0.46999998093E+01 0.  1.
       -5    1    3    3    0  502 -0.84330546551E+03 -0.25930573585E+03 -0.65988997594E+03  0.11017624259E+04  0.46999998093E+01 0. -1.
</event>
<event>
 5   0  0.1976233E-05  0.2808978E+04  0.7818609E-02  0.8300486E-01
       -2   -1    0    0    0  501  0.00000000000E+00  0.00000000000E+00  0.12305673037E+04  0.12305673037E+04  0.25500000920E-02 0.  1.
        2   -1    0    0  501    0  0.00000000000E+00  0.00000000000E+00 -0.16029917319E+04  0.16029917319E+04  0.25500000920E-02 0. -1.
    10030    2    1    2    0    0  0.00000000000E+00  0.00000000000E+00 -0.37242442820E+03  0.28335590357E+04  0.28089779020E+04 0.  0.
        2    1    3    3  502    0  0.40592633621E+03  0.13442156802E+04 -0.21642810313E+03  0.14207508962E+04  0.25500000920E-02 0. -1.
       -2    1    3    3    0  502 -0.40592633621E+03 -0.13442156802E+04 -0.15599632507E+03  0.14128081394E+04  0.25500000920E-02 0.  1.
</event>
<event>
 5   0  0.1829810E-05  0.2883277E+04  0.7818609E-02  0.8277870E-01
       -2   -1    0    0    0  501  0.00000000000E+00  0.00000000000E+00  0.10230924173E+04  0.10230924173E+04  0.25500000920E-02 0. -1.
        2   -1    0    0  501    0  0.00000000000E+00  0.00000000000E+00 -0.20314115015E+04  0.20314115015E+04  0.25500000920E-02 0.  1.
    10030    2    1    2    0    0  0.00000000000E+00  0.00000000000E+00 -0.10083190842E+04  0.30545039189E+04  0.28832770964E+04 0.  0.
        4    1    3    3  502    0  0.61858034317E+03 -0.11837247376E+04 -0.10790405038E+04  0.17170253106E+04  0.12699999809E+01 0. -1.
       -4    1    3    3    0  502 -0.61858034317E+03  0.11837247376E+04  0.70721419613E+02  0.13374786083E+04  0.12699999809E+01 0.  1.
</event>
<event>
 5   0  0.1937947E-05  0.2872081E+04  0.7818609E-02  0.8281233E-01
       -2   -1    0    0    0  501  0.00000000000E+00  0.00000000000E+00  0.13744914458E+04  0.13744914458E+04  0.25500000920E-02 0.  1.
        2   -1    0    0  501    0  0.00000000000E+00  0.00000000000E+00 -0.15003456659E+04  0.15003456659E+04  0.25500000920E-02 0. -1.
    10030    2    1    2    0    0  0.00000000000E+00  0.00000000000E+00 -0.12585422012E+03  0.28748371117E+04  0.28720809762E+04 0.  0.
        3    1    3    3  502    0 -0.25134005496E+03  0.90585699211E+03  0.10236852511E+04  0.13898489907E+04  0.10100000352E+00 0.  1.
       -3    1    3    3    0  502  0.25134005496E+03 -0.90585699211E+03 -0.11495394712E+04  0.14849881210E+04  0.10100000352E+00 0. -1.
</event>
<event>
 5   0  0.7305460E-06  0.2698536E+04  0.7818609E-02  0.8335480E-01
       -1   -1    0    0    0  501  0.00000000000E+00  0.00000000000E+00  0.99837742105E+03  0.99837742107E+03  0.50400001928E-02 0. -1.
        1   -1    0    0  501    0  0.00000000000E+00  0.00000000000E+00 -0.18234834593E+04  0.18234834593E+04  0.50400001928E-02 0.  1.
    10030    2    1    2    0    0  0.00000000000E+00  0.00000000000E+00 -0.82510603828E+03  0.28218608804E+04  0.26985364281E+04 0.  0.
        4    1    3    3  502    0 -0.42913972063E+03 -0.76086057083E+03  0.66276749567E+03  0.10965090398E+04  0.12699999809E+01 0. -1.
       -4    1    3    3    0  502  0.42913972063E+03  0.76086057083E+03 -0.14878735340E+04  0.17253518406E+04  0.12699999809E+01 0.  1.
</event>
<event>
 5   0  0.8234888E-06  0.2690322E+04  0.7818609E-02  0.8338152E-01
        1   -1    0    0  501    0  0.00000000000E+00  0.00000000000E+00  0.12534402073E+04  0.12534402074E+04  0.50400001928E-02 0.  1.
       -1   -1    0    0    0  501  0.00000000000E+00  0.00000000000E+00 -0.14435931968E+04  0.14435931968E+04  0.50400001928E-02 0. -1.
    10030    2    1    2    0    0  0.00000000000E+00  0.00000000000E+00 -0.19015298942E+03  0.26970334041E+04  0.26903217324E+04 0.  0.
        3    1    3    3  502    0 -0.98963237427E+03  0.42508648171E+02  0.81729205466E+03  0.12841906144E+04  0.10100000352E+00 0.  1.
       -3    1    3    3    0  502  0.98963237427E+03 -0.42508648171E+02 -0.10074450441E+04  0.14128427897E+04  0.10100000352E+00 0. -1.
</event>
<event>
 5   0  0.7971153E-06  0.2889031E+04  0.7818609E-02  0.8276149E-01
        1   -1    0    0  501    0  0.00000000000E+00  0.00000000000E+00  0.11584760824E+04  0.11584760824E+04  0.50400001928E-02 0. -1.
       -1   -1    0    0    0  501  0.00000000000E+00  0.00000000000E+00 -0.18011805385E+04  0.18011805385E+04  0.50400001928E-02 0.  1.
    10030    2    1    2    0    0  0.00000000000E+00  0.00000000000E+00 -0.64270445611E+03  0.29596566209E+04  0.28890306844E+04 0.  0.
        5    1    3    3  502    0 -0.60489695313E+03 -0.12864422716E+04 -0.58629316187E+02  0.14227766967E+04  0.46999998093E+01 0. -1.
       -5    1    3    3    0  502  0.60489695313E+03  0.12864422716E+04 -0.58407513993E+03  0.15368799241E+04  0.46999998093E+01 0.  1.
</event>
<event>
 5   0  0.7971153E-06  0.2692394E+04  0.7818609E-02  0.8337477E-01
       -1   -1    0    0    0  501  0.00000000000E+00  0.00000000000E+00  0.15731877456E+04  0.15731877456E+04  0.50400001928E-02 0.  1.
        1   -1    0    0  501    0  0.00000000000E+00  0.00000000000E+00 -0.11519578040E+04  0.11519578041E+04  0.50400001928E-02 0. -1.
    10030    2    1    2    0    0  0.00000000000E+00  0.00000000000E+00  0.42122994156E+03  0.27251455497E+04  0.26923936568E+04 0.  0.
        5    1    3    3  502    0  0.11810477983E+04 -0.64582348074E+03  0.19423351099E+03  0.13600406674E+04  0.46999998093E+01 0.  1.
       -5    1    3    3    0  502 -0.11810477983E+04  0.64582348074E+03  0.22699643057E+03  0.13651048823E+04  0.46999998093E+01 0. -1.
</event>
<event>
 5   0  0.1976233E-05  0.2856165E+04  0.7818609E-02  0.8286040E-01
       -2   -1    0    0    0  501  0.00000000000E+00  0.00000000000E+00  0.92831141190E+03  0.92831141190E+03  0.25500000920E-02 0.  1.
        2   -1    0    0  501    0  0.00000000000E+00  0.00000000000E+00 -0.21969133250E+04  0.21969133250E+04  0.25500000920E-02 0. -1.
    10030    2    1    2    0    0  0.00000000000E+00  0.00000000000E+00 -0.12686019131E+04  0.31252247369E+04  0.28561650587E+04 0.  0.
        2    1    3    3  502    0  0.14486410250E+03  0.32186086571E+03  0.87983251893E+03  0.94799012993E+03  0.25500000920E-02 0.  1.
       -2    1    3    3    0  502 -0.14486410250E+03 -0.32186086571E+03 -0.21484344320E+04  0.21772346070E+04  0.25500000920E-02 0. -1.
</event>
<event>
 5   0  0.1976233E-05  0.2892370E+04  0.7818609E-02  0.8275151E-01
       -2   -1    0    0    0  501  0.00000000000E+00  0.00000000000E+00  0.10466320651E+04  0.10466320651E+04  0.25500000920E-02 0.  1.
        2   -1    0    0  501    0  0.00000000000E+00  0.00000000000E+00 -0.19982675606E+04  0.19982675606E+04  0.25500000920E-02 0. -1.
    10030    2    1    2    0    0  0.00000000000E+00  0.00000000000E+00 -0.95163549548E+03  0.30448996257E+04  0.28923698958E+04 0.  0.
        2    1    3    3  502    0  0.79174347087E+03  0.53974515411E+03 -0.16161143375E+04  0.18788315803E+04  0.25500000920E-02 0. -1.
       -2    1    3    3    0  502 -0.79174347087E+03 -0.53974515411E+03  0.66447884204E+03  0.11660680454E+04  0.25500000920E-02 0.  1.
</event>
<event>
 5   0  0.8234888E-06  0.2928333E+04  0.7818609E-02  0.8264497E-01
        1   -1    0    0  501    0  0.00000000000E+00  0.00000000000E+00  0.16498077716E+04  0.16498077716E+04  0.50400001928E-02 0.  1.
       -1   -1    0    0    0  501  0.00000000000E+00  0.00000000000E+00 -0.12994139824E+04  0.12994139824E+04  0.50400001928E-02 0. -1.
    10030    2    1    2    0    0  0.00000000000E+00  0.00000000000E+00  0.35039378919E+03  0.29492217540E+04  0.29283328272E+04 0.  0.
        3    1    3    3  502    0 -0.12875223767E+04 -0.46056967782E+03 -0.35193423495E+03  0.14119830079E+04  0.10100000352E+00 0. -1.
       -3    1    3    3    0  502  0.12875223767E+04  0.46056967782E+03  0.70232802414E+03  0.15372387461E+04  0.10100000352E+00 0.  1.
</event>
<event>
 5   0  0.8122088E-06  0.2843002E+04  0.7818609E-02  0.8290041E-01
       -1   -1    0    0    0  501  0.00000000000E+00  0.00000000000E+00  0.25689724983E+04  0.25689724983E+04  0.50400001928E-02 0. -1.
        1   -1    0    0  501    0  0.00000000000E+00  0.00000000000E+00 -0.78656571671E+03  0.78656571672E+03  0.50400001928E-02 0.  1.
    10030    2    1    2    0    0  0.00000000000E+00  0.00000000000E+00  0.17824067816E+04  0.33555382150E+04  0.28430024231E+04 0.  0.
        1    1    3    3  502    0 -0.12743385466E+04 -0.36344044697E+03  0.14983744545E+04  0.20002884031E+04  0.50400001928E-02 0. -1.
       -1    1    3    3    0  502  0.12743385466E+04  0.36344044697E+03  0.28403232711E+03  0.13552498119E+04  0.50400001928E-02 0.  1.
</event>
<event>
 5   0  0.1918901E-05  0.2844153E+04  0.7818609E-02  0.8289690E-01
        2   -1    0    0  501    0  0.00000000000E+00  0.00000000000E+00  0.17348676533E+04  0.17348676533E+04  0.25500000920E-02 0. -1.
       -2   -1    0    0    0  501  0.00000000000E+00  0.00000000000E+00 -0.11656802813E+04  0.11656802813E+04  0.25500000920E-02 0.  1.
    10030    2    1    2    0    0  0.00000000000E+00  0.00000000000E+00  0.56918737198E+03  0.29005479345E+04  0.28441526077E+04 0.  0.
        1    1    3    3  502    0  0.86586523180E+03 -0.37426247837E+03 -0.80070033283E+03  0.12373019136E+04  0.50400001928E-02 0.  1.
       -1    1    3    3    0  502 -0.86586523180E+03  0.37426247837E+03  0.13698877048E+04  0.16632460209E+04  0.50400001928E-02 0. -1.
</event>
<event>
 5   0  0.1960961E-05  0.3130029E+04  0.7818609E-02  0.8207545E-01
       -2   -1    0    0    0  501  0.00000000000E+00  0.00000000000E+00  0.99656606743E+03  0.99656606743E+03  0.25500000920E-02 0.  1.
        2   -1    0    0  501    0  0.00000000000E+00  0.00000000000E+00 -0.24577096645E+04  0.24577096645E+04  0.25500000920E-02 0. -1.
    10030    2    1    2    0    0  0.00000000000E+00  0.00000000000E+00 -0.14611435971E+04  0.34542757320E+04  0.31300287892E+04 0.  0.
        5    1    3    3  502    0  0.56211383235E+03 -0.14312232719E+04 -0.40905697904E+03  0.15911384970E+04  0.46999998093E+01 0. -1.
       -5    1    3    3    0  502 -0.56211383235E+03  0.14312232719E+04 -0.10520866181E+04  0.18631372350E+04  0.46999998093E+01 0.  1.
</event>
<event>
 5   0  0.8055928E-06  0.3003393E+04  0.7818609E-02  0.8242763E-01
        1   -1    0    0  501    0  0.00000000000E+00  0.00000000000E+00  0.15993104370E+04  0.15993104370E+04  0.50400001928E-02 0.  1.
       -1   -1    0    0    0  501  0.00000000000E+00  0.00000000000E+00 -0.14100408585E+04  0.14100408585E+04  0.50400001928E-02 0. -1.
    10030    2    1    2    0    0  0.00000000000E+00  0.00000000000E+00  0.18926957852E+03  0.30093512955E+04  0.30033934552E+04 0.  0.
        2    1    3    3  502    0 -0.13475108174E+04 -0.29479615686E+03 -0.50017811958E+03  0.14672655957E+04  0.25500000920E-02 0. -1.
       -2    1    3    3    0  502  0.13475108174E+04  0.29479615686E+03  0.68944769810E+03  0.15420856998E+04  0.25500000920E-02 0.  1.
</event>
<event>
 5   0  0.8055928E-06  0.2806003E+04  0.7818609E-02  0.8301407E-01
        1   -1    0    0  501    0  0.00000000000E+00  0.00000000000E+00  0.16671664886E+04  0.16671664886E+04  0.50400001928E-02 0.  1.
       -1   -1    0    0    0  501  0.00000000000E+00  0.00000000000E+00 -0.11806937327E+04  0.11806937327E+04  0.50400001928E-02 0. -1.
    10030    2    1    2    0    0  0.00000000000E+00  0.00000000000E+00  0.48647275587E+03  0.28478602213E+04  0.28060028685E+04 0.  0.
        2    1    3    3  502    0 -0.99827859318E+03 -0.98213561153E+03  0.32972801000E+03  0.14387046499E+04  0.25500000920E-02 0.  1.
       -2    1    3    3    0  502  0.99827859318E+03  0.98213561153E+03  0.15674474587E+03  0.14091555714E+04  0.25500000920E-02 0. -1.
</event>
<event>
 5   0  0.8234888E-06  0.2650812E+04  0.7818609E-02  0.8351143E-01
       -1   -1    0    0    0  501  0.00000000000E+00  0.00000000000E+00  0.18166574302E+04  0.18166574302E+04  0.50400001928E-02 0.  1.
        1   -1    0    0  501    0  0.00000000000E+00  0.00000000000E+00 -0.96699639902E+03  0.96699639904E+03  0.50400001928E-02 0. -1.
    10030    2    1    2    0    0  0.00000000000E+00  0.00000000000E+00  0.84966103120E+03  0.27836538293E+04  0.26508120969E+04 0.  0.
        3    1    3    3  502    0 -0.10638794868E+04 -0.72143323301E+03  0.85535397923E+02  0.12882630891E+04  0.10100000352E+00 0. -1.
       -3    1    3    3    0  502  0.10638794868E+04  0.72143323301E+03  0.76412563328E+03  0.14953907402E+04  0.10100000352E+00 0.  1.
</event>
<event>
 5   0  0.1937947E-05  0.2680591E+04  0.7818609E-02  0.8341330E-01
       -2   -1    0    0    0  501  0.00000000000E+00  0.00000000000E+00  0.12307044646E+04  0.12307044646E+04  0.25500000920E-02 0.  1.
        2   -1    0    0  501    0  0.00000000000E+00  0.00000000000E+00 -0.14596450535E+04  0.14596450535E+04  0.25500000920E-02 0. -1.
    10030    2    1    2    0    0  0.00000000000E+00  0.00000000000E+00 -0.22894058890E+03  0.26903495181E+04  0.26805907439E+04 0.  0.
        3    1    3    3  502    0 -0.52123857117E+03  0.96158584663E+03 -0.89192233401E+03  0.14113335710E+04  0.10100000352E+00 0. -1.
       -3    1    3    3    0  502  0.52123857117E+03 -0.96158584663E+03  0.66298174511E+03  0.12790159471E+04  0.10100000352E+00 0.  1.
</event>
<event>
 5   0  0.7971153E-06  0.2908754E+04  0.7818609E-02  0.8270278E-01
        1   -1    0    0  501    0  0.00000000000E+00  0.00000000000E+00  0.15794510480E+04  0.15794510480E+04  0.50400001928E-02 0. -1.
       -1   -1    0    0    0  501  0.00000000000E+00  0.00000000000E+00 -0.13392074566E+04  0.13392074566E+04  0.50400001928E-02 0.  1.
    10030    2    1    2    0    0  0.00000000000E+00  0.00000000000E+00  0.24024359139E+03  0.29186585047E+04  0.29087541119E+04 0.  0.
        5    1    3    3  502    0  0.88167413578E+03 -0.42740748686E+03 -0.95832348227E+03  0.13705591663E+04  0.46999998093E+01 0.  1.
       -5    1    3    3    0  502 -0.88167413578E+03  0.42740748686E+03  0.11985670737E+04  0.15480993384E+04  0.46999998093E+01 0. -1.
</event>
<event>
 5   0  0.8055928E-06  0.2855188E+04  0.7818609E-02  0.8286337E-01
       -1   -1    0    0    0  501  0.00000000000E+00  0.00000000000E+00  0.65487445037E+03  0.65487445039E+03  0.50400001928E-02 0.  1.
        1   -1    0    0  501    0  0.00000000000E+00  0.00000000000E+00 -0.31120844931E+04  0.31120844931E+04  0.50400001928E-02 0. -1.
    10030    2    1    2    0    0  0.00000000000E+00  0.00000000000E+00 -0.24572100427E+04  0.37669589435E+04  0.28551879952E+04 0.  0.
        2    1    3    3  502    0  0.82048857216E+03 -0.95307638271E+03 -0.33722765904E+03  0.13020286411E+04  0.25500000920E-02 0.  1.
       -2    1    3    3    0  502 -0.82048857216E+03  0.95307638271E+03 -0.21199823837E+04  0.24649303023E+04  0.25500000920E-02 0. -1.
</event>
<event>
 5   0  0.1918901E-05  0.2912575E+04  0.7818609E-02  0.8269146E-01
        2   -1    0    0  501    0  0.00000000000E+00  0.00000000000E+00  0.95083746053E+03  0.95083746053E+03  0.25500000920E-02 0.  1.
       -2   -1    0    0    0  501  0.00000000000E+00  0.00000000000E+00 -0.22304261457E+04  0.22304261457E+04  0.25500000920E-02 0. -1.
    10030    2    1    2    0    0  0.00000000000E+00  0.00000000000E+00 -0.12795886851E+04  0.31812636062E+04  0.29125746220E+04 0.  0.
        1    1    3    3  502    0  0.44153782558E+03 -0.35700341187E+03 -0.21045378942E+04  0.21797905486E+04  0.50400001928E-02 0. -1.
       -1    1    3    3    0  502 -0.44153782558E+03  0.35700341187E+03  0.82494920909E+03  0.10014730576E+04  0.50400001928E-02 0.  1.
</event>
<event>
 5   0  0.1960961E-05  0.2903757E+04  0.7818609E-02  0.8271760E-01
       -2   -1    0    0    0  501  0.00000000000E+00  0.00000000000E+00  0.11517181181E+04  0.11517181181E+04  0.25500000920E-02 0.  1.
        2   -1    0    0  501    0  0.00000000000E+00  0.00000000000E+00 -0.18302669627E+04  0.18302669627E+04  0.25500000920E-02 0. -1.
    10030    2    1    2    0    0  0.00000000000E+00  0.00000000000E+00 -0.67854884457E+03  0.29819850808E+04  0.29037573052E+04 0.  0.
        5    1    3    3  502    0 -0.32873573696E+03  0.85435946579E+03  0.81799752846E+03  0.12276560300E+04  0.46999998093E+01 0.  1.
       -5    1    3    3    0  502  0.32873573696E+03 -0.85435946579E+03 -0.14965463730E+04  0.17543290507E+04  0.46999998093E+01 0. -1.
</event>
<event>
 5   0  0.1960961E-05  0.2670324E+04  0.7818609E-02  0.8344698E-01
       -2   -1    0    0    0  501  0.00000000000E+00  0.00000000000E+00  0.96979123514E+03  0.96979123515E+03  0.25500000920E-02 0.  1.
        2   -1    0    0  501    0  0.00000000000E+00  0.00000000000E+00 -0.18381871236E+04  0.18381871236E+04  0.25500000920E-02 0. -1.
    10030    2    1    2    0    0  0.00000000000E+00  0.00000000000E+00 -0.86839588843E+03  0.28079783587E+04  0.26703241459E+04 0.  0.
        5    1    3    3  502    0  0.86854284499E+03  0.97471476932E+03 -0.14013962409E+03  0.13130486508E+04  0.46999998093E+01 0.  1.
       -5    1    3    3    0  502 -0.86854284499E+03 -0.97471476932E+03 -0.72825626433E+03  0.14949297079E+04  0.46999998093E+01 0. -1.
</event>
<event>
 5   0  0.1960961E-05  0.2856886E+04  0.7818609E-02  0.8285822E-01
        2   -1    0    0  501    0  0.00000000000E+00  0.00000000000E+00  0.19095035380E+04  0.19095035380E+04  0.25500000920E-02 0.  1.
       -2   -1    0    0    0  501  0.00000000000E+00  0.00000000000E+00 -0.10685759057E+04  0.10685759057E+04  0.25500000920E-02 0. -1.
    10030    2    1    2    0    0  0.00000000000E+00  0.00000000000E+00  0.84092763229E+03  0.29780794436E+04  0.28568860478E+04 0.  0.
        5    1    3    3  502    0 -0.12883604995E+04  0.60260151402E+03  0.55807143464E+03  0.15278963242E+04  0.46999998093E+01 0.  1.
       -5    1    3    3    0  502  0.12883604995E+04 -0.60260151402E+03  0.28285619766E+03  0.14501831194E+04  0.46999998093E+01 0. -1.
</event>
<event>
 5   0  0.1976233E-05  0.2919737E+04  0.7818609E-02  0.8267029E-01
       -2   -1    0    0    0  501  0.00000000000E+00  0.00000000000E+00  0.21632318963E+04  0.21632318964E+04  0.25500000920E-02 0. -1.
        2   -1    0    0  501    0  0.00000000000E+00  0.00000000000E+00 -0.98520008609E+03  0.98520008609E+03  0.25500000920E-02 0.  1.
    10030    2    1    2    0    0  0.00000000000E+00  0.00000000000E+00  0.11780318103E+04  0.31484319824E+04  0.29197371461E+04 0.  0.
        2    1    3    3  502    0 -0.69600063854E+03 -0.12829278974E+04  0.55674937527E+03  0.15621429978E+04  0.25500000920E-02 0.  1.
       -2    1    3    3    0  502  0.69600063854E+03  0.12829278974E+04  0.62128243499E+03  0.15862889846E+04  0.25500000920E-02 0. -1.
</event>
<event>
 5   0  0.1829810E-05  0.1951606E+04  0.7818609E-02  0.8629587E-01
       -2   -1    0    0    0  501  0.00000000000E+00  0.00000000000E+00  0.59479171816E+03  0.59479171817E+03  0.25500000920E-02 0. -1.
        2   -1    0    0  501    0  0.00000000000E+00  0.00000000000E+00 -0.16008814386E+04  0.16008814386E+04  0.25500000920E-02 0.  1.
    10030    2    1    2    0    0  0.00000000000E+00  0.00000000000E+00 -0.10060897204E+04  0.21956731568E+04  0.19516055149E+04 0.  0.
        4    1    3    3  502    0 -0.96841116365E+03 -0.10241797092E+03 -0.43296720922E+03  0.10657259684E+04  0.12699999809E+01 0. -1.
       -4    1    3    3    0  502  0.96841116365E+03  0.10241797092E+03 -0.57312251121E+03  0.11299471883E+04  0.12699999809E+01 0.  1.
</event>
<event>
 5   0  0.1937947E-05  0.1759845E+04  0.7818609E-02  0.8727950E-01
        2   -1    0    0  501    0  0.00000000000E+00  0.00000000000E+00  0.14126568366E+04  0.14126568366E+04  0.25500000920E-02 0. -1.
       -2   -1    0    0    0  501  0.00000000000E+00  0.00000000000E+00 -0.54809025043E+03  0.54809025043E+03  0.25500000920E-02 0.  1.
    10030    2    1    2    0    0  0.00000000000E+00  0.00000000000E+00  0.86456658613E+03  0.19607470870E+04  0.17598448106E+04 0.  0.
        3    1    3    3  502    0  0.48601670061E+03  0.21256812905E+03 -0.34990557423E+03  0.63547727248E+03  0.10100000352E+00 0.  1.
       -3    1    3    3    0  502 -0.48601670061E+03 -0.21256812905E+03  0.12144721604E+04  0.13252698145E+04  0.10100000352E+00 0. -1.
</event>
<event>
 5   0  0.1960961E-05  0.2881820E+04  0.7818609E-02  0.8278307E-01
       -2   -1    0    0    0  501  0.00000000000E+00  0.00000000000E+00  0.12586488627E+04  0.12586488627E+04  0.25500000920E-02 0. -1.
        2   -1    0    0  501    0  0.00000000000E+00  0.00000000000E+00 -0.16495643746E+04  0.16495643746E+04  0.25500000920E-02 0.  1.
    10030    2    1    2    0    0  0.00000000000E+00  0.00000000000E+00 -0.39091551191E+03  0.29082132373E+04  0.28818204830E+04 0.  0.
        5    1    3    3  502    0 -0.44145043639E+03 -0.81472821608E+03  0.91806958524E+03  0.13044287666E+04  0.46999998093E+01 0. -1.
       -5    1    3    3    0  502  0.44145043639E+03  0.81472821608E+03 -0.13089850972E+04  0.16037844707E+04  0.46999998093E+01 0.  1.
</event>
<event>
 5   0  0.1829810E-05  0.1566800E+04  0.7818609E-02  0.8841207E-01
       -2   -1    0    0    0  501  0.00000000000E+00  0.00000000000E+00  0.23996773762E+03  0.23996773763E+03  0.25500000920E-02 0.  1.
        2   -1    0    0  501    0  0.00000000000E+00  0.00000000000E+00 -0.25574934040E+04  0.25574934040E+04  0.25500000920E-02 0. -1.
    10030    2    1    2    0    0  0.00000000000E+00  0.00000000000E+00 -0.23175256664E+04  0.27974611417E+04  0.15668004419E+04 0.  0.
        4    1    3    3  502    0 -0.16585007272E+02 -0.69752281634E+03 -0.17948009729E+04  0.19256493157E+04  0.12699999809E+01 0. -1.
       -4    1    3    3    0  502  0.16585007272E+02  0.69752281634E+03 -0.52272469347E+03  0.87181182594E+03  0.12699999809E+01 0.  1.
</event>
<event>
 5   0  0.1918901E-05  0.2836636E+04  0.7818609E-02  0.8291984E-01
       -2   -1    0    0    0  501  0.00000000000E+00  0.00000000000E+00  0.13401499142E+04  0.13401499142E+04  0.25500000920E-02 0.  1.
        2   -1    0    0  501    0  0.00000000000E+00  0.00000000000E+00 -0.15010454775E+04  0.15010454775E+04  0.25500000920E-02 0. -1.
    10030    2    1    2    0    0  0.00000000000E+00  0.00000000000E+00 -0.16089556330E+03  0.28411953917E+04  0.28366360132E+04 0.  0.
        1    1    3    3  502    0 -0.51916320278E+03  0.96921620597E+03  0.81693619193E+03  0.13697792621E+04  0.50400001928E-02 0.  1.
       -1    1    3    3    0  502  0.51916320278E+03 -0.96921620597E+03 -0.97783175523E+03  0.14714161297E+04  0.50400001928E-02 0. -1.
</event>
<event>
 5   0  0.8055928E-06  0.2905383E+04  0.7818609E-02  0.8271278E-01
       -1   -1    0    0    0  501  0.00000000000E+00  0.00000000000E+00  0.10179694066E+04  0.10179694066E+04  0.50400001928E-02 0. -1.
        1   -1    0    0  501    0  0.00000000000E+00  0.00000000000E+00 -0.20730605018E+04  0.20730605018E+04  0.50400001928E-02 0.  1.
    10030    2    1    2    0    0  0.00000000000E+00  0.00000000000E+00 -0.10550910952E+04  0.30910299084E+04  0.29053827072E+04 0.  0.
        2    1    3    3  502    0 -0.11243949007E+04  0.74174341371E+03 -0.11062364363E+04  0.17430451049E+04  0.25500000920E-02 0.  1.
       -2    1    3    3    0  502  0.11243949007E+04 -0.74174341371E+03  0.51145341150E+02  0.13479848035E+04  0.25500000920E-02 0. -1.
</event>
<event>
 5   0  0.1937947E-05  0.2826684E+04  0.7818609E-02  0.8295031E-01
       -2   -1    0    0    0  501  0.00000000000E+00  0.00000000000E+00  0.15215578339E+04  0.15215578339E+04  0.25500000920E-02 0.  1.
        2   -1    0    0  501    0  0.00000000000E+00  0.00000000000E+00 -0.13128231217E+04  0.13128231217E+04  0.25500000920E-02 0. -1.
    10030    2    1    2    0    0  0.00000000000E+00  0.00000000000E+00  0.20873471216E+03  0.28343809556E+04  0.28266844927E+04 0.  0.
        3    1    3    3  502    0  0.23495501544E+03 -0.11205491423E+04  0.93529854139E+03  0.14783834453E+04  0.10100000352E+00 0.  1.
       -3    1    3    3    0  502 -0.23495501544E+03  0.11205491423E+04 -0.72656382923E+03  0.13559975102E+04  0.10100000352E+00 0. -1.
</event>
<event>
 5   0  0.7305460E-06  0.1481010E+04  0.7818609E-02  0.8897180E-01
       -1   -1    0    0    0  501  0.00000000000E+00  0.00000000000E+00  0.36354160056E+03  0.36354160060E+03  0.50400001928E-02 0.  1.
        1   -1    0    0  501    0  0.00000000000E+00  0.00000000000E+00 -0.15083492521E+04  0.15083492521E+04  0.50400001928E-02 0. -1.
    10030    2    1    2    0    0  0.00000000000E+00  0.00000000000E+00 -0.11448076515E+04  0.18718908527E+04  0.14810100626E+04 0.  0.
        4    1    3    3  502    0 -0.43908166792E+03 -0.53832006014E+03 -0.24827357707E+03  0.73771443000E+03  0.12699999809E+01 0.  1.
       -4    1    3    3    0  502  0.43908166792E+03  0.53832006014E+03 -0.89653407443E+03  0.11341764227E+04  0.12699999809E+01 0. -1.
</event>
<event>
 5   0  0.8122088E-06  0.2879563E+04  0.7818609E-02  0.8278984E-01
        1   -1    0    0  501    0  0.00000000000E+00  0.00000000000E+00  0.12355665637E+04  0.12355665637E+04  0.50400001928E-02 0. -1.
       -1   -1    0    0    0  501  0.00000000000E+00  0.00000000000E+00 -0.16777493209E+04  0.16777493209E+04  0.50400001928E-02 0.  1.
    10030    2    1    2    0    0  0.00000000000E+00  0.00000000000E+00 -0.44218275717E+03  0.29133158846E+04  0.28795631357E+04 0.  0.
        1    1    3    3  502    0 -0.24164750093E+03  0.12615085955E+04 -0.87923429228E+03  0.15565507997E+04  0.50400001928E-02 0.  1.
       -1    1    3    3    0  502  0.24164750093E+03 -0.12615085955E+04  0.43705153510E+03  0.13567650849E+04  0.50400001928E-02 0. -1.
</event>
<event>
 5   0  0.7971153E-06  0.1554746E+04  0.7818609E-02  0.8848842E-01
       -1   -1    0    0    0  501  0.00000000000E+00  0.00000000000E+00  0.87334339678E+03  0.87334339680E+03  0.50400001928E-02 0.  1.
        1   -1    0    0  501    0  0.00000000000E+00  0.00000000000E+00 -0.69194840643E+03  0.69194840645E+03  0.50400001928E-02 0. -1.
    10030    2    1    2    0    0  0.00000000000E+00  0.00000000000E+00  0.18139499036E+03  0.15652918032E+04  0.15547457306E+04 0.  0.
        5    1    3    3  502    0  0.18152071251E+03 -0.74174153754E+03 -0.55740849956E+02  0.76567578643E+03  0.46999998093E+01 0.  1.
       -5    1    3    3    0  502 -0.18152071251E+03  0.74174153754E+03  0.23713584031E+03  0.79961601681E+03  0.46999998093E+01 0. -1.
</event>
<event>
 5   0  0.1829810E-05  0.1830859E+04  0.7818609E-02  0.8690059E-01
       -2   -1    0    0    0  501  0.00000000000E+00  0.00000000000E+00  0.43708591657E+03  0.43708591658E+03  0.25500000920E-02 0.  1.
        2   -1    0    0  501    0  0.00000000000E+00  0.00000000000E+00 -0.19172677859E+04  0.19172677859E+04  0.25500000920E-02 0. -1.
    10030    2    1    2    0    0  0.00000000000E+00  0.00000000000E+00 -0.14801818694E+04  0.23543537025E+04  0.18308585391E+04 0.  0.
        4    1    3    3  502    0 -0.15785011045E+02 -0.23121733338E+02  0.43653415492E+03  0.43743280906E+03  0.12699999809E+01 0.  1.
       -4    1    3    3    0  502  0.15785011045E+02  0.23121733338E+02 -0.19167160243E+04  0.19169208935E+04  0.12699999809E+01 0. -1.
</event>
<event>
 5   0  0.8055928E-06  0.2896222E+04  0.7818609E-02  0.8274002E-01
        1   -1    0    0  501    0  0.00000000000E+00  0.00000000000E+00  0.12194453337E+04  0.12194453337E+04  0.50400001928E-02 0.  1.
       -1   -1    0    0    0  501  0.00000000000E+00  0.00000000000E+00 -0.17196552402E+04  0.17196552402E+04  0.50400001928E-02 0. -1.
    10030    2    1    2    0    0  0.00000000000E+00  0.00000000000E+00 -0.50020990651E+03  0.29391005738E+04  0.28962220620E+04 0.  0.
        2    1    3    3  502    0 -0.70785429335E+03  0.83481622100E+03  0.71211519987E+03  0.13057886052E+04  0.25500000920E-02 0.  1.
       -2    1    3    3    0  502  0.70785429335E+03 -0.83481622100E+03 -0.12123251064E+04  0.16333119687E+04  0.25500000920E-02 0. -1.
</event>
<event>
 5   0  0.1976233E-05  0.2920935E+04  0.7818609E-02  0.8266676E-01
       -2   -1    0    0    0  501  0.00000000000E+00  0.00000000000E+00  0.13044318724E+04  0.13044318724E+04  0.25500000920E-02 0.  1.
        2   -1    0    0  501    0  0.00000000000E+00  0.00000000000E+00 -0.16351680350E+04  0.16351680351E+04  0.25500000920E-02 0. -1.
    10030    2    1    2    0    0  0.00000000000E+00  0.00000000000E+00 -0.33073616268E+03  0.29395999074E+04  0.29209349884E+04 0.  0.
        2    1    3    3  502    0 -0.33852928567E+03 -0.81605165255E+03  0.10050003421E+04  0.13381210949E+04  0.25500000920E-02 0.  1.
       -2    1    3    3    0  502  0.33852928567E+03  0.81605165255E+03 -0.13357365048E+04  0.16014788126E+04  0.25500000920E-02 0. -1.
</event>
<event>
 5   0  0.1918901E-05  0.2536946E+04  0.7818609E-02  0.8389940E-01
        2   -1    0    0  501    0  0.00000000000E+00  0.00000000000E+00  0.18589871226E+04  0.18589871226E+04  0.25500000920E-02 0.  1.
       -2   -1    0    0    0  501  0.00000000000E+00  0.00000000000E+00 -0.86553813765E+03  0.86553813766E+03  0.25500000920E-02 0. -1.
    10030    2    1    2    0    0  0.00000000000E+00  0.00000000000E+00  0.99344898495E+03  0.27245252603E+04  0.25369463944E+04 0.  0.
        1    1    3    3  502    0  0.30610222524E+03 -0.36277811731E+03 -0.76656620746E+03  0.90162646652E+03  0.50400001928E-02 0. -1.
       -1    1    3    3    0  502 -0.30610222524E+03  0.36277811731E+03  0.17600151924E+04  0.18228987937E+04  0.50400001928E-02 0.  1.
</event>
<event>
 5   0  0.1960961E-05  0.2807584E+04  0.7818609E-02  0.8300918E-01
       -2   -1    0    0    0  501  0.00000000000E+00  0.00000000000E+00  0.10050362250E+04  0.10050362250E+04  0.25500000920E-02 0.  1.
        2   -1    0    0  501    0  0.00000000000E+00  0.00000000000E+00 -0.19607577449E+04  0.19607577449E+04  0.25500000920E-02 0. -1.
    10030    2    1    2    0    0  0.00000000000E+00  0.00000000000E+00 -0.95572151983E+03  0.29657939699E+04  0.28075844152E+04 0.  0.
        5    1    3    3  502    0 -0.45030802904E+03 -0.15435544733E+03  0.91716534578E+03  0.10333524503E+04  0.46999998093E+01 0.  1.
       -5    1    3    3    0  502  0.45030802904E+03  0.15435544733E+03 -0.18728868656E+04  0.19324415196E+04  0.46999998093E+01 0. -1.
</event>
<event>
 5   0  0.8055928E-06  0.2884992E+04  0.7818609E-02  0.8277357E-01
        1   -1    0    0  501    0  0.00000000000E+00  0.00000000000E+00  0.17654962453E+04  0.17654962453E+04  0.50400001928E-02 0.  1.
       -1   -1    0    0    0  501  0.00000000000E+00  0.00000000000E+00 -0.11785895428E+04  0.11785895428E+04  0.50400001928E-02 0. -1.
    10030    2    1    2    0    0  0.00000000000E+00  0.00000000000E+00  0.58690670247E+03  0.29440857881E+04  0.28849924870E+04 0.  0.
        2    1    3    3  502    0  0.85095590770E+03 -0.11392583715E+04  0.54082276377E+03  0.15213562554E+04  0.25500000920E-02 0.  1.
       -2    1    3    3    0  502 -0.85095590770E+03  0.11392583715E+04  0.46083938704E+02  0.14227295327E+04  0.25500000920E-02 0. -1.
</event>
<event>
 5   0  0.7305460E-06  0.2245428E+04  0.7818609E-02  0.8499754E-01
       -1   -1    0    0    0  501  0.00000000000E+00  0.00000000000E+00  0.76246810354E+03  0.76246810356E+03  0.50400001928E-02 0.  1.
        1   -1    0    0  501    0  0.00000000000E+00  0.00000000000E+00 -0.16531660910E+04  0.16531660910E+04  0.50400001928E-02 0. -1.
    10030    2    1    2    0    0  0.00000000000E+00  0.00000000000E+00 -0.89069798742E+03  0.24156341945E+04  0.22454277225E+04 0.  0.
        4    1    3    3  502    0 -0.63650781299E+03 -0.85144314765E+03 -0.83381186940E+03  0.13510519887E+04  0.12699999809E+01 0. -1.
       -4    1    3    3    0  502  0.63650781299E+03  0.85144314765E+03 -0.56886118017E+02  0.10645822058E+04  0.12699999809E+01 0.  1.
</event>
<event>
 5   0  0.1829810E-05  0.2873796E+04  0.7818609E-02  0.8280717E-01
       -2   -1    0    0    0  501  0.00000000000E+00  0.00000000000E+00  0.10819958882E+04  0.10819958882E+04  0.25500000920E-02 0.  1.
        2   -1    0    0  501    0  0.00000000000E+00  0.00000000000E+00 -0.19082110669E+04  0.19082110669E+04  0.25500000920E-02 0. -1.
    10030    2    1    2    0    0  0.00000000000E+00  0.00000000000E+00 -0.82621517869E+03  0.29902069552E+04  0.28737964634E+04 0.  0.
        4    1    3    3  502    0  0.23489390390E+03  0.65857984128E+03 -0.17192543594E+04  0.18560010018E+04  0.12699999809E+01 0. -1.
       -4    1    3    3    0  502 -0.23489390390E+03 -0.65857984128E+03  0.89303918073E+03  0.11342059534E+04  0.12699999809E+01 0.  1.
</event>
<event>
 5   0  0.1937947E-05  0.2841103E+04  0.7818609E-02  0.8290620E-01
       -2   -1    0    0    0  501  0.00000000000E+00  0.00000000000E+00  0.14205198524E+04  0.14205198524E+04  0.25500000920E-02 0.  1.
        2   -1    0    0  501    0  0.00000000000E+00  0.00000000000E+00 -0.14205827631E+04  0.14205827631E+04  0.25500000920E-02 0. -1.
    10030    2    1    2    0    0  0.00000000000E+00  0.00000000000E+00 -0.62910716673E-01  0.28411026155E+04  0.28411026148E+04 0.  0.
        3    1    3    3  502    0 -0.26313597719E+03 -0.19721899247E+03  0.13819345841E+04  0.14205207068E+04  0.10100000352E+00 0.  1.
       -3    1    3    3    0  502  0.26313597719E+03  0.19721899247E+03 -0.13819974948E+04  0.14205819087E+04  0.10100000352E+00 0. -1.
</event>
<event>
 5   0  0.8122088E-06  0.2597219E+04  0.7818609E-02  0.8369146E-01
       -1   -1    0    0    0  501  0.00000000000E+00  0.00000000000E+00  0.16349846132E+04  0.16349846132E+04  0.50400001928E-02 0.  1.
        1   -1    0    0  501    0  0.00000000000E+00  0.00000000000E+00 -0.10314391020E+04  0.10314391020E+04  0.50400001928E-02 0. -1.
    10030    2    1    2    0    0  0.00000000000E+00  0.00000000000E+00  0.60354551122E+03  0.26664237153E+04  0.25972193294E+04 0.  0.
        1    1    3    3  502    0  0.45342419120E+03 -0.37142705700E+03 -0.88791213185E+03  0.10639264588E+04  0.50400001928E-02 0. -1.
       -1    1    3    3    0  502 -0.45342419120E+03  0.37142705700E+03  0.14914576431E+04  0.16024972564E+04  0.50400001928E-02 0.  1.
</event>
<event>
 5   0  0.8234888E-06  0.2874199E+04  0.7818609E-02  0.8280596E-01
       -1   -1    0    0    0  501  0.00000000000E+00  0.00000000000E+00  0.95479670841E+03  0.95479670842E+03  0.50400001928E-02 0. -1.
        1   -1    0    0  501    0  0.00000000000E+00  0.00000000000E+00 -0.21630309997E+04  0.21630309997E+04  0.50400001928E-02 0.  1.
    10030    2    1    2    0    0  0.00000000000E+00  0.00000000000E+00 -0.12082342913E+04  0.31178277082E+04  0.28741989345E+04 0.  0.
        3    1    3    3  502    0 -0.14696987674E+03  0.63565117954E+03  0.78489021745E+03  0.10206396183E+04  0.10100000352E+00 0. -1.
       -3    1    3    3    0  502  0.14696987674E+03 -0.63565117954E+03 -0.19931245088E+04  0.20971880899E+04  0.10100000352E+00 0.  1.
</event>
<event>
 5   0  0.8055928E-06  0.2921633E+04  0.7818609E-02  0.8266470E-01
        1   -1    0    0  501    0  0.00000000000E+00  0.00000000000E+00  0.18577726290E+04  0.18577726290E+04  0.50400001928E-02 0. -1.
       -1   -1    0    0    0  501  0.00000000000E+00  0.00000000000E+00 -0.11486793723E+04  0.11486793723E+04  0.50400001928E-02 0.  1.
    10030    2    1    2    0    0  0.00000000000E+00  0.00000000000E+00  0.70909325675E+03  0.30064520013E+04  0.29216331716E+04 0.  0.
        2    1    3    3  502    0 -0.12510623615E+03  0.11045100660E+04  0.13298984380E+04  0.17332697169E+04  0.25500000920E-02 0. -1.
       -2    1    3    3    0  502  0.12510623615E+03 -0.11045100660E+04 -0.62080518122E+03  0.12731822844E+04  0.25500000920E-02 0.  1.
</event>
<event>
 5   0  0.8055928E-06  0.2854489E+04  0.7818609E-02  0.8286548E-01
       -1   -1    0    0    0  501  0.00000000000E+00  0.00000000000E+00  0.14027115372E+04  0.14027115372E+04  0.50400001928E-02 0. -1.
        1   -1    0    0  501    0  0.00000000000E+00  0.00000000000E+00 -0.14522067636E+04  0.14522067636E+04  0.50400001928E-02 0.  1.
    10030    2    1    2    0    0  0.00000000000E+00  0.00000000000E+00 -0.49495226403E+02  0.28549183008E+04  0.28544892234E+04 0.  0.
        2    1    3    3  502    0  0.57961982769E+03 -0.46309417830E+03  0.11947025816E+04  0.14063177526E+04  0.25500000920E-02 0. -1.
       -2    1    3    3    0  502 -0.57961982769E+03  0.46309417830E+03 -0.12441978080E+04  0.14486005482E+04  0.25500000920E-02 0.  1.
</event>
<event>
 5   0  0.1960961E-05  0.3093072E+04  0.7818609E-02  0.8217642E-01
        2   -1    0    0  501    0  0.00000000000E+00  0.00000000000E+00  0.17425588430E+04  0.17425588430E+04  0.25500000920E-02 0.  1.
       -2   -1    0    0    0  501  0.00000000000E+00  0.00000000000E+00 -0.13725636720E+04  0.13725636720E+04  0.25500000920E-02 0. -1.
    10030    2    1    2    0    0  0.00000000000E+00  0.00000000000E+00  0.36999517103E+03  0.31151225150E+04  0.30930715893E+04 0.  0.
        5    1    3    3  502    0  0.21618256006E+03 -0.11210213405E+04  0.12356640908E+04  0.16823529893E+04  0.46999998093E+01 0.  1.
       -5    1    3    3    0  502 -0.21618256006E+03  0.11210213405E+04 -0.86566891978E+03  0.14327695257E+04  0.46999998093E+01 0. -1.
</event>
<event>
 5   0  0.7971153E-06  0.2877762E+04  0.7818609E-02  0.8279525E-01
       -1   -1    0    0    0  501  0.00000000000E+00  0.00000000000E+00  0.14753797630E+04  0.14753797630E+04  0.50400001928E-02 0.  1.
        1   -1    0    0  501    0  0.00000000000E+00  0.00000000000E+00 -0.14032850744E+04  0.14032850744E+04  0.50400001928E-02 0. -1.
    10030    2    1    2    0    0  0.00000000000E+00  0.00000000000E+00  0.72094688645E+02  0.28786648374E+04  0.28777619085E+04 0.  0.
        5    1    3    3  502    0  0.91923595261E+03 -0.64924791386E+03  0.93289918582E+03  0.14617936144E+04  0.46999998093E+01 0.  1.
       -5    1    3    3    0  502 -0.91923595261E+03  0.64924791386E+03 -0.86080449717E+03  0.14168712230E+04  0.46999998093E+01 0. -1.
</event>
<event>
 5   0  0.8234888E-06  0.2942731E+04  0.7818609E-02  0.8260276E-01
        1   -1    0    0  501    0  0.00000000000E+00  0.00000000000E+00  0.14042798784E+04  0.14042798784E+04  0.50400001928E-02 0.  1.
       -1   -1    0    0    0  501  0.00000000000E+00  0.00000000000E+00 -0.15416554815E+04  0.15416554815E+04  0.50400001928E-02 0. -1.
    10030    2    1    2    0    0  0.00000000000E+00  0.00000000000E+00 -0.13737560310E+03  0.29459353599E+04  0.29427305497E+04 0.  0.
        3    1    3    3  502    0  0.15282774868E+03  0.67921676287E+02  0.13947339239E+04  0.14047250277E+04  0.10100000352E+00 0.  1.
       -3    1    3    3    0  502 -0.15282774868E+03 -0.67921676287E+02 -0.15321095270E+04  0.15412103321E+04  0.10100000352E+00 0. -1.
</event>
<event>
 5   0  0.7971153E-06  0.2848303E+04  0.7818609E-02  0.8288427E-01
        1   -1    0    0  501    0  0.00000000000E+00  0.00000000000E+00  0.10088070004E+04  0.10088070004E+04  0.50400001928E-02 0.  1.
       -1   -1    0    0    0  501  0.00000000000E+00  0.00000000000E+00 -0.20105015144E+04  0.20105015144E+04  0.50400001928E-02 0. -1.
    10030    2    1    2    0    0  0.00000000000E+00  0.00000000000E+00 -0.10016945140E+04  0.30193085148E+04  0.28483033561E+04 0.  0.
        5    1    3    3  502    0 -0.12401294275E+04  0.49590557269E+03 -0.10248346356E+04  0.16834938236E+04  0.46999998093E+01 0. -1.
       -5    1    3    3    0  502  0.12401294275E+04 -0.49590557269E+03  0.23140121623E+02  0.13358146912E+04  0.46999998093E+01 0.  1.
</event>
<event>
 5   0  0.7305460E-06  0.1609847E+04  0.7818609E-02  0.8814521E-01
        1   -1    0    0  501    0  0.00000000000E+00  0.00000000000E+00  0.13644390305E+04  0.13644390305E+04  0.50400001928E-02 0. -1.
       -1   -1    0    0    0  501  0.00000000000E+00  0.00000000000E+00 -0.47484857389E+03  0.47484857392E+03  0.50400001928E-02 0.  1.
    10030    2    1    2    0    0  0.00000000000E+00  0.00000000000E+00  0.88959045658E+03  0.18392876044E+04  0.16098471080E+04 0.  0.
        4    1    3    3  502    0 -0.58607099953E+03 -0.35571606895E+03 -0.37083031657E+02  0.68657840218E+03  0.12699999809E+01 0.  1.
       -4    1    3    3    0  502  0.58607099953E+03  0.35571606895E+03  0.92667348823E+03  0.11527092022E+04  0.12699999809E+01 0. -1.
</event>
<event>
 5   0  0.1976233E-05  0.2958506E+04  0.7818609E-02  0.8255680E-01
        2   -1    0    0  501    0  0.00000000000E+00  0.00000000000E+00  0.17742064498E+04  0.17742064498E+04  0.25500000920E-02 0.  1.
       -2   -1    0    0    0  501  0.00000000000E+00  0.00000000000E+00 -0.12333337978E+04  0.12333337978E+04  0.25500000920E-02 0. -1.
    10030    2    1    2    0    0  0.00000000000E+00  0.00000000000E+00  0.54087265206E+03  0.30075402476E+04  0.29585055543E+04 0.  0.
        2    1    3    3  502    0 -0.29854673187E+03 -0.10563223972E+04 -0.73758375972E+03  0.13224889264E+04  0.25500000920E-02 0.  1.
       -2    1    3    3    0  502  0.29854673187E+03  0.10563223972E+04  0.12784564118E+04  0.16850513211E+04  0.25500000920E-02 0. -1.
</event>
<event>
 5   0  0.1918901E-05  0.2831043E+04  0.7818609E-02  0.8293695E-01
       -2   -1    0    0    0  501  0.00000000000E+00  0.00000000000E+00  0.15444098401E+04  0.15444098401E+04  0.25500000920E-02 0. -1.
        2   -1    0    0  501    0  0.00000000000E+00  0.00000000000E+00 -0.12973898042E+04  0.12973898042E+04  0.25500000920E-02 0.  1.
    10030    2    1    2    0    0  0.00000000000E+00  0.00000000000E+00  0.24702003588E+03  0.28417996443E+04  0.28310433271E+04 0.  0.
        1    1    3    3  502    0 -0.11498746117E+04  0.45669320156E+03 -0.56679553416E+03  0.13608958375E+04  0.50400001928E-02 0.  1.
       -1    1    3    3    0  502  0.11498746117E+04 -0.45669320156E+03  0.81381557004E+03  0.14809038068E+04  0.50400001928E-02 0. -1.
</event>
<event>
 5   0  0.6578125E-06  0.2650569E+04  0.7818609E-02  0.8351224E-01
        3   -1    0    0  501    0  0.00000000000E+00  0.00000000000E+00  0.11971689654E+04  0.11971689697E+04  0.10100000352E+00 0. -1.
       -3   -1    0    0    0  501  0.00000000000E+00  0.00000000000E+00 -0.14671103164E+04  0.14671103199E+04  0.10100000352E+00 0.  1.
    10030    2    1    2    0    0  0.00000000000E+00  0.00000000000E+00 -0.26994135102E+03  0.26642792896E+04  0.26505689578E+04 0.  0.
        2    1    3    3  502    0  0.60379025518E+03 -0.50509892924E+03 -0.12066427619E+04  0.14407200823E+04  0.25500000920E-02 0.  1.
       -2    1    3    3    0  502 -0.60379025518E+03  0.50509892924E+03  0.93670141091E+03  0.12235592073E+04  0.25500000920E-02 0. -1.
</event>
<event>
 5   0  0.8055928E-06  0.2873185E+04  0.7818609E-02  0.8280901E-01
        1   -1    0    0  501    0  0.00000000000E+00  0.00000000000E+00  0.79315022079E+03  0.79315022080E+03  0.50400001928E-02 0.  1.
       -1   -1    0    0    0  501  0.00000000000E+00  0.00000000000E+00 -0.26020275485E+04  0.26020275485E+04  0.50400001928E-02 0. -1.
    10030    2    1    2    0    0  0.00000000000E+00  0.00000000000E+00 -0.18088773278E+04  0.33951777694E+04  0.28731854967E+04 0.  0.
        2    1    3    3  502    0  0.44559159837E+03  0.58808840513E+03 -0.23610200442E+04  0.24736239597E+04  0.25500000920E-02 0. -1.
       -2    1    3    3    0  502 -0.44559159837E+03 -0.58808840513E+03  0.55214271645E+03  0.92155380967E+03  0.25500000920E-02 0.  1.
</event>
<event>
 5   0  0.8234888E-06  0.2912783E+04  0.7818609E-02  0.8269084E-01
        1   -1    0    0  501    0  0.00000000000E+00  0.00000000000E+00  0.18088546621E+04  0.18088546621E+04  0.50400001928E-02 0. -1.
       -1   -1    0    0    0  501  0.00000000000E+00  0.00000000000E+00 -0.11726074826E+04  0.11726074826E+04  0.50400001928E-02 0.  1.
    10030    2    1    2    0    0  0.00000000000E+00  0.00000000000E+00  0.63624717945E+03  0.29814621447E+04  0.29127832132E+04 0.  0.
        3    1    3    3  502    0  0.10109509485E+03 -0.79220522947E+03  0.15647342227E+04  0.17567591017E+04  0.10100000352E+00 0. -1.
       -3    1    3    3    0  502 -0.10109509485E+03  0.79220522947E+03 -0.92848704321E+03  0.12247030430E+04  0.10100000352E+00 0.  1.
</event>
<event>
 5   0  0.1976233E-05  0.1515909E+04  0.7818609E-02  0.8873942E-01
        2   -1    0    0  501    0  0.00000000000E+00  0.00000000000E+00  0.74635302025E+03  0.74635302025E+03  0.25500000920E-02 0. -1.
       -2   -1    0    0    0  501  0.00000000000E+00  0.00000000000E+00 -0.76973608122E+03  0.76973608122E+03  0.25500000920E-02 0.  1.
    10030    2    1    2    0    0  0.00000000000E+00  0.00000000000E+00 -0.23383060966E+02  0.15160891015E+04  0.15159087690E+04 0.  0.
        2    1    3    3  502    0 -0.19291562997E+03 -0.41660372279E+03  0.59147203621E+03  0.74874179245E+03  0.25500000920E-02 0. -1.
       -2    1    3    3    0  502  0.19291562997E+03  0.41660372279E+03 -0.61485509718E+03  0.76734730902E+03  0.25500000920E-02 0.  1.
</event>
<event>
 5   0  0.1918901E-05  0.2940511E+04  0.7818609E-02  0.8260925E-01
       -2   -1    0    0    0  501  0.00000000000E+00  0.00000000000E+00  0.16013617222E+04  0.16013617222E+04  0.25500000920E-02 0. -1.
        2   -1    0    0  501    0  0.00000000000E+00  0.00000000000E+00 -0.13498828637E+04  0.13498828637E+04  0.25500000920E-02 0.  1.
    10030    2    1    2    0    0  0.00000000000E+00  0.00000000000E+00  0.25147885853E+03  0.29512445859E+04  0.29405106681E+04 0.  0.
        1    1    3    3  502    0  0.11606355311E+04 -0.88183206549E+02  0.10272385140E+04  0.15524400402E+04  0.50400001928E-02 0. -1.
       -1    1    3    3    0  502 -0.11606355311E+04  0.88183206549E+02 -0.77575965543E+03  0.13988045456E+04  0.50400001928E-02 0.  1.
</event>
<event>
 5   0  0.8122088E-06  0.2899159E+04  0.7818609E-02  0.8273128E-01
        1   -1    0    0  501    0  0.00000000000E+00  0.00000000000E+00  0.20981205608E+04  0.20981205608E+04  0.50400001928E-02 0. -1.
       -1   -1    0    0    0  501  0.00000000000E+00  0.00000000000E+00 -0.10015059118E+04  0.10015059118E+04  0.50400001928E-02 0.  1.
    10030    2    1    2    0    0  0.00000000000E+00  0.00000000000E+00  0.10966146490E+04  0.30996264727E+04  0.28991585989E+04 0.  0.
        1    1    3    3  502    0  0.10548222693E+04  0.89020060501E+03  0.10218476991E+04  0.17173467492E+04  0.50400001928E-02 0.  1.
       -1    1    3    3    0  502 -0.10548222693E+04 -0.89020060501E+03  0.74766949944E+02  0.13822797234E+04  0.50400001928E-02 0. -1.
</event>
<event>
 5   0  0.1976233E-05  0.2917018E+04  0.7818609E-02  0.8267832E-01
       -2   -1    0    0    0  501  0.00000000000E+00  0.00000000000E+00  0.17413433092E+04  0.17413433092E+04  0.25500000920E-02 0. -1.
        2   -1    0    0  501    0  0.00000000000E+00  0.00000000000E+00 -0.12216137269E+04  0.12216137269E+04  0.25500000920E-02 0.  1.
    10030    2    1    2    0    0  0.00000000000E+00  0.00000000000E+00  0.51972958221E+03  0.29629570361E+04  0.29170182651E+04 0.  0.
        2    1    3    3  502    0  0.45641284354E+03  0.72459235047E+03 -0.93936482900E+03  0.12711227478E+04  0.25500000920E-02 0.  1.
       -2    1    3    3    0  502 -0.45641284354E+03 -0.72459235047E+03  0.14590944112E+04  0.16918342883E+04  0.25500000920E-02 0. -1.
</event>
<event>
 5   0  0.7305460E-06  0.2987447E+04  0.7818609E-02  0.8247324E-01
       -1   -1    0    0    0  501  0.00000000000E+00  0.00000000000E+00  0.97374285567E+03  0.97374285568E+03  0.50400001928E-02 0.  1.
        1   -1    0    0  501    0  0.00000000000E+00  0.00000000000E+00 -0.22913755616E+04  0.22913755616E+04  0.50400001928E-02 0. -1.
    10030    2    1    2    0    0  0.00000000000E+00  0.00000000000E+00 -0.13176327059E+04  0.32651184173E+04  0.29874474608E+04 0.  0.
        4    1    3    3  502    0 -0.12688716237E+04 -0.59170742840E+02 -0.15177860185E+04  0.19791948831E+04  0.12699999809E+01 0. -1.
       -4    1    3    3    0  502  0.12688716237E+04  0.59170742840E+02  0.20015331258E+03  0.12859235342E+04  0.12699999809E+01 0.  1.
</event>
<event>
 5   0  0.8234888E-06  0.2672136E+04  0.7818609E-02  0.8344103E-01
        1   -1    0    0  501    0  0.00000000000E+00  0.00000000000E+00  0.17946317713E+04  0.17946317713E+04  0.50400001928E-02 0.  1.
       -1   -1    0    0    0  501  0.00000000000E+00  0.00000000000E+00 -0.99467626473E+03  0.99467626475E+03  0.50400001928E-02 0. -1.
    10030    2    1    2    0    0  0.00000000000E+00  0.00000000000E+00  0.79995550657E+03  0.27893080361E+04  0.26721359448E+04 0.  0.
        3    1    3    3  502    0  0.11348681820E+04  0.13926607029E+02 -0.33588651946E+03  0.11836129034E+04  0.10100000352E+00 0.  1.
       -3    1    3    3    0  502 -0.11348681820E+04 -0.13926607029E+02  0.11358420260E+04  0.16056951327E+04  0.10100000352E+00 0. -1.
</event>
<event>
 5   0  0.1960961E-05  0.2894023E+04  0.7818609E-02  0.8274658E-01
       -2   -1    0    0    0  501  0.00000000000E+00  0.00000000000E+00  0.25393367656E+04  0.25393367656E+04  0.25500000920E-02 0. -1.
        2   -1    0    0  501    0  0.00000000000E+00  0.00000000000E+00 -0.82456292010E+03  0.82456292010E+03  0.25500000920E-02 0.  1.
    10030    2    1    2    0    0  0.00000000000E+00  0.00000000000E+00  0.17147738455E+04  0.33638996857E+04  0.28940234543E+04 0.  0.
        5    1    3    3  502    0 -0.94098214379E+03  0.21867714210E+03  0.21095866980E+04  0.23202683495E+04  0.46999998093E+01 0. -1.
       -5    1    3    3    0  502  0.94098214379E+03 -0.21867714210E+03 -0.39481285248E+03  0.10436313362E+04  0.46999998093E+01 0.  1.
</event>
<event>
 5   0  0.1976233E-05  0.2684473E+04  0.7818609E-02  0.8340060E-01
        2   -1    0    0  501    0  0.00000000000E+00  0.00000000000E+00  0.12255806566E+04  0.12255806566E+04  0.25500000920E-02 0.  1.
       -2   -1    0    0    0  501  0.00000000000E+00  0.00000000000E+00 -0.14699966545E+04  0.14699966545E+04  0.25500000920E-02 0. -1.
    10030    2    1    2    0    0  0.00000000000E+00  0.00000000000E+00 -0.24441599796E+03  0.26955773111E+04  0.26844734791E+04 0.  0.
        2    1    3    3  502    0 -0.47569460273E+03 -0.47490316155E+03  0.10443983761E+04  0.12420089919E+04  0.25500000920E-02 0.  1.
       -2    1    3    3    0  502  0.47569460273E+03  0.47490316155E+03 -0.12888143740E+04  0.14535683192E+04  0.25500000920E-02 0. -1.
</event>
<event>
 5   0  0.6578125E-06  0.2880691E+04  0.7818609E-02  0.8278646E-01
       -3   -1    0    0    0  501  0.00000000000E+00  0.00000000000E+00  0.11393949672E+04  0.11393949716E+04  0.10100000352E+00 0.  1.
        3   -1    0    0  501    0  0.00000000000E+00  0.00000000000E+00 -0.18207862793E+04  0.18207862821E+04  0.10100000352E+00 0. -1.
    10030    2    1    2    0    0  0.00000000000E+00  0.00000000000E+00 -0.68139131215E+03  0.29601812537E+04  0.28806907045E+04 0.  0.
        5    1    3    3  502    0 -0.42099315350E+03  0.55369092267E+03  0.95536258675E+03  0.11817565888E+04  0.46999998093E+01 0.  1.
       -5    1    3    3    0  502  0.42099315350E+03 -0.55369092267E+03 -0.16367538989E+04  0.17784246649E+04  0.46999998093E+01 0. -1.
</event>
<event>
 5   0  0.7971153E-06  0.2878196E+04  0.7818609E-02  0.8279394E-01
       -1   -1    0    0    0  501  0.00000000000E+00  0.00000000000E+00  0.19601831845E+04  0.19601831845E+04  0.50400001928E-02 0.  1.
        1   -1    0    0  501    0  0.00000000000E+00  0.00000000000E+00 -0.10565357510E+04  0.10565357510E+04  0.50400001928E-02 0. -1.
    10030    2    1    2    0    0  0.00000000000E+00  0.00000000000E+00  0.90364743351E+03  0.30167189355E+04  0.28781963886E+04 0.  0.
        5    1    3    3  502    0  0.11857282268E+04 -0.63411818765E+03 -0.85615955681E+02  0.13473713243E+04  0.46999998093E+01 0.  1.
       -5    1    3    3    0  502 -0.11857282268E+04  0.63411818765E+03  0.98926338919E+03  0.16693476112E+04  0.46999998093E+01 0. -1.
</event>
<event>
 5   0  0.8055928E-06  0.2802574E+04  0.7818609E-02  0.8302470E-01
       -1   -1    0    0    0  501  0.00000000000E+00  0.00000000000E+00  0.13767364558E+04  0.13767364558E+04  0.50400001928E-02 0. -1.
        1   -1    0    0  501    0  0.00000000000E+00  0.00000000000E+00 -0.14262756056E+04  0.14262756056E+04  0.50400001928E-02 0.  1.
    10030    2    1    2    0    0  0.00000000000E+00  0.00000000000E+00 -0.49539149766E+02  0.28030120614E+04  0.28025742612E+04 0.  0.
        2    1    3    3  502    0 -0.23926670273E+02 -0.56729577675E+03 -0.13060663542E+04  0.14241510824E+04  0.25500000920E-02 0.  1.
       -2    1    3    3    0  502  0.23926670273E+02  0.56729577675E+03  0.12565272045E+04  0.13788609790E+04  0.25500000920E-02 0. -1.
</event>
<event>
 5   0  0.8122088E-06  0.2970937E+04  0.7818609E-02  0.8252079E-01
        1   -1    0    0  501    0  0.00000000000E+00  0.00000000000E+00  0.11199698348E+04  0.11199698349E+04  0.50400001928E-02 0. -1.
       -1   -1    0    0    0  501  0.00000000000E+00  0.00000000000E+00 -0.19702465214E+04  0.19702465214E+04  0.50400001928E-02 0.  1.
    10030    2    1    2    0    0  0.00000000000E+00  0.00000000000E+00 -0.85027668655E+03  0.30902163562E+04  0.29709370045E+04 0.  0.
        1    1    3    3  502    0  0.24723803333E+03 -0.14631850336E+04 -0.35474875372E+03  0.15257403993E+04  0.50400001928E-02 0. -1.
       -1    1    3    3    0  502 -0.24723803333E+03  0.14631850336E+04 -0.49552793283E+03  0.15644759570E+04  0.50400001928E-02 0.  1.
</event>
<event>
 5   0  0.1976233E-05  0.2791379E+04  0.7818609E-02  0.8305950E-01
       -2   -1    0    0    0  501  0.00000000000E+00  0.00000000000E+00  0.87410129422E+03  0.87410129422E+03  0.25500000920E-02 0. -1.
        2   -1    0    0  501    0  0.00000000000E+00  0.00000000000E+00 -0.22285166422E+04  0.22285166422E+04  0.25500000920E-02 0.  1.
    10030    2    1    2    0    0  0.00000000000E+00  0.00000000000E+00 -0.13544153480E+04  0.31026179364E+04  0.27913790722E+04 0.  0.
        2    1    3    3  502    0  0.30727043711E+03 -0.24816155624E+03  0.81068780682E+03  0.90178378764E+03  0.25500000920E-02 0. -1.
       -2    1    3    3    0  502 -0.30727043711E+03  0.24816155624E+03 -0.21651031548E+04  0.22008341488E+04  0.25500000920E-02 0.  1.
</event>
<event>
 5   0  0.8122088E-06  0.1715825E+04  0.7818609E-02  0.8752390E-01
       -1   -1    0    0    0  501  0.00000000000E+00  0.00000000000E+00  0.66878794310E+03  0.66878794311E+03  0.50400001928E-02 0.  1.
        1   -1    0    0  501    0  0.00000000000E+00  0.00000000000E+00 -0.11005186232E+04  0.11005186232E+04  0.50400001928E-02 0. -1.
    10030    2    1    2    0    0  0.00000000000E+00  0.00000000000E+00 -0.43173068006E+03  0.17693065663E+04  0.17158246838E+04 0.  0.
        1    1    3    3  502    0  0.64386514447E+03  0.41846866822E+03  0.17859617083E+03  0.78840024278E+03  0.50400001928E-02 0.  1.
       -1    1    3    3    0  502 -0.64386514447E+03 -0.41846866822E+03 -0.61032685089E+03  0.98090632350E+03  0.50400001928E-02 0. -1.
</event>
<event>
 5   0  0.1960961E-05  0.2542094E+04  0.7818609E-02  0.8388141E-01
       -2   -1    0    0    0  501  0.00000000000E+00  0.00000000000E+00  0.10540120160E+04  0.10540120160E+04  0.25500000920E-02 0. -1.
        2   -1    0    0  501    0  0.00000000000E+00  0.00000000000E+00 -0.15327727105E+04  0.15327727105E+04  0.25500000920E-02 0.  1.
    10030    2    1    2    0    0  0.00000000000E+00  0.00000000000E+00 -0.47876069447E+03  0.25867847265E+04  0.25420942977E+04 0.  0.
        5    1    3    3  502    0  0.43266309512E+03 -0.11860383652E+04 -0.89638984794E+02  0.12656783142E+04  0.46999998093E+01 0. -1.
       -5    1    3    3    0  502 -0.43266309512E+03  0.11860383652E+04 -0.38912170968E+03  0.13211064122E+04  0.46999998093E+01 0.  1.
</event>
<event>
 5   0  0.8234888E-06  0.2869517E+04  0.7818609E-02  0.8282005E-01
       -1   -1    0    0    0  501  0.00000000000E+00  0.00000000000E+00  0.13309209058E+04  0.13309209059E+04  0.50400001928E-02 0.  1.
        1   -1    0    0  501    0  0.00000000000E+00  0.00000000000E+00 -0.15466975064E+04  0.15466975064E+04  0.50400001928E-02 0. -1.
    10030    2    1    2    0    0  0.00000000000E+00  0.00000000000E+00 -0.21577660052E+03  0.28776184122E+04  0.28695170648E+04 0.  0.
        3    1    3    3  502    0 -0.28494667256E+03 -0.10027466291E+04  0.88071264971E+03  0.13646795191E+04  0.10100000352E+00 0.  1.
       -3    1    3    3    0  502  0.28494667256E+03  0.10027466291E+04 -0.10964892502E+04  0.15129388931E+04  0.10100000352E+00 0. -1.
</event>
<event>
 5   0  0.6578125E-06  0.1971252E+04  0.7818609E-02  0.8620181E-01
       -3   -1    0    0    0  501  0.00000000000E+00  0.00000000000E+00  0.82259369374E+03  0.82259369994E+03  0.10100000352E+00 0. -1.
        3   -1    0    0  501    0  0.00000000000E+00  0.00000000000E+00 -0.11809697676E+04  0.11809697720E+04  0.10100000352E+00 0.  1.
    10030    2    1    2    0    0  0.00000000000E+00  0.00000000000E+00 -0.35837607391E+03  0.20035634719E+04  0.19712516774E+04 0.  0.
        3    1    3    3  502    0  0.84175397328E+03 -0.27170064283E+03  0.26278136267E+03  0.92272696157E+03  0.10100000352E+00 0.  1.
       -3    1    3    3    0  502 -0.84175397328E+03  0.27170064283E+03 -0.62115743658E+03  0.10808365103E+04  0.10100000352E+00 0. -1.
</event>
<event>
 5   0  0.7971153E-06  0.2888547E+04  0.7818609E-02  0.8276293E-01
        1   -1    0    0  501    0  0.00000000000E+00  0.00000000000E+00  0.19015465040E+04  0.19015465040E+04  0.50400001928E-02 0.  1.
       -1   -1    0    0    0  501  0.00000000000E+00  0.00000000000E+00 -0.10969630147E+04  0.10969630147E+04  0.50400001928E-02 0. -1.
    10030    2    1    2    0    0  0.00000000000E+00  0.00000000000E+00  0.80458348930E+03  0.29985095188E+04  0.28885471682E+04 0.  0.
        5    1    3    3  502    0  0.11691739181E+04  0.48594784940E+03 -0.31899111284E+03  0.13057145106E+04  0.46999998093E+01 0. -1.
       -5    1    3    3    0  502 -0.11691739181E+04 -0.48594784940E+03  0.11235746021E+04  0.16927950082E+04  0.46999998093E+01 0.  1.
</event>
<event>
 5   0  0.1976233E-05  0.2888759E+04  0.7818609E-02  0.8276230E-01
        2   -1    0    0  501    0  0.00000000000E+00  0.00000000000E+00  0.13239709558E+04  0.13239709558E+04  0.25500000920E-02 0.  1.
       -2   -1    0    0    0  501  0.00000000000E+00  0.00000000000E+00 -0.15757381952E+04  0.15757381952E+04  0.25500000920E-02 0. -1.
    10030    2    1    2    0    0  0.00000000000E+00  0.00000000000E+00 -0.25176723945E+03  0.28997091510E+04  0.28887586292E+04 0.  0.
        2    1    3    3  502    0 -0.90651574181E+03  0.11191403439E+04 -0.15989368293E+02  0.14403130074E+04  0.25500000920E-02 0. -1.
       -2    1    3    3    0  502  0.90651574181E+03 -0.11191403439E+04 -0.23577787116E+03  0.14593961436E+04  0.25500000920E-02 0.  1.
</event>
<event>
 5   0  0.6578125E-06  0.2907936E+04  0.7818609E-02  0.8270520E-01
        3   -1    0    0  501    0  0.00000000000E+00  0.00000000000E+00  0.19261556668E+04  0.19261556694E+04  0.10100000352E+00 0.  1.
       -3   -1    0    0    0  501  0.00000000000E+00  0.00000000000E+00 -0.10975347400E+04  0.10975347447E+04  0.10100000352E+00 0. -1.
    10030    2    1    2    0    0  0.00000000000E+00  0.00000000000E+00  0.82862092672E+03  0.30236904141E+04  0.29079358796E+04 0.  0.
        5    1    3    3  502    0 -0.32655741683E+03 -0.38548253094E+03  0.18319461623E+04  0.19003382225E+04  0.46999998093E+01 0.  1.
       -5    1    3    3    0  502  0.32655741683E+03  0.38548253094E+03 -0.10033252356E+04  0.11233521917E+04  0.46999998093E+01 0. -1.
</event>
<event>
 5   0  0.8122088E-06  0.2883325E+04  0.7818609E-02  0.8277856E-01
       -1   -1    0    0    0  501  0.00000000000E+00  0.00000000000E+00  0.15159096608E+04  0.15159096608E+04  0.50400001928E-02 0.  1.
        1   -1    0    0  501    0  0.00000000000E+00  0.00000000000E+00 -0.13710517565E+04  0.13710517565E+04  0.50400001928E-02 0. -1.
    10030    2    1    2    0    0  0.00000000000E+00  0.00000000000E+00  0.14485790437E+03  0.28869614173E+04  0.28833248885E+04 0.  0.
        1    1    3    3  502    0 -0.10620372451E+04 -0.32520544323E+03  0.99266859316E+03  0.14896552038E+04  0.50400001928E-02 0.  1.
       -1    1    3    3    0  502  0.10620372451E+04  0.32520544323E+03 -0.84781068879E+03  0.13973062135E+04  0.50400001928E-02 0. -1.
</event>
<event>
 5   0  0.1976233E-05  0.2751116E+04  0.7818609E-02  0.8318608E-01
       -2   -1    0    0    0  501  0.00000000000E+00  0.00000000000E+00  0.13074021800E+04  0.13074021800E+04  0.25500000920E-02 0.  1.
        2   -1    0    0  501    0  0.00000000000E+00  0.00000000000E+00 -0.14472664108E+04  0.14472664108E+04  0.25500000920E-02 0. -1.
    10030    2    1    2    0    0  0.00000000000E+00  0.00000000000E+00 -0.13986423077E+03  0.27546685909E+04  0.27511155996E+04 0.  0.
        2    1    3    3  502    0 -0.13395291402E+03 -0.93143971069E+03 -0.10745403514E+04  0.14283417954E+04  0.25500000920E-02 0. -1.
       -2    1    3    3    0  502  0.13395291402E+03  0.93143971069E+03  0.93467612062E+03  0.13263267954E+04  0.25500000920E-02 0.  1.
</event>
<event>
 5   0  0.8055928E-06  0.2044755E+04  0.7818609E-02  0.8585978E-01
        1   -1    0    0  501    0  0.00000000000E+00  0.00000000000E+00  0.18686942338E+04  0.18686942338E+04  0.50400001928E-02 0. -1.
       -1   -1    0    0    0  501  0.00000000000E+00  0.00000000000E+00 -0.55935078279E+03  0.55935078281E+03  0.50400001928E-02 0.  1.
    10030    2    1    2    0    0  0.00000000000E+00  0.00000000000E+00  0.13093434510E+04  0.24280450166E+04  0.20447548337E+04 0.  0.
        2    1    3    3  502    0 -0.71298274474E+03  0.18261965794E+02  0.15244965460E+04  0.16830827706E+04  0.25500000920E-02 0. -1.
       -2    1    3    3    0  502  0.71298274474E+03 -0.18261965794E+02 -0.21515309505E+03  0.74496224603E+03  0.25500000920E-02 0.  1.
</event>
<event>
 5   0  0.8055928E-06  0.1634880E+04  0.7818609E-02  0.8799402E-01
       -1   -1    0    0    0  501  0.00000000000E+00  0.00000000000E+00  0.50367610685E+03  0.50367610687E+03  0.50400001928E-02 0.  1.
        1   -1    0    0  501    0  0.00000000000E+00  0.00000000000E+00 -0.13266622647E+04  0.13266622647E+04  0.50400001928E-02 0. -1.
    10030    2    1    2    0    0  0.00000000000E+00  0.00000000000E+00 -0.82298615785E+03  0.18303383716E+04  0.16348799156E+04 0.  0.
        2    1    3    3  502    0 -0.12243809602E+03  0.53462577048E+02  0.49137026213E+03  0.50920925857E+03  0.25500000920E-02 0.  1.
       -2    1    3    3    0  502  0.12243809602E+03 -0.53462577048E+02 -0.13143564200E+04  0.13211291130E+04  0.25500000920E-02 0. -1.
</event>
<event>
 5   0  0.7305460E-06  0.2858555E+04  0.7818609E-02  0.8285316E-01
       -1   -1    0    0    0  501  0.00000000000E+00  0.00000000000E+00  0.71956584671E+03  0.71956584673E+03  0.50400001928E-02 0. -1.
        1   -1    0    0  501    0  0.00000000000E+00  0.00000000000E+00 -0.28389818624E+04  0.28389818624E+04  0.50400001928E-02 0.  1.
    10030    2    1    2    0    0  0.00000000000E+00  0.00000000000E+00 -0.21194160157E+04  0.35585477091E+04  0.28585551509E+04 0.  0.
        4    1    3    3  502    0 -0.34046371438E+03  0.76628722815E+03  0.38119059000E+03  0.92109691979E+03  0.12699999809E+01 0. -1.
       -4    1    3    3    0  502  0.34046371438E+03 -0.76628722815E+03 -0.25006066057E+04  0.26374507893E+04  0.12699999809E+01 0.  1.
</event>
<event>
 5   0  0.7305460E-06  0.2881467E+04  0.7818609E-02  0.8278413E-01
        1   -1    0    0  501    0  0.00000000000E+00  0.00000000000E+00  0.20326430179E+04  0.20326430179E+04  0.50400001928E-02 0. -1.
       -1   -1    0    0    0  501  0.00000000000E+00  0.00000000000E+00 -0.10211892984E+04  0.10211892985E+04  0.50400001928E-02 0.  1.
    10030    2    1    2    0    0  0.00000000000E+00  0.00000000000E+00  0.10114537195E+04  0.30538323164E+04  0.28814671940E+04 0.  0.
        4    1    3    3  502    0  0.37689552353E+03 -0.13205595638E+04  0.44025476020E+02  0.13739969624E+04  0.12699999809E+01 0. -1.
       -4    1    3    3    0  502 -0.37689552353E+03  0.13205595638E+04  0.96742824345E+03  0.16798353540E+04  0.12699999809E+01 0.  1.
</event>
<event>
 5   0  0.7971153E-06  0.2867195E+04  0.7818609E-02  0.8282705E-01
       -1   -1    0    0    0  501  0.00000000000E+00  0.00000000000E+00  0.13727878386E+04  0.13727878387E+04  0.50400001928E-02 0.  1.
        1   -1    0    0  501    0  0.00000000000E+00  0.00000000000E+00 -0.14971013282E+04  0.14971013282E+04  0.50400001928E-02 0. -1.
    10030    2    1    2    0    0  0.00000000000E+00  0.00000000000E+00 -0.12431348953E+03  0.28698891668E+04  0.28671954915E+04 0.  0.
        5    1    3    3  502    0  0.11118132333E+04 -0.22183212076E+03 -0.94038759975E+03  0.14729864505E+04  0.46999998093E+01 0. -1.
       -5    1    3    3    0  502 -0.11118132333E+04  0.22183212076E+03  0.81607411022E+03  0.13969027164E+04  0.46999998093E+01 0.  1.
</event>
<event>
 5   0  0.8234888E-06  0.3074852E+04  0.7818609E-02  0.8222674E-01
       -1   -1    0    0    0  501  0.00000000000E+00  0.00000000000E+00  0.24749439479E+04  0.24749439479E+04  0.50400001928E-02 0. -1.
        1   -1    0    0  501    0  0.00000000000E+00  0.00000000000E+00 -0.95504309743E+03  0.95504309744E+03  0.50400001928E-02 0.  1.
    10030    2    1    2    0    0  0.00000000000E+00  0.00000000000E+00  0.15199008505E+04  0.34299870454E+04  0.30748516283E+04 0.  0.
        3    1    3    3  502    0 -0.15253052576E+04  0.56287717802E+01  0.54511863012E+03  0.16197969450E+04  0.10100000352E+00 0.  1.
       -3    1    3    3    0  502  0.15253052576E+04 -0.56287717802E+01  0.97478222037E+03  0.18101901003E+04  0.10100000352E+00 0. -1.
</event>
<event>
 5   0  0.1960961E-05  0.2911137E+04  0.7818609E-02  0.8269571E-01
       -2   -1    0    0    0  501  0.00000000000E+00  0.00000000000E+00  0.10448477537E+04  0.10448477537E+04  0.25500000920E-02 0. -1.
        2   -1    0    0  501    0  0.00000000000E+00  0.00000000000E+00 -0.20277406835E+04  0.20277406835E+04  0.25500000920E-02 0.  1.
    10030    2    1    2    0    0  0.00000000000E+00  0.00000000000E+00 -0.98289292978E+03  0.30725884372E+04  0.29111374398E+04 0.  0.
        5    1    3    3  502    0  0.12160404777E+04 -0.53954542187E+03  0.13189568986E+03  0.13368927663E+04  0.46999998093E+01 0. -1.
       -5    1    3    3    0  502 -0.12160404777E+04  0.53954542187E+03 -0.11147886196E+04  0.17356956709E+04  0.46999998093E+01 0.  1.
</event>
<event>
 5   0  0.7971153E-06  0.2873956E+04  0.7818609E-02  0.8280669E-01
       -1   -1    0    0    0  501  0.00000000000E+00  0.00000000000E+00  0.85864218112E+03  0.85864218114E+03  0.50400001928E-02 0.  1.
        1   -1    0    0  501    0  0.00000000000E+00  0.00000000000E+00 -0.24048500741E+04  0.24048500741E+04  0.50400001928E-02 0. -1.
    10030    2    1    2    0    0  0.00000000000E+00  0.00000000000E+00 -0.15462078930E+04  0.32634922553E+04  0.28739559586E+04 0.  0.
        5    1    3    3  502    0 -0.11663456550E+03  0.11373599667E+04 -0.17615407709E+04  0.21000569738E+04  0.46999998093E+01 0. -1.
       -5    1    3    3    0  502  0.11663456550E+03 -0.11373599667E+04  0.21533287791E+03  0.11634352814E+04  0.46999998093E+01 0.  1.
</event>
<event>
 5   0  0.1918901E-05  0.2916474E+04  0.7818609E-02  0.8267993E-01
        2   -1    0    0  501    0  0.00000000000E+00  0.00000000000E+00  0.11005223436E+04  0.11005223436E+04  0.25500000920E-02 0.  1.
       -2   -1    0    0    0  501  0.00000000000E+00  0.00000000000E+00 -0.19322231250E+04  0.19322231250E+04  0.25500000920E-02 0. -1.
    10030    2    1    2    0    0  0.00000000000E+00  0.00000000000E+00 -0.83170078140E+03  0.30327454685E+04  0.29164737076E+04 0.  0.
        1    1    3    3  502    0  0.65482642489E+03 -0.66628606372E+02  0.93726332819E+03  0.11452945317E+04  0.50400001928E-02 0.  1.
       -1    1    3    3    0  502 -0.65482642489E+03  0.66628606372E+02 -0.17689641096E+04  0.18874509368E+04  0.50400001928E-02 0. -1.
</event>
<event>
 5   0  0.8234888E-06  0.2922733E+04  0.7818609E-02  0.8266146E-01
        1   -1    0    0  501    0  0.00000000000E+00  0.00000000000E+00  0.15918948824E+04  0.15918948824E+04  0.50400001928E-02 0. -1.
       -1   -1    0    0    0  501  0.00000000000E+00  0.00000000000E+00 -0.13415405356E+04  0.13415405356E+04  0.50400001928E-02 0.  1.
    10030    2    1    2    0    0  0.00000000000E+00  0.00000000000E+00  0.25035434683E+03  0.29334354180E+04  0.29227326344E+04 0.  0.
        3    1    3    3  502    0  0.75450714721E+03 -0.87107908329E+03  0.10270955420E+04  0.15436920247E+04  0.10100000352E+00 0. -1.
       -3    1    3    3    0  502 -0.75450714721E+03  0.87107908329E+03 -0.77674119519E+03  0.13897433932E+04  0.10100000352E+00 0.  1.
</event>
<event>
 5   0  0.7305460E-06  0.2872132E+04  0.7818609E-02  0.8281218E-01
        1   -1    0    0  501    0  0.00000000000E+00  0.00000000000E+00  0.23090673277E+04  0.23090673277E+04  0.50400001928E-02 0. -1.
       -1   -1    0    0    0  501  0.00000000000E+00  0.00000000000E+00 -0.89312478858E+03  0.89312478859E+03  0.50400001928E-02 0.  1.
    10030    2    1    2    0    0  0.00000000000E+00  0.00000000000E+00  0.14159425392E+04  0.32021921163E+04  0.28721317999E+04 0.  0.
        4    1    3    3  502    0  0.80659729645E+03 -0.11858597118E+04  0.62588116968E+03  0.15647975288E+04  0.12699999809E+01 0. -1.
       -4    1    3    3    0  502 -0.80659729645E+03  0.11858597118E+04  0.79006136949E+03  0.16373945875E+04  0.12699999809E+01 0.  1.
</event>
<event>
 5   0  0.1918901E-05  0.2983450E+04  0.7818609E-02  0.8248473E-01
       -2   -1    0    0    0  501  0.00000000000E+00  0.00000000000E+00  0.17210209055E+04  0.17210209055E+04  0.25500000920E-02 0. -1.
        2   -1    0    0  501    0  0.00000000000E+00  0.00000000000E+00 -0.12929791347E+04  0.12929791347E+04  0.25500000920E-02 0.  1.
    10030    2    1    2    0    0  0.00000000000E+00  0.00000000000E+00  0.42804177078E+03  0.30140000403E+04  0.29834504328E+04 0.  0.
        1    1    3    3  502    0 -0.93301929933E+03 -0.58410957894E+02  0.13883815155E+04  0.16737801784E+04  0.50400001928E-02 0. -1.
       -1    1    3    3    0  502  0.93301929933E+03  0.58410957894E+02 -0.96033974471E+03  0.13402198619E+04  0.50400001928E-02 0.  1.
</event>
<event>
 5   0  0.1937947E-05  0.2956084E+04  0.7818609E-02  0.8256384E-01
        2   -1    0    0  501    0  0.00000000000E+00  0.00000000000E+00  0.13891676363E+04  0.13891676363E+04  0.25500000920E-02 0.  1.
       -2   -1    0    0    0  501  0.00000000000E+00  0.00000000000E+00 -0.15726027290E+04  0.15726027290E+04  0.25500000920E-02 0. -1.
    10030    2    1    2    0    0  0.00000000000E+00  0.00000000000E+00 -0.18343509265E+03  0.29617703653E+04  0.29560844480E+04 0.  0.
        3    1    3    3  502    0 -0.10557895216E+04 -0.95752261112E+03 -0.48370880570E+03  0.15051628761E+04  0.10100000352E+00 0. -1.
       -3    1    3    3    0  502  0.10557895216E+04  0.95752261112E+03  0.30027371305E+03  0.14566074892E+04  0.10100000352E+00 0.  1.
</event>
<event>
 5   0  0.1918901E-05  0.2515262E+04  0.7818609E-02  0.8397568E-01
       -2   -1    0    0    0  501  0.00000000000E+00  0.00000000000E+00  0.11474950865E+04  0.11474950865E+04  0.25500000920E-02 0.  1.
        2   -1    0    0  501    0  0.00000000000E+00  0.00000000000E+00 -0.13783380766E+04  0.13783380766E+04  0.25500000920E-02 0. -1.
    10030    2    1    2    0    0  0.00000000000E+00  0.00000000000E+00 -0.23084299011E+03  0.25258331632E+04  0.25152623485E+04 0.  0.
        1    1    3    3  502    0  0.88288951335E+03  0.81691768367E+03 -0.48409898722E+03  0.12966110535E+04  0.50400001928E-02 0. -1.
       -1    1    3    3    0  502 -0.88288951335E+03 -0.81691768367E+03  0.25325599711E+03  0.12292221096E+04  0.50400001928E-02 0.  1.
</event>
<event>
 5   0  0.1937947E-05  0.2868942E+04  0.7818609E-02  0.8282178E-01
       -2   -1    0    0    0  501  0.00000000000E+00  0.00000000000E+00  0.72527073056E+03  0.72527073056E+03  0.25500000920E-02 0. -1.
        2   -1    0    0  501    0  0.00000000000E+00  0.00000000000E+00 -0.28371578567E+04  0.28371578567E+04  0.25500000920E-02 0.  1.
    10030    2    1    2    0    0  0.00000000000E+00  0.00000000000E+00 -0.21118871261E+04  0.35624285872E+04  0.28689423497E+04 0.  0.
        3    1    3    3  502    0 -0.58505494380E+03  0.19098065216E+03  0.55300638692E+03  0.82739287581E+03  0.10100000352E+00 0. -1.
       -3    1    3    3    0  502  0.58505494380E+03 -0.19098065216E+03 -0.26648935130E+04  0.27350357114E+04  0.10100000352E+00 0.  1.
</event>
<event>
 5   0  0.1976233E-05  0.2570700E+04  0.7818609E-02  0.8378222E-01
       -2   -1    0    0    0  501  0.00000000000E+00  0.00000000000E+00  0.79031411634E+03  0.79031411635E+03  0.25500000920E-02 0.  1.
        2   -1    0    0  501    0  0.00000000000E+00  0.00000000000E+00 -0.20904658356E+04  0.20904658356E+04  0.25500000920E-02 0. -1.
    10030    2    1    2    0    0  0.00000000000E+00  0.00000000000E+00 -0.13001517193E+04  0.28807799520E+04  0.25707000289E+04 0.  0.
        2    1    3    3  502    0 -0.36810673980E+03 -0.17283182343E+03 -0.20164758162E+04  0.20570727085E+04  0.25500000920E-02 0. -1.
       -2    1    3    3    0  502  0.36810673980E+03  0.17283182343E+03  0.71632409689E+03  0.82370724342E+03  0.25500000920E-02 0.  1.
</event>
<event>
 5   0  0.1918901E-05  0.2755005E+04  0.7818609E-02  0.8317375E-01
        2   -1    0    0  501    0  0.00000000000E+00  0.00000000000E+00  0.16336970750E+04  0.16336970750E+04  0.25500000920E-02 0.  1.
       -2   -1    0    0    0  501  0.00000000000E+00  0.00000000000E+00 -0.11614844862E+04  0.11614844862E+04  0.25500000920E-02 0. -1.
    10030    2    1    2    0    0  0.00000000000E+00  0.00000000000E+00  0.47221258879E+03  0.27951815611E+04  0.27550054865E+04 0.  0.
        1    1    3    3  502    0 -0.56352673478E+03 -0.48472416381E+03 -0.94054482941E+03  0.11988096062E+04  0.50400001928E-02 0. -1.
       -1    1    3    3    0  502  0.56352673478E+03  0.48472416381E+03  0.14127574182E+04  0.15963719549E+04  0.50400001928E-02 0.  1.
</event>
<event>
 5   0  0.7971153E-06  0.2748304E+04  0.7818609E-02  0.8319500E-01
       -1   -1    0    0    0  501  0.00000000000E+00  0.00000000000E+00  0.13290307653E+04  0.13290307654E+04  0.50400001928E-02 0. -1.
        1   -1    0    0  501    0  0.00000000000E+00  0.00000000000E+00 -0.14208046515E+04  0.14208046515E+04  0.50400001928E-02 0.  1.
    10030    2    1    2    0    0  0.00000000000E+00  0.00000000000E+00 -0.91773886113E+02  0.27498354168E+04  0.27483035446E+04 0.  0.
        5    1    3    3  502    0  0.46364374832E+03 -0.94378024711E+03  0.83924410541E+03  0.13453770619E+04  0.46999998093E+01 0. -1.
       -5    1    3    3    0  502 -0.46364374832E+03  0.94378024711E+03 -0.93101799152E+03  0.14044583549E+04  0.46999998093E+01 0.  1.
</event>
<event>
 5   0  0.7971153E-06  0.2860003E+04  0.7818609E-02  0.8284878E-01
       -1   -1    0    0    0  501  0.00000000000E+00  0.00000000000E+00  0.15307986279E+04  0.15307986279E+04  0.50400001928E-02 0.  1.
        1   -1    0    0  501    0  0.00000000000E+00  0.00000000000E+00 -0.13358417605E+04  0.13358417605E+04  0.50400001928E-02 0. -1.
    10030    2    1    2    0    0  0.00000000000E+00  0.00000000000E+00  0.19495686745E+03  0.28666403884E+04  0.28600033105E+04 0.  0.
        5    1    3    3  502    0 -0.50143587711E+03  0.13359443636E+04  0.19095450885E+03  0.14396773930E+04  0.46999998093E+01 0. -1.
       -5    1    3    3    0  502  0.50143587711E+03 -0.13359443636E+04  0.40023586026E+01  0.14269629954E+04  0.46999998093E+01 0.  1.
</event>
<event>
 5   0  0.1976233E-05  0.2828897E+04  0.7818609E-02  0.8294353E-01
       -2   -1    0    0    0  501  0.00000000000E+00  0.00000000000E+00  0.10536533754E+04  0.10536533754E+04  0.25500000920E-02 0. -1.
        2   -1    0    0  501    0  0.00000000000E+00  0.00000000000E+00 -0.18987875142E+04  0.18987875142E+04  0.25500000920E-02 0.  1.
    10030    2    1    2    0    0  0.00000000000E+00  0.00000000000E+00 -0.84513413882E+03  0.29524408896E+04  0.28288965153E+04 0.  0.
        2    1    3    3  502    0 -0.22733849802E+03  0.39267527836E+03  0.97563723033E+03  0.10759854423E+04  0.25500000920E-02 0. -1.
       -2    1    3    3    0  502  0.22733849802E+03 -0.39267527836E+03 -0.18207713691E+04  0.18764554473E+04  0.25500000920E-02 0.  1.
</event>
<event>
 5   0  0.8234888E-06  0.2854239E+04  0.7818609E-02  0.8286625E-01
       -1   -1    0    0    0  501  0.00000000000E+00  0.00000000000E+00  0.93525601236E+03  0.93525601237E+03  0.50400001928E-02 0.  1.
        1   -1    0    0  501    0  0.00000000000E+00  0.00000000000E+00 -0.21776598675E+04  0.21776598675E+04  0.50400001928E-02 0. -1.
    10030    2    1    2    0    0  0.00000000000E+00  0.00000000000E+00 -0.12424038552E+04  0.31129158799E+04  0.28542385913E+04 0.  0.
        3    1    3    3  502    0 -0.53116920825E+02  0.14179984227E+04 -0.78706557777E+03  0.16226562076E+04  0.10100000352E+00 0.  1.
       -3    1    3    3    0  502  0.53116920825E+02 -0.14179984227E+04 -0.45533827741E+03  0.14902596724E+04  0.10100000352E+00 0. -1.
</event>
<event>
 5   0  0.7971153E-06  0.2873828E+04  0.7818609E-02  0.8280707E-01
        1   -1    0    0  501    0  0.00000000000E+00  0.00000000000E+00  0.23598236641E+04  0.23598236641E+04  0.50400001928E-02 0. -1.
       -1   -1    0    0    0  501  0.00000000000E+00  0.00000000000E+00 -0.87494722146E+03  0.87494722148E+03  0.50400001928E-02 0.  1.
    10030    2    1    2    0    0  0.00000000000E+00  0.00000000000E+00  0.14848764426E+04  0.32347708855E+04  0.28738275230E+04 0.  0.
        5    1    3    3  502    0 -0.29031023537E+03  0.13936560681E+04  0.96226642624E+03  0.17182945131E+04  0.46999998093E+01 0. -1.
       -5    1    3    3    0  502  0.29031023537E+03 -0.13936560681E+04  0.52261001635E+03  0.15164763724E+04  0.46999998093E+01 0.  1.
</event>
<event>
 5   0  0.1960961E-05  0.2207981E+04  0.7818609E-02  0.8515114E-01
        2   -1    0    0  501    0  0.00000000000E+00  0.00000000000E+00  0.93637108088E+03  0.93637108088E+03  0.25500000920E-02 0.  1.
       -2   -1    0    0    0  501  0.00000000000E+00  0.00000000000E+00 -0.13016156285E+04  0.13016156285E+04  0.25500000920E-02 0. -1.
    10030    2    1    2    0    0  0.00000000000E+00  0.00000000000E+00 -0.36524454765E+03  0.22379867094E+04  0.22079811892E+04 0.  0.
        5    1    3    3  502    0 -0.77780488376E+03 -0.54549729858E+03 -0.75260344757E+03  0.12120155854E+04  0.46999998093E+01 0. -1.
       -5    1    3    3    0  502  0.77780488376E+03  0.54549729858E+03  0.38735889992E+03  0.10259711240E+04  0.46999998093E+01 0.  1.
</event>
<event>
 5   0  0.1937947E-05  0.2837050E+04  0.7818609E-02  0.8291857E-01
       -2   -1    0    0    0  501  0.00000000000E+00  0.00000000000E+00  0.13711454000E+04  0.13711454000E+04  0.25500000920E-02 0.  1.
        2   -1    0    0  501    0  0.00000000000E+00  0.00000000000E+00 -0.14675415791E+04  0.14675415791E+04  0.25500000920E-02 0. -1.
    10030    2    1    2    0    0  0.00000000000E+00  0.00000000000E+00 -0.96396179147E+02  0.28386869791E+04  0.28370497955E+04 0.  0.
        3    1    3    3  502    0 -0.13299398901E+04 -0.49160506972E+03 -0.57800010903E+01  0.14179030554E+04  0.10100000352E+00 0.  1.
       -3    1    3    3    0  502  0.13299398901E+04  0.49160506972E+03 -0.90616178057E+02  0.14207839237E+04  0.10100000352E+00 0. -1.
</event>
<event>
 5   0  0.6578125E-06  0.2746395E+04  0.7818609E-02  0.8320107E-01
        3   -1    0    0  501    0  0.00000000000E+00  0.00000000000E+00  0.21939329956E+04  0.21939329979E+04  0.10100000352E+00 0. -1.
       -3   -1    0    0    0  501  0.00000000000E+00  0.00000000000E+00 -0.85949342363E+03  0.85949342956E+03  0.10100000352E+00 0.  1.
    10030    2    1    2    0    0  0.00000000000E+00  0.00000000000E+00  0.13344395720E+04  0.30534264275E+04  0.27463947234E+04 0.  0.
        2    1    3    3  502    0  0.59669315031E+03 -0.80382234869E+03 -0.37780662711E+03  0.10700051081E+04  0.25500000920E-02 0.  1.
       -2    1    3    3    0  502 -0.59669315031E+03  0.80382234869E+03  0.17122461991E+04  0.19834213194E+04  0.25500000920E-02 0. -1.
</event>
<event>
 5   0  0.1976233E-05  0.2878072E+04  0.7818609E-02  0.8279432E-01
        2   -1    0    0  501    0  0.00000000000E+00  0.00000000000E+00  0.13618629945E+04  0.13618629945E+04  0.25500000920E-02 0.  1.
       -2   -1    0    0    0  501  0.00000000000E+00  0.00000000000E+00 -0.15205820182E+04  0.15205820182E+04  0.25500000920E-02 0. -1.
    10030    2    1    2    0    0  0.00000000000E+00  0.00000000000E+00 -0.15871902378E+03  0.28824450127E+04  0.28780718411E+04 0.  0.
        2    1    3    3  502    0 -0.56649283658E+03  0.76057432995E+03  0.10046144681E+04  0.13815345362E+04  0.25500000920E-02 0.  1.
       -2    1    3    3    0  502  0.56649283658E+03 -0.76057432995E+03 -0.11633334918E+04  0.15009104765E+04  0.25500000920E-02 0. -1.
</event>
<event>
 5   0  0.8122088E-06  0.2921410E+04  0.7818609E-02  0.8266536E-01
       -1   -1    0    0    0  501  0.00000000000E+00  0.00000000000E+00  0.10410378564E+04  0.10410378564E+04  0.50400001928E-02 0.  1.
        1   -1    0    0  501    0  0.00000000000E+00  0.00000000000E+00 -0.20495496460E+04  0.20495496461E+04  0.50400001928E-02 0. -1.
    10030    2    1    2    0    0  0.00000000000E+00  0.00000000000E+00 -0.10085117896E+04  0.30905875025E+04  0.29214097762E+04 0.  0.
        1    1    3    3  502    0  0.11534361636E+04  0.71798730241E+03  0.63219703420E+02  0.13601167159E+04  0.50400001928E-02 0.  1.
       -1    1    3    3    0  502 -0.11534361636E+04 -0.71798730241E+03 -0.10717314930E+04  0.17304707866E+04  0.50400001928E-02 0. -1.
</event>
<event>
 5   0  0.1918901E-05  0.3256231E+04  0.7818609E-02  0.8174123E-01
        2   -1    0    0  501    0  0.00000000000E+00  0.00000000000E+00  0.21779420480E+04  0.21779420480E+04  0.25500000920E-02 0.  1.
       -2   -1    0    0    0  501  0.00000000000E+00  0.00000000000E+00 -0.12170939132E+04  0.12170939132E+04  0.25500000920E-02 0. -1.
    10030    2    1    2    0    0  0.00000000000E+00  0.00000000000E+00  0.96084813472E+03  0.33950359612E+04  0.32562309562E+04 0.  0.
        1    1    3    3  502    0 -0.13224308260E+04  0.26051266078E+03 -0.47178079682E+03  0.14280291510E+04  0.50400001928E-02 0. -1.
       -1    1    3    3    0  502  0.13224308260E+04 -0.26051266078E+03  0.14326289315E+04  0.19670068102E+04  0.50400001928E-02 0.  1.
</event>
<event>
 5   0  0.8055928E-06  0.1503343E+04  0.7818609E-02  0.8882233E-01
        1   -1    0    0  501    0  0.00000000000E+00  0.00000000000E+00  0.12181137082E+04  0.12181137082E+04  0.50400001928E-02 0.  1.
       -1   -1    0    0    0  501  0.00000000000E+00  0.00000000000E+00 -0.46384025552E+03  0.46384025554E+03  0.50400001928E-02 0. -1.
    10030    2    1    2    0    0  0.00000000000E+00  0.00000000000E+00  0.75427345268E+03  0.16819539638E+04  0.15033431727E+04 0.  0.
        2    1    3    3  502    0  0.56851906164E+03 -0.27083531897E+03  0.83631821021E+03  0.10468972453E+04  0.25500000920E-02 0. -1.
       -2    1    3    3    0  502 -0.56851906164E+03  0.27083531897E+03 -0.82044757521E+02  0.63505671848E+03  0.25500000920E-02 0.  1.
</event>
<event>
 5   0  0.8234888E-06  0.2633403E+04  0.7818609E-02  0.8356943E-01
       -1   -1    0    0    0  501  0.00000000000E+00  0.00000000000E+00  0.98440998588E+03  0.98440998589E+03  0.50400001928E-02 0.  1.
        1   -1    0    0  501    0  0.00000000000E+00  0.00000000000E+00 -0.17611594443E+04  0.17611594443E+04  0.50400001928E-02 0. -1.
    10030    2    1    2    0    0  0.00000000000E+00  0.00000000000E+00 -0.77674945844E+03  0.27455694302E+04  0.26334030787E+04 0.  0.
        3    1    3    3  502    0 -0.36691938102E+03  0.11439682715E+04  0.17347560962E+03  0.12138315517E+04  0.10100000352E+00 0.  1.
       -3    1    3    3    0  502  0.36691938102E+03 -0.11439682715E+04 -0.95022506805E+03  0.15317378786E+04  0.10100000352E+00 0. -1.
</event>
<event>
 5   0  0.7971153E-06  0.2059444E+04  0.7818609E-02  0.8579322E-01
       -1   -1    0    0    0  501  0.00000000000E+00  0.00000000000E+00  0.69246696472E+03  0.69246696474E+03  0.50400001928E-02 0.  1.
        1   -1    0    0  501    0  0.00000000000E+00  0.00000000000E+00 -0.15312317123E+04  0.15312317123E+04  0.50400001928E-02 0. -1.
    10030    2    1    2    0    0  0.00000000000E+00  0.00000000000E+00 -0.83876474755E+03  0.22236986770E+04  0.20594439794E+04 0.  0.
        5    1    3    3  502    0  0.38171189350E+02  0.53598376968E+03 -0.13678303660E+04  0.14695977821E+04  0.46999998093E+01 0. -1.
       -5    1    3    3    0  502 -0.38171189350E+02 -0.53598376968E+03  0.52906561845E+03  0.75410089490E+03  0.46999998093E+01 0.  1.
</event>
<event>
 5   0  0.8055928E-06  0.2932586E+04  0.7818609E-02  0.8263248E-01
       -1   -1    0    0    0  501  0.00000000000E+00  0.00000000000E+00  0.33786972193E+04  0.33786972193E+04  0.50400001928E-02 0.  1.
        1   -1    0    0  501    0  0.00000000000E+00  0.00000000000E+00 -0.63634444485E+03  0.63634444487E+03  0.50400001928E-02 0. -1.
    10030    2    1    2    0    0  0.00000000000E+00  0.00000000000E+00  0.27423527745E+04  0.40150416642E+04  0.29325860304E+04 0.  0.
        2    1    3    3  502    0  0.41977861990E+03 -0.44095134718E+03  0.31974741028E+04  0.32549182506E+04  0.25500000920E-02 0.  1.
       -2    1    3    3    0  502 -0.41977861990E+03  0.44095134718E+03 -0.45512132833E+03  0.76012341354E+03  0.25500000920E-02 0. -1.
</event>
<event>
 5   0  0.1829810E-05  0.2926442E+04  0.7818609E-02  0.8265053E-01
        2   -1    0    0  501    0  0.00000000000E+00  0.00000000000E+00  0.15873396755E+04  0.15873396755E+04  0.25500000920E-02 0.  1.
       -2   -1    0    0    0  501  0.00000000000E+00  0.00000000000E+00 -0.13488075830E+04  0.13488075830E+04  0.25500000920E-02 0. -1.
    10030    2    1    2    0    0  0.00000000000E+00  0.00000000000E+00  0.23853209254E+03  0.29361472585E+04  0.29264420658E+04 0.  0.
        4    1    3    3  502    0  0.11729558393E+04  0.14849104042E+03 -0.74564806774E+03  0.13978081571E+04  0.12699999809E+01 0. -1.
       -4    1    3    3    0  502 -0.11729558393E+04 -0.14849104042E+03  0.98418016028E+03  0.15383391014E+04  0.12699999809E+01 0.  1.
</event>
<event>
 5   0  0.7305460E-06  0.2818060E+04  0.7818609E-02  0.8297683E-01
       -1   -1    0    0    0  501  0.00000000000E+00  0.00000000000E+00  0.15376692309E+04  0.15376692309E+04  0.50400001928E-02 0.  1.
        1   -1    0    0  501    0  0.00000000000E+00  0.00000000000E+00 -0.12911527800E+04  0.12911527800E+04  0.50400001928E-02 0. -1.
    10030    2    1    2    0    0  0.00000000000E+00  0.00000000000E+00  0.24651645087E+03  0.28288220109E+04  0.28180602564E+04 0.  0.
        4    1    3    3  502    0  0.23377290403E+03  0.13457634664E+04 -0.22394588486E+03  0.13841540558E+04  0.12699999809E+01 0.  1.
       -4    1    3    3    0  502 -0.23377290403E+03 -0.13457634664E+04  0.47046233573E+03  0.14446679550E+04  0.12699999809E+01 0. -1.
</event>
<event>
 5   0  0.7971153E-06  0.3052359E+04  0.7818609E-02  0.8228936E-01
        1   -1    0    0  501    0  0.00000000000E+00  0.00000000000E+00  0.21949024653E+04  0.21949024653E+04  0.50400001928E-02 0.  1.
       -1   -1    0    0    0  501  0.00000000000E+00  0.00000000000E+00 -0.10611970061E+04  0.10611970061E+04  0.50400001928E-02 0. -1.
    10030    2    1    2    0    0  0.00000000000E+00  0.00000000000E+00  0.11337054592E+04  0.32560994715E+04  0.30523590385E+04 0.  0.
        5    1    3    3  502    0 -0.58061717986E+03  0.31958971453E+03 -0.89966381753E+03  0.11174394703E+04  0.46999998093E+01 0. -1.
       -5    1    3    3    0  502  0.58061717986E+03 -0.31958971453E+03  0.20333692767E+04  0.21386600012E+04  0.46999998093E+01 0.  1.
</event>
<event>
 5   0  0.1960961E-05  0.2873752E+04  0.7818609E-02  0.8280730E-01
       -2   -1    0    0    0  501  0.00000000000E+00  0.00000000000E+00  0.13520427600E+04  0.13520427600E+04  0.25500000920E-02 0. -1.
        2   -1    0    0  501    0  0.00000000000E+00  0.00000000000E+00 -0.15270320838E+04  0.15270320838E+04  0.25500000920E-02 0.  1.
    10030    2    1    2    0    0  0.00000000000E+00  0.00000000000E+00 -0.17498932378E+03  0.28790748438E+04  0.28737520236E+04 0.  0.
        5    1    3    3  502    0  0.65750376947E+03  0.89898082463E+03 -0.99698273593E+03  0.14948158400E+04  0.46999998093E+01 0.  1.
       -5    1    3    3    0  502 -0.65750376947E+03 -0.89898082463E+03  0.82199341214E+03  0.13842590038E+04  0.46999998093E+01 0. -1.
</event>
<event>
 5   0  0.1918901E-05  0.2081306E+04  0.7818609E-02  0.8569523E-01
       -2   -1    0    0    0  501  0.00000000000E+00  0.00000000000E+00  0.49187280064E+03  0.49187280064E+03  0.25500000920E-02 0.  1.
        2   -1    0    0  501    0  0.00000000000E+00  0.00000000000E+00 -0.22017039904E+04  0.22017039904E+04  0.25500000920E-02 0. -1.
    10030    2    1    2    0    0  0.00000000000E+00  0.00000000000E+00 -0.17098311898E+04  0.26935767910E+04  0.20813056555E+04 0.  0.
        1    1    3    3  502    0 -0.10023974138E+04  0.27371973593E+03 -0.78130392508E+03  0.13000611110E+04  0.50400001928E-02 0. -1.
       -1    1    3    3    0  502  0.10023974138E+04 -0.27371973593E+03 -0.92852726467E+03  0.13935156800E+04  0.50400001928E-02 0.  1.
</event>
<event>
 5   0  0.1937947E-05  0.2927440E+04  0.7818609E-02  0.8264760E-01
        2   -1    0    0  501    0  0.00000000000E+00  0.00000000000E+00  0.15053474086E+04  0.15053474086E+04  0.25500000920E-02 0. -1.
       -2   -1    0    0    0  501  0.00000000000E+00  0.00000000000E+00 -0.14232439012E+04  0.14232439012E+04  0.25500000920E-02 0.  1.
    10030    2    1    2    0    0  0.00000000000E+00  0.00000000000E+00  0.82103507429E+02  0.29285913099E+04  0.29274401914E+04 0.  0.
        3    1    3    3  502    0 -0.85476119741E+03 -0.11856689956E+04 -0.36753095307E+02  0.14621143840E+04  0.10100000352E+00 0.  1.
       -3    1    3    3    0  502  0.85476119741E+03  0.11856689956E+04  0.11885660274E+03  0.14664769258E+04  0.10100000352E+00 0. -1.
</event>
<event>
 5   0  0.1937947E-05  0.1924985E+04  0.7818609E-02  0.8642519E-01
        2   -1    0    0  501    0  0.00000000000E+00  0.00000000000E+00  0.13803786509E+04  0.13803786509E+04  0.25500000920E-02 0. -1.
       -2   -1    0    0    0  501  0.00000000000E+00  0.00000000000E+00 -0.67111441776E+03  0.67111441776E+03  0.25500000920E-02 0.  1.
    10030    2    1    2    0    0  0.00000000000E+00  0.00000000000E+00  0.70926423314E+03  0.20514930687E+04  0.19249852099E+04 0.  0.
        3    1    3    3  502    0  0.31948686968E+02 -0.95231200528E+03  0.49948025052E+03  0.10758249880E+04  0.10100000352E+00 0. -1.
       -3    1    3    3    0  502 -0.31948686968E+02  0.95231200528E+03  0.20978398262E+03  0.97566808063E+03  0.10100000352E+00 0.  1.
</event>
<event>
 5   0  0.7305460E-06  0.2870275E+04  0.7818609E-02  0.8281777E-01
        1   -1    0    0  501    0  0.00000000000E+00  0.00000000000E+00  0.10875179991E+04  0.10875179991E+04  0.50400001928E-02 0.  1.
       -1   -1    0    0    0  501  0.00000000000E+00  0.00000000000E+00 -0.18938715407E+04  0.18938715407E+04  0.50400001928E-02 0. -1.
    10030    2    1    2    0    0  0.00000000000E+00  0.00000000000E+00 -0.80635354161E+03  0.29813895398E+04  0.28702748221E+04 0.  0.
        4    1    3    3  502    0 -0.14238632612E+04  0.16115646515E+02 -0.21744911418E+03  0.14404624364E+04  0.12699999809E+01 0.  1.
       -4    1    3    3    0  502  0.14238632612E+04 -0.16115646515E+02 -0.58890442743E+03  0.15409271034E+04  0.12699999809E+01 0. -1.
</event>
<event>
 5   0  0.1918901E-05  0.2695221E+04  0.7818609E-02  0.8336557E-01
       -2   -1    0    0    0  501  0.00000000000E+00  0.00000000000E+00  0.52765887642E+03  0.52765887643E+03  0.25500000920E-02 0.  1.
        2   -1    0    0  501    0  0.00000000000E+00  0.00000000000E+00 -0.34417208288E+04  0.34417208288E+04  0.25500000920E-02 0. -1.
    10030    2    1    2    0    0  0.00000000000E+00  0.00000000000E+00 -0.29140619524E+04  0.39693797052E+04  0.26952213605E+04 0.  0.
        1    1    3    3  502    0  0.69860197656E+03 -0.87906392517E+03 -0.35960557848E+03  0.11790310760E+04  0.50400001928E-02 0.  1.
       -1    1    3    3    0  502 -0.69860197656E+03  0.87906392517E+03 -0.25544563739E+04  0.27903486292E+04  0.50400001928E-02 0. -1.
</event>
<event>
 5   0  0.8055928E-06  0.2839493E+04  0.7818609E-02  0.8291111E-01
        1   -1    0    0  501    0  0.00000000000E+00  0.00000000000E+00  0.64828549836E+03  0.64828549838E+03  0.50400001928E-02 0. -1.
       -1   -1    0    0    0  501  0.00000000000E+00  0.00000000000E+00 -0.31092471945E+04  0.31092471946E+04  0.50400001928E-02 0.  1.
    10030    2    1    2    0    0  0.00000000000E+00  0.00000000000E+00 -0.24609616962E+04  0.37575326929E+04  0.28394928188E+04 0.  0.
        2    1    3    3  502    0 -0.66411336083E+03  0.94101393337E+03 -0.23290093740E+04  0.25982375648E+04  0.25500000920E-02 0.  1.
       -2    1    3    3    0  502  0.66411336083E+03 -0.94101393337E+03 -0.13195232220E+03  0.11592951282E+04  0.25500000920E-02 0. -1.
</event>
<event>
 5   0  0.8122088E-06  0.2906876E+04  0.7818609E-02  0.8270834E-01
        1   -1    0    0  501    0  0.00000000000E+00  0.00000000000E+00  0.21453996192E+04  0.21453996192E+04  0.50400001928E-02 0.  1.
       -1   -1    0    0    0  501  0.00000000000E+00  0.00000000000E+00 -0.98465690973E+03  0.98465690975E+03  0.50400001928E-02 0. -1.
    10030    2    1    2    0    0  0.00000000000E+00  0.00000000000E+00  0.11607427095E+04  0.31300565290E+04  0.29068763711E+04 0.  0.
        1    1    3    3  502    0  0.70659677815E+03 -0.10645311837E+04  0.13263661416E+04  0.18416711948E+04  0.50400001928E-02 0. -1.
       -1    1    3    3    0  502 -0.70659677815E+03  0.10645311837E+04 -0.16562343212E+03  0.12883853342E+04  0.50400001928E-02 0.  1.
</event>
<event>
 5   0  0.7971153E-06  0.2931576E+04  0.7818609E-02  0.8263544E-01
        1   -1    0    0  501    0  0.00000000000E+00  0.00000000000E+00  0.13710368201E+04  0.13710368201E+04  0.50400001928E-02 0.  1.
       -1   -1    0    0    0  501  0.00000000000E+00  0.00000000000E+00 -0.15670870779E+04  0.15670870779E+04  0.50400001928E-02 0. -1.
    10030    2    1    2    0    0  0.00000000000E+00  0.00000000000E+00 -0.19605025781E+03  0.29381238980E+04  0.29315757429E+04 0.  0.
        5    1    3    3  502    0  0.60309341601E+03  0.11001980688E+04 -0.85757975538E+03  0.15197442502E+04  0.46999998093E+01 0. -1.
       -5    1    3    3    0  502 -0.60309341601E+03 -0.11001980688E+04  0.66152949756E+03  0.14183796478E+04  0.46999998093E+01 0.  1.
</event>
<event>
 5   0  0.1976233E-05  0.2835699E+04  0.7818609E-02  0.8292270E-01
       -2   -1    0    0    0  501  0.00000000000E+00  0.00000000000E+00  0.82697535800E+03  0.82697535801E+03  0.25500000920E-02 0. -1.
        2   -1    0    0  501    0  0.00000000000E+00  0.00000000000E+00 -0.24309041034E+04  0.24309041034E+04  0.25500000920E-02 0.  1.
    10030    2    1    2    0    0  0.00000000000E+00  0.00000000000E+00 -0.16039287454E+04  0.32578794614E+04  0.28356994137E+04 0.  0.
        2    1    3    3  502    0 -0.13092088779E+04 -0.69304300682E+02 -0.18171065082E+03  0.13235746042E+04  0.25500000920E-02 0. -1.
       -2    1    3    3    0  502  0.13092088779E+04  0.69304300682E+02 -0.14222180945E+04  0.19343048572E+04  0.25500000920E-02 0.  1.
</event>
<event>
 5   0  0.1829810E-05  0.2863534E+04  0.7818609E-02  0.8283811E-01
        2   -1    0    0  501    0  0.00000000000E+00  0.00000000000E+00  0.17049133703E+04  0.17049133703E+04  0.25500000920E-02 0. -1.
       -2   -1    0    0    0  501  0.00000000000E+00  0.00000000000E+00 -0.12023813850E+04  0.12023813850E+04  0.25500000920E-02 0.  1.
    10030    2    1    2    0    0  0.00000000000E+00  0.00000000000E+00  0.50253198526E+03  0.29072947553E+04  0.28635335511E+04 0.  0.
        4    1    3    3  502    0 -0.11131292953E+04 -0.37962784511E+02 -0.66218140414E+03  0.12957560827E+04  0.12699999809E+01 0.  1.
       -4    1    3    3    0  502  0.11131292953E+04  0.37962784511E+02  0.11647133894E+04  0.16115386726E+04  0.12699999809E+01 0. -1.
</event>
<event>
 5   0  0.1937947E-05  0.3113647E+04  0.7818609E-02  0.8212003E-01
        2   -1    0    0  501    0  0.00000000000E+00  0.00000000000E+00  0.14039707341E+04  0.14039707341E+04  0.25500000920E-02 0.  1.
       -2   -1    0    0    0  501  0.00000000000E+00  0.00000000000E+00 -0.17263174510E+04  0.17263174510E+04  0.25500000920E-02 0. -1.
    10030    2    1    2    0    0  0.00000000000E+00  0.00000000000E+00 -0.32234671695E+03  0.31302881851E+04  0.31136468515E+04 0.  0.
        3    1    3    3  502    0 -0.46488881107E+03 -0.20353837143E+03 -0.16408240495E+04  0.17175136235E+04  0.10100000352E+00 0. -1.
       -3    1    3    3    0  502  0.46488881107E+03  0.20353837143E+03  0.13184773325E+04  0.14127745616E+04  0.10100000352E+00 0.  1.
</event>
<event>
 5   0  0.1960961E-05  0.2887795E+04  0.7818609E-02  0.8276518E-01
        2   -1    0    0  501    0  0.00000000000E+00  0.00000000000E+00  0.17857631327E+04  0.17857631327E+04  0.25500000920E-02 0.  1.
       -2   -1    0    0    0  501  0.00000000000E+00  0.00000000000E+00 -0.11674780683E+04  0.11674780683E+04  0.25500000920E-02 0. -1.
    10030    2    1    2    0    0  0.00000000000E+00  0.00000000000E+00  0.61828506434E+03  0.29532412010E+04  0.28877945166E+04 0.  0.
        5    1    3    3  502    0 -0.13825102635E+04 -0.35685993242E+03  0.89487515151E+02  0.14306340362E+04  0.46999998093E+01 0. -1.
       -5    1    3    3    0  502  0.13825102635E+04  0.35685993242E+03  0.52879754919E+03  0.15226071648E+04  0.46999998093E+01 0.  1.
</event>
<event>
 5   0  0.1829810E-05  0.2940192E+04  0.7818609E-02  0.8261019E-01
       -2   -1    0    0    0  501  0.00000000000E+00  0.00000000000E+00  0.11687057147E+04  0.11687057147E+04  0.25500000920E-02 0.  1.
        2   -1    0    0  501    0  0.00000000000E+00  0.00000000000E+00 -0.18492099009E+04  0.18492099009E+04  0.25500000920E-02 0. -1.
    10030    2    1    2    0    0  0.00000000000E+00  0.00000000000E+00 -0.68050418623E+03  0.30179156156E+04  0.29401919522E+04 0.  0.
        4    1    3    3  502    0  0.62647462636E+03 -0.12608498333E+04 -0.77448113402E+03  0.16068713076E+04  0.12699999809E+01 0. -1.
       -4    1    3    3    0  502 -0.62647462636E+03  0.12608498333E+04  0.93976947786E+02  0.14110443080E+04  0.12699999809E+01 0.  1.
</event>
<event>
 5   0  0.1918901E-05  0.2778284E+04  0.7818609E-02  0.8310042E-01
        2   -1    0    0  501    0  0.00000000000E+00  0.00000000000E+00  0.24059960474E+04  0.24059960474E+04  0.25500000920E-02 0. -1.
       -2   -1    0    0    0  501  0.00000000000E+00  0.00000000000E+00 -0.80204422428E+03  0.80204422428E+03  0.25500000920E-02 0.  1.
    10030    2    1    2    0    0  0.00000000000E+00  0.00000000000E+00  0.16039518231E+04  0.32080402717E+04  0.27782838109E+04 0.  0.
        1    1    3    3  502    0  0.97380725574E+02 -0.76475093752E+03  0.21363173564E+04  0.22711624445E+04  0.50400001928E-02 0. -1.
       -1    1    3    3    0  502 -0.97380725574E+02  0.76475093752E+03 -0.53236553322E+03  0.93687782722E+03  0.50400001928E-02 0.  1.
</event>
<event>
 5   0  0.8122088E-06  0.1743415E+04  0.7818609E-02  0.8736983E-01
        1   -1    0    0  501    0  0.00000000000E+00  0.00000000000E+00  0.92385757564E+03  0.92385757565E+03  0.50400001928E-02 0.  1.
       -1   -1    0    0    0  501  0.00000000000E+00  0.00000000000E+00 -0.82250130299E+03  0.82250130301E+03  0.50400001928E-02 0. -1.
    10030    2    1    2    0    0  0.00000000000E+00  0.00000000000E+00  0.10135627265E+03  0.17463588787E+04  0.17434151081E+04 0.  0.
        1    1    3    3  502    0 -0.23606233648E+03  0.36959072494E+02  0.89041498329E+03  0.92191661349E+03  0.50400001928E-02 0.  1.
       -1    1    3    3    0  502  0.23606233648E+03 -0.36959072494E+02 -0.78905871064E+03  0.82444226517E+03  0.50400001928E-02 0. -1.
</event>
<event>
 5   0  0.7971153E-06  0.2861574E+04  0.7818609E-02  0.8284403E-01
       -1   -1    0    0    0  501  0.00000000000E+00  0.00000000000E+00  0.23302694176E+04  0.23302694176E+04  0.50400001928E-02 0.  1.
        1   -1    0    0  501    0  0.00000000000E+00  0.00000000000E+00 -0.87850416351E+03  0.87850416352E+03  0.50400001928E-02 0. -1.
    10030    2    1    2    0    0  0.00000000000E+00  0.00000000000E+00  0.14517652541E+04  0.32087735812E+04  0.28615739624E+04 0.  0.
        5    1    3    3  502    0 -0.10952155256E+03  0.14263726517E+04  0.69852159224E+03  0.15920076686E+04  0.46999998093E+01 0.  1.
       -5    1    3    3    0  502  0.10952155256E+03 -0.14263726517E+04  0.75324366189E+03  0.16167659126E+04  0.46999998093E+01 0. -1.
</event>
<event>
 5   0  0.1960961E-05  0.2556582E+04  0.7818609E-02  0.8383101E-01
        2   -1    0    0  501    0  0.00000000000E+00  0.00000000000E+00  0.20281186375E+04  0.20281186375E+04  0.25500000920E-02 0.  1.
       -2   -1    0    0    0  501  0.00000000000E+00  0.00000000000E+00 -0.80568648319E+03  0.80568648319E+03  0.25500000920E-02 0. -1.
    10030    2    1    2    0    0  0.00000000000E+00  0.00000000000E+00  0.12224321543E+04  0.28338051207E+04  0.25565819154E+04 0.  0.
        5    1    3    3  502    0 -0.46136105993E+03  0.18301300163E+03 -0.69450818465E+03  0.85364600094E+03  0.46999998093E+01 0. -1.
       -5    1    3    3    0  502  0.46136105993E+03 -0.18301300163E+03  0.19169403390E+04  0.19801591198E+04  0.46999998093E+01 0.  1.
</event>
<event>
 5   0  0.1960961E-05  0.2807276E+04  0.7818609E-02  0.8301013E-01
       -2   -1    0    0    0  501  0.00000000000E+00  0.00000000000E+00  0.14364882488E+04  0.14364882488E+04  0.25500000920E-02 0.  1.
        2   -1    0    0  501    0  0.00000000000E+00  0.00000000000E+00 -0.13715389214E+04  0.13715389214E+04  0.25500000920E-02 0. -1.
    10030    2    1    2    0    0  0.00000000000E+00  0.00000000000E+00  0.64949327359E+02  0.28080271702E+04  0.28072759347E+04 0.  0.
        5    1    3    3  502    0  0.36035204377E+03  0.12718848561E+04 -0.43949137436E+03  0.13930970680E+04  0.46999998093E+01 0. -1.
       -5    1    3    3    0  502 -0.36035204377E+03 -0.12718848561E+04  0.50444070172E+03  0.14149301022E+04  0.46999998093E+01 0.  1.
</event>
<event>
 5   0  0.1960961E-05  0.2872887E+04  0.7818609E-02  0.8280990E-01
        2   -1    0    0  501    0  0.00000000000E+00  0.00000000000E+00  0.18219923253E+04  0.18219923253E+04  0.25500000920E-02 0.  1.
       -2   -1    0    0    0  501  0.00000000000E+00  0.00000000000E+00 -0.11324803776E+04  0.11324803776E+04  0.25500000920E-02 0. -1.
    10030    2    1    2    0    0  0.00000000000E+00  0.00000000000E+00  0.68951194772E+03  0.29544727029E+04  0.28728874371E+04 0.  0.
        5    1    3    3  502    0 -0.13186101584E+04  0.33831132315E+03 -0.12669615963E+03  0.13672093140E+04  0.46999998093E+01 0. -1.
       -5    1    3    3    0  502  0.13186101584E+04 -0.33831132315E+03  0.81620810735E+03  0.15872633889E+04  0.46999998093E+01 0.  1.
</event>
<event>
 5   0  0.1829810E-05  0.2603623E+04  0.7818609E-02  0.8366972E-01
        2   -1    0    0  501    0  0.00000000000E+00  0.00000000000E+00  0.18196827686E+04  0.18196827686E+04  0.25500000920E-02 0.  1.
       -2   -1    0    0    0  501  0.00000000000E+00  0.00000000000E+00 -0.93132339962E+03  0.93132339962E+03  0.25500000920E-02 0. -1.
    10030    2    1    2    0    0  0.00000000000E+00  0.00000000000E+00  0.88835936896E+03  0.27510061682E+04  0.26036229698E+04 0.  0.
        4    1    3    3  502    0 -0.12344688415E+04 -0.30648892216E+03  0.73711479419E+03  0.14700981643E+04  0.12699999809E+01 0.  1.
       -4    1    3    3    0  502  0.12344688415E+04  0.30648892216E+03  0.15124457478E+03  0.12809080039E+04  0.12699999809E+01 0. -1.
</event>
<event>
 5   0  0.1829810E-05  0.3025603E+04  0.7818609E-02  0.8236457E-01
        2   -1    0    0  501    0  0.00000000000E+00  0.00000000000E+00  0.17618752966E+04  0.17618752966E+04  0.25500000920E-02 0.  1.
       -2   -1    0    0    0  501  0.00000000000E+00  0.00000000000E+00 -0.12989392294E+04  0.12989392294E+04  0.25500000920E-02 0. -1.
    10030    2    1    2    0    0  0.00000000000E+00  0.00000000000E+00  0.46293606717E+03  0.30608145259E+04  0.30256033712E+04 0.  0.
        4    1    3    3  502    0  0.11579423709E+04  0.82790258578E+03  0.74959457161E+03  0.16087718485E+04  0.12699999809E+01 0.  1.
       -4    1    3    3    0  502 -0.11579423709E+04 -0.82790258578E+03 -0.28665850444E+03  0.14520426774E+04  0.12699999809E+01 0. -1.
</event>
<event>
 5   0  0.7971153E-06  0.2875993E+04  0.7818609E-02  0.8280056E-01
        1   -1    0    0  501    0  0.00000000000E+00  0.00000000000E+00  0.13819601053E+04  0.13819601053E+04  0.50400001928E-02 0.  1.
       -1   -1    0    0    0  501  0.00000000000E+00  0.00000000000E+00 -0.14963053158E+04  0.14963053158E+04  0.50400001928E-02 0. -1.
    10030    2    1    2    0    0  0.00000000000E+00  0.00000000000E+00 -0.11434521046E+03  0.28782654211E+04  0.28759932210E+04 0.  0.
        5    1    3    3  502    0 -0.10911728027E+04  0.62840102291E+03  0.63782996163E+03  0.14115222566E+04  0.46999998093E+01 0.  1.
       -5    1    3    3    0  502  0.10911728027E+04 -0.62840102291E+03 -0.75217517209E+03  0.14667431645E+04  0.46999998093E+01 0. -1.
</event>
<event>
 5   0  0.1918901E-05  0.2904924E+04  0.7818609E-02  0.8271414E-01
       -2   -1    0    0    0  501  0.00000000000E+00  0.00000000000E+00  0.14643429337E+04  0.14643429337E+04  0.25500000920E-02 0. -1.
        2   -1    0    0  501    0  0.00000000000E+00  0.00000000000E+00 -0.14406779265E+04  0.14406779265E+04  0.25500000920E-02 0.  1.
    10030    2    1    2    0    0  0.00000000000E+00  0.00000000000E+00  0.23665007121E+02  0.29050208602E+04  0.29049244681E+04 0.  0.
        1    1    3    3  502    0  0.41712040261E+02  0.91240030869E+03 -0.11175553699E+04  0.14433101615E+04  0.50400001928E-02 0.  1.
       -1    1    3    3    0  502 -0.41712040261E+02 -0.91240030869E+03  0.11412203770E+04  0.14617106987E+04  0.50400001928E-02 0. -1.
</event>
<event>
 5   0  0.1976233E-05  0.1879983E+04  0.7818609E-02  0.8664885E-01
       -2   -1    0    0    0  501  0.00000000000E+00  0.00000000000E+00  0.45568871844E+03  0.45568871845E+03  0.25500000920E-02 0. -1.
        2   -1    0    0  501    0  0.00000000000E+00  0.00000000000E+00 -0.19390083760E+04  0.19390083760E+04  0.25500000920E-02 0.  1.
    10030    2    1    2    0    0  0.00000000000E+00  0.00000000000E+00 -0.14833196576E+04  0.23946970945E+04  0.18799832360E+04 0.  0.
        2    1    3    3  502    0 -0.73107345920E+03 -0.48413471856E+03 -0.11731133297E+04  0.14645988231E+04  0.25500000920E-02 0.  1.
       -2    1    3    3    0  502  0.73107345920E+03  0.48413471856E+03 -0.31020632790E+03  0.93009827133E+03  0.25500000920E-02 0. -1.
</event>
<event>
 5   0  0.8234888E-06  0.2932048E+04  0.7818609E-02  0.8263406E-01
        1   -1    0    0  501    0  0.00000000000E+00  0.00000000000E+00  0.20672398020E+04  0.20672398020E+04  0.50400001928E-02 0.  1.
       -1   -1    0    0    0  501  0.00000000000E+00  0.00000000000E+00 -0.10396597925E+04  0.10396597925E+04  0.50400001928E-02 0. -1.
    10030    2    1    2    0    0  0.00000000000E+00  0.00000000000E+00  0.10275800095E+04  0.31068995945E+04  0.29320478193E+04 0.  0.
        3    1    3    3  502    0 -0.97774379920E+03  0.37405153356E+03 -0.57373213973E+03  0.11937613099E+04  0.10100000352E+00 0. -1.
       -3    1    3    3    0  502  0.97774379920E+03 -0.37405153356E+03  0.16013121492E+04  0.19131382846E+04  0.10100000352E+00 0.  1.
</event>
<event>
 5   0  0.1960961E-05  0.2927906E+04  0.7818609E-02  0.8264623E-01
       -2   -1    0    0    0  501  0.00000000000E+00  0.00000000000E+00  0.11086813510E+04  0.11086813510E+04  0.25500000920E-02 0.  1.
        2   -1    0    0  501    0  0.00000000000E+00  0.00000000000E+00 -0.19330703665E+04  0.19330703665E+04  0.25500000920E-02 0. -1.
    10030    2    1    2    0    0  0.00000000000E+00  0.00000000000E+00 -0.82438901542E+03  0.30417517175E+04  0.29279064641E+04 0.  0.
        5    1    3    3  502    0  0.37071750131E+03  0.97529584132E+03 -0.14790131169E+04  0.18100097607E+04  0.46999998093E+01 0. -1.
       -5    1    3    3    0  502 -0.37071750131E+03 -0.97529584132E+03  0.65462410151E+03  0.12317419568E+04  0.46999998093E+01 0.  1.
</event>
<event>
 5   0  0.1976233E-05  0.2854692E+04  0.7818609E-02  0.8286487E-01
       -2   -1    0    0    0  501  0.00000000000E+00  0.00000000000E+00  0.12347531501E+04  0.12347531501E+04  0.25500000920E-02 0.  1.
        2   -1    0    0  501    0  0.00000000000E+00  0.00000000000E+00 -0.16499784241E+04  0.16499784241E+04  0.25500000920E-02 0. -1.
    10030    2    1    2    0    0  0.00000000000E+00  0.00000000000E+00 -0.41522527406E+03  0.28847315742E+04  0.28546916168E+04 0.  0.
        2    1    3    3  502    0 -0.11992016678E+04  0.60418498429E+03  0.28141360323E+03  0.13719758567E+04  0.25500000920E-02 0.  1.
       -2    1    3    3    0  502  0.11992016678E+04 -0.60418498429E+03 -0.69663887729E+03  0.15127557175E+04  0.25500000920E-02 0. -1.
</event>
<event>
 5   0  0.8122088E-06  0.2755651E+04  0.7818609E-02  0.8317171E-01
        1   -1    0    0  501    0  0.00000000000E+00  0.00000000000E+00  0.21908803884E+04  0.21908803884E+04  0.50400001928E-02 0. -1.
       -1   -1    0    0    0  501  0.00000000000E+00  0.00000000000E+00 -0.86650248896E+03  0.86650248897E+03  0.50400001928E-02 0.  1.
    10030    2    1    2    0    0  0.00000000000E+00  0.00000000000E+00  0.13243778994E+04  0.30573828774E+04  0.27556511460E+04 0.  0.
        1    1    3    3  502    0  0.30650097895E+02 -0.40257656771E+03 -0.79939877451E+03  0.89557005426E+03  0.50400001928E-02 0.  1.
       -1    1    3    3    0  502 -0.30650097895E+02  0.40257656771E+03  0.21237766739E+04  0.21618128231E+04  0.50400001928E-02 0. -1.
</event>
<event>
 5   0  0.1960961E-05  0.2232342E+04  0.7818609E-02  0.8505086E-01
       -2   -1    0    0    0  501  0.00000000000E+00  0.00000000000E+00  0.60964143527E+03  0.60964143528E+03  0.25500000920E-02 0. -1.
        2   -1    0    0  501    0  0.00000000000E+00  0.00000000000E+00 -0.20435579603E+04  0.20435579603E+04  0.25500000920E-02 0.  1.
    10030    2    1    2    0    0  0.00000000000E+00  0.00000000000E+00 -0.14339165250E+04  0.26531993955E+04  0.22323419164E+04 0.  0.
        5    1    3    3  502    0 -0.35385229148E+03 -0.59132361512E+03  0.32660695116E+03  0.76260687941E+03  0.46999998093E+01 0. -1.
       -5    1    3    3    0  502  0.35385229148E+03  0.59132361512E+03 -0.17605234761E+04  0.18905925161E+04  0.46999998093E+01 0.  1.
</event>
<event>
 5   0  0.1960961E-05  0.2891121E+04  0.7818609E-02  0.8275524E-01
       -2   -1    0    0    0  501  0.00000000000E+00  0.00000000000E+00  0.10771804756E+04  0.10771804756E+04  0.25500000920E-02 0.  1.
        2   -1    0    0  501    0  0.00000000000E+00  0.00000000000E+00 -0.19399210156E+04  0.19399210156E+04  0.25500000920E-02 0. -1.
    10030    2    1    2    0    0  0.00000000000E+00  0.00000000000E+00 -0.86274053999E+03  0.30171014912E+04  0.28911209191E+04 0.  0.
        5    1    3    3  502    0  0.51879439237E+03 -0.10064655583E+04  0.50639809312E+03  0.12403957676E+04  0.46999998093E+01 0.  1.
       -5    1    3    3    0  502 -0.51879439237E+03  0.10064655583E+04 -0.13691386331E+04  0.17767057236E+04  0.46999998093E+01 0. -1.
</event>
<event>
 5   0  0.1937947E-05  0.2809891E+04  0.7818609E-02  0.8300204E-01
        2   -1    0    0  501    0  0.00000000000E+00  0.00000000000E+00  0.23266810200E+04  0.23266810200E+04  0.25500000920E-02 0.  1.
       -2   -1    0    0    0  501  0.00000000000E+00  0.00000000000E+00 -0.84836392734E+03  0.84836392734E+03  0.25500000920E-02 0. -1.
    10030    2    1    2    0    0  0.00000000000E+00  0.00000000000E+00  0.14783170926E+04  0.31750449473E+04  0.28098912775E+04 0.  0.
        3    1    3    3  502    0  0.28015192375E+03  0.83858079249E+03 -0.49459764545E+03  0.10130793093E+04  0.10100000352E+00 0. -1.
       -3    1    3    3    0  502 -0.28015192375E+03 -0.83858079249E+03  0.19729147381E+04  0.21619656380E+04  0.10100000352E+00 0.  1.
</event>
<event>
 5   0  0.8055928E-06  0.2895486E+04  0.7818609E-02  0.8274222E-01
       -1   -1    0    0    0  501  0.00000000000E+00  0.00000000000E+00  0.10726410857E+04  0.10726410857E+04  0.50400001928E-02 0.  1.
        1   -1    0    0  501    0  0.00000000000E+00  0.00000000000E+00 -0.19540180631E+04  0.19540180631E+04  0.50400001928E-02 0. -1.
    10030    2    1    2    0    0  0.00000000000E+00  0.00000000000E+00 -0.88137697746E+03  0.30266591488E+04  0.28954861814E+04 0.  0.
        2    1    3    3  502    0  0.42697305602E+03  0.13805106822E+04 -0.53326903383E+03  0.15402894523E+04  0.25500000920E-02 0. -1.
       -2    1    3    3    0  502 -0.42697305602E+03 -0.13805106822E+04 -0.34810794363E+03  0.14863696965E+04  0.25500000920E-02 0.  1.
</event>
<event>
 5   0  0.7971153E-06  0.3002139E+04  0.7818609E-02  0.8243120E-01
        1   -1    0    0  501    0  0.00000000000E+00  0.00000000000E+00  0.14660427927E+04  0.14660427927E+04  0.50400001928E-02 0. -1.
       -1   -1    0    0    0  501  0.00000000000E+00  0.00000000000E+00 -0.15369332349E+04  0.15369332349E+04  0.50400001928E-02 0.  1.
    10030    2    1    2    0    0  0.00000000000E+00  0.00000000000E+00 -0.70890442212E+02  0.30029760276E+04  0.30021391652E+04 0.  0.
        5    1    3    3  502    0  0.10173973059E+04 -0.10560684354E+04  0.28528411857E+03  0.14939166431E+04  0.46999998093E+01 0. -1.
       -5    1    3    3    0  502 -0.10173973059E+04  0.10560684354E+04 -0.35617456078E+03  0.15090593845E+04  0.46999998093E+01 0.  1.
</event>
<event>
 5   0  0.1976233E-05  0.2817881E+04  0.7818609E-02  0.8297738E-01
       -2   -1    0    0    0  501  0.00000000000E+00  0.00000000000E+00  0.15222699018E+04  0.15222699018E+04  0.25500000920E-02 0.  1.
        2   -1    0    0  501    0  0.00000000000E+00  0.00000000000E+00 -0.13040480760E+04  0.13040480760E+04  0.25500000920E-02 0. -1.
    10030    2    1    2    0    0  0.00000000000E+00  0.00000000000E+00  0.21822182580E+03  0.28263179778E+04  0.28178808609E+04 0.  0.
        2    1    3    3  502    0 -0.52132044584E+03  0.64269169285E+03 -0.10346039274E+04  0.13248520317E+04  0.25500000920E-02 0. -1.
       -2    1    3    3    0  502  0.52132044584E+03 -0.64269169285E+03  0.12528257532E+04  0.15014659461E+04  0.25500000920E-02 0.  1.
</event>
<event>
 5   0  0.1918901E-05  0.2486180E+04  0.7818609E-02  0.8407925E-01
        2   -1    0    0  501    0  0.00000000000E+00  0.00000000000E+00  0.20296260615E+04  0.20296260615E+04  0.25500000920E-02 0. -1.
       -2   -1    0    0    0  501  0.00000000000E+00  0.00000000000E+00 -0.76135860203E+03  0.76135860204E+03  0.25500000920E-02 0.  1.
    10030    2    1    2    0    0  0.00000000000E+00  0.00000000000E+00  0.12682674594E+04  0.27909846635E+04  0.24861804124E+04 0.  0.
        1    1    3    3  502    0 -0.76703881164E+03  0.64145047396E+03  0.14632370547E+04  0.17722499619E+04  0.50400001928E-02 0. -1.
       -1    1    3    3    0  502  0.76703881164E+03 -0.64145047396E+03 -0.19496959531E+03  0.10187347016E+04  0.50400001928E-02 0.  1.
</event>
<event>
 5   0  0.8055928E-06  0.3034990E+04  0.7818609E-02  0.8233809E-01
       -1   -1    0    0    0  501  0.00000000000E+00  0.00000000000E+00  0.14174250613E+04  0.14174250613E+04  0.50400001928E-02 0.  1.
        1   -1    0    0  501    0  0.00000000000E+00  0.00000000000E+00 -0.16246296440E+04  0.16246296440E+04  0.50400001928E-02 0. -1.
    10030    2    1    2    0    0  0.00000000000E+00  0.00000000000E+00 -0.20720458265E+03  0.30420547053E+04  0.30349898008E+04 0.  0.
        2    1    3    3  502    0  0.72199787551E+03 -0.76517108770E+03 -0.11997764456E+04  0.15956914630E+04  0.25500000920E-02 0. -1.
       -2    1    3    3    0  502 -0.72199787551E+03  0.76517108770E+03  0.99257186291E+03  0.14463632423E+04  0.25500000920E-02 0.  1.
</event>
<event>
 5   0  0.8234888E-06  0.1951769E+04  0.7818609E-02  0.8629508E-01
       -1   -1    0    0    0  501  0.00000000000E+00  0.00000000000E+00  0.11486829841E+04  0.11486829842E+04  0.50400001928E-02 0. -1.
        1   -1    0    0  501    0  0.00000000000E+00  0.00000000000E+00 -0.82908030335E+03  0.82908030337E+03  0.50400001928E-02 0.  1.
    10030    2    1    2    0    0  0.00000000000E+00  0.00000000000E+00  0.31960268080E+03  0.19777632875E+04  0.19517688767E+04 0.  0.
        3    1    3    3  502    0  0.53338954463E+03  0.21598087512E+03  0.95845970701E+03  0.11179432745E+04  0.10100000352E+00 0. -1.
       -3    1    3    3    0  502 -0.53338954463E+03 -0.21598087512E+03 -0.63885702621E+03  0.85982001307E+03  0.10100000352E+00 0.  1.
</event>
<event>
 5   0  0.1976233E-05  0.2212054E+04  0.7818609E-02  0.8513428E-01
       -2   -1    0    0    0  501  0.00000000000E+00  0.00000000000E+00  0.54286370315E+03  0.54286370316E+03  0.25500000920E-02 0. -1.
        2   -1    0    0  501    0  0.00000000000E+00  0.00000000000E+00 -0.22534119956E+04  0.22534119956E+04  0.25500000920E-02 0.  1.
    10030    2    1    2    0    0  0.00000000000E+00  0.00000000000E+00 -0.17105482925E+04  0.27962756988E+04  0.22120538698E+04 0.  0.
        2    1    3    3  502    0  0.41954227590E+03 -0.57250982864E+03  0.21699403158E+03  0.74220592486E+03  0.25500000920E-02 0. -1.
       -2    1    3    3    0  502 -0.41954227590E+03  0.57250982864E+03 -0.19275423241E+04  0.20540697739E+04  0.25500000920E-02 0.  1.
</event>
<event>
 5   0  0.8122088E-06  0.2906594E+04  0.7818609E-02  0.8270918E-01
        1   -1    0    0  501    0  0.00000000000E+00  0.00000000000E+00  0.30260366016E+04  0.30260366016E+04  0.50400001928E-02 0.  1.
       -1   -1    0    0    0  501  0.00000000000E+00  0.00000000000E+00 -0.69796651495E+03  0.69796651497E+03  0.50400001928E-02 0. -1.
    10030    2    1    2    0    0  0.00000000000E+00  0.00000000000E+00  0.23280700867E+04  0.37240031166E+04  0.29065940349E+04 0.  0.
        1    1    3    3  502    0 -0.15902346420E+03 -0.11669623581E+04  0.22549463766E+04  0.25439875725E+04  0.50400001928E-02 0.  1.
       -1    1    3    3    0  502  0.15902346420E+03  0.11669623581E+04  0.73123710068E+02  0.11800155441E+04  0.50400001928E-02 0. -1.
</event>
<event>
 5   0  0.8122088E-06  0.2911770E+04  0.7818609E-02  0.8269384E-01
        1   -1    0    0  501    0  0.00000000000E+00  0.00000000000E+00  0.10924370878E+04  0.10924370878E+04  0.50400001928E-02 0. -1.
       -1   -1    0    0    0  501  0.00000000000E+00  0.00000000000E+00 -0.19402504636E+04  0.19402504636E+04  0.50400001928E-02 0.  1.
    10030    2    1    2    0    0  0.00000000000E+00  0.00000000000E+00 -0.84781337581E+03  0.30326875514E+04  0.29117702973E+04 0.  0.
        1    1    3    3  502    0 -0.75686917819E+03  0.68794752519E+03  0.65520723583E+03  0.12146683795E+04  0.50400001928E-02 0. -1.
       -1    1    3    3    0  502  0.75686917819E+03 -0.68794752519E+03 -0.15030206116E+04  0.18180191719E+04  0.50400001928E-02 0.  1.
</event>
<event>
 5   0  0.8055928E-06  0.2854130E+04  0.7818609E-02  0.8286657E-01
        1   -1    0    0  501    0  0.00000000000E+00  0.00000000000E+00  0.20918151956E+04  0.20918151956E+04  0.50400001928E-02 0. -1.
       -1   -1    0    0    0  501  0.00000000000E+00  0.00000000000E+00 -0.97356331313E+03  0.97356331315E+03  0.50400001928E-02 0.  1.
    10030    2    1    2    0    0  0.00000000000E+00  0.00000000000E+00  0.11182518825E+04  0.30653785088E+04  0.28541300127E+04 0.  0.
        2    1    3    3  502    0  0.56008464599E+03  0.12678053400E+04  0.19413565330E+03  0.13995405827E+04  0.25500000920E-02 0.  1.
       -2    1    3    3    0  502 -0.56008464599E+03 -0.12678053400E+04  0.92411622918E+03  0.16658379260E+04  0.25500000920E-02 0. -1.
</event>
<event>
 5   0  0.1829810E-05  0.2923773E+04  0.7818609E-02  0.8265839E-01
       -2   -1    0    0    0  501  0.00000000000E+00  0.00000000000E+00  0.14969986320E+04  0.14969986320E+04  0.25500000920E-02 0. -1.
        2   -1    0    0  501    0  0.00000000000E+00  0.00000000000E+00 -0.14275982111E+04  0.14275982111E+04  0.25500000920E-02 0.  1.
    10030    2    1    2    0    0  0.00000000000E+00  0.00000000000E+00  0.69400420958E+02  0.29245968431E+04  0.29237732943E+04 0.  0.
        4    1    3    3  502    0 -0.13421006138E+04  0.26808530447E+03 -0.47926079646E+03  0.14501021729E+04  0.12699999809E+01 0.  1.
       -4    1    3    3    0  502  0.13421006138E+04 -0.26808530447E+03  0.54866121742E+03  0.14744946702E+04  0.12699999809E+01 0. -1.
</event>
<event>
 5   0  0.1960961E-05  0.2799387E+04  0.7818609E-02  0.8303459E-01
       -2   -1    0    0    0  501  0.00000000000E+00  0.00000000000E+00  0.14258054035E+04  0.14258054035E+04  0.25500000920E-02 0. -1.
        2   -1    0    0  501    0  0.00000000000E+00  0.00000000000E+00 -0.13740597235E+04  0.13740597235E+04  0.25500000920E-02 0.  1.
    10030    2    1    2    0    0  0.00000000000E+00  0.00000000000E+00  0.51745680002E+02  0.27998651269E+04  0.27993869174E+04 0.  0.
        5    1    3    3  502    0 -0.18158672014E+03 -0.12846601202E+04  0.55112379048E+03  0.14096399838E+04  0.46999998093E+01 0. -1.
       -5    1    3    3    0  502  0.18158672014E+03  0.12846601202E+04 -0.49937811047E+03  0.13902251431E+04  0.46999998093E+01 0.  1.
</event>
<event>
 5   0  0.1829810E-05  0.2851976E+04  0.7818609E-02  0.8287311E-01
        2   -1    0    0  501    0  0.00000000000E+00  0.00000000000E+00  0.14809199456E+04  0.14809199456E+04  0.25500000920E-02 0.  1.
       -2   -1    0    0    0  501  0.00000000000E+00  0.00000000000E+00 -0.13730940290E+04  0.13730940290E+04  0.25500000920E-02 0. -1.
    10030    2    1    2    0    0  0.00000000000E+00  0.00000000000E+00  0.10782591661E+03  0.28540139747E+04  0.28519763918E+04 0.  0.
        4    1    3    3  502    0 -0.28854370188E+03  0.62934772824E+03  0.13014409667E+04  0.14741391500E+04  0.12699999809E+01 0.  1.
       -4    1    3    3    0  502  0.28854370188E+03 -0.62934772824E+03 -0.11936150501E+04  0.13798748246E+04  0.12699999809E+01 0. -1.
</event>
<event>
 5   0  0.1918901E-05  0.2911547E+04  0.7818609E-02  0.8269450E-01
       -2   -1    0    0    0  501  0.00000000000E+00  0.00000000000E+00  0.23246937748E+04  0.23246937748E+04  0.25500000920E-02 0.  1.
        2   -1    0    0  501    0  0.00000000000E+00  0.00000000000E+00 -0.91163707415E+03  0.91163707415E+03  0.25500000920E-02 0. -1.
    10030    2    1    2    0    0  0.00000000000E+00  0.00000000000E+00  0.14130567006E+04  0.32363308489E+04  0.29115473763E+04 0.  0.
        1    1    3    3  502    0 -0.10142417211E+04  0.98014145094E+03  0.11071700877E+04  0.17930948486E+04  0.50400001928E-02 0. -1.
       -1    1    3    3    0  502  0.10142417211E+04 -0.98014145094E+03  0.30588661288E+03  0.14432360004E+04  0.50400001928E-02 0.  1.
</event>
<event>
 5   0  0.1960961E-05  0.2879168E+04  0.7818609E-02  0.8279103E-01
       -2   -1    0    0    0  501  0.00000000000E+00  0.00000000000E+00  0.91101513337E+03  0.91101513338E+03  0.25500000920E-02 0.  1.
        2   -1    0    0  501    0  0.00000000000E+00  0.00000000000E+00 -0.22748270793E+04  0.22748270793E+04  0.25500000920E-02 0. -1.
    10030    2    1    2    0    0  0.00000000000E+00  0.00000000000E+00 -0.13638119460E+04  0.31858422127E+04  0.28791678625E+04 0.  0.
        5    1    3    3  502    0 -0.14346468610E+04  0.74913871039E+02 -0.57955423208E+03  0.15491058394E+04  0.46999998093E+01 0. -1.
       -5    1    3    3    0  502  0.14346468610E+04 -0.74913871039E+02 -0.78425771387E+03  0.16367363733E+04  0.46999998093E+01 0.  1.
</event>
<event>
 5   0  0.1937947E-05  0.2755879E+04  0.7818609E-02  0.8317098E-01
       -2   -1    0    0    0  501  0.00000000000E+00  0.00000000000E+00  0.11412815013E+04  0.11412815013E+04  0.25500000920E-02 0. -1.
        2   -1    0    0  501    0  0.00000000000E+00  0.00000000000E+00 -0.16636716298E+04  0.16636716298E+04  0.25500000920E-02 0.  1.
    10030    2    1    2    0    0  0.00000000000E+00  0.00000000000E+00 -0.52239012848E+03  0.28049531311E+04  0.27558792828E+04 0.  0.
        3    1    3    3  502    0  0.36831346748E+03  0.83830076015E+03 -0.13092469989E+04  0.15976641353E+04  0.10100000352E+00 0.  1.
       -3    1    3    3    0  502 -0.36831346748E+03 -0.83830076015E+03  0.78685687040E+03  0.12072889958E+04  0.10100000352E+00 0. -1.
</event>
<event>
 5   0  0.1829810E-05  0.2998186E+04  0.7818609E-02  0.8244249E-01
       -2   -1    0    0    0  501  0.00000000000E+00  0.00000000000E+00  0.14954473059E+04  0.14954473059E+04  0.25500000920E-02 0. -1.
        2   -1    0    0  501    0  0.00000000000E+00  0.00000000000E+00 -0.15027470849E+04  0.15027470849E+04  0.25500000920E-02 0.  1.
    10030    2    1    2    0    0  0.00000000000E+00  0.00000000000E+00 -0.72997789915E+01  0.29981943908E+04  0.29981855043E+04 0.  0.
        4    1    3    3  502    0  0.31361597732E+03  0.71927657173E+03  0.12736806748E+04  0.14959872467E+04  0.12699999809E+01 0. -1.
       -4    1    3    3    0  502 -0.31361597732E+03 -0.71927657173E+03 -0.12809804538E+04  0.15022071441E+04  0.12699999809E+01 0.  1.
</event>
<event>
 5   0  0.8234888E-06  0.2895602E+04  0.7818609E-02  0.8274187E-01
        1   -1    0    0  501    0  0.00000000000E+00  0.00000000000E+00  0.17684074418E+04  0.17684074418E+04  0.50400001928E-02 0.  1.
       -1   -1    0    0    0  501  0.00000000000E+00  0.00000000000E+00 -0.11853196444E+04  0.11853196444E+04  0.50400001928E-02 0. -1.
    10030    2    1    2    0    0  0.00000000000E+00  0.00000000000E+00  0.58308779736E+03  0.29537270862E+04  0.28956022380E+04 0.  0.
        3    1    3    3  502    0  0.79716297268E+03  0.78020300811E+03  0.12330792088E+04  0.16627296486E+04  0.10100000352E+00 0.  1.
       -3    1    3    3    0  502 -0.79716297268E+03 -0.78020300811E+03 -0.64999141144E+03  0.12909974377E+04  0.10100000352E+00 0. -1.
</event>
<event>
 5   0  0.8055928E-06  0.1935895E+04  0.7818609E-02  0.8637192E-01
        1   -1    0    0  501    0  0.00000000000E+00  0.00000000000E+00  0.94535319783E+03  0.94535319784E+03  0.50400001928E-02 0. -1.
       -1   -1    0    0    0  501  0.00000000000E+00  0.00000000000E+00 -0.99108224157E+03  0.99108224158E+03  0.50400001928E-02 0.  1.
    10030    2    1    2    0    0  0.00000000000E+00  0.00000000000E+00 -0.45729043742E+02  0.19364354394E+04  0.19358954170E+04 0.  0.
        2    1    3    3  502    0  0.13942342149E+03  0.17372338771E+03 -0.96509547047E+03  0.99046856236E+03  0.25500000920E-02 0.  1.
       -2    1    3    3    0  502 -0.13942342149E+03 -0.17372338771E+03  0.91936642673E+03  0.94596687706E+03  0.25500000920E-02 0. -1.
</event>
<event>
 5   0  0.7971153E-06  0.1455276E+04  0.7818609E-02  0.8914751E-01
       -1   -1    0    0    0  501  0.00000000000E+00  0.00000000000E+00  0.70794146419E+03  0.70794146420E+03  0.50400001928E-02 0.  1.
        1   -1    0    0  501    0  0.00000000000E+00  0.00000000000E+00 -0.74788249090E+03  0.74788249092E+03  0.50400001928E-02 0. -1.
    10030    2    1    2    0    0  0.00000000000E+00  0.00000000000E+00 -0.39941026716E+02  0.14558239551E+04  0.14552759541E+04 0.  0.
        5    1    3    3  502    0 -0.28026079352E+03  0.65858254156E+03  0.11106682350E+03  0.72431692354E+03  0.46999998093E+01 0.  1.
       -5    1    3    3    0  502  0.28026079352E+03 -0.65858254156E+03 -0.15100785021E+03  0.73150703159E+03  0.46999998093E+01 0. -1.
</event>
<event>
 5   0  0.1829810E-05  0.2932097E+04  0.7818609E-02  0.8263391E-01
       -2   -1    0    0    0  501  0.00000000000E+00  0.00000000000E+00  0.16459130232E+04  0.16459130232E+04  0.25500000920E-02 0.  1.
        2   -1    0    0  501    0  0.00000000000E+00  0.00000000000E+00 -0.13058390386E+04  0.13058390386E+04  0.25500000920E-02 0. -1.
    10030    2    1    2    0    0  0.00000000000E+00  0.00000000000E+00  0.34007398465E+03  0.29517520618E+04  0.29320965058E+04 0.  0.
        4    1    3    3  502    0 -0.28960919931E+02 -0.87262470485E+02 -0.13029332156E+04  0.13061738211E+04  0.12699999809E+01 0. -1.
       -4    1    3    3    0  502  0.28960919931E+02  0.87262470485E+02  0.16430072002E+04  0.16455782408E+04  0.12699999809E+01 0.  1.
</event>
<event>
 5   0  0.8122088E-06  0.2862871E+04  0.7818609E-02  0.8284011E-01
       -1   -1    0    0    0  501  0.00000000000E+00  0.00000000000E+00  0.90072051909E+03  0.90072051910E+03  0.50400001928E-02 0. -1.
        1   -1    0    0  501    0  0.00000000000E+00  0.00000000000E+00 -0.22748546337E+04  0.22748546337E+04  0.50400001928E-02 0.  1.
    10030    2    1    2    0    0  0.00000000000E+00  0.00000000000E+00 -0.13741341147E+04  0.31755751528E+04  0.28628714582E+04 0.  0.
        1    1    3    3  502    0  0.10765735747E+03 -0.14218907913E+04 -0.82580792571E+03  0.16478234915E+04  0.50400001928E-02 0.  1.
       -1    1    3    3    0  502 -0.10765735747E+03  0.14218907913E+04 -0.54832618894E+03  0.15277516613E+04  0.50400001928E-02 0. -1.
</event>
<event>
 5   0  0.7971153E-06  0.2857175E+04  0.7818609E-02  0.8285734E-01
       -1   -1    0    0    0  501  0.00000000000E+00  0.00000000000E+00  0.29270972445E+04  0.29270972445E+04  0.50400001928E-02 0. -1.
        1   -1    0    0  501    0  0.00000000000E+00  0.00000000000E+00 -0.69723087163E+03  0.69723087165E+03  0.50400001928E-02 0.  1.
    10030    2    1    2    0    0  0.00000000000E+00  0.00000000000E+00  0.22298663729E+04  0.36243281161E+04  0.28571752226E+04 0.  0.
        5    1    3    3  502    0  0.11903641925E+04 -0.46676788178E+03  0.30666711531E+03  0.13148786925E+04  0.46999998093E+01 0.  1.
       -5    1    3    3    0  502 -0.11903641925E+04  0.46676788178E+03  0.19231992576E+04  0.23094494237E+04  0.46999998093E+01 0. -1.
</event>
<event>
 5   0  0.8122088E-06  0.2862496E+04  0.7818609E-02  0.8284124E-01
       -1   -1    0    0    0  501  0.00000000000E+00  0.00000000000E+00  0.84354450398E+03  0.84354450399E+03  0.50400001928E-02 0.  1.
        1   -1    0    0  501    0  0.00000000000E+00  0.00000000000E+00 -0.24284085111E+04  0.24284085111E+04  0.50400001928E-02 0. -1.
    10030    2    1    2    0    0  0.00000000000E+00  0.00000000000E+00 -0.15848640071E+04  0.32719530151E+04  0.28624958711E+04 0.  0.
        1    1    3    3  502    0 -0.68418404160E+03  0.98823947820E+03 -0.16805878383E+04  0.20661801837E+04  0.50400001928E-02 0. -1.
       -1    1    3    3    0  502  0.68418404160E+03 -0.98823947820E+03  0.95723831219E+02  0.12057728314E+04  0.50400001928E-02 0.  1.
</event>
<event>
 5   0  0.8055928E-06  0.3013628E+04  0.7818609E-02  0.8239850E-01
       -1   -1    0    0    0  501  0.00000000000E+00  0.00000000000E+00  0.12403761739E+04  0.12403761739E+04  0.50400001928E-02 0.  1.
        1   -1    0    0  501    0  0.00000000000E+00  0.00000000000E+00 -0.18304843245E+04  0.18304843245E+04  0.50400001928E-02 0. -1.
    10030    2    1    2    0    0  0.00000000000E+00  0.00000000000E+00 -0.59010815060E+03  0.30708604983E+04  0.30136284726E+04 0.  0.
        2    1    3    3  502    0  0.10362435950E+04  0.98469237826E+03  0.19051337227E+03  0.14421217747E+04  0.25500000920E-02 0.  1.
       -2    1    3    3    0  502 -0.10362435950E+04 -0.98469237826E+03 -0.78062152287E+03  0.16287387237E+04  0.25500000920E-02 0. -1.
</event>
<event>
 5   0  0.1960961E-05  0.2925942E+04  0.7818609E-02  0.8265201E-01
        2   -1    0    0  501    0  0.00000000000E+00  0.00000000000E+00  0.15232120745E+04  0.15232120745E+04  0.25500000920E-02 0. -1.
       -2   -1    0    0    0  501  0.00000000000E+00  0.00000000000E+00 -0.14051123404E+04  0.14051123404E+04  0.25500000920E-02 0.  1.
    10030    2    1    2    0    0  0.00000000000E+00  0.00000000000E+00  0.11809973403E+03  0.29283244149E+04  0.29259419563E+04 0.  0.
        5    1    3    3  502    0  0.49735373306E+03 -0.61194835274E+03 -0.11741955408E+04  0.14144252473E+04  0.46999998093E+01 0.  1.
       -5    1    3    3    0  502 -0.49735373306E+03  0.61194835274E+03  0.12922952749E+04  0.15138991676E+04  0.46999998093E+01 0. -1.
</event>
<event>
 5   0  0.1829810E-05  0.2918794E+04  0.7818609E-02  0.8267308E-01
        2   -1    0    0  501    0  0.00000000000E+00  0.00000000000E+00  0.26970480816E+04  0.26970480816E+04  0.25500000920E-02 0.  1.
       -2   -1    0    0    0  501  0.00000000000E+00  0.00000000000E+00 -0.78969291691E+03  0.78969291691E+03  0.25500000920E-02 0. -1.
    10030    2    1    2    0    0  0.00000000000E+00  0.00000000000E+00  0.19073551647E+04  0.34867409986E+04  0.29187941117E+04 0.  0.
        4    1    3    3  502    0 -0.62929877476E+03  0.72830397593E+03  0.22641269406E+04  0.24602268280E+04  0.12699999809E+01 0.  1.
       -4    1    3    3    0  502  0.62929877476E+03 -0.72830397593E+03 -0.35677177589E+03  0.10265141705E+04  0.12699999809E+01 0. -1.
</event>
<event>
 5   0  0.8234888E-06  0.2989476E+04  0.7818609E-02  0.8246742E-01
       -1   -1    0    0    0  501  0.00000000000E+00  0.00000000000E+00  0.10428278851E+04  0.10428278851E+04  0.50400001928E-02 0.  1.
        1   -1    0    0  501    0  0.00000000000E+00  0.00000000000E+00 -0.21424839976E+04  0.21424839976E+04  0.50400001928E-02 0. -1.
    10030    2    1    2    0    0  0.00000000000E+00  0.00000000000E+00 -0.10996561125E+04  0.31853118827E+04  0.29894762458E+04 0.  0.
        3    1    3    3  502    0  0.13936607306E+04  0.73576370028E+02 -0.11201869510E+04  0.17895593116E+04  0.10100000352E+00 0.  1.
       -3    1    3    3    0  502 -0.13936607306E+04 -0.73576370028E+02  0.20530838565E+02  0.13957525711E+04  0.10100000352E+00 0. -1.
</event>
<event>
 5   0  0.8055928E-06  0.2871129E+04  0.7818609E-02  0.8281520E-01
        1   -1    0    0  501    0  0.00000000000E+00  0.00000000000E+00  0.21577364844E+04  0.21577364844E+04  0.50400001928E-02 0. -1.
       -1   -1    0    0    0  501  0.00000000000E+00  0.00000000000E+00 -0.95509584548E+03  0.95509584549E+03  0.50400001928E-02 0.  1.
    10030    2    1    2    0    0  0.00000000000E+00  0.00000000000E+00  0.12026406389E+04  0.31128323299E+04  0.28711288038E+04 0.  0.
        2    1    3    3  502    0 -0.61246757982E+03 -0.12927252800E+04  0.73227776384E+03  0.16070114839E+04  0.25500000920E-02 0.  1.
       -2    1    3    3    0  502  0.61246757982E+03  0.12927252800E+04  0.47036287510E+03  0.15058208460E+04  0.25500000920E-02 0. -1.
</event>
<event>
 5   0  0.1829810E-05  0.2263003E+04  0.7818609E-02  0.8492653E-01
        2   -1    0    0  501    0  0.00000000000E+00  0.00000000000E+00  0.98711652561E+03  0.98711652561E+03  0.25500000920E-02 0. -1.
       -2   -1    0    0    0  501  0.00000000000E+00  0.00000000000E+00 -0.12970053350E+04  0.12970053350E+04  0.25500000920E-02 0.  1.
    10030    2    1    2    0    0  0.00000000000E+00  0.00000000000E+00 -0.30988880943E+03  0.22841218606E+04  0.22630027839E+04 0.  0.
        4    1    3    3  502    0 -0.32242308670E+03  0.38287314867E+03  0.86928936254E+03  0.10031022398E+04  0.12699999809E+01 0. -1.
       -4    1    3    3    0  502  0.32242308670E+03 -0.38287314867E+03 -0.11791781720E+04  0.12810196208E+04  0.12699999809E+01 0.  1.
</event>
<event>
 5   0  0.8122088E-06  0.2782588E+04  0.7818609E-02  0.8308695E-01
       -1   -1    0    0    0  501  0.00000000000E+00  0.00000000000E+00  0.12613927330E+04  0.12613927330E+04  0.50400001928E-02 0.  1.
        1   -1    0    0  501    0  0.00000000000E+00  0.00000000000E+00 -0.15345723503E+04  0.15345723503E+04  0.50400001928E-02 0. -1.
    10030    2    1    2    0    0  0.00000000000E+00  0.00000000000E+00 -0.27317961730E+03  0.27959650832E+04  0.27825875805E+04 0.  0.
        1    1    3    3  502    0  0.12870963498E+04  0.28180904648E+03 -0.58557698377E+03  0.14418508093E+04  0.50400001928E-02 0. -1.
       -1    1    3    3    0  502 -0.12870963498E+04 -0.28180904648E+03  0.31239736647E+03  0.13541142739E+04  0.50400001928E-02 0.  1.
</event>
<event>
 5   0  0.1829810E-05  0.2819697E+04  0.7818609E-02  0.8297179E-01
        2   -1    0    0  501    0  0.00000000000E+00  0.00000000000E+00  0.18820927319E+04  0.18820927319E+04  0.25500000920E-02 0. -1.
       -2   -1    0    0    0  501  0.00000000000E+00  0.00000000000E+00 -0.10560973515E+04  0.10560973515E+04  0.25500000920E-02 0.  1.
    10030    2    1    2    0    0  0.00000000000E+00  0.00000000000E+00  0.82599538043E+03  0.29381900835E+04  0.28196972529E+04 0.  0.
        4    1    3    3  502    0 -0.11850314124E+04 -0.15246128411E+03 -0.36686997013E+03  0.12498556234E+04  0.12699999809E+01 0.  1.
       -4    1    3    3    0  502  0.11850314124E+04  0.15246128411E+03  0.11928653506E+04  0.16883344600E+04  0.12699999809E+01 0. -1.
</event>
<event>
 5   0  0.8122088E-06  0.2740209E+04  0.7818609E-02  0.8322075E-01
       -1   -1    0    0    0  501  0.00000000000E+00  0.00000000000E+00  0.81109608906E+03  0.81109608908E+03  0.50400001928E-02 0. -1.
        1   -1    0    0  501    0  0.00000000000E+00  0.00000000000E+00 -0.23143817492E+04  0.23143817492E+04  0.50400001928E-02 0.  1.
    10030    2    1    2    0    0  0.00000000000E+00  0.00000000000E+00 -0.15032856602E+04  0.31254778383E+04  0.27402087405E+04 0.  0.
        1    1    3    3  502    0  0.42894304476E+03  0.12858757264E+04 -0.97895544780E+03  0.16720712569E+04  0.50400001928E-02 0. -1.
       -1    1    3    3    0  502 -0.42894304476E+03 -0.12858757264E+04 -0.52433021236E+03  0.14534065814E+04  0.50400001928E-02 0.  1.
</event>
<event>
 5   0  0.8122088E-06  0.2869118E+04  0.7818609E-02  0.8282125E-01
        1   -1    0    0  501    0  0.00000000000E+00  0.00000000000E+00  0.17329082980E+04  0.17329082980E+04  0.50400001928E-02 0.  1.
       -1   -1    0    0    0  501  0.00000000000E+00  0.00000000000E+00 -0.11875758147E+04  0.11875758147E+04  0.50400001928E-02 0. -1.
    10030    2    1    2    0    0  0.00000000000E+00  0.00000000000E+00  0.54533248331E+03  0.29204841127E+04  0.28691183201E+04 0.  0.
        1    1    3    3  502    0  0.90978248043E+03  0.51959903368E+03  0.12701450390E+04  0.16464980223E+04  0.50400001928E-02 0.  1.
       -1    1    3    3    0  502 -0.90978248043E+03 -0.51959903368E+03 -0.72481255566E+03  0.12739860903E+04  0.50400001928E-02 0. -1.
</event>
<event>
 5   0  0.1937947E-05  0.1441326E+04  0.7818609E-02  0.8924436E-01
       -2   -1    0    0    0  501  0.00000000000E+00  0.00000000000E+00  0.60444930605E+03  0.60444930605E+03  0.25500000920E-02 0.  1.
        2   -1    0    0  501    0  0.00000000000E+00  0.00000000000E+00 -0.85922079138E+03  0.85922079139E+03  0.25500000920E-02 0. -1.
    10030    2    1    2    0    0  0.00000000000E+00  0.00000000000E+00 -0.25477148534E+03  0.14636700974E+04  0.14413263490E+04 0.  0.
        3    1    3    3  502    0  0.38514732433E+02  0.71520168144E+03 -0.46408936801E+02  0.71773994550E+03  0.10100000352E+00 0. -1.
       -3    1    3    3    0  502 -0.38514732433E+02 -0.71520168144E+03 -0.20836254853E+03  0.74593015194E+03  0.10100000352E+00 0.  1.
</event>
<event>
 5   0  0.6578125E-06  0.2585483E+04  0.7818609E-02  0.8373149E-01
       -3   -1    0    0    0  501  0.00000000000E+00  0.00000000000E+00  0.16958643454E+04  0.16958643485E+04  0.10100000352E+00 0. -1.
        3   -1    0    0  501    0  0.00000000000E+00  0.00000000000E+00 -0.98544468038E+03  0.98544468555E+03  0.10100000352E+00 0.  1.
    10030    2    1    2    0    0  0.00000000000E+00  0.00000000000E+00  0.71041966507E+03  0.26813090340E+04  0.25854829404E+04 0.  0.
        2    1    3    3  502    0 -0.26903439677E+03  0.12532205423E+04  0.52948357715E+03  0.13868287900E+04  0.25500000920E-02 0. -1.
       -2    1    3    3    0  502  0.26903439677E+03 -0.12532205423E+04  0.18093608792E+03  0.12944802440E+04  0.25500000920E-02 0.  1.
</event>
<event>
 5   0  0.1937947E-05  0.2948529E+04  0.7818609E-02  0.8258583E-01
        2   -1    0    0  501    0  0.00000000000E+00  0.00000000000E+00  0.12999712797E+04  0.12999712797E+04  0.25500000920E-02 0.  1.
       -2   -1    0    0    0  501  0.00000000000E+00  0.00000000000E+00 -0.16719265880E+04  0.16719265880E+04  0.25500000920E-02 0. -1.
    10030    2    1    2    0    0  0.00000000000E+00  0.00000000000E+00 -0.37195530833E+03  0.29718978677E+04  0.29485294953E+04 0.  0.
        3    1    3    3  502    0  0.80892445530E+02  0.14672936703E+04 -0.66879275377E+02  0.14710428785E+04  0.10100000352E+00 0.  1.
       -3    1    3    3    0  502 -0.80892445530E+02 -0.14672936703E+04 -0.30507603295E+03  0.15008549892E+04  0.10100000352E+00 0. -1.
</event>
<event>
 5   0  0.1829810E-05  0.2909902E+04  0.7818609E-02  0.8269938E-01
        2   -1    0    0  501    0  0.00000000000E+00  0.00000000000E+00  0.20625623317E+04  0.20625623317E+04  0.25500000920E-02 0. -1.
       -2   -1    0    0    0  501  0.00000000000E+00  0.00000000000E+00 -0.10263359810E+04  0.10263359810E+04  0.25500000920E-02 0.  1.
    10030    2    1    2    0    0  0.00000000000E+00  0.00000000000E+00  0.10362263507E+04  0.30888983127E+04  0.29099016713E+04 0.  0.
        4    1    3    3  502    0  0.54789205893E+03  0.68452278040E+03  0.17506221347E+04  0.19579163967E+04  0.12699999809E+01 0. -1.
       -4    1    3    3    0  502 -0.54789205893E+03 -0.68452278040E+03 -0.71439578407E+03  0.11309819160E+04  0.12699999809E+01 0.  1.
</event>
<event>
 5   0  0.1918901E-05  0.2920114E+04  0.7818609E-02  0.8266918E-01
        2   -1    0    0  501    0  0.00000000000E+00  0.00000000000E+00  0.18936904606E+04  0.18936904606E+04  0.25500000920E-02 0. -1.
       -2   -1    0    0    0  501  0.00000000000E+00  0.00000000000E+00 -0.11257206645E+04  0.11257206645E+04  0.25500000920E-02 0.  1.
    10030    2    1    2    0    0  0.00000000000E+00  0.00000000000E+00  0.76796979603E+03  0.30194111251E+04  0.29201140277E+04 0.  0.
        1    1    3    3  502    0  0.84349432047E+03  0.72893631813E+03  0.13588793622E+04  0.17576643439E+04  0.50400001928E-02 0. -1.
       -1    1    3    3    0  502 -0.84349432047E+03 -0.72893631813E+03 -0.59090956619E+03  0.12617467813E+04  0.50400001928E-02 0.  1.
</event>
<event>
 5   0  0.1918901E-05  0.2910120E+04  0.7818609E-02  0.8269873E-01
       -2   -1    0    0    0  501  0.00000000000E+00  0.00000000000E+00  0.30668642410E+04  0.30668642410E+04  0.25500000920E-02 0.  1.
        2   -1    0    0  501    0  0.00000000000E+00  0.00000000000E+00 -0.69034663293E+03  0.69034663294E+03  0.25500000920E-02 0. -1.
    10030    2    1    2    0    0  0.00000000000E+00  0.00000000000E+00  0.23765176081E+04  0.37572108740E+04  0.29101198618E+04 0.  0.
        1    1    3    3  502    0  0.32401674519E+03  0.97486418627E+03 -0.14215506570E+03  0.10370897240E+04  0.50400001928E-02 0. -1.
       -1    1    3    3    0  502 -0.32401674519E+03 -0.97486418627E+03  0.25186726738E+04  0.27201211500E+04  0.50400001928E-02 0.  1.
</event>
<event>
 5   0  0.8055928E-06  0.3007354E+04  0.7818609E-02  0.8241634E-01
       -1   -1    0    0    0  501  0.00000000000E+00  0.00000000000E+00  0.11820333637E+04  0.11820333637E+04  0.50400001928E-02 0.  1.
        1   -1    0    0  501    0  0.00000000000E+00  0.00000000000E+00 -0.19128431702E+04  0.19128431702E+04  0.50400001928E-02 0. -1.
    10030    2    1    2    0    0  0.00000000000E+00  0.00000000000E+00 -0.73080980651E+03  0.30948765340E+04  0.30073539511E+04 0.  0.
        2    1    3    3  502    0  0.68202099896E+03 -0.11163659840E+04 -0.11283434713E+04  0.17275950458E+04  0.25500000920E-02 0. -1.
       -2    1    3    3    0  502 -0.68202099896E+03  0.11163659840E+04  0.39753366479E+03  0.13672814881E+04  0.25500000920E-02 0.  1.
</event>
<event>
 5   0  0.7305460E-06  0.1718494E+04  0.7818609E-02  0.8750886E-01
       -1   -1    0    0    0  501  0.00000000000E+00  0.00000000000E+00  0.47214142064E+03  0.47214142066E+03  0.50400001928E-02 0. -1.
        1   -1    0    0  501    0  0.00000000000E+00  0.00000000000E+00 -0.15637378569E+04  0.15637378569E+04  0.50400001928E-02 0.  1.
    10030    2    1    2    0    0  0.00000000000E+00  0.00000000000E+00 -0.10915964362E+04  0.20358792775E+04  0.17184940073E+04 0.  0.
        4    1    3    3  502    0  0.85773508007E+03  0.48043452789E+01 -0.60587079229E+03  0.10501493128E+04  0.12699999809E+01 0. -1.
       -4    1    3    3    0  502 -0.85773508007E+03 -0.48043452789E+01 -0.48572564393E+03  0.98572996474E+03  0.12699999809E+01 0.  1.
</event>
<event>
 5   0  0.1960961E-05  0.2032507E+04  0.7818609E-02  0.8591572E-01
        2   -1    0    0  501    0  0.00000000000E+00  0.00000000000E+00  0.10711412137E+04  0.10711412137E+04  0.25500000920E-02 0. -1.
       -2   -1    0    0    0  501  0.00000000000E+00  0.00000000000E+00 -0.96417813921E+03  0.96417813922E+03  0.25500000920E-02 0.  1.
    10030    2    1    2    0    0  0.00000000000E+00  0.00000000000E+00  0.10696307449E+03  0.20353193529E+04  0.20325067697E+04 0.  0.
        5    1    3    3  502    0  0.11743587229E+03  0.24913704904E+02 -0.95704173078E+03  0.96455318217E+03  0.46999998093E+01 0.  1.
       -5    1    3    3    0  502 -0.11743587229E+03 -0.24913704904E+02  0.10640048053E+04  0.10707661707E+04  0.46999998093E+01 0. -1.
</event>
<event>
 5   0  0.8122088E-06  0.2240688E+04  0.7818609E-02  0.8501681E-01
       -1   -1    0    0    0  501  0.00000000000E+00  0.00000000000E+00  0.19007404583E+04  0.19007404583E+04  0.50400001928E-02 0.  1.
        1   -1    0    0  501    0  0.00000000000E+00  0.00000000000E+00 -0.66035869338E+03  0.66035869340E+03  0.50400001928E-02 0. -1.
    10030    2    1    2    0    0  0.00000000000E+00  0.00000000000E+00  0.12403817649E+04  0.25610991517E+04  0.22406878279E+04 0.  0.
        1    1    3    3  502    0 -0.10576272399E+04 -0.35060561119E+03  0.75383264633E+03  0.13452744448E+04  0.50400001928E-02 0.  1.
       -1    1    3    3    0  502  0.10576272399E+04  0.35060561119E+03  0.48654911856E+03  0.12158247069E+04  0.50400001928E-02 0. -1.
</event>
<event>
 5   0  0.7305460E-06  0.2835235E+04  0.7818609E-02  0.8292412E-01
       -1   -1    0    0    0  501  0.00000000000E+00  0.00000000000E+00  0.94996131005E+03  0.94996131006E+03  0.50400001928E-02 0.  1.
        1   -1    0    0  501    0  0.00000000000E+00  0.00000000000E+00 -0.21154964178E+04  0.21154964178E+04  0.50400001928E-02 0. -1.
    10030    2    1    2    0    0  0.00000000000E+00  0.00000000000E+00 -0.11655351077E+04  0.30654577279E+04  0.28352352625E+04 0.  0.
        4    1    3    3  502    0  0.13973322440E+04  0.23786572573E+03 -0.60743769741E+03  0.15421088394E+04  0.12699999809E+01 0. -1.
       -4    1    3    3    0  502 -0.13973322440E+04 -0.23786572573E+03 -0.55809741034E+03  0.15233488884E+04  0.12699999809E+01 0.  1.
</event>
<event>
 5   0  0.7971153E-06  0.2963623E+04  0.7818609E-02  0.8254195E-01
       -1   -1    0    0    0  501  0.00000000000E+00  0.00000000000E+00  0.14891202455E+04  0.14891202455E+04  0.50400001928E-02 0.  1.
        1   -1    0    0  501    0  0.00000000000E+00  0.00000000000E+00 -0.14745390613E+04  0.14745390613E+04  0.50400001928E-02 0. -1.
    10030    2    1    2    0    0  0.00000000000E+00  0.00000000000E+00  0.14581184177E+02  0.29636593069E+04  0.29636234370E+04 0.  0.
        5    1    3    3  502    0  0.98253904319E+03 -0.39198478920E+03  0.10449489639E+04  0.14869349258E+04  0.46999998093E+01 0.  1.
       -5    1    3    3    0  502 -0.98253904319E+03  0.39198478920E+03 -0.10303677797E+04  0.14767243811E+04  0.46999998093E+01 0. -1.
</event>
<event>
 5   0  0.1829810E-05  0.2886154E+04  0.7818609E-02  0.8277009E-01
       -2   -1    0    0    0  501  0.00000000000E+00  0.00000000000E+00  0.15832577284E+04  0.15832577284E+04  0.25500000920E-02 0.  1.
        2   -1    0    0  501    0  0.00000000000E+00  0.00000000000E+00 -0.13153080841E+04  0.13153080841E+04  0.25500000920E-02 0. -1.
    10030    2    1    2    0    0  0.00000000000E+00  0.00000000000E+00  0.26794964430E+03  0.28985658125E+04  0.28861543198E+04 0.  0.
        4    1    3    3  502    0 -0.79832392511E+02 -0.96413692273E+02 -0.13098449214E+04  0.13158131106E+04  0.12699999809E+01 0. -1.
       -4    1    3    3    0  502  0.79832392511E+02  0.96413692273E+02  0.15777945657E+04  0.15827527019E+04  0.12699999809E+01 0.  1.
</event>
<event>
 5   0  0.8122088E-06  0.2894400E+04  0.7818609E-02  0.8274545E-01
       -1   -1    0    0    0  501  0.00000000000E+00  0.00000000000E+00  0.13953842552E+04  0.13953842552E+04  0.50400001928E-02 0.  1.
        1   -1    0    0  501    0  0.00000000000E+00  0.00000000000E+00 -0.15009403269E+04  0.15009403269E+04  0.50400001928E-02 0. -1.
    10030    2    1    2    0    0  0.00000000000E+00  0.00000000000E+00 -0.10555607164E+03  0.28963245821E+04  0.28944004562E+04 0.  0.
        1    1    3    3  502    0  0.34093991089E+03 -0.13212328250E+04  0.42971705468E+03  0.14305778371E+04  0.50400001928E-02 0.  1.
       -1    1    3    3    0  502 -0.34093991089E+03  0.13212328250E+04 -0.53527312632E+03  0.14657467450E+04  0.50400001928E-02 0. -1.
</event>
<event>
 5   0  0.1976233E-05  0.2880744E+04  0.7818609E-02  0.8278630E-01
       -2   -1    0    0    0  501  0.00000000000E+00  0.00000000000E+00  0.86752200758E+03  0.86752200758E+03  0.25500000920E-02 0. -1.
        2   -1    0    0  501    0  0.00000000000E+00  0.00000000000E+00 -0.23914908967E+04  0.23914908967E+04  0.25500000920E-02 0.  1.
    10030    2    1    2    0    0  0.00000000000E+00  0.00000000000E+00 -0.15239688891E+04  0.32590129042E+04  0.28807436427E+04 0.  0.
        2    1    3    3  502    0 -0.86207276730E+03  0.73630732113E+03 -0.17671025947E+04  0.20995164937E+04  0.25500000920E-02 0.  1.
       -2    1    3    3    0  502  0.86207276730E+03 -0.73630732113E+03  0.24313370557E+03  0.11594964105E+04  0.25500000920E-02 0. -1.
</event>
<event>
 5   0  0.1960961E-05  0.2931003E+04  0.7818609E-02  0.8263713E-01
       -2   -1    0    0    0  501  0.00000000000E+00  0.00000000000E+00  0.13711853939E+04  0.13711853939E+04  0.25500000920E-02 0. -1.
        2   -1    0    0  501    0  0.00000000000E+00  0.00000000000E+00 -0.15663046339E+04  0.15663046339E+04  0.25500000920E-02 0.  1.
    10030    2    1    2    0    0  0.00000000000E+00  0.00000000000E+00 -0.19511924002E+03  0.29374900278E+04  0.29310025837E+04 0.  0.
        5    1    3    3  502    0  0.10540004394E+04  0.78187134121E+03 -0.75125496411E+03  0.15121659405E+04  0.46999998093E+01 0.  1.
       -5    1    3    3    0  502 -0.10540004394E+04 -0.78187134121E+03  0.55613572409E+03  0.14253240874E+04  0.46999998093E+01 0. -1.
</event>
<event>
 5   0  0.8234888E-06  0.2874872E+04  0.7818609E-02  0.8280393E-01
       -1   -1    0    0    0  501  0.00000000000E+00  0.00000000000E+00  0.99285590564E+03  0.99285590566E+03  0.50400001928E-02 0.  1.
        1   -1    0    0  501    0  0.00000000000E+00  0.00000000000E+00 -0.20810898816E+04  0.20810898816E+04  0.50400001928E-02 0. -1.
    10030    2    1    2    0    0  0.00000000000E+00  0.00000000000E+00 -0.10882339760E+04  0.30739457873E+04  0.28748720870E+04 0.  0.
        3    1    3    3  502    0  0.28261840581E+03 -0.14034589973E+04 -0.68209551797E+03  0.15858198593E+04  0.10100000352E+00 0. -1.
       -3    1    3    3    0  502 -0.28261840581E+03  0.14034589973E+04 -0.40613845802E+03  0.14881259280E+04  0.10100000352E+00 0.  1.
</event>
<event>
 5   0  0.7971153E-06  0.2831292E+04  0.7818609E-02  0.8293619E-01
        1   -1    0    0  501    0  0.00000000000E+00  0.00000000000E+00  0.19481535175E+04  0.19481535175E+04  0.50400001928E-02 0.  1.
       -1   -1    0    0    0  501  0.00000000000E+00  0.00000000000E+00 -0.10286935972E+04  0.10286935972E+04  0.50400001928E-02 0. -1.
    10030    2    1    2    0    0  0.00000000000E+00  0.00000000000E+00  0.91945992024E+03  0.29768471147E+04  0.28312916133E+04 0.  0.
        5    1    3    3  502    0  0.69222225653E+03 -0.24300926002E+03 -0.81321652757E+03  0.10952480831E+04  0.46999998093E+01 0. -1.
       -5    1    3    3    0  502 -0.69222225653E+03  0.24300926002E+03  0.17326764478E+04  0.18815990316E+04  0.46999998093E+01 0.  1.
</event>
<event>
 5   0  0.1976233E-05  0.3010416E+04  0.7818609E-02  0.8240763E-01
        2   -1    0    0  501    0  0.00000000000E+00  0.00000000000E+00  0.20850203160E+04  0.20850203160E+04  0.25500000920E-02 0.  1.
       -2   -1    0    0    0  501  0.00000000000E+00  0.00000000000E+00 -0.10866323543E+04  0.10866323543E+04  0.25500000920E-02 0. -1.
    10030    2    1    2    0    0  0.00000000000E+00  0.00000000000E+00  0.99838796170E+03  0.31716526703E+04  0.30104156090E+04 0.  0.
        2    1    3    3  502    0 -0.49976644758E+03  0.10745778393E+04  0.14768874806E+04  0.18935893603E+04  0.25500000920E-02 0.  1.
       -2    1    3    3    0  502  0.49976644758E+03 -0.10745778393E+04 -0.47849951893E+03  0.12780633100E+04  0.25500000920E-02 0. -1.
</event>
<event>
 5   0  0.7305460E-06  0.2915286E+04  0.7818609E-02  0.8268344E-01
        1   -1    0    0  501    0  0.00000000000E+00  0.00000000000E+00  0.14596382299E+04  0.14596382299E+04  0.50400001928E-02 0. -1.
       -1   -1    0    0    0  501  0.00000000000E+00  0.00000000000E+00 -0.14556501386E+04  0.14556501386E+04  0.50400001928E-02 0.  1.
    10030    2    1    2    0    0  0.00000000000E+00  0.00000000000E+00  0.39880912974E+01  0.29152883684E+04  0.29152856406E+04 0.  0.
        4    1    3    3  502    0 -0.11795831314E+04 -0.66222134410E+02 -0.85177442865E+03  0.14564762357E+04  0.12699999809E+01 0.  1.
       -4    1    3    3    0  502  0.11795831314E+04  0.66222134410E+02  0.85576251995E+03  0.14588121327E+04  0.12699999809E+01 0. -1.
</event>
<event>
 5   0  0.1937947E-05  0.2988891E+04  0.7818609E-02  0.8246910E-01
        2   -1    0    0  501    0  0.00000000000E+00  0.00000000000E+00  0.14968333981E+04  0.14968333981E+04  0.25500000920E-02 0.  1.
       -2   -1    0    0    0  501  0.00000000000E+00  0.00000000000E+00 -0.14920609861E+04  0.14920609861E+04  0.25500000920E-02 0. -1.
    10030    2    1    2    0    0  0.00000000000E+00  0.00000000000E+00  0.47724120587E+01  0.29888943842E+04  0.29888905741E+04 0.  0.
        3    1    3    3  502    0 -0.40088206232E+03  0.91684310206E+03  0.11123691542E+04  0.14962195184E+04  0.10100000352E+00 0.  1.
       -3    1    3    3    0  502  0.40088206232E+03 -0.91684310206E+03 -0.11075967422E+04  0.14926748659E+04  0.10100000352E+00 0. -1.
</event>
<event>
 5   0  0.1960961E-05  0.2893527E+04  0.7818609E-02  0.8274806E-01
       -2   -1    0    0    0  501  0.00000000000E+00  0.00000000000E+00  0.78308359549E+03  0.78308359549E+03  0.25500000920E-02 0.  1.
        2   -1    0    0  501    0  0.00000000000E+00  0.00000000000E+00 -0.26729270540E+04  0.26729270540E+04  0.25500000920E-02 0. -1.
    10030    2    1    2    0    0  0.00000000000E+00  0.00000000000E+00 -0.18898434585E+04  0.34560106495E+04  0.28935274859E+04 0.  0.
        5    1    3    3  502    0 -0.42182640968E+03 -0.13712923620E+04 -0.11674862478E+04  0.18497098396E+04  0.46999998093E+01 0. -1.
       -5    1    3    3    0  502  0.42182640968E+03  0.13712923620E+04 -0.72235721068E+03  0.16063008099E+04  0.46999998093E+01 0.  1.
</event>
<event>
 5   0  0.1829810E-05  0.2885784E+04  0.7818609E-02  0.8277120E-01
        2   -1    0    0  501    0  0.00000000000E+00  0.00000000000E+00  0.18158574644E+04  0.18158574644E+04  0.25500000920E-02 0. -1.
       -2   -1    0    0    0  501  0.00000000000E+00  0.00000000000E+00 -0.11465310489E+04  0.11465310489E+04  0.25500000920E-02 0.  1.
    10030    2    1    2    0    0  0.00000000000E+00  0.00000000000E+00  0.66932641550E+03  0.29623885133E+04  0.28857837503E+04 0.  0.
        4    1    3    3  502    0 -0.32662235017E+03  0.11954311017E+04  0.10933336316E+04  0.16526093675E+04  0.12699999809E+01 0. -1.
       -4    1    3    3    0  502  0.32662235017E+03 -0.11954311017E+04 -0.42400721612E+03  0.13097791458E+04  0.12699999809E+01 0.  1.
</event>
<event>
 5   0  0.7305460E-06  0.2662494E+04  0.7818609E-02  0.8347278E-01
        1   -1    0    0  501    0  0.00000000000E+00  0.00000000000E+00  0.10402460554E+04  0.10402460554E+04  0.50400001928E-02 0.  1.
       -1   -1    0    0    0  501  0.00000000000E+00  0.00000000000E+00 -0.17036534857E+04  0.17036534857E+04  0.50400001928E-02 0. -1.
    10030    2    1    2    0    0  0.00000000000E+00  0.00000000000E+00 -0.66340743023E+03  0.27438995411E+04  0.26624941828E+04 0.  0.
        4    1    3    3  502    0  0.90297790302E+03  0.96939179501E+02 -0.13348352829E+04  0.16144823143E+04  0.12699999809E+01 0. -1.
       -4    1    3    3    0  502 -0.90297790302E+03 -0.96939179501E+02  0.67142785269E+03  0.11294172268E+04  0.12699999809E+01 0.  1.
</event>
<event>
 5   0  0.1918901E-05  0.2863724E+04  0.7818609E-02  0.8283753E-01
        2   -1    0    0  501    0  0.00000000000E+00  0.00000000000E+00  0.17283569518E+04  0.17283569518E+04  0.25500000920E-02 0.  1.
       -2   -1    0    0    0  501  0.00000000000E+00  0.00000000000E+00 -0.11862302893E+04  0.11862302893E+04  0.25500000920E-02 0. -1.
    10030    2    1    2    0    0  0.00000000000E+00  0.00000000000E+00  0.54212666259E+03  0.29145872411E+04  0.28637244050E+04 0.  0.
        1    1    3    3  502    0 -0.55984566287E+03  0.12067353815E+04 -0.26805415575E+03  0.13570152827E+04  0.50400001928E-02 0. -1.
       -1    1    3    3    0  502  0.55984566287E+03 -0.12067353815E+04  0.81018081833E+03  0.15575719584E+04  0.50400001928E-02 0.  1.
</event>
<event>
 5   0  0.7305460E-06  0.2874934E+04  0.7818609E-02  0.8280375E-01
        1   -1    0    0  501    0  0.00000000000E+00  0.00000000000E+00  0.11088066224E+04  0.11088066224E+04  0.50400001928E-02 0.  1.
       -1   -1    0    0    0  501  0.00000000000E+00  0.00000000000E+00 -0.18635452070E+04  0.18635452070E+04  0.50400001928E-02 0. -1.
    10030    2    1    2    0    0  0.00000000000E+00  0.00000000000E+00 -0.75473858465E+03  0.29723518294E+04  0.28749339239E+04 0.  0.
        4    1    3    3  502    0  0.56556124968E+03  0.11055222902E+03  0.98415528490E+03  0.11404580484E+04  0.12699999809E+01 0.  1.
       -4    1    3    3    0  502 -0.56556124968E+03 -0.11055222902E+03 -0.17388938696E+04  0.18318937810E+04  0.12699999809E+01 0. -1.
</event>
<event>
 5   0  0.1829810E-05  0.2944559E+04  0.7818609E-02  0.8259742E-01
       -2   -1    0    0    0  501  0.00000000000E+00  0.00000000000E+00  0.10970673287E+04  0.10970673287E+04  0.25500000920E-02 0.  1.
        2   -1    0    0  501    0  0.00000000000E+00  0.00000000000E+00 -0.19758187478E+04  0.19758187478E+04  0.25500000920E-02 0. -1.
    10030    2    1    2    0    0  0.00000000000E+00  0.00000000000E+00 -0.87875141907E+03  0.30728860764E+04  0.29445585038E+04 0.  0.
        4    1    3    3  502    0  0.24289040677E+03  0.32283829661E+03 -0.19168392234E+04  0.19589524080E+04  0.12699999809E+01 0. -1.
       -4    1    3    3    0  502 -0.24289040677E+03 -0.32283829661E+03  0.10380878043E+04  0.11139336685E+04  0.12699999809E+01 0.  1.
</event>
<event>
 5   0  0.8122088E-06  0.2677488E+04  0.7818609E-02  0.8342346E-01
       -1   -1    0    0    0  501  0.00000000000E+00  0.00000000000E+00  0.83168390579E+03  0.83168390581E+03  0.50400001928E-02 0. -1.
        1   -1    0    0  501    0  0.00000000000E+00  0.00000000000E+00 -0.21549482086E+04  0.21549482086E+04  0.50400001928E-02 0.  1.
    10030    2    1    2    0    0  0.00000000000E+00  0.00000000000E+00 -0.13232643028E+04  0.29866321144E+04  0.26774881833E+04 0.  0.
        1    1    3    3  502    0  0.72400581067E+03 -0.33005886839E+03 -0.18625601145E+04  0.20254020467E+04  0.50400001928E-02 0.  1.
       -1    1    3    3    0  502 -0.72400581067E+03  0.33005886839E+03  0.53929581174E+03  0.96123006771E+03  0.50400001928E-02 0. -1.
</event>
<event>
 5   0  0.1960961E-05  0.2814873E+04  0.7818609E-02  0.8298666E-01
       -2   -1    0    0    0  501  0.00000000000E+00  0.00000000000E+00  0.12253594536E+04  0.12253594536E+04  0.25500000920E-02 0. -1.
        2   -1    0    0  501    0  0.00000000000E+00  0.00000000000E+00 -0.16165682882E+04  0.16165682882E+04  0.25500000920E-02 0.  1.
    10030    2    1    2    0    0  0.00000000000E+00  0.00000000000E+00 -0.39120883460E+03  0.28419277418E+04  0.28148728101E+04 0.  0.
        5    1    3    3  502    0  0.96835061834E+03 -0.74569785011E+02 -0.12240172164E+04  0.15625312185E+04  0.46999998093E+01 0.  1.
       -5    1    3    3    0  502 -0.96835061834E+03  0.74569785011E+02  0.83280838180E+03  0.12793965232E+04  0.46999998093E+01 0. -1.
</event>
<event>
 5   0  0.1960961E-05  0.2917370E+04  0.7818609E-02  0.8267728E-01
        2   -1    0    0  501    0  0.00000000000E+00  0.00000000000E+00  0.22573554840E+04  0.22573554840E+04  0.25500000920E-02 0. -1.
       -2   -1    0    0    0  501  0.00000000000E+00  0.00000000000E+00 -0.94259057794E+03  0.94259057794E+03  0.25500000920E-02 0.  1.
    10030    2    1    2    0    0  0.00000000000E+00  0.00000000000E+00  0.13147649060E+04  0.31999460619E+04  0.29173700556E+04 0.  0.
        5    1    3    3  502    0 -0.40680013457E+03 -0.11914535574E+04  0.14654131191E+04  0.19319693653E+04  0.46999998093E+01 0. -1.
       -5    1    3    3    0  502  0.40680013457E+03  0.11914535574E+04 -0.15064821304E+03  0.12679766966E+04  0.46999998093E+01 0.  1.
</event>
<event>
 5   0  0.1976233E-05  0.2767694E+04  0.7818609E-02  0.8313369E-01
        2   -1    0    0  501    0  0.00000000000E+00  0.00000000000E+00  0.32991723339E+04  0.32991723339E+04  0.25500000920E-02 0.  1.
       -2   -1    0    0    0  501  0.00000000000E+00  0.00000000000E+00 -0.58045864046E+03  0.58045864046E+03  0.25500000920E-02 0. -1.
    10030    2    1    2    0    0  0.00000000000E+00  0.00000000000E+00  0.27187136934E+04  0.38796309744E+04  0.27676944106E+04 0.  0.
        2    1    3    3  502    0 -0.13093473017E+04 -0.41509703603E+03  0.15953234871E+04  0.21051728989E+04  0.25500000920E-02 0.  1.
       -2    1    3    3    0  502  0.13093473017E+04  0.41509703603E+03  0.11233902064E+04  0.17744580755E+04  0.25500000920E-02 0. -1.
</event>
<event>
 5   0  0.1976233E-05  0.2819407E+04  0.7818609E-02  0.8297269E-01
       -2   -1    0    0    0  501  0.00000000000E+00  0.00000000000E+00  0.10039694355E+04  0.10039694355E+04  0.25500000920E-02 0. -1.
        2   -1    0    0  501    0  0.00000000000E+00  0.00000000000E+00 -0.19794064086E+04  0.19794064086E+04  0.25500000920E-02 0.  1.
    10030    2    1    2    0    0  0.00000000000E+00  0.00000000000E+00 -0.97543697311E+03  0.29833758440E+04  0.28194066997E+04 0.  0.
        2    1    3    3  502    0 -0.18462281540E+03  0.79702446778E+03  0.72705807829E+03  0.10945076681E+04  0.25500000920E-02 0. -1.
       -2    1    3    3    0  502  0.18462281540E+03 -0.79702446778E+03 -0.17024950514E+04  0.18888681760E+04  0.25500000920E-02 0.  1.
</event>
<event>
 5   0  0.1918901E-05  0.2920625E+04  0.7818609E-02  0.8266767E-01
       -2   -1    0    0    0  501  0.00000000000E+00  0.00000000000E+00  0.94089366291E+03  0.94089366291E+03  0.25500000920E-02 0.  1.
        2   -1    0    0  501    0  0.00000000000E+00  0.00000000000E+00 -0.22664758813E+04  0.22664758813E+04  0.25500000920E-02 0. -1.
    10030    2    1    2    0    0  0.00000000000E+00  0.00000000000E+00 -0.13255822184E+04  0.32073695442E+04  0.29206251343E+04 0.  0.
        1    1    3    3  502    0  0.48550505268E+03 -0.27325255781E+02 -0.21749526433E+04  0.22286500009E+04  0.50400001928E-02 0. -1.
       -1    1    3    3    0  502 -0.48550505268E+03  0.27325255781E+02  0.84937042490E+03  0.97871954334E+03  0.50400001928E-02 0.  1.
</event>
<event>
 5   0  0.7971153E-06  0.2673978E+04  0.7818609E-02  0.8343498E-01
       -1   -1    0    0    0  501  0.00000000000E+00  0.00000000000E+00  0.10628236534E+04  0.10628236534E+04  0.50400001928E-02 0. -1.
        1   -1    0    0  501    0  0.00000000000E+00  0.00000000000E+00 -0.16818774213E+04  0.16818774213E+04  0.50400001928E-02 0.  1.
    10030    2    1    2    0    0  0.00000000000E+00  0.00000000000E+00 -0.61905376792E+03  0.27447010747E+04  0.26739776405E+04 0.  0.
        5    1    3    3  502    0 -0.42848702395E+03  0.65001743191E+03 -0.14251937076E+04  0.16239836777E+04  0.46999998093E+01 0.  1.
       -5    1    3    3    0  502  0.42848702395E+03 -0.65001743191E+03  0.80613993965E+03  0.11207173969E+04  0.46999998093E+01 0. -1.
</event>
<event>
 5   0  0.8234888E-06  0.2967039E+04  0.7818609E-02  0.8253206E-01
        1   -1    0    0  501    0  0.00000000000E+00  0.00000000000E+00  0.13261175610E+04  0.13261175610E+04  0.50400001928E-02 0. -1.
       -1   -1    0    0    0  501  0.00000000000E+00  0.00000000000E+00 -0.16596046242E+04  0.16596046242E+04  0.50400001928E-02 0.  1.
    10030    2    1    2    0    0  0.00000000000E+00  0.00000000000E+00 -0.33348706322E+03  0.29857221852E+04  0.29670394917E+04 0.  0.
        3    1    3    3  502    0  0.11014125079E+04  0.71089378099E+03 -0.86563190479E+03  0.15709226859E+04  0.10100000352E+00 0.  1.
       -3    1    3    3    0  502 -0.11014125079E+04 -0.71089378099E+03  0.53214484157E+03  0.14147994992E+04  0.10100000352E+00 0. -1.
</event>
<event>
 5   0  0.1937947E-05  0.2891755E+04  0.7818609E-02  0.8275335E-01
       -2   -1    0    0    0  501  0.00000000000E+00  0.00000000000E+00  0.87663756334E+03  0.87663756334E+03  0.25500000920E-02 0. -1.
        2   -1    0    0  501    0  0.00000000000E+00  0.00000000000E+00 -0.23847506743E+04  0.23847506743E+04  0.25500000920E-02 0.  1.
    10030    2    1    2    0    0  0.00000000000E+00  0.00000000000E+00 -0.15081131109E+04  0.32613882376E+04  0.28917551904E+04 0.  0.
        3    1    3    3  502    0  0.42355467272E+03 -0.33239583677E+02 -0.23127629611E+04  0.23514625141E+04  0.10100000352E+00 0.  1.
       -3    1    3    3    0  502 -0.42355467272E+03  0.33239583677E+02  0.80464985018E+03  0.90992572351E+03  0.10100000352E+00 0. -1.
</event>
<event>
 5   0  0.8122088E-06  0.3347538E+04  0.7818609E-02  0.8150904E-01
       -1   -1    0    0    0  501  0.00000000000E+00  0.00000000000E+00  0.11536940917E+04  0.11536940917E+04  0.50400001928E-02 0.  1.
        1   -1    0    0  501    0  0.00000000000E+00  0.00000000000E+00 -0.24282884873E+04  0.24282884873E+04  0.50400001928E-02 0. -1.
    10030    2    1    2    0    0  0.00000000000E+00  0.00000000000E+00 -0.12745943956E+04  0.35819825790E+04  0.33475376507E+04 0.  0.
        1    1    3    3  502    0  0.24073739367E+03 -0.10645188010E+04  0.72057149434E+03  0.13078142257E+04  0.50400001928E-02 0.  1.
       -1    1    3    3    0  502 -0.24073739367E+03  0.10645188010E+04 -0.19951658900E+04  0.22741683533E+04  0.50400001928E-02 0. -1.
</event>
<event>
 5   0  0.1976233E-05  0.2915015E+04  0.7818609E-02  0.8268424E-01
        2   -1    0    0  501    0  0.00000000000E+00  0.00000000000E+00  0.26287046984E+04  0.26287046984E+04  0.25500000920E-02 0. -1.
       -2   -1    0    0    0  501  0.00000000000E+00  0.00000000000E+00 -0.80812738478E+03  0.80812738479E+03  0.25500000920E-02 0.  1.
    10030    2    1    2    0    0  0.00000000000E+00  0.00000000000E+00  0.18205773136E+04  0.34368320832E+04  0.29150150965E+04 0.  0.
        2    1    3    3  502    0 -0.49689944302E+03  0.29163909193E+03  0.24887386747E+04  0.25545611379E+04  0.25500000920E-02 0. -1.
       -2    1    3    3    0  502  0.49689944302E+03 -0.29163909193E+03 -0.66816136108E+03  0.88227094527E+03  0.25500000920E-02 0.  1.
</event>
<event>
 5   0  0.7305460E-06  0.2904436E+04  0.7818609E-02  0.8271559E-01
       -1   -1    0    0    0  501  0.00000000000E+00  0.00000000000E+00  0.11522849025E+04  0.11522849025E+04  0.50400001928E-02 0. -1.
        1   -1    0    0  501    0  0.00000000000E+00  0.00000000000E+00 -0.18302216981E+04  0.18302216981E+04  0.50400001928E-02 0.  1.
    10030    2    1    2    0    0  0.00000000000E+00  0.00000000000E+00 -0.67793679560E+03  0.29825066006E+04  0.29044358013E+04 0.  0.
        4    1    3    3  502    0  0.82682016650E+03  0.88442870246E+03  0.48451593636E+03  0.13040717093E+04  0.12699999809E+01 0. -1.
       -4    1    3    3    0  502 -0.82682016650E+03 -0.88442870246E+03 -0.11624527320E+04  0.16784348913E+04  0.12699999809E+01 0.  1.
</event>
<event>
 5   0  0.8122088E-06  0.2845685E+04  0.7818609E-02  0.8289224E-01
        1   -1    0    0  501    0  0.00000000000E+00  0.00000000000E+00  0.21820161798E+04  0.21820161798E+04  0.50400001928E-02 0. -1.
       -1   -1    0    0    0  501  0.00000000000E+00  0.00000000000E+00 -0.92780286469E+03  0.92780286470E+03  0.50400001928E-02 0.  1.
    10030    2    1    2    0    0  0.00000000000E+00  0.00000000000E+00  0.12542133151E+04  0.31098190445E+04  0.28456850581E+04 0.  0.
        1    1    3    3  502    0  0.13988009650E+04 -0.24707220965E+03  0.53704320477E+03  0.15185862571E+04  0.50400001928E-02 0.  1.
       -1    1    3    3    0  502 -0.13988009650E+04  0.24707220965E+03  0.71717011034E+03  0.15912327874E+04  0.50400001928E-02 0. -1.
</event>
<event>
 5   0  0.8055928E-06  0.2877666E+04  0.7818609E-02  0.8279554E-01
        1   -1    0    0  501    0  0.00000000000E+00  0.00000000000E+00  0.14468145860E+04  0.14468145860E+04  0.50400001928E-02 0.  1.
       -1   -1    0    0    0  501  0.00000000000E+00  0.00000000000E+00 -0.14308953915E+04  0.14308953915E+04  0.50400001928E-02 0. -1.
    10030    2    1    2    0    0  0.00000000000E+00  0.00000000000E+00  0.15919194534E+02  0.28777099776E+04  0.28776659455E+04 0.  0.
        2    1    3    3  502    0  0.38914282268E+02 -0.84786071492E+03  0.11698113605E+04  0.14452822328E+04  0.25500000920E-02 0.  1.
       -2    1    3    3    0  502 -0.38914282268E+02  0.84786071492E+03 -0.11538921660E+04  0.14324277448E+04  0.25500000920E-02 0. -1.
</event>
<event>
 5   0  0.8234888E-06  0.3004923E+04  0.7818609E-02  0.8242327E-01
        1   -1    0    0  501    0  0.00000000000E+00  0.00000000000E+00  0.21477859992E+04  0.21477859992E+04  0.50400001928E-02 0.  1.
       -1   -1    0    0    0  501  0.00000000000E+00  0.00000000000E+00 -0.10510313561E+04  0.10510313561E+04  0.50400001928E-02 0. -1.
    10030    2    1    2    0    0  0.00000000000E+00  0.00000000000E+00  0.10967546431E+04  0.31988173552E+04  0.30049229150E+04 0.  0.
        3    1    3    3  502    0 -0.14220871271E+04  0.39265312237E+03  0.85112613555E+03  0.17032099049E+04  0.10100000352E+00 0.  1.
       -3    1    3    3    0  502  0.14220871271E+04 -0.39265312237E+03  0.24562850757E+03  0.14956074503E+04  0.10100000352E+00 0. -1.
</event>
<event>
 5   0  0.1829810E-05  0.1765722E+04  0.7818609E-02  0.8724743E-01
       -2   -1    0    0    0  501  0.00000000000E+00  0.00000000000E+00  0.11231146857E+04  0.11231146857E+04  0.25500000920E-02 0.  1.
        2   -1    0    0  501    0  0.00000000000E+00  0.00000000000E+00 -0.69400186460E+03  0.69400186461E+03  0.25500000920E-02 0. -1.
    10030    2    1    2    0    0  0.00000000000E+00  0.00000000000E+00  0.42911282111E+03  0.18171165503E+04  0.17657221594E+04 0.  0.
        4    1    3    3  502    0  0.39186122971E+03  0.38043431821E+03 -0.49928811121E+03  0.73998359760E+03  0.12699999809E+01 0. -1.
       -4    1    3    3    0  502 -0.39186122971E+03 -0.38043431821E+03  0.92840093231E+03  0.10771329527E+04  0.12699999809E+01 0.  1.
</event>
<event>
 5   0  0.1829810E-05  0.2864807E+04  0.7818609E-02  0.8283426E-01
       -2   -1    0    0    0  501  0.00000000000E+00  0.00000000000E+00  0.93886092076E+03  0.93886092076E+03  0.25500000920E-02 0.  1.
        2   -1    0    0  501    0  0.00000000000E+00  0.00000000000E+00 -0.21853931339E+04  0.21853931339E+04  0.25500000920E-02 0. -1.
    10030    2    1    2    0    0  0.00000000000E+00  0.00000000000E+00 -0.12465322131E+04  0.31242540546E+04  0.28648072954E+04 0.  0.
        4    1    3    3  502    0 -0.84632334376E+03 -0.57035896861E+03 -0.17193805714E+04  0.19994608567E+04  0.12699999809E+01 0. -1.
       -4    1    3    3    0  502  0.84632334376E+03  0.57035896861E+03  0.47284835829E+03  0.11247931979E+04  0.12699999809E+01 0.  1.
</event>
<event>
 5   0  0.8055928E-06  0.2890093E+04  0.7818609E-02  0.8275831E-01
       -1   -1    0    0    0  501  0.00000000000E+00  0.00000000000E+00  0.13051394976E+04  0.13051394976E+04  0.50400001928E-02 0.  1.
        1   -1    0    0  501    0  0.00000000000E+00  0.00000000000E+00 -0.15999510270E+04  0.15999510271E+04  0.50400001928E-02 0. -1.
    10030    2    1    2    0    0  0.00000000000E+00  0.00000000000E+00 -0.29481152943E+03  0.29050905247E+04  0.28900929256E+04 0.  0.
        2    1    3    3  502    0  0.10593752609E+04 -0.95225075187E+03 -0.39177603570E+03  0.14773442050E+04  0.25500000920E-02 0. -1.
       -2    1    3    3    0  502 -0.10593752609E+04  0.95225075187E+03  0.96964506273E+02  0.14277463197E+04  0.25500000920E-02 0.  1.
</event>
<event>
 5   0  0.1829810E-05  0.2908525E+04  0.7818609E-02  0.8270346E-01
        2   -1    0    0  501    0  0.00000000000E+00  0.00000000000E+00  0.29132442915E+04  0.29132442915E+04  0.25500000920E-02 0. -1.
       -2   -1    0    0    0  501  0.00000000000E+00  0.00000000000E+00 -0.72595337518E+03  0.72595337519E+03  0.25500000920E-02 0.  1.
    10030    2    1    2    0    0  0.00000000000E+00  0.00000000000E+00  0.21872909163E+04  0.36391976667E+04  0.29085250738E+04 0.  0.
        4    1    3    3  502    0  0.12156341687E+04  0.72358584568E+03  0.67204825100E+03  0.15662034902E+04  0.12699999809E+01 0.  1.
       -4    1    3    3    0  502 -0.12156341687E+04 -0.72358584568E+03  0.15152426653E+04  0.20729941765E+04  0.12699999809E+01 0. -1.
</event>
<event>
 5   0  0.1918901E-05  0.2825933E+04  0.7818609E-02  0.8295262E-01
       -2   -1    0    0    0  501  0.00000000000E+00  0.00000000000E+00  0.15629255267E+04  0.15629255267E+04  0.25500000920E-02 0.  1.
        2   -1    0    0  501    0  0.00000000000E+00  0.00000000000E+00 -0.12773956029E+04  0.12773956029E+04  0.25500000920E-02 0. -1.
    10030    2    1    2    0    0  0.00000000000E+00  0.00000000000E+00  0.28552992380E+03  0.28403211296E+04  0.28259329047E+04 0.  0.
        1    1    3    3  502    0  0.31348255783E+03  0.76568566164E+03  0.12939911401E+04  0.15358902686E+04  0.50400001928E-02 0.  1.
       -1    1    3    3    0  502 -0.31348255783E+03 -0.76568566164E+03 -0.10084612163E+04  0.13044308611E+04  0.50400001928E-02 0. -1.
</event>
<event>
 5   0  0.1829810E-05  0.2327759E+04  0.7818609E-02  0.8467056E-01
        2   -1    0    0  501    0  0.00000000000E+00  0.00000000000E+00  0.15023427584E+04  0.15023427584E+04  0.25500000920E-02 0. -1.
       -2   -1    0    0    0  501  0.00000000000E+00  0.00000000000E+00 -0.90166871541E+03  0.90166871542E+03  0.25500000920E-02 0.  1.
    10030    2    1    2    0    0  0.00000000000E+00  0.00000000000E+00  0.60067404303E+03  0.24040114739E+04  0.23277589782E+04 0.  0.
        4    1    3    3  502    0 -0.40212907052E+03  0.46271349138E+03  0.13220902382E+04  0.14573042837E+04  0.12699999809E+01 0. -1.
       -4    1    3    3    0  502  0.40212907052E+03 -0.46271349138E+03 -0.72141619513E+03  0.94670719019E+03  0.12699999809E+01 0.  1.
</event>
<event>
 5   0  0.7971153E-06  0.2437728E+04  0.7818609E-02  0.8425512E-01
       -1   -1    0    0    0  501  0.00000000000E+00  0.00000000000E+00  0.71570119326E+03  0.71570119328E+03  0.50400001928E-02 0.  1.
        1   -1    0    0  501    0  0.00000000000E+00  0.00000000000E+00 -0.20757676925E+04  0.20757676925E+04  0.50400001928E-02 0. -1.
    10030    2    1    2    0    0  0.00000000000E+00  0.00000000000E+00 -0.13600664992E+04  0.27914688858E+04  0.24377279705E+04 0.  0.
        5    1    3    3  502    0 -0.11018999564E+04  0.22881450848E+03 -0.12159986523E+04  0.16568688559E+04  0.46999998093E+01 0. -1.
       -5    1    3    3    0  502  0.11018999564E+04 -0.22881450848E+03 -0.14406784692E+03  0.11346000299E+04  0.46999998093E+01 0.  1.
</event>
<event>
 5   0  0.1960961E-05  0.2925836E+04  0.7818609E-02  0.8265232E-01
        2   -1    0    0  501    0  0.00000000000E+00  0.00000000000E+00  0.25359589853E+04  0.25359589853E+04  0.25500000920E-02 0. -1.
       -2   -1    0    0    0  501  0.00000000000E+00  0.00000000000E+00 -0.84391337158E+03  0.84391337158E+03  0.25500000920E-02 0.  1.
    10030    2    1    2    0    0  0.00000000000E+00  0.00000000000E+00  0.16920456138E+04  0.33798723569E+04  0.29258364257E+04 0.  0.
        5    1    3    3  502    0  0.14870944754E+03  0.11076188362E+03 -0.83027460465E+03  0.85074126723E+03  0.46999998093E+01 0.  1.
       -5    1    3    3    0  502 -0.14870944754E+03 -0.11076188362E+03  0.25223202184E+04  0.25291310897E+04  0.46999998093E+01 0. -1.
</event>
<event>
 5   0  0.7971153E-06  0.2912009E+04  0.7818609E-02  0.8269313E-01
        1   -1    0    0  501    0  0.00000000000E+00  0.00000000000E+00  0.12151544789E+04  0.12151544789E+04  0.50400001928E-02 0. -1.
       -1   -1    0    0    0  501  0.00000000000E+00  0.00000000000E+00 -0.17445925272E+04  0.17445925272E+04  0.50400001928E-02 0.  1.
    10030    2    1    2    0    0  0.00000000000E+00  0.00000000000E+00 -0.52943804837E+03  0.29597470061E+04  0.29120092193E+04 0.  0.
        5    1    3    3  502    0 -0.82795535636E+03 -0.11966355146E+04 -0.31534221505E+03  0.14889289539E+04  0.46999998093E+01 0.  1.
       -5    1    3    3    0  502  0.82795535636E+03  0.11966355146E+04 -0.21409583331E+03  0.14708180523E+04  0.46999998093E+01 0. -1.
</event>
<event>
 5   0  0.8234888E-06  0.2685552E+04  0.7818609E-02  0.8339708E-01
        1   -1    0    0  501    0  0.00000000000E+00  0.00000000000E+00  0.19619642173E+04  0.19619642173E+04  0.50400001928E-02 0.  1.
       -1   -1    0    0    0  501  0.00000000000E+00  0.00000000000E+00 -0.91900144585E+03  0.91900144586E+03  0.50400001928E-02 0. -1.
    10030    2    1    2    0    0  0.00000000000E+00  0.00000000000E+00  0.10429627714E+04  0.28809656631E+04  0.26855524217E+04 0.  0.
        3    1    3    3  502    0 -0.56925402604E+03  0.99491621321E+03 -0.22879422081E+03  0.11688692070E+04  0.10100000352E+00 0.  1.
       -3    1    3    3    0  502  0.56925402604E+03 -0.99491621321E+03  0.12717569922E+04  0.17120964561E+04  0.10100000352E+00 0. -1.
</event>
<event>
 5   0  0.1937947E-05  0.2984754E+04  0.7818609E-02  0.8248098E-01
        2   -1    0    0  501    0  0.00000000000E+00  0.00000000000E+00  0.10891029438E+04  0.10891029438E+04  0.25500000920E-02 0. -1.
       -2   -1    0    0    0  501  0.00000000000E+00  0.00000000000E+00 -0.20449763428E+04  0.20449763428E+04  0.25500000920E-02 0.  1.
    10030    2    1    2    0    0  0.00000000000E+00  0.00000000000E+00 -0.95587339904E+03  0.31340792866E+04  0.29847544321E+04 0.  0.
        3    1    3    3  502    0 -0.39925043163E+03 -0.60186502843E+03 -0.18492391772E+04  0.19852778053E+04  0.10100000352E+00 0.  1.
       -3    1    3    3    0  502  0.39925043163E+03  0.60186502843E+03  0.89336577817E+03  0.11488014813E+04  0.10100000352E+00 0. -1.
</event>
<event>
 5   0  0.8122088E-06  0.2942849E+04  0.7818609E-02  0.8260242E-01
        1   -1    0    0  501    0  0.00000000000E+00  0.00000000000E+00  0.22699128268E+04  0.22699128268E+04  0.50400001928E-02 0.  1.
       -1   -1    0    0    0  501  0.00000000000E+00  0.00000000000E+00 -0.95382067845E+03  0.95382067847E+03  0.50400001928E-02 0. -1.
    10030    2    1    2    0    0  0.00000000000E+00  0.00000000000E+00  0.13160921484E+04  0.32237335053E+04  0.29428488188E+04 0.  0.
        1    1    3    3  502    0  0.42278393983E+03 -0.13334107211E+04  0.11580779735E+04  0.18160052323E+04  0.50400001928E-02 0.  1.
       -1    1    3    3    0  502 -0.42278393983E+03  0.13334107211E+04  0.15801417483E+03  0.14077282730E+04  0.50400001928E-02 0. -1.
</event>
<event>
 5   0  0.7305460E-06  0.2908694E+04  0.7818609E-02  0.8270295E-01
        1   -1    0    0  501    0  0.00000000000E+00  0.00000000000E+00  0.23885664607E+04  0.23885664607E+04  0.50400001928E-02 0. -1.
       -1   -1    0    0    0  501  0.00000000000E+00  0.00000000000E+00 -0.88552068710E+03  0.88552068711E+03  0.50400001928E-02 0.  1.
    10030    2    1    2    0    0  0.00000000000E+00  0.00000000000E+00  0.15030457736E+04  0.32740871478E+04  0.29086938742E+04 0.  0.
        4    1    3    3  502    0 -0.33090612181E+03  0.13307285619E+04  0.20610629119E+03  0.13866574138E+04  0.12699999809E+01 0.  1.
       -4    1    3    3    0  502  0.33090612181E+03 -0.13307285619E+04  0.12969394824E+04  0.18874297340E+04  0.12699999809E+01 0. -1.
</event>
<event>
 5   0  0.7971153E-06  0.1764697E+04  0.7818609E-02  0.8725302E-01
       -1   -1    0    0    0  501  0.00000000000E+00  0.00000000000E+00  0.75144569213E+03  0.75144569215E+03  0.50400001928E-02 0. -1.
        1   -1    0    0  501    0  0.00000000000E+00  0.00000000000E+00 -0.10360542568E+04  0.10360542568E+04  0.50400001928E-02 0.  1.
    10030    2    1    2    0    0  0.00000000000E+00  0.00000000000E+00 -0.28460856468E+03  0.17874999490E+04  0.17646965837E+04 0.  0.
        5    1    3    3  502    0  0.96328660224E+02  0.89498985971E+02 -0.10260618073E+04  0.10344632432E+04  0.46999998093E+01 0.  1.
       -5    1    3    3    0  502 -0.96328660224E+02 -0.89498985971E+02  0.74145324258E+03  0.75303670575E+03  0.46999998093E+01 0. -1.
</event>
<event>
 5   0  0.7305460E-06  0.1588136E+04  0.7818609E-02  0.8827870E-01
       -1   -1    0    0    0  501  0.00000000000E+00  0.00000000000E+00  0.11322187819E+04  0.11322187819E+04  0.50400001928E-02 0.  1.
        1   -1    0    0  501    0  0.00000000000E+00  0.00000000000E+00 -0.55690968185E+03  0.55690968187E+03  0.50400001928E-02 0. -1.
    10030    2    1    2    0    0  0.00000000000E+00  0.00000000000E+00  0.57530910005E+03  0.16891284638E+04  0.15881355127E+04 0.  0.
        4    1    3    3  502    0 -0.20375160136E+03  0.62546296891E+03 -0.18540291173E+03  0.68344311622E+03  0.12699999809E+01 0. -1.
       -4    1    3    3    0  502  0.20375160136E+03 -0.62546296891E+03  0.76071201178E+03  0.10056853476E+04  0.12699999809E+01 0.  1.
</event>
<event>
 5   0  0.8122088E-06  0.2824947E+04  0.7818609E-02  0.8295565E-01
       -1   -1    0    0    0  501  0.00000000000E+00  0.00000000000E+00  0.12869727663E+04  0.12869727663E+04  0.50400001928E-02 0. -1.
        1   -1    0    0  501    0  0.00000000000E+00  0.00000000000E+00 -0.15502123387E+04  0.15502123387E+04  0.50400001928E-02 0.  1.
    10030    2    1    2    0    0  0.00000000000E+00  0.00000000000E+00 -0.26323957242E+03  0.28371851051E+04  0.28249467690E+04 0.  0.
        1    1    3    3  502    0  0.99629837961E+03 -0.21100063750E+03 -0.11146088176E+04  0.15097961937E+04  0.50400001928E-02 0.  1.
       -1    1    3    3    0  502 -0.99629837961E+03  0.21100063750E+03  0.85136924520E+03  0.13273889113E+04  0.50400001928E-02 0. -1.
</event>
<event>
 5   0  0.1829810E-05  0.2471927E+04  0.7818609E-02  0.8413056E-01
        2   -1    0    0  501    0  0.00000000000E+00  0.00000000000E+00  0.12571232424E+04  0.12571232424E+04  0.25500000920E-02 0. -1.
       -2   -1    0    0    0  501  0.00000000000E+00  0.00000000000E+00 -0.12151595606E+04  0.12151595606E+04  0.25500000920E-02 0.  1.
    10030    2    1    2    0    0  0.00000000000E+00  0.00000000000E+00  0.41963681816E+02  0.24722828030E+04  0.24719266387E+04 0.  0.
        4    1    3    3  502    0 -0.89958670099E+02 -0.10528741378E+04  0.66214144457E+03  0.12470242251E+04  0.12699999809E+01 0. -1.
       -4    1    3    3    0  502  0.89958670099E+02  0.10528741378E+04 -0.62017776275E+03  0.12252585779E+04  0.12699999809E+01 0.  1.
</event>
<event>
 5   0  0.7305460E-06  0.2377524E+04  0.7818609E-02  0.8447966E-01
        1   -1    0    0  501    0  0.00000000000E+00  0.00000000000E+00  0.12433809992E+04  0.12433809992E+04  0.50400001928E-02 0.  1.
       -1   -1    0    0    0  501  0.00000000000E+00  0.00000000000E+00 -0.11365424701E+04  0.11365424701E+04  0.50400001928E-02 0. -1.
    10030    2    1    2    0    0  0.00000000000E+00  0.00000000000E+00  0.10683852908E+03  0.23799234694E+04  0.23775241847E+04 0.  0.
        4    1    3    3  502    0 -0.15238598475E+03 -0.42045510546E+03  0.11559615345E+04  0.12394566012E+04  0.12699999809E+01 0.  1.
       -4    1    3    3    0  502  0.15238598475E+03  0.42045510546E+03 -0.10491230054E+04  0.11404668682E+04  0.12699999809E+01 0. -1.
</event>
<event>
 5   0  0.8122088E-06  0.2891325E+04  0.7818609E-02  0.8275463E-01
        1   -1    0    0  501    0  0.00000000000E+00  0.00000000000E+00  0.10539391878E+04  0.10539391878E+04  0.50400001928E-02 0. -1.
       -1   -1    0    0    0  501  0.00000000000E+00  0.00000000000E+00 -0.19829791229E+04  0.19829791229E+04  0.50400001928E-02 0.  1.
    10030    2    1    2    0    0  0.00000000000E+00  0.00000000000E+00 -0.92903993510E+03  0.30369183108E+04  0.28913245451E+04 0.  0.
        1    1    3    3  502    0  0.12950293339E+04 -0.42294662605E+03 -0.97256480768E+03  0.16738778717E+04  0.50400001928E-02 0. -1.
       -1    1    3    3    0  502 -0.12950293339E+04  0.42294662605E+03  0.43524872587E+02  0.13630404391E+04  0.50400001928E-02 0.  1.
</event>
<event>
 5   0  0.8234888E-06  0.1856540E+04  0.7818609E-02  0.8676797E-01
        1   -1    0    0  501    0  0.00000000000E+00  0.00000000000E+00  0.13049547109E+04  0.13049547109E+04  0.50400001928E-02 0. -1.
       -1   -1    0    0    0  501  0.00000000000E+00  0.00000000000E+00 -0.66031807206E+03  0.66031807208E+03  0.50400001928E-02 0.  1.
    10030    2    1    2    0    0  0.00000000000E+00  0.00000000000E+00  0.64463663883E+03  0.19652727830E+04  0.18565399849E+04 0.  0.
        3    1    3    3  502    0 -0.41657399470E+03  0.27835572458E+03 -0.50490277336E+03  0.71129643836E+03  0.10100000352E+00 0.  1.
       -3    1    3    3    0  502  0.41657399470E+03 -0.27835572458E+03  0.11495394122E+04  0.12539763446E+04  0.10100000352E+00 0. -1.
</event>
<event>
 5   0  0.8234888E-06  0.2665265E+04  0.7818609E-02  0.8346364E-01
       -1   -1    0    0    0  501  0.00000000000E+00  0.00000000000E+00  0.16089033527E+04  0.16089033527E+04  0.50400001928E-02 0.  1.
        1   -1    0    0  501    0  0.00000000000E+00  0.00000000000E+00 -0.11038009999E+04  0.11038009999E+04  0.50400001928E-02 0. -1.
    10030    2    1    2    0    0  0.00000000000E+00  0.00000000000E+00  0.50510235285E+03  0.27127043526E+04  0.26652648120E+04 0.  0.
        3    1    3    3  502    0  0.12730578011E+04 -0.29466383160E+03  0.51875223005E+03  0.14059184987E+04  0.10100000352E+00 0. -1.
       -3    1    3    3    0  502 -0.12730578011E+04  0.29466383160E+03 -0.13649877199E+02  0.13067858539E+04  0.10100000352E+00 0.  1.
</event>
<event>
 5   0  0.1829810E-05  0.2846459E+04  0.7818609E-02  0.8288988E-01
        2   -1    0    0  501    0  0.00000000000E+00  0.00000000000E+00  0.16523984234E+04  0.16523984234E+04  0.25500000920E-02 0. -1.
       -2   -1    0    0    0  501  0.00000000000E+00  0.00000000000E+00 -0.12258436012E+04  0.12258436012E+04  0.25500000920E-02 0.  1.
    10030    2    1    2    0    0  0.00000000000E+00  0.00000000000E+00  0.42655482214E+03  0.28782420246E+04  0.28464588765E+04 0.  0.
        4    1    3    3  502    0  0.12530696064E+04  0.92631300629E+01  0.89557926582E+03  0.15402379941E+04  0.12699999809E+01 0.  1.
       -4    1    3    3    0  502 -0.12530696064E+04 -0.92631300629E+01 -0.46902444368E+03  0.13380040305E+04  0.12699999809E+01 0. -1.
</event>
<event>
 5   0  0.8055928E-06  0.1722151E+04  0.7818609E-02  0.8748831E-01
        1   -1    0    0  501    0  0.00000000000E+00  0.00000000000E+00  0.12166801159E+04  0.12166801159E+04  0.50400001928E-02 0. -1.
       -1   -1    0    0    0  501  0.00000000000E+00  0.00000000000E+00 -0.60940479494E+03  0.60940479496E+03  0.50400001928E-02 0.  1.
    10030    2    1    2    0    0  0.00000000000E+00  0.00000000000E+00  0.60727532098E+03  0.18260849109E+04  0.17221506282E+04 0.  0.
        2    1    3    3  502    0  0.52438073671E+03  0.48824954195E+02 -0.41871905898E+03  0.67281846254E+03  0.25500000920E-02 0.  1.
       -2    1    3    3    0  502 -0.52438073671E+03 -0.48824954195E+02  0.10259943800E+04  0.11532664484E+04  0.25500000920E-02 0. -1.
</event>
<event>
 5   0  0.7305460E-06  0.2421399E+04  0.7818609E-02  0.8431535E-01
       -1   -1    0    0    0  501  0.00000000000E+00  0.00000000000E+00  0.14175999273E+04  0.14175999273E+04  0.50400001928E-02 0.  1.
        1   -1    0    0  501    0  0.00000000000E+00  0.00000000000E+00 -0.10339965980E+04  0.10339965980E+04  0.50400001928E-02 0. -1.
    10030    2    1    2    0    0  0.00000000000E+00  0.00000000000E+00  0.38360332928E+03  0.24515965254E+04  0.24213991841E+04 0.  0.
        4    1    3    3  502    0 -0.11049873581E+04 -0.43446436789E+03 -0.47868728966E+02  0.11882968386E+04  0.12699999809E+01 0.  1.
       -4    1    3    3    0  502  0.11049873581E+04  0.43446436789E+03  0.43147205824E+03  0.12632996867E+04  0.12699999809E+01 0. -1.
</event>
<event>
 5   0  0.1829810E-05  0.2948524E+04  0.7818609E-02  0.8258585E-01
       -2   -1    0    0    0  501  0.00000000000E+00  0.00000000000E+00  0.11524340132E+04  0.11524340132E+04  0.25500000920E-02 0.  1.
        2   -1    0    0  501    0  0.00000000000E+00  0.00000000000E+00 -0.18859634870E+04  0.18859634870E+04  0.25500000920E-02 0. -1.
    10030    2    1    2    0    0  0.00000000000E+00  0.00000000000E+00 -0.73352947379E+03  0.30383975002E+04  0.29485240172E+04 0.  0.
        4    1    3    3  502    0 -0.54380372212E+03 -0.13323949215E+04 -0.69659611089E+03  0.15988265915E+04  0.12699999809E+01 0. -1.
       -4    1    3    3    0  502  0.54380372212E+03  0.13323949215E+04 -0.36933362909E+02  0.14395709087E+04  0.12699999809E+01 0.  1.
</event>
<event>
 5   0  0.1960961E-05  0.2907405E+04  0.7818609E-02  0.8270678E-01
        2   -1    0    0  501    0  0.00000000000E+00  0.00000000000E+00  0.12056745194E+04  0.12056745194E+04  0.25500000920E-02 0.  1.
       -2   -1    0    0    0  501  0.00000000000E+00  0.00000000000E+00 -0.17527538486E+04  0.17527538486E+04  0.25500000920E-02 0. -1.
    10030    2    1    2    0    0  0.00000000000E+00  0.00000000000E+00 -0.54707932927E+03  0.29584283680E+04  0.29074047905E+04 0.  0.
        5    1    3    3  502    0 -0.53341789735E+03 -0.26645772342E+03  0.10755077545E+04  0.12297452548E+04  0.46999998093E+01 0.  1.
       -5    1    3    3    0  502  0.53341789735E+03  0.26645772342E+03 -0.16225870838E+04  0.17286831132E+04  0.46999998093E+01 0. -1.
</event>
<event>
 5   0  0.7305460E-06  0.2837307E+04  0.7818609E-02  0.8291779E-01
       -1   -1    0    0    0  501  0.00000000000E+00  0.00000000000E+00  0.12945485595E+04  0.12945485595E+04  0.50400001928E-02 0. -1.
        1   -1    0    0  501    0  0.00000000000E+00  0.00000000000E+00 -0.15546560625E+04  0.15546560625E+04  0.50400001928E-02 0.  1.
    10030    2    1    2    0    0  0.00000000000E+00  0.00000000000E+00 -0.26010750301E+03  0.28492046220E+04  0.28373070093E+04 0.  0.
        4    1    3    3  502    0  0.59990655511E+02 -0.24847655442E+03  0.12712319151E+04  0.12966771656E+04  0.12699999809E+01 0. -1.
       -4    1    3    3    0  502 -0.59990655511E+02  0.24847655442E+03 -0.15313394181E+04  0.15525274565E+04  0.12699999809E+01 0.  1.
</event>
<event>
 5   0  0.1829810E-05  0.2288859E+04  0.7818609E-02  0.8482327E-01
        2   -1    0    0  501    0  0.00000000000E+00  0.00000000000E+00  0.16693509787E+04  0.16693509787E+04  0.25500000920E-02 0.  1.
       -2   -1    0    0    0  501  0.00000000000E+00  0.00000000000E+00 -0.78456738794E+03  0.78456738794E+03  0.25500000920E-02 0. -1.
    10030    2    1    2    0    0  0.00000000000E+00  0.00000000000E+00  0.88478359081E+03  0.24539183667E+04  0.22888585251E+04 0.  0.
        4    1    3    3  502    0  0.30222889470E+03 -0.75086618446E+03  0.13097942906E+04  0.15397093974E+04  0.12699999809E+01 0.  1.
       -4    1    3    3    0  502 -0.30222889470E+03  0.75086618446E+03 -0.42501069979E+03  0.91420896932E+03  0.12699999809E+01 0. -1.
</event>
<event>
 5   0  0.1937947E-05  0.2923580E+04  0.7818609E-02  0.8265896E-01
        2   -1    0    0  501    0  0.00000000000E+00  0.00000000000E+00  0.19118965424E+04  0.19118965424E+04  0.25500000920E-02 0.  1.
       -2   -1    0    0    0  501  0.00000000000E+00  0.00000000000E+00 -0.11176497076E+04  0.11176497076E+04  0.25500000920E-02 0. -1.
    10030    2    1    2    0    0  0.00000000000E+00  0.00000000000E+00  0.79424683477E+03  0.30295462499E+04  0.29235804155E+04 0.  0.
        3    1    3    3  502    0 -0.14441074234E+03  0.42104943355E+03 -0.10457130869E+04  0.11365091105E+04  0.10100000352E+00 0. -1.
       -3    1    3    3    0  502  0.14441074234E+03 -0.42104943355E+03  0.18399599216E+04  0.18930371395E+04  0.10100000352E+00 0.  1.
</event>
<event>
 5   0  0.7971153E-06  0.2956848E+04  0.7818609E-02  0.8256162E-01
        1   -1    0    0  501    0  0.00000000000E+00  0.00000000000E+00  0.19996061416E+04  0.19996061416E+04  0.50400001928E-02 0. -1.
       -1   -1    0    0    0  501  0.00000000000E+00  0.00000000000E+00 -0.10930841542E+04  0.10930841542E+04  0.50400001928E-02 0.  1.
    10030    2    1    2    0    0  0.00000000000E+00  0.00000000000E+00  0.90652198738E+03  0.30926902957E+04  0.29568481787E+04 0.  0.
        5    1    3    3  502    0  0.13409988456E+04 -0.50675034446E+03  0.83131045232E+03  0.16571581016E+04  0.46999998093E+01 0. -1.
       -5    1    3    3    0  502 -0.13409988456E+04  0.50675034446E+03  0.75211535064E+02  0.14355321942E+04  0.46999998093E+01 0.  1.
</event>
<event>
 5   0  0.1976233E-05  0.2566928E+04  0.7818609E-02  0.8379523E-01
        2   -1    0    0  501    0  0.00000000000E+00  0.00000000000E+00  0.18053466985E+04  0.18053466985E+04  0.25500000920E-02 0.  1.
       -2   -1    0    0    0  501  0.00000000000E+00  0.00000000000E+00 -0.91244497519E+03  0.91244497520E+03  0.25500000920E-02 0. -1.
    10030    2    1    2    0    0  0.00000000000E+00  0.00000000000E+00  0.89290172330E+03  0.27177916737E+04  0.25669277540E+04 0.  0.
        2    1    3    3  502    0  0.20911867110E+03  0.92161122152E+03  0.13659270823E+04  0.16609800289E+04  0.25500000920E-02 0.  1.
       -2    1    3    3    0  502 -0.20911867110E+03 -0.92161122152E+03 -0.47302535902E+03  0.10568116448E+04  0.25500000920E-02 0. -1.
</event>
<event>
 5   0  0.6578125E-06  0.2527723E+04  0.7818609E-02  0.8393175E-01
        3   -1    0    0  501    0  0.00000000000E+00  0.00000000000E+00  0.12178135362E+04  0.12178135404E+04  0.10100000352E+00 0.  1.
       -3   -1    0    0    0  501  0.00000000000E+00  0.00000000000E+00 -0.13116504002E+04  0.13116504041E+04  0.10100000352E+00 0. -1.
    10030    2    1    2    0    0  0.00000000000E+00  0.00000000000E+00 -0.93836863956E+02  0.25294639445E+04  0.25277227873E+04 0.  0.
        4    1    3    3  502    0 -0.52585720218E+03  0.10677784866E+04 -0.47226099718E+03  0.12805111307E+04  0.12699999809E+01 0.  1.
       -4    1    3    3    0  502  0.52585720218E+03 -0.10677784866E+04  0.37842413322E+03  0.12489528138E+04  0.12699999809E+01 0. -1.
</event>
<event>
 5   0  0.1976233E-05  0.2861511E+04  0.7818609E-02  0.8284422E-01
        2   -1    0    0  501    0  0.00000000000E+00  0.00000000000E+00  0.24092065866E+04  0.24092065866E+04  0.25500000920E-02 0.  1.
       -2   -1    0    0    0  501  0.00000000000E+00  0.00000000000E+00 -0.84968280343E+03  0.84968280344E+03  0.25500000920E-02 0. -1.
    10030    2    1    2    0    0  0.00000000000E+00  0.00000000000E+00  0.15595237831E+04  0.32588893900E+04  0.28615110739E+04 0.  0.
        2    1    3    3  502    0 -0.81904066538E+03  0.65616316051E+03 -0.32774679579E+03  0.10994524396E+04  0.25500000920E-02 0. -1.
       -2    1    3    3    0  502  0.81904066538E+03 -0.65616316051E+03  0.18872705789E+04  0.21594369504E+04  0.25500000920E-02 0.  1.
</event>
<event>
 5   0  0.8234888E-06  0.3000297E+04  0.7818609E-02  0.8243646E-01
        1   -1    0    0  501    0  0.00000000000E+00  0.00000000000E+00  0.18048544000E+04  0.18048544000E+04  0.50400001928E-02 0.  1.
       -1   -1    0    0    0  501  0.00000000000E+00  0.00000000000E+00 -0.12468847714E+04  0.12468847714E+04  0.50400001928E-02 0. -1.
    10030    2    1    2    0    0  0.00000000000E+00  0.00000000000E+00  0.55796962862E+03  0.30517391714E+04  0.30002969626E+04 0.  0.
        3    1    3    3  502    0 -0.29523314420E+03  0.49251804680E+03 -0.11306737533E+04  0.12681323994E+04  0.10100000352E+00 0. -1.
       -3    1    3    3    0  502  0.29523314420E+03 -0.49251804680E+03  0.16886433819E+04  0.17836067720E+04  0.10100000352E+00 0.  1.
</event>
<event>
 5   0  0.1937947E-05  0.2868750E+04  0.7818609E-02  0.8282236E-01
        2   -1    0    0  501    0  0.00000000000E+00  0.00000000000E+00  0.20288410591E+04  0.20288410591E+04  0.25500000920E-02 0. -1.
       -2   -1    0    0    0  501  0.00000000000E+00  0.00000000000E+00 -0.10140923712E+04  0.10140923712E+04  0.25500000920E-02 0.  1.
    10030    2    1    2    0    0  0.00000000000E+00  0.00000000000E+00  0.10147486879E+04  0.30429334302E+04  0.28687504181E+04 0.  0.
        3    1    3    3  502    0 -0.16411799447E+03  0.11042102503E+04  0.14627370201E+04  0.18400583124E+04  0.10100000352E+00 0. -1.
       -3    1    3    3    0  502  0.16411799447E+03 -0.11042102503E+04 -0.44798833221E+03  0.12028751178E+04  0.10100000352E+00 0.  1.
</event>
<event>
 5   0  0.7305460E-06  0.3093733E+04  0.7818609E-02  0.8217460E-01
       -1   -1    0    0    0  501  0.00000000000E+00  0.00000000000E+00  0.12563950811E+04  0.12563950811E+04  0.50400001928E-02 0.  1.
        1   -1    0    0  501    0  0.00000000000E+00  0.00000000000E+00 -0.19044929069E+04  0.19044929070E+04  0.50400001928E-02 0. -1.
    10030    2    1    2    0    0  0.00000000000E+00  0.00000000000E+00 -0.64809782589E+03  0.31608879880E+04  0.30937327100E+04 0.  0.
        4    1    3    3  502    0 -0.18077955700E+03  0.12961830923E+04 -0.11665836481E+04  0.17531944781E+04  0.12699999809E+01 0. -1.
       -4    1    3    3    0  502  0.18077955700E+03 -0.12961830923E+04  0.51848582224E+03  0.14076935099E+04  0.12699999809E+01 0.  1.
</event>
<event>
 5   0  0.8122088E-06  0.2874903E+04  0.7818609E-02  0.8280384E-01
       -1   -1    0    0    0  501  0.00000000000E+00  0.00000000000E+00  0.72495695363E+03  0.72495695364E+03  0.50400001928E-02 0.  1.
        1   -1    0    0  501    0  0.00000000000E+00  0.00000000000E+00 -0.28501924872E+04  0.28501924872E+04  0.50400001928E-02 0. -1.
    10030    2    1    2    0    0  0.00000000000E+00  0.00000000000E+00 -0.21252355336E+04  0.35751494409E+04  0.28749030334E+04 0.  0.
        1    1    3    3  502    0  0.62320814360E+03 -0.99116528872E+03 -0.25542802336E+02  0.11710890037E+04  0.50400001928E-02 0.  1.
       -1    1    3    3    0  502 -0.62320814360E+03  0.99116528872E+03 -0.20996927313E+04  0.24040604372E+04  0.50400001928E-02 0. -1.
</event>
<event>
 5   0  0.1976233E-05  0.1775990E+04  0.7818609E-02  0.8719173E-01
       -2   -1    0    0    0  501  0.00000000000E+00  0.00000000000E+00  0.91446577359E+03  0.91446577360E+03  0.25500000920E-02 0. -1.
        2   -1    0    0  501    0  0.00000000000E+00  0.00000000000E+00 -0.86229086370E+03  0.86229086371E+03  0.25500000920E-02 0.  1.
    10030    2    1    2    0    0  0.00000000000E+00  0.00000000000E+00  0.52174909892E+02  0.17767566373E+04  0.17759904073E+04 0.  0.
        2    1    3    3  502    0 -0.85068277355E+03  0.18112580960E+03 -0.15306448637E+03  0.88311747640E+03  0.25500000920E-02 0. -1.
       -2    1    3    3    0  502  0.85068277355E+03 -0.18112580960E+03  0.20523939626E+03  0.89363916091E+03  0.25500000920E-02 0.  1.
</event>
<event>
 5   0  0.8234888E-06  0.2412944E+04  0.7818609E-02  0.8434673E-01
        1   -1    0    0  501    0  0.00000000000E+00  0.00000000000E+00  0.17272816983E+04  0.17272816984E+04  0.50400001928E-02 0. -1.
       -1   -1    0    0    0  501  0.00000000000E+00  0.00000000000E+00 -0.84269690099E+03  0.84269690100E+03  0.50400001928E-02 0.  1.
    10030    2    1    2    0    0  0.00000000000E+00  0.00000000000E+00  0.88458479736E+03  0.25699785994E+04  0.24129442052E+04 0.  0.
        3    1    3    3  502    0 -0.15433070865E+03  0.59796433536E+03 -0.66159280902E+03  0.90503280004E+03  0.10100000352E+00 0.  1.
       -3    1    3    3    0  502  0.15433070865E+03 -0.59796433536E+03  0.15461776064E+04  0.16649457993E+04  0.10100000352E+00 0. -1.
</event>
<event>
 5   0  0.1829810E-05  0.3232628E+04  0.7818609E-02  0.8180253E-01
        2   -1    0    0  501    0  0.00000000000E+00  0.00000000000E+00  0.19784902666E+04  0.19784902666E+04  0.25500000920E-02 0. -1.
       -2   -1    0    0    0  501  0.00000000000E+00  0.00000000000E+00 -0.13204369191E+04  0.13204369191E+04  0.25500000920E-02 0.  1.
    10030    2    1    2    0    0  0.00000000000E+00  0.00000000000E+00  0.65805334750E+03  0.32989271858E+04  0.32326283995E+04 0.  0.
        4    1    3    3  502    0  0.54783557150E+03 -0.44243430586E+03  0.18137178990E+04  0.19456223063E+04  0.12699999809E+01 0. -1.
       -4    1    3    3    0  502 -0.54783557150E+03  0.44243430586E+03 -0.11556645515E+04  0.13533048795E+04  0.12699999809E+01 0.  1.
</event>
<event>
 5   0  0.1937947E-05  0.2907459E+04  0.7818609E-02  0.8270662E-01
       -2   -1    0    0    0  501  0.00000000000E+00  0.00000000000E+00  0.17281255616E+04  0.17281255616E+04  0.25500000920E-02 0. -1.
        2   -1    0    0  501    0  0.00000000000E+00  0.00000000000E+00 -0.12229027581E+04  0.12229027581E+04  0.25500000920E-02 0.  1.
    10030    2    1    2    0    0  0.00000000000E+00  0.00000000000E+00  0.50522280356E+03  0.29510283197E+04  0.29074590389E+04 0.  0.
        3    1    3    3  502    0 -0.14391025861E+04  0.19514456024E+03  0.31863893169E+03  0.14868182241E+04  0.10100000352E+00 0.  1.
       -3    1    3    3    0  502  0.14391025861E+04 -0.19514456024E+03  0.18658387187E+03  0.14642100956E+04  0.10100000352E+00 0. -1.
</event>
<event>
 5   0  0.1960961E-05  0.2946887E+04  0.7818609E-02  0.8259062E-01
       -2   -1    0    0    0  501  0.00000000000E+00  0.00000000000E+00  0.19663006403E+04  0.19663006403E+04  0.25500000920E-02 0.  1.
        2   -1    0    0  501    0  0.00000000000E+00  0.00000000000E+00 -0.11041221341E+04  0.11041221341E+04  0.25500000920E-02 0. -1.
    10030    2    1    2    0    0  0.00000000000E+00  0.00000000000E+00  0.86217850618E+03  0.30704227745E+04  0.29468872115E+04 0.  0.
        5    1    3    3  502    0 -0.32893437006E+03 -0.81248856493E+03  0.16650851962E+04  0.18817189717E+04  0.46999998093E+01 0.  1.
       -5    1    3    3    0  502  0.32893437006E+03  0.81248856493E+03 -0.80290668998E+03  0.11887038028E+04  0.46999998093E+01 0. -1.
</event>
<event>
 5   0  0.7305460E-06  0.2884930E+04  0.7818609E-02  0.8277375E-01
        1   -1    0    0  501    0  0.00000000000E+00  0.00000000000E+00  0.13592489889E+04  0.13592489889E+04  0.50400001928E-02 0.  1.
       -1   -1    0    0    0  501  0.00000000000E+00  0.00000000000E+00 -0.15307756606E+04  0.15307756606E+04  0.50400001928E-02 0. -1.
    10030    2    1    2    0    0  0.00000000000E+00  0.00000000000E+00 -0.17152667170E+03  0.28900246495E+04  0.28849299950E+04 0.  0.
        4    1    3    3  502    0 -0.63649614622E+03  0.91769462742E+03 -0.10002900003E+04  0.14992906559E+04  0.12699999809E+01 0. -1.
       -4    1    3    3    0  502  0.63649614622E+03 -0.91769462742E+03  0.82876332857E+03  0.13907339936E+04  0.12699999809E+01 0.  1.
</event>
<event>
 5   0  0.8234888E-06  0.1441244E+04  0.7818609E-02  0.8924493E-01
        1   -1    0    0  501    0  0.00000000000E+00  0.00000000000E+00  0.54166993301E+03  0.54166993303E+03  0.50400001928E-02 0.  1.
       -1   -1    0    0    0  501  0.00000000000E+00  0.00000000000E+00 -0.95869456459E+03  0.95869456461E+03  0.50400001928E-02 0. -1.
    10030    2    1    2    0    0  0.00000000000E+00  0.00000000000E+00 -0.41702463159E+03  0.15003644976E+04  0.14412439358E+04 0.  0.
        3    1    3    3  502    0  0.57108549610E+03  0.34907677535E+03 -0.48649163791E+03  0.82744629004E+03  0.10100000352E+00 0.  1.
       -3    1    3    3    0  502 -0.57108549610E+03 -0.34907677535E+03  0.69467006325E+02  0.67291820759E+03  0.10100000352E+00 0. -1.
</event>
<event>
 5   0  0.7971153E-06  0.2811319E+04  0.7818609E-02  0.8299763E-01
       -1   -1    0    0    0  501  0.00000000000E+00  0.00000000000E+00  0.10410840676E+04  0.10410840676E+04  0.50400001928E-02 0.  1.
        1   -1    0    0  501    0  0.00000000000E+00  0.00000000000E+00 -0.18979050356E+04  0.18979050356E+04  0.50400001928E-02 0. -1.
    10030    2    1    2    0    0  0.00000000000E+00  0.00000000000E+00 -0.85682096799E+03  0.29389891032E+04  0.28113190459E+04 0.  0.
        5    1    3    3  502    0  0.42042027980E+03  0.11771169032E+04 -0.11006517557E+04  0.16654770466E+04  0.46999998093E+01 0. -1.
       -5    1    3    3    0  502 -0.42042027980E+03 -0.11771169032E+04  0.24383078771E+03  0.12735120567E+04  0.46999998093E+01 0.  1.
</event>
<event>
 5   0  0.1829810E-05  0.2867913E+04  0.7818609E-02  0.8282489E-01
        2   -1    0    0  501    0  0.00000000000E+00  0.00000000000E+00  0.17638355530E+04  0.17638355530E+04  0.25500000920E-02 0.  1.
       -2   -1    0    0    0  501  0.00000000000E+00  0.00000000000E+00 -0.11657729654E+04  0.11657729654E+04  0.25500000920E-02 0. -1.
    10030    2    1    2    0    0  0.00000000000E+00  0.00000000000E+00  0.59806258764E+03  0.29296085184E+04  0.28679133900E+04 0.  0.
        4    1    3    3  502    0 -0.81021100283E+03  0.82569095784E+03  0.11646221589E+04  0.16415096140E+04  0.12699999809E+01 0.  1.
       -4    1    3    3    0  502  0.81021100283E+03 -0.82569095784E+03 -0.56655957122E+03  0.12880989044E+04  0.12699999809E+01 0. -1.
</event>
<event>
 5   0  0.1829810E-05  0.2921791E+04  0.7818609E-02  0.8266423E-01
       -2   -1    0    0    0  501  0.00000000000E+00  0.00000000000E+00  0.18270978528E+04  0.18270978528E+04  0.25500000920E-02 0. -1.
        2   -1    0    0  501    0  0.00000000000E+00  0.00000000000E+00 -0.11680906261E+04  0.11680906261E+04  0.25500000920E-02 0.  1.
    10030    2    1    2    0    0  0.00000000000E+00  0.00000000000E+00  0.65900722672E+03  0.29951884790E+04  0.29217911458E+04 0.  0.
        4    1    3    3  502    0 -0.11704889169E+03  0.10790629471E+04  0.13318897338E+04  0.17181411940E+04  0.12699999809E+01 0. -1.
       -4    1    3    3    0  502  0.11704889169E+03 -0.10790629471E+04 -0.67288250704E+03  0.12770472849E+04  0.12699999809E+01 0.  1.
</event>
<event>
 5   0  0.1960961E-05  0.1428506E+04  0.7818609E-02  0.8933439E-01
       -2   -1    0    0    0  501  0.00000000000E+00  0.00000000000E+00  0.27786814372E+03  0.27786814374E+03  0.25500000920E-02 0. -1.
        2   -1    0    0  501    0  0.00000000000E+00  0.00000000000E+00 -0.18359694507E+04  0.18359694507E+04  0.25500000920E-02 0.  1.
    10030    2    1    2    0    0  0.00000000000E+00  0.00000000000E+00 -0.15581013070E+04  0.21138375945E+04  0.14285061053E+04 0.  0.
        5    1    3    3  502    0  0.49033889175E+03 -0.41839788543E+03 -0.12342916539E+04  0.13924751330E+04  0.46999998093E+01 0.  1.
       -5    1    3    3    0  502 -0.49033889175E+03  0.41839788543E+03 -0.32380965312E+03  0.72136246142E+03  0.46999998093E+01 0. -1.
</event>
<event>
 5   0  0.1829810E-05  0.2161578E+04  0.7818609E-02  0.8534593E-01
       -2   -1    0    0    0  501  0.00000000000E+00  0.00000000000E+00  0.44037056232E+03  0.44037056232E+03  0.25500000920E-02 0.  1.
        2   -1    0    0  501    0  0.00000000000E+00  0.00000000000E+00 -0.26525490228E+04  0.26525490228E+04  0.25500000920E-02 0. -1.
    10030    2    1    2    0    0  0.00000000000E+00  0.00000000000E+00 -0.22121784605E+04  0.30929195851E+04  0.21615776690E+04 0.  0.
        4    1    3    3  502    0  0.44181320486E+03  0.28219799005E+03  0.24625963016E+03  0.57920638112E+03  0.12699999809E+01 0.  1.
       -4    1    3    3    0  502 -0.44181320486E+03 -0.28219799005E+03 -0.24584380907E+04  0.25137132040E+04  0.12699999809E+01 0. -1.
</event>
<event>
 5   0  0.1976233E-05  0.2891901E+04  0.7818609E-02  0.8275291E-01
        2   -1    0    0  501    0  0.00000000000E+00  0.00000000000E+00  0.18615320459E+04  0.18615320459E+04  0.25500000920E-02 0. -1.
       -2   -1    0    0    0  501  0.00000000000E+00  0.00000000000E+00 -0.11231462449E+04  0.11231462449E+04  0.25500000920E-02 0.  1.
    10030    2    1    2    0    0  0.00000000000E+00  0.00000000000E+00  0.73838580108E+03  0.29846782908E+04  0.28919009161E+04 0.  0.
        2    1    3    3  502    0 -0.40688446687E+03 -0.56681415494E+02 -0.10616480846E+04  0.11383604033E+04  0.25500000920E-02 0.  1.
       -2    1    3    3    0  502  0.40688446687E+03  0.56681415494E+02  0.18000338857E+04  0.18463178875E+04  0.25500000920E-02 0. -1.
</event>
<event>
 5   0  0.1960961E-05  0.2742940E+04  0.7818609E-02  0.8321206E-01
        2   -1    0    0  501    0  0.00000000000E+00  0.00000000000E+00  0.24944763416E+04  0.24944763416E+04  0.25500000920E-02 0.  1.
       -2   -1    0    0    0  501  0.00000000000E+00  0.00000000000E+00 -0.75403783102E+03  0.75403783103E+03  0.25500000920E-02 0. -1.
    10030    2    1    2    0    0  0.00000000000E+00  0.00000000000E+00  0.17404385106E+04  0.32485141726E+04  0.27429396859E+04 0.  0.
        5    1    3    3  502    0 -0.51246451256E+03 -0.94678415971E+02 -0.63219671904E+03  0.81931597119E+03  0.46999998093E+01 0. -1.
       -5    1    3    3    0  502  0.51246451256E+03  0.94678415971E+02  0.23726352296E+04  0.24291982014E+04  0.46999998093E+01 0.  1.
</event>
<event>
 5   0  0.1960961E-05  0.1929313E+04  0.7818609E-02  0.8640401E-01
        2   -1    0    0  501    0  0.00000000000E+00  0.00000000000E+00  0.93579710062E+03  0.93579710063E+03  0.25500000920E-02 0. -1.
       -2   -1    0    0    0  501  0.00000000000E+00  0.00000000000E+00 -0.99440632024E+03  0.99440632024E+03  0.25500000920E-02 0.  1.
    10030    2    1    2    0    0  0.00000000000E+00  0.00000000000E+00 -0.58609219611E+02  0.19302034209E+04  0.19293134026E+04 0.  0.
        5    1    3    3  502    0  0.19021765511E+03 -0.11121283763E+03  0.91027154181E+03  0.93657216561E+03  0.46999998093E+01 0. -1.
       -5    1    3    3    0  502 -0.19021765511E+03  0.11121283763E+03 -0.96888076142E+03  0.99363125526E+03  0.46999998093E+01 0.  1.
</event>
<event>
 5   0  0.8055928E-06  0.2865448E+04  0.7818609E-02  0.8283232E-01
       -1   -1    0    0    0  501  0.00000000000E+00  0.00000000000E+00  0.97474411774E+03  0.97474411776E+03  0.50400001928E-02 0.  1.
        1   -1    0    0  501    0  0.00000000000E+00  0.00000000000E+00 -0.21058847104E+04  0.21058847104E+04  0.50400001928E-02 0. -1.
    10030    2    1    2    0    0  0.00000000000E+00  0.00000000000E+00 -0.11311405926E+04  0.30806288281E+04  0.28654484704E+04 0.  0.
        2    1    3    3  502    0 -0.62040397117E+03  0.89329095341E+03  0.43711280018E+03  0.11721507646E+04  0.25500000920E-02 0.  1.
       -2    1    3    3    0  502  0.62040397117E+03 -0.89329095341E+03 -0.15682533928E+04  0.19084780635E+04  0.25500000920E-02 0. -1.
</event>
<event>
 5   0  0.8055928E-06  0.2838076E+04  0.7818609E-02  0.8291544E-01
        1   -1    0    0  501    0  0.00000000000E+00  0.00000000000E+00  0.18178128300E+04  0.18178128300E+04  0.50400001928E-02 0.  1.
       -1   -1    0    0    0  501  0.00000000000E+00  0.00000000000E+00 -0.11077427984E+04  0.11077427984E+04  0.50400001928E-02 0. -1.
    10030    2    1    2    0    0  0.00000000000E+00  0.00000000000E+00  0.71007003155E+03  0.29255556284E+04  0.28380761592E+04 0.  0.
        2    1    3    3  502    0  0.99900940016E+03 -0.28530370165E+03  0.13513946420E+04  0.17046071284E+04  0.25500000920E-02 0.  1.
       -2    1    3    3    0  502 -0.99900940016E+03  0.28530370165E+03 -0.64132461042E+03  0.12209485000E+04  0.25500000920E-02 0. -1.
</event>
<event>
 5   0  0.1960961E-05  0.2792565E+04  0.7818609E-02  0.8305580E-01
       -2   -1    0    0    0  501  0.00000000000E+00  0.00000000000E+00  0.16058477516E+04  0.16058477516E+04  0.25500000920E-02 0.  1.
        2   -1    0    0  501    0  0.00000000000E+00  0.00000000000E+00 -0.12140653629E+04  0.12140653629E+04  0.25500000920E-02 0. -1.
    10030    2    1    2    0    0  0.00000000000E+00  0.00000000000E+00  0.39178238877E+03  0.28199131145E+04  0.27925645083E+04 0.  0.
        5    1    3    3  502    0  0.48940292923E+03 -0.69396138507E+03  0.13151160292E+04  0.15654551707E+04  0.46999998093E+01 0.  1.
       -5    1    3    3    0  502 -0.48940292923E+03  0.69396138507E+03 -0.92333364046E+03  0.12544579438E+04  0.46999998093E+01 0. -1.
</event>
<event>
 5   0  0.7971153E-06  0.2940660E+04  0.7818609E-02  0.8260882E-01
        1   -1    0    0  501    0  0.00000000000E+00  0.00000000000E+00  0.21810403895E+04  0.21810403895E+04  0.50400001928E-02 0.  1.
       -1   -1    0    0    0  501  0.00000000000E+00  0.00000000000E+00 -0.99121064514E+03  0.99121064515E+03  0.50400001928E-02 0. -1.
    10030    2    1    2    0    0  0.00000000000E+00  0.00000000000E+00  0.11898297444E+04  0.31722510347E+04  0.29406600971E+04 0.  0.
        5    1    3    3  502    0  0.12117224587E+04 -0.73878349639E+03  0.10096059183E+04  0.17416654592E+04  0.46999998093E+01 0.  1.
       -5    1    3    3    0  502 -0.12117224587E+04  0.73878349639E+03  0.18022382604E+03  0.14305855755E+04  0.46999998093E+01 0. -1.
</event>
<event>
 5   0  0.1937947E-05  0.2904779E+04  0.7818609E-02  0.8271457E-01
        2   -1    0    0  501    0  0.00000000000E+00  0.00000000000E+00  0.17162619329E+04  0.17162619329E+04  0.25500000920E-02 0. -1.
       -2   -1    0    0    0  501  0.00000000000E+00  0.00000000000E+00 -0.12290871188E+04  0.12290871188E+04  0.25500000920E-02 0.  1.
    10030    2    1    2    0    0  0.00000000000E+00  0.00000000000E+00  0.48717481410E+03  0.29453490517E+04  0.29047791201E+04 0.  0.
        3    1    3    3  502    0 -0.54440815220E+03 -0.12091802216E+04  0.84426175989E+03  0.15720289355E+04  0.10100000352E+00 0. -1.
       -3    1    3    3    0  502  0.54440815220E+03  0.12091802216E+04 -0.35708694579E+03  0.13733201162E+04  0.10100000352E+00 0.  1.
</event>
<event>
 5   0  0.8122088E-06  0.2840468E+04  0.7818609E-02  0.8290814E-01
       -1   -1    0    0    0  501  0.00000000000E+00  0.00000000000E+00  0.85632066223E+03  0.85632066224E+03  0.50400001928E-02 0. -1.
        1   -1    0    0  501    0  0.00000000000E+00  0.00000000000E+00 -0.23555018277E+04  0.23555018277E+04  0.50400001928E-02 0.  1.
    10030    2    1    2    0    0  0.00000000000E+00  0.00000000000E+00 -0.14991811654E+04  0.32118224899E+04  0.28404681903E+04 0.  0.
        1    1    3    3  502    0 -0.67271287711E+03 -0.56828583039E+03  0.51034348564E+03  0.10178122977E+04  0.50400001928E-02 0. -1.
       -1    1    3    3    0  502  0.67271287711E+03  0.56828583039E+03 -0.20095246511E+04  0.21940101922E+04  0.50400001928E-02 0.  1.
</event>
<event>
 5   0  0.8055928E-06  0.2880912E+04  0.7818609E-02  0.8278580E-01
        1   -1    0    0  501    0  0.00000000000E+00  0.00000000000E+00  0.16935534817E+04  0.16935534817E+04  0.50400001928E-02 0.  1.
       -1   -1    0    0    0  501  0.00000000000E+00  0.00000000000E+00 -0.12251829962E+04  0.12251829962E+04  0.50400001928E-02 0. -1.
    10030    2    1    2    0    0  0.00000000000E+00  0.00000000000E+00  0.46837048547E+03  0.29187364779E+04  0.28809116120E+04 0.  0.
        2    1    3    3  502    0  0.12815392811E+02  0.14389637081E+04  0.16905952235E+03  0.14489174958E+04  0.25500000920E-02 0. -1.
       -2    1    3    3    0  502 -0.12815392811E+02 -0.14389637081E+04  0.29931096313E+03  0.14698189821E+04  0.25500000920E-02 0.  1.
</event>
<event>
 5   0  0.7971153E-06  0.1441273E+04  0.7818609E-02  0.8924473E-01
        1   -1    0    0  501    0  0.00000000000E+00  0.00000000000E+00  0.44245225403E+03  0.44245225405E+03  0.50400001928E-02 0. -1.
       -1   -1    0    0    0  501  0.00000000000E+00  0.00000000000E+00 -0.11737237158E+04  0.11737237158E+04  0.50400001928E-02 0.  1.
    10030    2    1    2    0    0  0.00000000000E+00  0.00000000000E+00 -0.73127146174E+03  0.16161759698E+04  0.14412726372E+04 0.  0.
        5    1    3    3  502    0 -0.35141456792E+03 -0.46697913482E+03  0.10710869913E+03  0.59418521888E+03  0.46999998093E+01 0. -1.
       -5    1    3    3    0  502  0.35141456792E+03  0.46697913482E+03 -0.83838016086E+03  0.10219907510E+04  0.46999998093E+01 0.  1.
</event>
<event>
 5   0  0.1976233E-05  0.2943171E+04  0.7818609E-02  0.8260147E-01
       -2   -1    0    0    0  501  0.00000000000E+00  0.00000000000E+00  0.10939631327E+04  0.10939631327E+04  0.25500000920E-02 0. -1.
        2   -1    0    0  501    0  0.00000000000E+00  0.00000000000E+00 -0.19795590275E+04  0.19795590275E+04  0.25500000920E-02 0.  1.
    10030    2    1    2    0    0  0.00000000000E+00  0.00000000000E+00 -0.88559589479E+03  0.30735221601E+04  0.29431714833E+04 0.  0.
        2    1    3    3  502    0 -0.90047364229E+03  0.76302000463E+03  0.47505578796E+03  0.12722933269E+04  0.25500000920E-02 0. -1.
       -2    1    3    3    0  502  0.90047364229E+03 -0.76302000463E+03 -0.13606516828E+04  0.18012288332E+04  0.25500000920E-02 0.  1.
</event>
<event>
 5   0  0.1829810E-05  0.3065078E+04  0.7818609E-02  0.8225388E-01
        2   -1    0    0  501    0  0.00000000000E+00  0.00000000000E+00  0.20584981713E+04  0.20584981713E+04  0.25500000920E-02 0.  1.
       -2   -1    0    0    0  501  0.00000000000E+00  0.00000000000E+00 -0.11409658113E+04  0.11409658113E+04  0.25500000920E-02 0. -1.
    10030    2    1    2    0    0  0.00000000000E+00  0.00000000000E+00  0.91753235993E+03  0.31994639826E+04  0.30650781629E+04 0.  0.
        4    1    3    3  502    0 -0.84037186156E+03 -0.12051831493E+04  0.91374711135E+03  0.17302100120E+04  0.12699999809E+01 0. -1.
       -4    1    3    3    0  502  0.84037186156E+03  0.12051831493E+04  0.37852485812E+01  0.14692539706E+04  0.12699999809E+01 0.  1.
</event>
<event>
 5   0  0.8234888E-06  0.2846820E+04  0.7818609E-02  0.8288878E-01
       -1   -1    0    0    0  501  0.00000000000E+00  0.00000000000E+00  0.11440840235E+04  0.11440840235E+04  0.50400001928E-02 0. -1.
        1   -1    0    0  501    0  0.00000000000E+00  0.00000000000E+00 -0.17709324065E+04  0.17709324065E+04  0.50400001928E-02 0.  1.
    10030    2    1    2    0    0  0.00000000000E+00  0.00000000000E+00 -0.62684838299E+03  0.29150164300E+04  0.28468196100E+04 0.  0.
        3    1    3    3  502    0  0.21220058063E+03  0.47422598093E+03 -0.16703780768E+04  0.17493090913E+04  0.10100000352E+00 0.  1.
       -3    1    3    3    0  502 -0.21220058063E+03 -0.47422598093E+03  0.10435296938E+04  0.11657073387E+04  0.10100000352E+00 0. -1.
</event>
<event>
 5   0  0.1976233E-05  0.2942651E+04  0.7818609E-02  0.8260299E-01
        2   -1    0    0  501    0  0.00000000000E+00  0.00000000000E+00  0.11294939682E+04  0.11294939682E+04  0.25500000920E-02 0. -1.
       -2   -1    0    0    0  501  0.00000000000E+00  0.00000000000E+00 -0.19166093444E+04  0.19166093444E+04  0.25500000920E-02 0.  1.
    10030    2    1    2    0    0  0.00000000000E+00  0.00000000000E+00 -0.78711537615E+03  0.30461033126E+04  0.29426509775E+04 0.  0.
        2    1    3    3  502    0 -0.81653694345E+03 -0.67479918411E+02  0.87149995943E+03  0.11961598132E+04  0.25500000920E-02 0. -1.
       -2    1    3    3    0  502  0.81653694345E+03  0.67479918411E+02 -0.16586153356E+04  0.18499434994E+04  0.25500000920E-02 0.  1.
</event>
<event>
 5   0  0.7971153E-06  0.2712186E+04  0.7818609E-02  0.8331062E-01
        1   -1    0    0  501    0  0.00000000000E+00  0.00000000000E+00  0.14941948745E+04  0.14941948745E+04  0.50400001928E-02 0. -1.
       -1   -1    0    0    0  501  0.00000000000E+00  0.00000000000E+00 -0.12307548375E+04  0.12307548375E+04  0.50400001928E-02 0.  1.
    10030    2    1    2    0    0  0.00000000000E+00  0.00000000000E+00  0.26344003706E+03  0.27249497120E+04  0.27121855173E+04 0.  0.
        5    1    3    3  502    0 -0.10628563896E+04 -0.70062522493E+03  0.60128027884E+03  0.14078705460E+04  0.46999998093E+01 0. -1.
       -5    1    3    3    0  502  0.10628563896E+04  0.70062522493E+03 -0.33784024179E+03  0.13170791660E+04  0.46999998093E+01 0.  1.
</event>
<event>
 5   0  0.7305460E-06  0.3490110E+04  0.7818609E-02  0.8116138E-01
       -1   -1    0    0    0  501  0.00000000000E+00  0.00000000000E+00  0.17440786331E+04  0.17440786332E+04  0.50400001928E-02 0. -1.
        1   -1    0    0  501    0  0.00000000000E+00  0.00000000000E+00 -0.17460321403E+04  0.17460321403E+04  0.50400001928E-02 0.  1.
    10030    2    1    2    0    0  0.00000000000E+00  0.00000000000E+00 -0.19535071297E+01  0.34901107734E+04  0.34901102267E+04 0.  0.
        4    1    3    3  502    0 -0.12812536536E+03 -0.77792676692E+03  0.15558245604E+04  0.17441840039E+04  0.12699999809E+01 0. -1.
       -4    1    3    3    0  502  0.12812536536E+03  0.77792676692E+03 -0.15577780675E+04  0.17459267695E+04  0.12699999809E+01 0.  1.
</event>
<event>
 5   0  0.8055928E-06  0.2912194E+04  0.7818609E-02  0.8269259E-01
        1   -1    0    0  501    0  0.00000000000E+00  0.00000000000E+00  0.63297468940E+03  0.63297468942E+03  0.50400001928E-02 0.  1.
       -1   -1    0    0    0  501  0.00000000000E+00  0.00000000000E+00 -0.33496099670E+04  0.33496099670E+04  0.50400001928E-02 0. -1.
    10030    2    1    2    0    0  0.00000000000E+00  0.00000000000E+00 -0.27166352776E+04  0.39825846564E+04  0.29121939005E+04 0.  0.
        2    1    3    3  502    0 -0.47933700832E+03 -0.52726361722E+03 -0.30948685159E+04  0.31758435132E+04  0.25500000920E-02 0. -1.
       -2    1    3    3    0  502  0.47933700832E+03  0.52726361722E+03  0.37823323832E+03  0.80674114322E+03  0.25500000920E-02 0.  1.
</event>
<event>
 5   0  0.7971153E-06  0.2838439E+04  0.7818609E-02  0.8291433E-01
       -1   -1    0    0    0  501  0.00000000000E+00  0.00000000000E+00  0.13637647551E+04  0.13637647551E+04  0.50400001928E-02 0. -1.
        1   -1    0    0  501    0  0.00000000000E+00  0.00000000000E+00 -0.14769292616E+04  0.14769292616E+04  0.50400001928E-02 0.  1.
    10030    2    1    2    0    0  0.00000000000E+00  0.00000000000E+00 -0.11316450648E+03  0.28406940167E+04  0.28384390589E+04 0.  0.
        5    1    3    3  502    0 -0.78540833313E+03  0.55026451828E+03  0.99043465747E+03  0.13786370772E+04  0.46999998093E+01 0. -1.
       -5    1    3    3    0  502  0.78540833313E+03 -0.55026451828E+03 -0.11035991640E+04  0.14620569396E+04  0.46999998093E+01 0.  1.
</event>
<event>
 5   0  0.8122088E-06  0.2885284E+04  0.7818609E-02  0.8277269E-01
        1   -1    0    0  501    0  0.00000000000E+00  0.00000000000E+00  0.21954738636E+04  0.21954738636E+04  0.50400001928E-02 0.  1.
       -1   -1    0    0    0  501  0.00000000000E+00  0.00000000000E+00 -0.94795755332E+03  0.94795755333E+03  0.50400001928E-02 0. -1.
    10030    2    1    2    0    0  0.00000000000E+00  0.00000000000E+00  0.12475163103E+04  0.31434314170E+04  0.28852840638E+04 0.  0.
        1    1    3    3  502    0  0.44742841690E+03 -0.10431368228E+04 -0.34635349881E+03  0.11867128404E+04  0.50400001928E-02 0. -1.
       -1    1    3    3    0  502 -0.44742841690E+03  0.10431368228E+04  0.15938698091E+04  0.19567185766E+04  0.50400001928E-02 0.  1.
</event>
<event>
 5   0  0.1937947E-05  0.2909429E+04  0.7818609E-02  0.8270077E-01
       -2   -1    0    0    0  501  0.00000000000E+00  0.00000000000E+00  0.66658572077E+03  0.66658572077E+03  0.25500000920E-02 0.  1.
        2   -1    0    0  501    0  0.00000000000E+00  0.00000000000E+00 -0.31746778683E+04  0.31746778683E+04  0.25500000920E-02 0. -1.
    10030    2    1    2    0    0  0.00000000000E+00  0.00000000000E+00 -0.25080921475E+04  0.38412635891E+04  0.29094294527E+04 0.  0.
        3    1    3    3  502    0 -0.46443220756E+03 -0.13026781432E+04 -0.65841462602E+03  0.15317236860E+04  0.10100000352E+00 0.  1.
       -3    1    3    3    0  502  0.46443220756E+03  0.13026781432E+04 -0.18496775215E+04  0.23095399031E+04  0.10100000352E+00 0. -1.
</event>
<event>
 5   0  0.1937947E-05  0.2381176E+04  0.7818609E-02  0.8446585E-01
       -2   -1    0    0    0  501  0.00000000000E+00  0.00000000000E+00  0.18899949527E+04  0.18899949527E+04  0.25500000920E-02 0. -1.
        2   -1    0    0  501    0  0.00000000000E+00  0.00000000000E+00 -0.75000206355E+03  0.75000206355E+03  0.25500000920E-02 0.  1.
    10030    2    1    2    0    0  0.00000000000E+00  0.00000000000E+00  0.11399928891E+04  0.26399970162E+04  0.23811762762E+04 0.  0.
        3    1    3    3  502    0  0.11712715440E+04 -0.19301951983E+03  0.67140738797E+03  0.13637893737E+04  0.10100000352E+00 0. -1.
       -3    1    3    3    0  502 -0.11712715440E+04  0.19301951983E+03  0.46858550115E+03  0.12762076426E+04  0.10100000352E+00 0.  1.
</event>
<event>
 5   0  0.7971153E-06  0.2940846E+04  0.7818609E-02  0.8260827E-01
        1   -1    0    0  501    0  0.00000000000E+00  0.00000000000E+00  0.20618478873E+04  0.20618478873E+04  0.50400001928E-02 0. -1.
       -1   -1    0    0    0  501  0.00000000000E+00  0.00000000000E+00 -0.10486436702E+04  0.10486436702E+04  0.50400001928E-02 0.  1.
    10030    2    1    2    0    0  0.00000000000E+00  0.00000000000E+00  0.10132042171E+04  0.31104915574E+04  0.29408459571E+04 0.  0.
        5    1    3    3  502    0  0.13506205185E+04  0.45381138684E+03  0.12232412551E+03  0.14300719707E+04  0.46999998093E+01 0.  1.
       -5    1    3    3    0  502 -0.13506205185E+04 -0.45381138684E+03  0.89088009160E+03  0.16804195867E+04  0.46999998093E+01 0. -1.
</event>
<event>
 5   0  0.8234888E-06  0.2814964E+04  0.7818609E-02  0.8298638E-01
        1   -1    0    0  501    0  0.00000000000E+00  0.00000000000E+00  0.22101963591E+04  0.22101963591E+04  0.50400001928E-02 0.  1.
       -1   -1    0    0    0  501  0.00000000000E+00  0.00000000000E+00 -0.89630286645E+03  0.89630286646E+03  0.50400001928E-02 0. -1.
    10030    2    1    2    0    0  0.00000000000E+00  0.00000000000E+00  0.13138934927E+04  0.31064992256E+04  0.28149638237E+04 0.  0.
        3    1    3    3  502    0  0.12677274279E+04 -0.37892000300E+02 -0.16533185159E+02  0.12684013527E+04  0.10100000352E+00 0. -1.
       -3    1    3    3    0  502 -0.12677274279E+04  0.37892000300E+02  0.13304266778E+04  0.18380978729E+04  0.10100000352E+00 0.  1.
</event>
<event>
 5   0  0.8234888E-06  0.2973236E+04  0.7818609E-02  0.8251415E-01
       -1   -1    0    0    0  501  0.00000000000E+00  0.00000000000E+00  0.97242058599E+03  0.97242058600E+03  0.50400001928E-02 0. -1.
        1   -1    0    0  501    0  0.00000000000E+00  0.00000000000E+00 -0.22727138187E+04  0.22727138187E+04  0.50400001928E-02 0.  1.
    10030    2    1    2    0    0  0.00000000000E+00  0.00000000000E+00 -0.13002932327E+04  0.32451344047E+04  0.29732364207E+04 0.  0.
        3    1    3    3  502    0 -0.92360382460E+03 -0.32851689007E+03  0.56967406991E+03  0.11337971282E+04  0.10100000352E+00 0. -1.
       -3    1    3    3    0  502  0.92360382460E+03  0.32851689007E+03 -0.18699673026E+04  0.21113372764E+04  0.10100000352E+00 0.  1.
</event>
<event>
 5   0  0.1976233E-05  0.2883513E+04  0.7818609E-02  0.8277800E-01
       -2   -1    0    0    0  501  0.00000000000E+00  0.00000000000E+00  0.12238126640E+04  0.12238126640E+04  0.25500000920E-02 0. -1.
        2   -1    0    0  501    0  0.00000000000E+00  0.00000000000E+00 -0.16985136482E+04  0.16985136482E+04  0.25500000920E-02 0.  1.
    10030    2    1    2    0    0  0.00000000000E+00  0.00000000000E+00 -0.47470098414E+03  0.29223263122E+04  0.28835134906E+04 0.  0.
        2    1    3    3  502    0 -0.39958943966E+03  0.25115010419E+03  0.11433061723E+04  0.12368900917E+04  0.25500000920E-02 0. -1.
       -2    1    3    3    0  502  0.39958943966E+03 -0.25115010419E+03 -0.16180071565E+04  0.16854362206E+04  0.25500000920E-02 0.  1.
</event>
<event>
 5   0  0.1976233E-05  0.2908370E+04  0.7818609E-02  0.8270391E-01
       -2   -1    0    0    0  501  0.00000000000E+00  0.00000000000E+00  0.13813357365E+04  0.13813357365E+04  0.25500000920E-02 0.  1.
        2   -1    0    0  501    0  0.00000000000E+00  0.00000000000E+00 -0.15308763530E+04  0.15308763530E+04  0.25500000920E-02 0. -1.
    10030    2    1    2    0    0  0.00000000000E+00  0.00000000000E+00 -0.14954061650E+03  0.29122120894E+04  0.29083701377E+04 0.  0.
        2    1    3    3  502    0 -0.10691507704E+04 -0.74482401586E+03 -0.72122986827E+03  0.14893014158E+04  0.25500000920E-02 0. -1.
       -2    1    3    3    0  502  0.10691507704E+04  0.74482401586E+03  0.57168925177E+03  0.14229106736E+04  0.25500000920E-02 0.  1.
</event>
<event>
 5   0  0.7305460E-06  0.2952144E+04  0.7818609E-02  0.8257530E-01
       -1   -1    0    0    0  501  0.00000000000E+00  0.00000000000E+00  0.10641260266E+04  0.10641260266E+04  0.50400001928E-02 0. -1.
        1   -1    0    0  501    0  0.00000000000E+00  0.00000000000E+00 -0.20474904744E+04  0.20474904744E+04  0.50400001928E-02 0.  1.
    10030    2    1    2    0    0  0.00000000000E+00  0.00000000000E+00 -0.98336444776E+03  0.31116165010E+04  0.29521435622E+04 0.  0.
        4    1    3    3  502    0 -0.38346592217E+03 -0.21004358884E+03  0.99430636911E+03  0.10861911394E+04  0.12699999809E+01 0. -1.
       -4    1    3    3    0  502  0.38346592217E+03  0.21004358884E+03 -0.19776708169E+04  0.20254253616E+04  0.12699999809E+01 0.  1.
</event>
<event>
 5   0  0.1918901E-05  0.2724851E+04  0.7818609E-02  0.8326986E-01
       -2   -1    0    0    0  501  0.00000000000E+00  0.00000000000E+00  0.14303958729E+04  0.14303958729E+04  0.25500000920E-02 0. -1.
        2   -1    0    0  501    0  0.00000000000E+00  0.00000000000E+00 -0.12976850552E+04  0.12976850552E+04  0.25500000920E-02 0.  1.
    10030    2    1    2    0    0  0.00000000000E+00  0.00000000000E+00  0.13271081769E+03  0.27280809281E+04  0.27248510765E+04 0.  0.
        1    1    3    3  502    0  0.67839188853E+03  0.11042576073E+04  0.48709504766E+03  0.13845078559E+04  0.50400001928E-02 0. -1.
       -1    1    3    3    0  502 -0.67839188853E+03 -0.11042576073E+04 -0.35438422997E+03  0.13435730721E+04  0.50400001928E-02 0.  1.
</event>
<event>
 5   0  0.1960961E-05  0.2572330E+04  0.7818609E-02  0.8377661E-01
        2   -1    0    0  501    0  0.00000000000E+00  0.00000000000E+00  0.11722824282E+04  0.11722824282E+04  0.25500000920E-02 0. -1.
       -2   -1    0    0    0  501  0.00000000000E+00  0.00000000000E+00 -0.14111104200E+04  0.14111104200E+04  0.25500000920E-02 0.  1.
    10030    2    1    2    0    0  0.00000000000E+00  0.00000000000E+00 -0.23882799183E+03  0.25833928482E+04  0.25723296442E+04 0.  0.
        5    1    3    3  502    0  0.23018327269E+03 -0.72160247817E+03 -0.11633572590E+04  0.13882062806E+04  0.46999998093E+01 0.  1.
       -5    1    3    3    0  502 -0.23018327269E+03  0.72160247817E+03  0.92452926715E+03  0.11951865676E+04  0.46999998093E+01 0. -1.
</event>
<event>
 5   0  0.1960961E-05  0.1523516E+04  0.7818609E-02  0.8868964E-01
       -2   -1    0    0    0  501  0.00000000000E+00  0.00000000000E+00  0.52708732019E+03  0.52708732019E+03  0.25500000920E-02 0.  1.
        2   -1    0    0  501    0  0.00000000000E+00  0.00000000000E+00 -0.11009086949E+04  0.11009086949E+04  0.25500000920E-02 0. -1.
    10030    2    1    2    0    0  0.00000000000E+00  0.00000000000E+00 -0.57382137468E+03  0.16279960151E+04  0.15235156891E+04 0.  0.
        5    1    3    3  502    0 -0.23527401421E+03 -0.32418889463E+03  0.40544289833E+03  0.56996345056E+03  0.46999998093E+01 0.  1.
       -5    1    3    3    0  502  0.23527401421E+03  0.32418889463E+03 -0.97926427301E+03  0.10580325645E+04  0.46999998093E+01 0. -1.
</event>
<event>
 5   0  0.1976233E-05  0.2879757E+04  0.7818609E-02  0.8278926E-01
       -2   -1    0    0    0  501  0.00000000000E+00  0.00000000000E+00  0.21206660742E+04  0.21206660742E+04  0.25500000920E-02 0.  1.
        2   -1    0    0  501    0  0.00000000000E+00  0.00000000000E+00 -0.97764107483E+03  0.97764107483E+03  0.25500000920E-02 0. -1.
    10030    2    1    2    0    0  0.00000000000E+00  0.00000000000E+00  0.11430249994E+04  0.30983071490E+04  0.28797571148E+04 0.  0.
        2    1    3    3  502    0  0.10783043186E+04  0.49737198230E+03 -0.30461705251E+03  0.12259325597E+04  0.25500000920E-02 0. -1.
       -2    1    3    3    0  502 -0.10783043186E+04 -0.49737198230E+03  0.14476420519E+04  0.18723745893E+04  0.25500000920E-02 0.  1.
</event>
<event>
 5   0  0.6578125E-06  0.2878121E+04  0.7818609E-02  0.8279417E-01
       -3   -1    0    0    0  501  0.00000000000E+00  0.00000000000E+00  0.15590223241E+04  0.15590223274E+04  0.10100000352E+00 0. -1.
        3   -1    0    0  501    0  0.00000000000E+00  0.00000000000E+00 -0.13283290361E+04  0.13283290399E+04  0.10100000352E+00 0.  1.
    10030    2    1    2    0    0  0.00000000000E+00  0.00000000000E+00  0.23069328800E+03  0.28873513673E+04  0.28781206586E+04 0.  0.
        2    1    3    3  502    0  0.75063277491E+00 -0.89085863737E+03  0.12491327714E+04  0.15342628053E+04  0.25500000920E-02 0. -1.
       -2    1    3    3    0  502 -0.75063277491E+00  0.89085863737E+03 -0.10184394834E+04  0.13530885620E+04  0.25500000920E-02 0.  1.
</event>
<event>
 5   0  0.1937947E-05  0.2896044E+04  0.7818609E-02  0.8274055E-01
       -2   -1    0    0    0  501  0.00000000000E+00  0.00000000000E+00  0.13886626379E+04  0.13886626379E+04  0.25500000920E-02 0. -1.
        2   -1    0    0  501    0  0.00000000000E+00  0.00000000000E+00 -0.15099186140E+04  0.15099186140E+04  0.25500000920E-02 0.  1.
    10030    2    1    2    0    0  0.00000000000E+00  0.00000000000E+00 -0.12125597617E+03  0.28985812519E+04  0.28960438985E+04 0.  0.
        3    1    3    3  502    0 -0.71072815056E+03  0.11726226046E+04  0.40517129468E+03  0.14298049045E+04  0.10100000352E+00 0. -1.
       -3    1    3    3    0  502  0.71072815056E+03 -0.11726226046E+04 -0.52642727084E+03  0.14687763473E+04  0.10100000352E+00 0.  1.
</event>
<event>
 5   0  0.8234888E-06  0.2690127E+04  0.7818609E-02  0.8338215E-01
       -1   -1    0    0    0  501  0.00000000000E+00  0.00000000000E+00  0.98431963235E+03  0.98431963236E+03  0.50400001928E-02 0.  1.
        1   -1    0    0  501    0  0.00000000000E+00  0.00000000000E+00 -0.18380168758E+04  0.18380168758E+04  0.50400001928E-02 0. -1.
    10030    2    1    2    0    0  0.00000000000E+00  0.00000000000E+00 -0.85369724341E+03  0.28223365081E+04  0.26901272055E+04 0.  0.
        3    1    3    3  502    0  0.58785111774E+03 -0.12065716822E+04 -0.51957749655E+03  0.14392167822E+04  0.10100000352E+00 0. -1.
       -3    1    3    3    0  502 -0.58785111774E+03  0.12065716822E+04 -0.33411974686E+03  0.13831197260E+04  0.10100000352E+00 0.  1.
</event>
<event>
 5   0  0.1829810E-05  0.1522386E+04  0.7818609E-02  0.8869702E-01
       -2   -1    0    0    0  501  0.00000000000E+00  0.00000000000E+00  0.47275955923E+03  0.47275955923E+03  0.25500000920E-02 0.  1.
        2   -1    0    0  501    0  0.00000000000E+00  0.00000000000E+00 -0.12256009014E+04  0.12256009015E+04  0.25500000920E-02 0. -1.
    10030    2    1    2    0    0  0.00000000000E+00  0.00000000000E+00 -0.75284134222E+03  0.16983604607E+04  0.15223856830E+04 0.  0.
        4    1    3    3  502    0 -0.24004249689E+03 -0.23273222392E+03  0.38645812655E+03  0.51101485775E+03  0.12699999809E+01 0.  1.
       -4    1    3    3    0  502  0.24004249689E+03  0.23273222392E+03 -0.11392994688E+04  0.11873456029E+04  0.12699999809E+01 0. -1.
</event>
<event>
 5   0  0.8055928E-06  0.2888588E+04  0.7818609E-02  0.8276281E-01
        1   -1    0    0  501    0  0.00000000000E+00  0.00000000000E+00  0.10178112246E+04  0.10178112246E+04  0.50400001928E-02 0. -1.
       -1   -1    0    0    0  501  0.00000000000E+00  0.00000000000E+00 -0.20494812661E+04  0.20494812661E+04  0.50400001928E-02 0.  1.
    10030    2    1    2    0    0  0.00000000000E+00  0.00000000000E+00 -0.10316700415E+04  0.30672924906E+04  0.28885879160E+04 0.  0.
        2    1    3    3  502    0 -0.27680067040E+03 -0.11175590461E+04  0.41013880250E+03  0.12221991122E+04  0.25500000920E-02 0. -1.
       -2    1    3    3    0  502  0.27680067040E+03  0.11175590461E+04 -0.14418088440E+04  0.18450933784E+04  0.25500000920E-02 0.  1.
</event>
<event>
 5   0  0.8122088E-06  0.2735256E+04  0.7818609E-02  0.8323655E-01
        1   -1    0    0  501    0  0.00000000000E+00  0.00000000000E+00  0.11481445868E+04  0.11481445868E+04  0.50400001928E-02 0. -1.
       -1   -1    0    0    0  501  0.00000000000E+00  0.00000000000E+00 -0.16290686248E+04  0.16290686248E+04  0.50400001928E-02 0.  1.
    10030    2    1    2    0    0  0.00000000000E+00  0.00000000000E+00 -0.48092403799E+03  0.27772132116E+04  0.27352559829E+04 0.  0.
        1    1    3    3  502    0 -0.11890949928E+03 -0.75620948863E+03  0.91024237637E+03  0.11893416008E+04  0.50400001928E-02 0. -1.
       -1    1    3    3    0  502  0.11890949928E+03  0.75620948863E+03 -0.13911664144E+04  0.15878716107E+04  0.50400001928E-02 0.  1.
</event>
<event>
 5   0  0.1960961E-05  0.2733492E+04  0.7818609E-02  0.8324219E-01
        2   -1    0    0  501    0  0.00000000000E+00  0.00000000000E+00  0.20722410070E+04  0.20722410070E+04  0.25500000920E-02 0. -1.
       -2   -1    0    0    0  501  0.00000000000E+00  0.00000000000E+00 -0.90143672192E+03  0.90143672192E+03  0.25500000920E-02 0.  1.
    10030    2    1    2    0    0  0.00000000000E+00  0.00000000000E+00  0.11708042851E+04  0.29736777289E+04  0.27334916428E+04 0.  0.
        5    1    3    3  502    0  0.69752093678E+03 -0.42407799847E+03 -0.60708884547E+03  0.10173281488E+04  0.46999998093E+01 0.  1.
       -5    1    3    3    0  502 -0.69752093678E+03  0.42407799847E+03  0.17778931305E+04  0.19563495801E+04  0.46999998093E+01 0. -1.
</event>
<event>
 5   0  0.7971153E-06  0.2868037E+04  0.7818609E-02  0.8282451E-01
       -1   -1    0    0    0  501  0.00000000000E+00  0.00000000000E+00  0.14427272383E+04  0.14427272383E+04  0.50400001928E-02 0. -1.
        1   -1    0    0  501    0  0.00000000000E+00  0.00000000000E+00 -0.14253622593E+04  0.14253622593E+04  0.50400001928E-02 0.  1.
    10030    2    1    2    0    0  0.00000000000E+00  0.00000000000E+00  0.17364978968E+02  0.28680894975E+04  0.28680369285E+04 0.  0.
        5    1    3    3  502    0  0.61227715954E+03 -0.14352196886E+03  0.12974671407E+04  0.14418477544E+04  0.46999998093E+01 0. -1.
       -5    1    3    3    0  502 -0.61227715954E+03  0.14352196886E+03 -0.12801021617E+04  0.14262417432E+04  0.46999998093E+01 0.  1.
</event>
<event>
 5   0  0.1937947E-05  0.2967686E+04  0.7818609E-02  0.8253019E-01
       -2   -1    0    0    0  501  0.00000000000E+00  0.00000000000E+00  0.10909678074E+04  0.10909678074E+04  0.25500000920E-02 0. -1.
        2   -1    0    0  501    0  0.00000000000E+00  0.00000000000E+00 -0.20181989361E+04  0.20181989361E+04  0.25500000920E-02 0.  1.
    10030    2    1    2    0    0  0.00000000000E+00  0.00000000000E+00 -0.92723112868E+03  0.31091667435E+04  0.29676860132E+04 0.  0.
        3    1    3    3  502    0 -0.11040996793E+04  0.26777690346E+03 -0.14636087662E+04  0.18528063047E+04  0.10100000352E+00 0.  1.
       -3    1    3    3    0  502  0.11040996793E+04 -0.26777690346E+03  0.53637763755E+03  0.12563604388E+04  0.10100000352E+00 0. -1.
</event>
<event>
 5   0  0.1918901E-05  0.2654687E+04  0.7818609E-02  0.8349859E-01
       -2   -1    0    0    0  501  0.00000000000E+00  0.00000000000E+00  0.11138593707E+04  0.11138593707E+04  0.25500000920E-02 0. -1.
        2   -1    0    0  501    0  0.00000000000E+00  0.00000000000E+00 -0.15817443187E+04  0.15817443187E+04  0.25500000920E-02 0.  1.
    10030    2    1    2    0    0  0.00000000000E+00  0.00000000000E+00 -0.46788494795E+03  0.26956036894E+04  0.26546869732E+04 0.  0.
        1    1    3    3  502    0 -0.20920006269E+03  0.15674612260E+03  0.10874632549E+04  0.11184410328E+04  0.50400001928E-02 0. -1.
       -1    1    3    3    0  502  0.20920006269E+03 -0.15674612260E+03 -0.15553482028E+04  0.15771626565E+04  0.50400001928E-02 0.  1.
</event>
<event>
 5   0  0.8055928E-06  0.2745440E+04  0.7818609E-02  0.8320410E-01
        1   -1    0    0  501    0  0.00000000000E+00  0.00000000000E+00  0.27945811213E+04  0.27945811213E+04  0.50400001928E-02 0. -1.
       -1   -1    0    0    0  501  0.00000000000E+00  0.00000000000E+00 -0.67429053562E+03  0.67429053564E+03  0.50400001928E-02 0.  1.
    10030    2    1    2    0    0  0.00000000000E+00  0.00000000000E+00  0.21202905856E+04  0.34688716569E+04  0.27454395649E+04 0.  0.
        2    1    3    3  502    0 -0.90921033263E+03 -0.70357910838E+02  0.23565426312E+04  0.25268373191E+04  0.25500000920E-02 0. -1.
       -2    1    3    3    0  502  0.90921033263E+03  0.70357910838E+02 -0.23625204555E+03  0.94203433781E+03  0.25500000920E-02 0.  1.
</event>
<event>
 5   0  0.8055928E-06  0.2976219E+04  0.7818609E-02  0.8250555E-01
        1   -1    0    0  501    0  0.00000000000E+00  0.00000000000E+00  0.29153828875E+04  0.29153828875E+04  0.50400001928E-02 0. -1.
       -1   -1    0    0    0  501  0.00000000000E+00  0.00000000000E+00 -0.75958099790E+03  0.75958099792E+03  0.50400001928E-02 0.  1.
    10030    2    1    2    0    0  0.00000000000E+00  0.00000000000E+00  0.21558018896E+04  0.36749638854E+04  0.29762187036E+04 0.  0.
        2    1    3    3  502    0 -0.83788004643E+03 -0.20004932862E+03  0.25762125102E+04  0.27164192614E+04  0.25500000920E-02 0. -1.
       -2    1    3    3    0  502  0.83788004643E+03  0.20004932862E+03 -0.42041062067E+03  0.95854462393E+03  0.25500000920E-02 0.  1.
</event>
<event>
 5   0  0.1937947E-05  0.2929318E+04  0.7818609E-02  0.8264208E-01
        2   -1    0    0  501    0  0.00000000000E+00  0.00000000000E+00  0.19996224933E+04  0.19996224933E+04  0.25500000920E-02 0.  1.
       -2   -1    0    0    0  501  0.00000000000E+00  0.00000000000E+00 -0.10728155113E+04  0.10728155113E+04  0.25500000920E-02 0. -1.
    10030    2    1    2    0    0  0.00000000000E+00  0.00000000000E+00  0.92680698196E+03  0.30724380046E+04  0.29293180282E+04 0.  0.
        3    1    3    3  502    0 -0.10654974342E+04 -0.97063061927E+03  0.19026224424E+03  0.14538254067E+04  0.10100000352E+00 0. -1.
       -3    1    3    3    0  502  0.10654974342E+04  0.97063061927E+03  0.73654473773E+03  0.16186125979E+04  0.10100000352E+00 0.  1.
</event>
<event>
 5   0  0.1937947E-05  0.2815638E+04  0.7818609E-02  0.8298430E-01
        2   -1    0    0  501    0  0.00000000000E+00  0.00000000000E+00  0.21713857410E+04  0.21713857410E+04  0.25500000920E-02 0.  1.
       -2   -1    0    0    0  501  0.00000000000E+00  0.00000000000E+00 -0.91276010968E+03  0.91276010968E+03  0.25500000920E-02 0. -1.
    10030    2    1    2    0    0  0.00000000000E+00  0.00000000000E+00  0.12586256313E+04  0.30841458507E+04  0.28156379648E+04 0.  0.
        3    1    3    3  502    0 -0.12487855660E+04  0.63817422514E+03  0.49416726985E+03  0.14869206543E+04  0.10100000352E+00 0. -1.
       -3    1    3    3    0  502  0.12487855660E+04 -0.63817422514E+03  0.76445836149E+03  0.15972251964E+04  0.10100000352E+00 0.  1.
</event>
<event>
 5   0  0.7305460E-06  0.2984474E+04  0.7818609E-02  0.8248178E-01
       -1   -1    0    0    0  501  0.00000000000E+00  0.00000000000E+00  0.12053438612E+04  0.12053438612E+04  0.50400001928E-02 0. -1.
        1   -1    0    0  501    0  0.00000000000E+00  0.00000000000E+00 -0.18474154819E+04  0.18474154819E+04  0.50400001928E-02 0.  1.
    10030    2    1    2    0    0  0.00000000000E+00  0.00000000000E+00 -0.64207162070E+03  0.30527593432E+04  0.29844737628E+04 0.  0.
        4    1    3    3  502    0 -0.60527513843E+03 -0.26356829094E+03 -0.16899168025E+04  0.18142895716E+04  0.12699999809E+01 0.  1.
       -4    1    3    3    0  502  0.60527513843E+03  0.26356829094E+03  0.10478451818E+04  0.12384697716E+04  0.12699999809E+01 0. -1.
</event>
<event>
 5   0  0.7305460E-06  0.2765390E+04  0.7818609E-02  0.8314095E-01
       -1   -1    0    0    0  501  0.00000000000E+00  0.00000000000E+00  0.82577598127E+03  0.82577598129E+03  0.50400001928E-02 0.  1.
        1   -1    0    0  501    0  0.00000000000E+00  0.00000000000E+00 -0.23152106859E+04  0.23152106859E+04  0.50400001928E-02 0. -1.
    10030    2    1    2    0    0  0.00000000000E+00  0.00000000000E+00 -0.14894347046E+04  0.31409866672E+04  0.27653899371E+04 0.  0.
        4    1    3    3  502    0 -0.71940774714E+02  0.12196559048E+04 -0.94038059393E+01  0.12218126066E+04  0.12699999809E+01 0.  1.
       -4    1    3    3    0  502  0.71940774714E+02 -0.12196559048E+04 -0.14800308987E+04  0.19191740607E+04  0.12699999809E+01 0. -1.
</event>
<event>
 5   0  0.8122088E-06  0.2140250E+04  0.7818609E-02  0.8543717E-01
       -1   -1    0    0    0  501  0.00000000000E+00  0.00000000000E+00  0.77281672605E+03  0.77281672607E+03  0.50400001928E-02 0. -1.
        1   -1    0    0  501    0  0.00000000000E+00  0.00000000000E+00 -0.14818101511E+04  0.14818101511E+04  0.50400001928E-02 0.  1.
    10030    2    1    2    0    0  0.00000000000E+00  0.00000000000E+00 -0.70899342506E+03  0.22546268772E+04  0.21402501439E+04 0.  0.
        1    1    3    3  502    0  0.52294539767E+03 -0.92595702480E+03 -0.48046713333E+03  0.11669262903E+04  0.50400001928E-02 0.  1.
       -1    1    3    3    0  502 -0.52294539767E+03  0.92595702480E+03 -0.22852629172E+03  0.10877005869E+04  0.50400001928E-02 0. -1.
</event>
<event>
 5   0  0.8122088E-06  0.2883180E+04  0.7818609E-02  0.8277900E-01
       -1   -1    0    0    0  501  0.00000000000E+00  0.00000000000E+00  0.11818116869E+04  0.11818116869E+04  0.50400001928E-02 0.  1.
        1   -1    0    0  501    0  0.00000000000E+00  0.00000000000E+00 -0.17584705395E+04  0.17584705395E+04  0.50400001928E-02 0. -1.
    10030    2    1    2    0    0  0.00000000000E+00  0.00000000000E+00 -0.57665885260E+03  0.29402822265E+04  0.28831795190E+04 0.  0.
        1    1    3    3  502    0 -0.57877956475E+03 -0.76102769353E+03  0.81194194475E+03  0.12543518871E+04  0.50400001928E-02 0.  1.
       -1    1    3    3    0  502  0.57877956475E+03  0.76102769353E+03 -0.13886007973E+04  0.16859303394E+04  0.50400001928E-02 0. -1.
</event>
<event>
 5   0  0.8055928E-06  0.2198447E+04  0.7818609E-02  0.8519075E-01
       -1   -1    0    0    0  501  0.00000000000E+00  0.00000000000E+00  0.13745455373E+04  0.13745455373E+04  0.50400001928E-02 0. -1.
        1   -1    0    0  501    0  0.00000000000E+00  0.00000000000E+00 -0.87904893424E+03  0.87904893426E+03  0.50400001928E-02 0.  1.
    10030    2    1    2    0    0  0.00000000000E+00  0.00000000000E+00  0.49549660302E+03  0.22535944715E+04  0.21984474427E+04 0.  0.
        2    1    3    3  502    0 -0.62804527664E+03 -0.39936484450E+03 -0.58146819564E+03  0.94447785102E+03  0.25500000920E-02 0.  1.
       -2    1    3    3    0  502  0.62804527664E+03  0.39936484450E+03  0.10769647987E+04  0.13091166205E+04  0.25500000920E-02 0. -1.
</event>
<event>
 5   0  0.7971153E-06  0.1553144E+04  0.7818609E-02  0.8849862E-01
        1   -1    0    0  501    0  0.00000000000E+00  0.00000000000E+00  0.44993430154E+03  0.44993430157E+03  0.50400001928E-02 0.  1.
       -1   -1    0    0    0  501  0.00000000000E+00  0.00000000000E+00 -0.13403374510E+04  0.13403374510E+04  0.50400001928E-02 0. -1.
    10030    2    1    2    0    0  0.00000000000E+00  0.00000000000E+00 -0.89040314943E+03  0.17902717525E+04  0.15531436442E+04 0.  0.
        5    1    3    3  502    0 -0.44097877556E+03 -0.45034494547E+03 -0.96807570523E+03  0.11551906819E+04  0.46999998093E+01 0.  1.
       -5    1    3    3    0  502  0.44097877556E+03  0.45034494547E+03  0.77672555804E+02  0.63508107068E+03  0.46999998093E+01 0. -1.
</event>
<event>
 5   0  0.8055928E-06  0.1884687E+04  0.7818609E-02  0.8662516E-01
       -1   -1    0    0    0  501  0.00000000000E+00  0.00000000000E+00  0.11585348481E+04  0.11585348481E+04  0.50400001928E-02 0.  1.
        1   -1    0    0  501    0  0.00000000000E+00  0.00000000000E+00 -0.76649521326E+03  0.76649521328E+03  0.50400001928E-02 0. -1.
    10030    2    1    2    0    0  0.00000000000E+00  0.00000000000E+00  0.39203963482E+03  0.19250300614E+04  0.18846871523E+04 0.  0.
        2    1    3    3  502    0  0.66687369016E+03  0.51783499800E+03 -0.23143302106E+03  0.87546264742E+03  0.25500000920E-02 0. -1.
       -2    1    3    3    0  502 -0.66687369016E+03 -0.51783499800E+03  0.62347265589E+03  0.10495674140E+04  0.25500000920E-02 0.  1.
</event>
<event>
 5   0  0.1918901E-05  0.2894723E+04  0.7818609E-02  0.8274449E-01
       -2   -1    0    0    0  501  0.00000000000E+00  0.00000000000E+00  0.19825667480E+04  0.19825667480E+04  0.25500000920E-02 0. -1.
        2   -1    0    0  501    0  0.00000000000E+00  0.00000000000E+00 -0.10566380795E+04  0.10566380795E+04  0.25500000920E-02 0.  1.
    10030    2    1    2    0    0  0.00000000000E+00  0.00000000000E+00  0.92592866852E+03  0.30392048274E+04  0.28947231446E+04 0.  0.
        1    1    3    3  502    0 -0.73414707886E+03  0.44980286322E+03 -0.75853110181E+03  0.11474597952E+04  0.50400001928E-02 0.  1.
       -1    1    3    3    0  502  0.73414707886E+03 -0.44980286322E+03  0.16844597703E+04  0.18917450322E+04  0.50400001928E-02 0. -1.
</event>
<event>
 5   0  0.1918901E-05  0.1992416E+04  0.7818609E-02  0.8610175E-01
       -2   -1    0    0    0  501  0.00000000000E+00  0.00000000000E+00  0.13611642864E+04  0.13611642864E+04  0.25500000920E-02 0. -1.
        2   -1    0    0  501    0  0.00000000000E+00  0.00000000000E+00 -0.72910422446E+03  0.72910422446E+03  0.25500000920E-02 0.  1.
    10030    2    1    2    0    0  0.00000000000E+00  0.00000000000E+00  0.63206006191E+03  0.20902685108E+04  0.19924162531E+04 0.  0.
        1    1    3    3  502    0 -0.87404565073E+03 -0.47795028236E+03  0.32252770391E+03  0.10470990363E+04  0.50400001928E-02 0.  1.
       -1    1    3    3    0  502  0.87404565073E+03  0.47795028236E+03  0.30953235800E+03  0.10431694746E+04  0.50400001928E-02 0. -1.
</event>
<event>
 5   0  0.1976233E-05  0.1890209E+04  0.7818609E-02  0.8659745E-01
       -2   -1    0    0    0  501  0.00000000000E+00  0.00000000000E+00  0.46937882822E+03  0.46937882822E+03  0.25500000920E-02 0.  1.
        2   -1    0    0  501    0  0.00000000000E+00  0.00000000000E+00 -0.19029893921E+04  0.19029893921E+04  0.25500000920E-02 0. -1.
    10030    2    1    2    0    0  0.00000000000E+00  0.00000000000E+00 -0.14336105639E+04  0.23723682203E+04  0.18902094392E+04 0.  0.
        2    1    3    3  502    0 -0.66404011578E+03  0.53599594249E+02  0.12456866749E+03  0.67774592938E+03  0.25500000920E-02 0.  1.
       -2    1    3    3    0  502  0.66404011578E+03 -0.53599594249E+02 -0.15581792314E+04  0.16946222909E+04  0.25500000920E-02 0. -1.
</event>
<event>
 5   0  0.7305460E-06  0.1694896E+04  0.7818609E-02  0.8764281E-01
       -1   -1    0    0    0  501  0.00000000000E+00  0.00000000000E+00  0.28012922391E+03  0.28012922396E+03  0.50400001928E-02 0.  1.
        1   -1    0    0  501    0  0.00000000000E+00  0.00000000000E+00 -0.25637018948E+04  0.25637018948E+04  0.50400001928E-02 0. -1.
    10030    2    1    2    0    0  0.00000000000E+00  0.00000000000E+00 -0.22835726709E+04  0.28438311188E+04  0.16948956572E+04 0.  0.
        4    1    3    3  502    0  0.46371855251E+03  0.33105785423E+03 -0.89216626969E+02  0.57671086188E+03  0.12699999809E+01 0.  1.
       -4    1    3    3    0  502 -0.46371855251E+03 -0.33105785423E+03 -0.21943560439E+04  0.22671202569E+04  0.12699999809E+01 0. -1.
</event>
<event>
 5   0  0.7305460E-06  0.2810664E+04  0.7818609E-02  0.8299965E-01
       -1   -1    0    0    0  501  0.00000000000E+00  0.00000000000E+00  0.99821923682E+03  0.99821923683E+03  0.50400001928E-02 0.  1.
        1   -1    0    0  501    0  0.00000000000E+00  0.00000000000E+00 -0.19784816997E+04  0.19784816997E+04  0.50400001928E-02 0. -1.
    10030    2    1    2    0    0  0.00000000000E+00  0.00000000000E+00 -0.98026246289E+03  0.29767009365E+04  0.28106643288E+04 0.  0.
        4    1    3    3  502    0  0.38832936299E+03 -0.11509685738E+04 -0.12385814078E+04  0.17348238725E+04  0.12699999809E+01 0. -1.
       -4    1    3    3    0  502 -0.38832936299E+03  0.11509685738E+04  0.25831894495E+03  0.12418770640E+04  0.12699999809E+01 0.  1.
</event>
<event>
 5   0  0.8122088E-06  0.2913959E+04  0.7818609E-02  0.8268736E-01
       -1   -1    0    0    0  501  0.00000000000E+00  0.00000000000E+00  0.12118305907E+04  0.12118305907E+04  0.50400001928E-02 0.  1.
        1   -1    0    0  501    0  0.00000000000E+00  0.00000000000E+00 -0.17517214346E+04  0.17517214347E+04  0.50400001928E-02 0. -1.
    10030    2    1    2    0    0  0.00000000000E+00  0.00000000000E+00 -0.53989084399E+03  0.29635520253E+04  0.29139592453E+04 0.  0.
        1    1    3    3  502    0 -0.10793635465E+03 -0.31817510252E+03 -0.17117843145E+04  0.17444458122E+04  0.50400001928E-02 0. -1.
       -1    1    3    3    0  502  0.10793635465E+03  0.31817510252E+03  0.11718934705E+04  0.12191062131E+04  0.50400001928E-02 0.  1.
</event>
<event>
 5   0  0.8055928E-06  0.2923170E+04  0.7818609E-02  0.8266017E-01
        1   -1    0    0  501    0  0.00000000000E+00  0.00000000000E+00  0.22924952244E+04  0.22924952244E+04  0.50400001928E-02 0. -1.
       -1   -1    0    0    0  501  0.00000000000E+00  0.00000000000E+00 -0.93183674279E+03  0.93183674280E+03  0.50400001928E-02 0.  1.
    10030    2    1    2    0    0  0.00000000000E+00  0.00000000000E+00  0.13606584816E+04  0.32243319672E+04  0.29231703904E+04 0.  0.
        2    1    3    3  502    0 -0.45604060826E+03 -0.74105213452E+03  0.19756683983E+04  0.21587952480E+04  0.25500000920E-02 0. -1.
       -2    1    3    3    0  502  0.45604060826E+03  0.74105213452E+03 -0.61500991670E+03  0.10655367193E+04  0.25500000920E-02 0.  1.
</event>
<event>
 5   0  0.8055928E-06  0.2986331E+04  0.7818609E-02  0.8247645E-01
        1   -1    0    0  501    0  0.00000000000E+00  0.00000000000E+00  0.14375850558E+04  0.14375850558E+04  0.50400001928E-02 0. -1.
       -1   -1    0    0    0  501  0.00000000000E+00  0.00000000000E+00 -0.15508946367E+04  0.15508946367E+04  0.50400001928E-02 0.  1.
    10030    2    1    2    0    0  0.00000000000E+00  0.00000000000E+00 -0.11330958093E+03  0.29884796925E+04  0.29863308275E+04 0.  0.
        2    1    3    3  502    0  0.22202069504E+03 -0.14539796724E+04 -0.31411968279E+03  0.15040017459E+04  0.25500000920E-02 0.  1.
       -2    1    3    3    0  502 -0.22202069504E+03  0.14539796724E+04  0.20081010186E+03  0.14844779465E+04  0.25500000920E-02 0. -1.
</event>
<event>
 5   0  0.1937947E-05  0.2860288E+04  0.7818609E-02  0.8284792E-01
       -2   -1    0    0    0  501  0.00000000000E+00  0.00000000000E+00  0.13087660661E+04  0.13087660662E+04  0.25500000920E-02 0.  1.
        2   -1    0    0  501    0  0.00000000000E+00  0.00000000000E+00 -0.15627784879E+04  0.15627784879E+04  0.25500000920E-02 0. -1.
    10030    2    1    2    0    0  0.00000000000E+00  0.00000000000E+00 -0.25401242176E+03  0.28715445541E+04  0.28602877155E+04 0.  0.
        3    1    3    3  502    0 -0.71796819451E+03 -0.11660129641E+04  0.28722748399E+03  0.13991298005E+04  0.10100000352E+00 0. -1.
       -3    1    3    3    0  502  0.71796819451E+03  0.11660129641E+04 -0.54123990576E+03  0.14724147536E+04  0.10100000352E+00 0.  1.
</event>
<event>
 5   0  0.1918901E-05  0.2423215E+04  0.7818609E-02  0.8430863E-01
       -2   -1    0    0    0  501  0.00000000000E+00  0.00000000000E+00  0.10111450069E+04  0.10111450069E+04  0.25500000920E-02 0.  1.
        2   -1    0    0  501    0  0.00000000000E+00  0.00000000000E+00 -0.14518127030E+04  0.14518127030E+04  0.25500000920E-02 0. -1.
    10030    2    1    2    0    0  0.00000000000E+00  0.00000000000E+00 -0.44066769611E+03  0.24629577098E+04  0.24232153561E+04 0.  0.
        1    1    3    3  502    0  0.62172963874E+03 -0.53896356822E+03 -0.11242813669E+04  0.13932114210E+04  0.50400001928E-02 0. -1.
       -1    1    3    3    0  502 -0.62172963874E+03  0.53896356822E+03  0.68361367082E+03  0.10697462888E+04  0.50400001928E-02 0.  1.
</event>
<event>
 5   0  0.1937947E-05  0.2924603E+04  0.7818609E-02  0.8265595E-01
       -2   -1    0    0    0  501  0.00000000000E+00  0.00000000000E+00  0.10167833340E+04  0.10167833340E+04  0.25500000920E-02 0. -1.
        2   -1    0    0  501    0  0.00000000000E+00  0.00000000000E+00 -0.21030292444E+04  0.21030292444E+04  0.25500000920E-02 0.  1.
    10030    2    1    2    0    0  0.00000000000E+00  0.00000000000E+00 -0.10862459104E+04  0.31198125785E+04  0.29246025964E+04 0.  0.
        3    1    3    3  502    0  0.61489536568E+03 -0.49446007920E+02 -0.19574321977E+04  0.20523357516E+04  0.10100000352E+00 0.  1.
       -3    1    3    3    0  502 -0.61489536568E+03  0.49446007920E+02  0.87118628731E+03  0.10674768268E+04  0.10100000352E+00 0. -1.
</event>
<event>
 5   0  0.8122088E-06  0.2893276E+04  0.7818609E-02  0.8274881E-01
        1   -1    0    0  501    0  0.00000000000E+00  0.00000000000E+00  0.22542171215E+04  0.22542171215E+04  0.50400001928E-02 0.  1.
       -1   -1    0    0    0  501  0.00000000000E+00  0.00000000000E+00 -0.92837602475E+03  0.92837602476E+03  0.50400001928E-02 0. -1.
    10030    2    1    2    0    0  0.00000000000E+00  0.00000000000E+00  0.13258410967E+04  0.31825931462E+04  0.28932757423E+04 0.  0.
        1    1    3    3  502    0  0.57997462374E+03 -0.23019483719E+03 -0.77273328166E+03  0.99321546094E+03  0.50400001928E-02 0. -1.
       -1    1    3    3    0  502 -0.57997462374E+03  0.23019483719E+03  0.20985743784E+04  0.21893776853E+04  0.50400001928E-02 0.  1.
</event>
<event>
 5   0  0.1976233E-05  0.2937275E+04  0.7818609E-02  0.8261873E-01
       -2   -1    0    0    0  501  0.00000000000E+00  0.00000000000E+00  0.12414855737E+04  0.12414855737E+04  0.25500000920E-02 0.  1.
        2   -1    0    0  501    0  0.00000000000E+00  0.00000000000E+00 -0.17373512508E+04  0.17373512508E+04  0.25500000920E-02 0. -1.
    10030    2    1    2    0    0  0.00000000000E+00  0.00000000000E+00 -0.49586567702E+03  0.29788368245E+04  0.29372752778E+04 0.  0.
        2    1    3    3  502    0 -0.27328797691E+02 -0.10023588395E+04  0.84029581512E+03  0.13082687656E+04  0.25500000920E-02 0.  1.
       -2    1    3    3    0  502  0.27328797691E+02  0.10023588395E+04 -0.13361614921E+04  0.16705680589E+04  0.25500000920E-02 0. -1.
</event>
<event>
 5   0  0.1976233E-05  0.2830318E+04  0.7818609E-02  0.8293917E-01
       -2   -1    0    0    0  501  0.00000000000E+00  0.00000000000E+00  0.18050054054E+04  0.18050054054E+04  0.25500000920E-02 0.  1.
        2   -1    0    0  501    0  0.00000000000E+00  0.00000000000E+00 -0.11095119302E+04  0.11095119302E+04  0.25500000920E-02 0. -1.
    10030    2    1    2    0    0  0.00000000000E+00  0.00000000000E+00  0.69549347525E+03  0.29145173356E+04  0.28303180255E+04 0.  0.
        2    1    3    3  502    0 -0.45826307915E+03 -0.59264220017E+02 -0.10296394406E+04  0.11285719627E+04  0.25500000920E-02 0. -1.
       -2    1    3    3    0  502  0.45826307915E+03  0.59264220017E+02  0.17251329158E+04  0.17859453728E+04  0.25500000920E-02 0.  1.
</event>
<event>
 5   0  0.7305460E-06  0.1449257E+04  0.7818609E-02  0.8918916E-01
        1   -1    0    0  501    0  0.00000000000E+00  0.00000000000E+00  0.31387898268E+04  0.31387898268E+04  0.50400001928E-02 0.  1.
       -1   -1    0    0    0  501  0.00000000000E+00  0.00000000000E+00 -0.16728940413E+03  0.16728940420E+03  0.50400001928E-02 0. -1.
    10030    2    1    2    0    0  0.00000000000E+00  0.00000000000E+00  0.29715004226E+04  0.33060792310E+04  0.14492567473E+04 0.  0.
        4    1    3    3  502    0 -0.66041391124E+03  0.14217487581E+03  0.88771945027E+03  0.11155302169E+04  0.12699999809E+01 0. -1.
       -4    1    3    3    0  502  0.66041391124E+03 -0.14217487581E+03  0.20837809724E+04  0.21905490141E+04  0.12699999809E+01 0.  1.
</event>
<event>
 5   0  0.7305460E-06  0.2737927E+04  0.7818609E-02  0.8322803E-01
        1   -1    0    0  501    0  0.00000000000E+00  0.00000000000E+00  0.18106752568E+04  0.18106752568E+04  0.50400001928E-02 0. -1.
       -1   -1    0    0    0  501  0.00000000000E+00  0.00000000000E+00 -0.10350066805E+04  0.10350066805E+04  0.50400001928E-02 0.  1.
    10030    2    1    2    0    0  0.00000000000E+00  0.00000000000E+00  0.77566857635E+03  0.28456819373E+04  0.27379269435E+04 0.  0.
        4    1    3    3  502    0  0.65920309210E+03  0.29369924927E+03  0.15969106917E+04  0.17524078680E+04  0.12699999809E+01 0. -1.
       -4    1    3    3    0  502 -0.65920309210E+03 -0.29369924927E+03 -0.82124211534E+03  0.10932740693E+04  0.12699999809E+01 0.  1.
</event>
<event>
 5   0  0.7971153E-06  0.2873102E+04  0.7818609E-02  0.8280926E-01
       -1   -1    0    0    0  501  0.00000000000E+00  0.00000000000E+00  0.13770783801E+04  0.13770783801E+04  0.50400001928E-02 0.  1.
        1   -1    0    0  501    0  0.00000000000E+00  0.00000000000E+00 -0.14985924377E+04  0.14985924377E+04  0.50400001928E-02 0. -1.
    10030    2    1    2    0    0  0.00000000000E+00  0.00000000000E+00 -0.12151405759E+03  0.28756708178E+04  0.28731023278E+04 0.  0.
        5    1    3    3  502    0  0.56460150641E+03 -0.78180026105E+03 -0.11264485913E+04  0.14828671646E+04  0.46999998093E+01 0. -1.
       -5    1    3    3    0  502 -0.56460150641E+03  0.78180026105E+03  0.10049345337E+04  0.13928036531E+04  0.46999998093E+01 0.  1.
</event>
<event>
 5   0  0.1829810E-05  0.3016964E+04  0.7818609E-02  0.8238903E-01
        2   -1    0    0  501    0  0.00000000000E+00  0.00000000000E+00  0.14270739975E+04  0.14270739975E+04  0.25500000920E-02 0. -1.
       -2   -1    0    0    0  501  0.00000000000E+00  0.00000000000E+00 -0.15945337019E+04  0.15945337019E+04  0.25500000920E-02 0.  1.
    10030    2    1    2    0    0  0.00000000000E+00  0.00000000000E+00 -0.16745970440E+03  0.30216076993E+04  0.30169637611E+04 0.  0.
        4    1    3    3  502    0 -0.24584132989E+03  0.59167761677E+03  0.12840206777E+04  0.14350021169E+04  0.12699999809E+01 0. -1.
       -4    1    3    3    0  502  0.24584132989E+03 -0.59167761677E+03 -0.14514803821E+04  0.15866055825E+04  0.12699999809E+01 0.  1.
</event>
<event>
 5   0  0.7971153E-06  0.2883466E+04  0.7818609E-02  0.8277814E-01
        1   -1    0    0  501    0  0.00000000000E+00  0.00000000000E+00  0.26804453695E+04  0.26804453695E+04  0.50400001928E-02 0.  1.
       -1   -1    0    0    0  501  0.00000000000E+00  0.00000000000E+00 -0.77546615421E+03  0.77546615423E+03  0.50400001928E-02 0. -1.
    10030    2    1    2    0    0  0.00000000000E+00  0.00000000000E+00  0.19049792152E+04  0.34559115237E+04  0.28834664293E+04 0.  0.
        5    1    3    3  502    0 -0.10171344292E+04 -0.39906435808E+03 -0.17486334571E+03  0.11065324616E+04  0.46999998093E+01 0. -1.
       -5    1    3    3    0  502  0.10171344292E+04  0.39906435808E+03  0.20798425610E+04  0.23493790621E+04  0.46999998093E+01 0.  1.
</event>
<event>
 5   0  0.1918901E-05  0.1938504E+04  0.7818609E-02  0.8635924E-01
        2   -1    0    0  501    0  0.00000000000E+00  0.00000000000E+00  0.17926635970E+04  0.17926635970E+04  0.25500000920E-02 0. -1.
       -2   -1    0    0    0  501  0.00000000000E+00  0.00000000000E+00 -0.52405242629E+03  0.52405242629E+03  0.25500000920E-02 0.  1.
    10030    2    1    2    0    0  0.00000000000E+00  0.00000000000E+00  0.12686111708E+04  0.23167160233E+04  0.19385042766E+04 0.  0.
        1    1    3    3  502    0  0.17014443687E+03 -0.87876116168E+03  0.10787165653E+04  0.14017131436E+04  0.50400001928E-02 0. -1.
       -1    1    3    3    0  502 -0.17014443687E+03  0.87876116168E+03  0.18989460541E+03  0.91500287970E+03  0.50400001928E-02 0.  1.
</event>
<event>
 5   0  0.7971153E-06  0.2545063E+04  0.7818609E-02  0.8387105E-01
       -1   -1    0    0    0  501  0.00000000000E+00  0.00000000000E+00  0.10255381093E+04  0.10255381094E+04  0.50400001928E-02 0.  1.
        1   -1    0    0  501    0  0.00000000000E+00  0.00000000000E+00 -0.15790116706E+04  0.15790116706E+04  0.50400001928E-02 0. -1.
    10030    2    1    2    0    0  0.00000000000E+00  0.00000000000E+00 -0.55347356122E+03  0.26045497799E+04  0.25450631767E+04 0.  0.
        5    1    3    3  502    0 -0.48207278684E+02  0.25401606779E+03  0.99836604045E+03  0.10313122442E+04  0.46999998093E+01 0.  1.
       -5    1    3    3    0  502  0.48207278684E+02 -0.25401606779E+03 -0.15518396017E+04  0.15732375357E+04  0.46999998093E+01 0. -1.
</event>
<event>
 5   0  0.8234888E-06  0.2892082E+04  0.7818609E-02  0.8275237E-01
        1   -1    0    0  501    0  0.00000000000E+00  0.00000000000E+00  0.15942955415E+04  0.15942955415E+04  0.50400001928E-02 0. -1.
       -1   -1    0    0    0  501  0.00000000000E+00  0.00000000000E+00 -0.13115727864E+04  0.13115727864E+04  0.50400001928E-02 0.  1.
    10030    2    1    2    0    0  0.00000000000E+00  0.00000000000E+00  0.28272275510E+03  0.29058683280E+04  0.28920820499E+04 0.  0.
        3    1    3    3  502    0 -0.93639734709E+03 -0.85269917316E+03  0.84261292934E+03  0.15211615399E+04  0.10100000352E+00 0. -1.
       -3    1    3    3    0  502  0.93639734709E+03  0.85269917316E+03 -0.55989017424E+03  0.13847067881E+04  0.10100000352E+00 0.  1.
</event>
<event>
 5   0  0.8234888E-06  0.2304564E+04  0.7818609E-02  0.8476124E-01
        1   -1    0    0  501    0  0.00000000000E+00  0.00000000000E+00  0.10344357195E+04  0.10344357195E+04  0.50400001928E-02 0.  1.
       -1   -1    0    0    0  501  0.00000000000E+00  0.00000000000E+00 -0.12835540825E+04  0.12835540825E+04  0.50400001928E-02 0. -1.
    10030    2    1    2    0    0  0.00000000000E+00  0.00000000000E+00 -0.24911836300E+03  0.23179898020E+04  0.23045643327E+04 0.  0.
        3    1    3    3  502    0  0.97371790654E+03 -0.49080009116E+03  0.25009281620E+03  0.11187304045E+04  0.10100000352E+00 0.  1.
       -3    1    3    3    0  502 -0.97371790654E+03  0.49080009116E+03 -0.49921117919E+03  0.11992593976E+04  0.10100000352E+00 0. -1.
</event>
<event>
 5   0  0.7971153E-06  0.2887323E+04  0.7818609E-02  0.8276659E-01
        1   -1    0    0  501    0  0.00000000000E+00  0.00000000000E+00  0.10498030954E+04  0.10498030954E+04  0.50400001928E-02 0.  1.
       -1   -1    0    0    0  501  0.00000000000E+00  0.00000000000E+00 -0.19852848987E+04  0.19852848987E+04  0.50400001928E-02 0. -1.
    10030    2    1    2    0    0  0.00000000000E+00  0.00000000000E+00 -0.93548180333E+03  0.30350879941E+04  0.28873227958E+04 0.  0.
        5    1    3    3  502    0  0.87349286202E+03 -0.88082564020E+03 -0.12439714505E+04  0.17567955624E+04  0.46999998093E+01 0. -1.
       -5    1    3    3    0  502 -0.87349286202E+03  0.88082564020E+03  0.30848964716E+03  0.12782924317E+04  0.46999998093E+01 0.  1.
</event>
<event>
 5   0  0.1829810E-05  0.2179578E+04  0.7818609E-02  0.8526977E-01
       -2   -1    0    0    0  501  0.00000000000E+00  0.00000000000E+00  0.80685244308E+03  0.80685244308E+03  0.25500000920E-02 0. -1.
        2   -1    0    0  501    0  0.00000000000E+00  0.00000000000E+00 -0.14719414917E+04  0.14719414917E+04  0.25500000920E-02 0.  1.
    10030    2    1    2    0    0  0.00000000000E+00  0.00000000000E+00 -0.66508904864E+03  0.22787939348E+04  0.21795775634E+04 0.  0.
        4    1    3    3  502    0 -0.96669397824E+03  0.30915595509E+03  0.82467130176E+02  0.10182716202E+04  0.12699999809E+01 0. -1.
       -4    1    3    3    0  502  0.96669397824E+03 -0.30915595509E+03 -0.74755617882E+03  0.12605223146E+04  0.12699999809E+01 0.  1.
</event>
<event>
 5   0  0.1937947E-05  0.2822524E+04  0.7818609E-02  0.8296309E-01
       -2   -1    0    0    0  501  0.00000000000E+00  0.00000000000E+00  0.15188884956E+04  0.15188884956E+04  0.25500000920E-02 0.  1.
        2   -1    0    0  501    0  0.00000000000E+00  0.00000000000E+00 -0.13112619373E+04  0.13112619373E+04  0.25500000920E-02 0. -1.
    10030    2    1    2    0    0  0.00000000000E+00  0.00000000000E+00  0.20762655834E+03  0.28301504329E+04  0.28225241691E+04 0.  0.
        3    1    3    3  502    0  0.10981636476E+04  0.79479673651E+03  0.49729606886E+03  0.14439420486E+04  0.10100000352E+00 0.  1.
       -3    1    3    3    0  502 -0.10981636476E+04 -0.79479673651E+03 -0.28966951052E+03  0.13862083843E+04  0.10100000352E+00 0. -1.
</event>
<event>
 5   0  0.1976233E-05  0.1637464E+04  0.7818609E-02  0.8797857E-01
        2   -1    0    0  501    0  0.00000000000E+00  0.00000000000E+00  0.12480385029E+04  0.12480385029E+04  0.25500000920E-02 0.  1.
       -2   -1    0    0    0  501  0.00000000000E+00  0.00000000000E+00 -0.53710075568E+03  0.53710075569E+03  0.25500000920E-02 0. -1.
    10030    2    1    2    0    0  0.00000000000E+00  0.00000000000E+00  0.71093774719E+03  0.17851392586E+04  0.16374644094E+04 0.  0.
        2    1    3    3  502    0  0.19835003045E+03 -0.20126584881E+03 -0.48225287912E+03  0.55894410803E+03  0.25500000920E-02 0. -1.
       -2    1    3    3    0  502 -0.19835003045E+03  0.20126584881E+03  0.11931906263E+04  0.12261951505E+04  0.25500000920E-02 0.  1.
</event>
<event>
 5   0  0.1918901E-05  0.1817961E+04  0.7818609E-02  0.8696806E-01
       -2   -1    0    0    0  501  0.00000000000E+00  0.00000000000E+00  0.33431497003E+03  0.33431497004E+03  0.25500000920E-02 0. -1.
        2   -1    0    0  501    0  0.00000000000E+00  0.00000000000E+00 -0.24714588654E+04  0.24714588654E+04  0.25500000920E-02 0.  1.
    10030    2    1    2    0    0  0.00000000000E+00  0.00000000000E+00 -0.21371438953E+04  0.28057738354E+04  0.18179611619E+04 0.  0.
        1    1    3    3  502    0  0.20708082563E+03  0.87254809066E+03 -0.83953430357E+03  0.12284300899E+04  0.50400001928E-02 0.  1.
       -1    1    3    3    0  502 -0.20708082563E+03 -0.87254809066E+03 -0.12976095918E+04  0.15773437455E+04  0.50400001928E-02 0. -1.
</event>
<event>
 5   0  0.1960961E-05  0.2361341E+04  0.7818609E-02  0.8454121E-01
       -2   -1    0    0    0  501  0.00000000000E+00  0.00000000000E+00  0.90673897384E+03  0.90673897384E+03  0.25500000920E-02 0.  1.
        2   -1    0    0  501    0  0.00000000000E+00  0.00000000000E+00 -0.15373578850E+04  0.15373578850E+04  0.25500000920E-02 0. -1.
    10030    2    1    2    0    0  0.00000000000E+00  0.00000000000E+00 -0.63061891117E+03  0.24440968589E+04  0.23613405609E+04 0.  0.
        5    1    3    3  502    0  0.11022731505E+04 -0.16331980324E+03 -0.71921732084E+03  0.13262635866E+04  0.46999998093E+01 0. -1.
       -5    1    3    3    0  502 -0.11022731505E+04  0.16331980324E+03  0.88598409673E+02  0.11178332723E+04  0.46999998093E+01 0.  1.
</event>
<event>
 5   0  0.1937947E-05  0.2022393E+04  0.7818609E-02  0.8596222E-01
        2   -1    0    0  501    0  0.00000000000E+00  0.00000000000E+00  0.75777248178E+03  0.75777248179E+03  0.25500000920E-02 0. -1.
       -2   -1    0    0    0  501  0.00000000000E+00  0.00000000000E+00 -0.13493733087E+04  0.13493733087E+04  0.25500000920E-02 0.  1.
    10030    2    1    2    0    0  0.00000000000E+00  0.00000000000E+00 -0.59160082695E+03  0.21071457905E+04  0.20223926038E+04 0.  0.
        3    1    3    3  502    0  0.85049494174E+03  0.41733806069E+03  0.72577208128E+02  0.95014744338E+03  0.10100000352E+00 0. -1.
       -3    1    3    3    0  502 -0.85049494174E+03 -0.41733806069E+03 -0.66417803508E+03  0.11569983471E+04  0.10100000352E+00 0.  1.
</event>
<event>
 5   0  0.8122088E-06  0.2919099E+04  0.7818609E-02  0.8267217E-01
       -1   -1    0    0    0  501  0.00000000000E+00  0.00000000000E+00  0.86526813990E+03  0.86526813991E+03  0.50400001928E-02 0.  1.
        1   -1    0    0  501    0  0.00000000000E+00  0.00000000000E+00 -0.24619945594E+04  0.24619945594E+04  0.50400001928E-02 0. -1.
    10030    2    1    2    0    0  0.00000000000E+00  0.00000000000E+00 -0.15967264195E+04  0.33272626993E+04  0.29190994864E+04 0.  0.
        1    1    3    3  502    0 -0.87810422533E+03  0.68087706072E+03 -0.18770646596E+04  0.21812914383E+04  0.50400001928E-02 0. -1.
       -1    1    3    3    0  502  0.87810422533E+03 -0.68087706072E+03  0.28033824006E+03  0.11459712611E+04  0.50400001928E-02 0.  1.
</event>
<event>
 5   0  0.8234888E-06  0.2908319E+04  0.7818609E-02  0.8270407E-01
       -1   -1    0    0    0  501  0.00000000000E+00  0.00000000000E+00  0.88915262533E+03  0.88915262535E+03  0.50400001928E-02 0.  1.
        1   -1    0    0  501    0  0.00000000000E+00  0.00000000000E+00 -0.23781971167E+04  0.23781971167E+04  0.50400001928E-02 0. -1.
    10030    2    1    2    0    0  0.00000000000E+00  0.00000000000E+00 -0.14890444913E+04  0.32673497420E+04  0.29083192465E+04 0.  0.
        3    1    3    3  502    0  0.91541063737E+02 -0.57250463791E+03  0.75368888212E+03  0.95088814695E+03  0.10100000352E+00 0.  1.
       -3    1    3    3    0  502 -0.91541063737E+02  0.57250463791E+03 -0.22427333735E+04  0.23164615951E+04  0.10100000352E+00 0. -1.
</event>
<event>
 5   0  0.7971153E-06  0.2987891E+04  0.7818609E-02  0.8247197E-01
        1   -1    0    0  501    0  0.00000000000E+00  0.00000000000E+00  0.16057038997E+04  0.16057038997E+04  0.50400001928E-02 0.  1.
       -1   -1    0    0    0  501  0.00000000000E+00  0.00000000000E+00 -0.13899658714E+04  0.13899658714E+04  0.50400001928E-02 0. -1.
    10030    2    1    2    0    0  0.00000000000E+00  0.00000000000E+00  0.21573802824E+03  0.29956697711E+04  0.29878913100E+04 0.  0.
        5    1    3    3  502    0 -0.10583185634E+04  0.93446884546E+03  0.59758847782E+03  0.15331028288E+04  0.46999998093E+01 0.  1.
       -5    1    3    3    0  502  0.10583185634E+04 -0.93446884546E+03 -0.38185044959E+03  0.14625669423E+04  0.46999998093E+01 0. -1.
</event>
<event>
 5   0  0.8234888E-06  0.2525114E+04  0.7818609E-02  0.8394093E-01
       -1   -1    0    0    0  501  0.00000000000E+00  0.00000000000E+00  0.16477143563E+04  0.16477143563E+04  0.50400001928E-02 0.  1.
        1   -1    0    0  501    0  0.00000000000E+00  0.00000000000E+00 -0.96743081811E+03  0.96743081813E+03  0.50400001928E-02 0. -1.
    10030    2    1    2    0    0  0.00000000000E+00  0.00000000000E+00  0.68028353816E+03  0.26151451744E+04  0.25251135798E+04 0.  0.
        3    1    3    3  502    0 -0.10313440428E+04 -0.45058419934E+03 -0.25240554821E+03  0.11534319340E+04  0.10100000352E+00 0. -1.
       -3    1    3    3    0  502  0.10313440428E+04  0.45058419934E+03  0.93268908637E+03  0.14617132405E+04  0.10100000352E+00 0.  1.
</event>
<event>
 5   0  0.1976233E-05  0.2995825E+04  0.7818609E-02  0.8244924E-01
        2   -1    0    0  501    0  0.00000000000E+00  0.00000000000E+00  0.27510743110E+04  0.27510743110E+04  0.25500000920E-02 0.  1.
       -2   -1    0    0    0  501  0.00000000000E+00  0.00000000000E+00 -0.81558776470E+03  0.81558776470E+03  0.25500000920E-02 0. -1.
    10030    2    1    2    0    0  0.00000000000E+00  0.00000000000E+00  0.19354865463E+04  0.35666620757E+04  0.29958254607E+04 0.  0.
        2    1    3    3  502    0  0.27139554812E+03  0.75014591211E+03  0.24771390517E+04  0.26024204723E+04  0.25500000920E-02 0.  1.
       -2    1    3    3    0  502 -0.27139554812E+03 -0.75014591211E+03 -0.54165250547E+03  0.96424160338E+03  0.25500000920E-02 0. -1.
</event>
<event>
 5   0  0.1937947E-05  0.2829940E+04  0.7818609E-02  0.8294033E-01
        2   -1    0    0  501    0  0.00000000000E+00  0.00000000000E+00  0.16933358898E+04  0.16933358898E+04  0.25500000920E-02 0.  1.
       -2   -1    0    0    0  501  0.00000000000E+00  0.00000000000E+00 -0.11823647414E+04  0.11823647414E+04  0.25500000920E-02 0. -1.
    10030    2    1    2    0    0  0.00000000000E+00  0.00000000000E+00  0.51097114845E+03  0.28757006312E+04  0.28299403891E+04 0.  0.
        3    1    3    3  502    0  0.63158850895E+03 -0.88508259130E+03 -0.66462000782E+03  0.12743606252E+04  0.10100000352E+00 0. -1.
       -3    1    3    3    0  502 -0.63158850895E+03  0.88508259130E+03  0.11755911563E+04  0.16013400060E+04  0.10100000352E+00 0.  1.
</event>
<event>
 5   0  0.8234888E-06  0.2723058E+04  0.7818609E-02  0.8327562E-01
       -1   -1    0    0    0  501  0.00000000000E+00  0.00000000000E+00  0.82654627385E+03  0.82654627386E+03  0.50400001928E-02 0. -1.
        1   -1    0    0  501    0  0.00000000000E+00  0.00000000000E+00 -0.22427799237E+04  0.22427799237E+04  0.50400001928E-02 0.  1.
    10030    2    1    2    0    0  0.00000000000E+00  0.00000000000E+00 -0.14162336498E+04  0.30693261976E+04  0.27230581257E+04 0.  0.
        3    1    3    3  502    0 -0.92457282048E+03 -0.95136914356E+03 -0.10533728984E+04  0.16939694864E+04  0.10100000352E+00 0.  1.
       -3    1    3    3    0  502  0.92457282048E+03  0.95136914356E+03 -0.36286075144E+03  0.13753567111E+04  0.10100000352E+00 0. -1.
</event>
<event>
 5   0  0.8055928E-06  0.2874053E+04  0.7818609E-02  0.8280640E-01
        1   -1    0    0  501    0  0.00000000000E+00  0.00000000000E+00  0.23117685017E+04  0.23117685017E+04  0.50400001928E-02 0.  1.
       -1   -1    0    0    0  501  0.00000000000E+00  0.00000000000E+00 -0.89327498864E+03  0.89327498866E+03  0.50400001928E-02 0. -1.
    10030    2    1    2    0    0  0.00000000000E+00  0.00000000000E+00  0.14184935131E+04  0.32050434904E+04  0.28740528750E+04 0.  0.
        2    1    3    3  502    0  0.42328737831E+03 -0.72053271305E+03  0.20129436370E+04  0.21795140929E+04  0.25500000920E-02 0.  1.
       -2    1    3    3    0  502 -0.42328737831E+03  0.72053271305E+03 -0.59445012397E+03  0.10255293975E+04  0.25500000920E-02 0. -1.
</event>
<event>
 5   0  0.1976233E-05  0.3131344E+04  0.7818609E-02  0.8207188E-01
       -2   -1    0    0    0  501  0.00000000000E+00  0.00000000000E+00  0.12212338158E+04  0.12212338158E+04  0.25500000920E-02 0. -1.
        2   -1    0    0  501    0  0.00000000000E+00  0.00000000000E+00 -0.20072564842E+04  0.20072564842E+04  0.25500000920E-02 0.  1.
    10030    2    1    2    0    0  0.00000000000E+00  0.00000000000E+00 -0.78602266846E+03  0.32284903000E+04  0.31313444368E+04 0.  0.
        2    1    3    3  502    0 -0.12943332826E+04 -0.60281201639E+03  0.26929482189E+03  0.14529971351E+04  0.25500000920E-02 0. -1.
       -2    1    3    3    0  502  0.12943332826E+04  0.60281201639E+03 -0.10553174903E+04  0.17754931650E+04  0.25500000920E-02 0.  1.
</event>
<event>
 5   0  0.7305460E-06  0.2918054E+04  0.7818609E-02  0.8267526E-01
        1   -1    0    0  501    0  0.00000000000E+00  0.00000000000E+00  0.14275667024E+04  0.14275667024E+04  0.50400001928E-02 0.  1.
       -1   -1    0    0    0  501  0.00000000000E+00  0.00000000000E+00 -0.14911805940E+04  0.14911805940E+04  0.50400001928E-02 0. -1.
    10030    2    1    2    0    0  0.00000000000E+00  0.00000000000E+00 -0.63613891610E+02  0.29187472965E+04  0.29180539840E+04 0.  0.
        4    1    3    3  502    0  0.23185559096E+03 -0.11601837948E+03 -0.14679547820E+04  0.14906743891E+04  0.12699999809E+01 0. -1.
       -4    1    3    3    0  502 -0.23185559096E+03  0.11601837948E+03  0.14043408904E+04  0.14280729074E+04  0.12699999809E+01 0.  1.
</event>
<event>
 5   0  0.1918901E-05  0.2905702E+04  0.7818609E-02  0.8271183E-01
       -2   -1    0    0    0  501  0.00000000000E+00  0.00000000000E+00  0.13500584741E+04  0.13500584741E+04  0.25500000920E-02 0.  1.
        2   -1    0    0  501    0  0.00000000000E+00  0.00000000000E+00 -0.15634705102E+04  0.15634705102E+04  0.25500000920E-02 0. -1.
    10030    2    1    2    0    0  0.00000000000E+00  0.00000000000E+00 -0.21341203612E+03  0.29135289842E+04  0.29057024013E+04 0.  0.
        1    1    3    3  502    0 -0.15598102280E+01  0.14054435572E+04  0.26239224517E+03  0.14297285463E+04  0.50400001928E-02 0.  1.
       -1    1    3    3    0  502  0.15598102280E+01 -0.14054435572E+04 -0.47580428129E+03  0.14838004380E+04  0.50400001928E-02 0. -1.
</event>
<event>
 5   0  0.7305460E-06  0.2827544E+04  0.7818609E-02  0.8294768E-01
       -1   -1    0    0    0  501  0.00000000000E+00  0.00000000000E+00  0.14149614616E+04  0.14149614616E+04  0.50400001928E-02 0.  1.
        1   -1    0    0  501    0  0.00000000000E+00  0.00000000000E+00 -0.14125835657E+04  0.14125835657E+04  0.50400001928E-02 0. -1.
    10030    2    1    2    0    0  0.00000000000E+00  0.00000000000E+00  0.23778958642E+01  0.28275450273E+04  0.28275440274E+04 0.  0.
        4    1    3    3  502    0  0.21444125419E+03  0.10405182448E+03 -0.13923458502E+04  0.14126005851E+04  0.12699999809E+01 0. -1.
       -4    1    3    3    0  502 -0.21444125419E+03 -0.10405182448E+03  0.13947237461E+04  0.14149444422E+04  0.12699999809E+01 0.  1.
</event>
<event>
 5   0  0.8234888E-06  0.2918438E+04  0.7818609E-02  0.8267413E-01
        1   -1    0    0  501    0  0.00000000000E+00  0.00000000000E+00  0.12224628946E+04  0.12224628946E+04  0.50400001928E-02 0. -1.
       -1   -1    0    0    0  501  0.00000000000E+00  0.00000000000E+00 -0.17418276674E+04  0.17418276674E+04  0.50400001928E-02 0.  1.
    10030    2    1    2    0    0  0.00000000000E+00  0.00000000000E+00 -0.51936477281E+03  0.29642905621E+04  0.29184377275E+04 0.  0.
        3    1    3    3  502    0  0.10600449148E+04  0.13998065002E+03 -0.12682740583E+04  0.16588577097E+04  0.10100000352E+00 0.  1.
       -3    1    3    3    0  502 -0.10600449148E+04 -0.13998065002E+03  0.74890928553E+03  0.13054328524E+04  0.10100000352E+00 0. -1.
</event>
<event>
 5   0  0.8055928E-06  0.2874007E+04  0.7818609E-02  0.8280653E-01
       -1   -1    0    0    0  501  0.00000000000E+00  0.00000000000E+00  0.95553768712E+03  0.95553768714E+03  0.50400001928E-02 0.  1.
        1   -1    0    0  501    0  0.00000000000E+00  0.00000000000E+00 -0.21610656095E+04  0.21610656095E+04  0.50400001928E-02 0. -1.
    10030    2    1    2    0    0  0.00000000000E+00  0.00000000000E+00 -0.12055279224E+04  0.31166032967E+04  0.28740074003E+04 0.  0.
        2    1    3    3  502    0  0.56354778419E+03 -0.10372095561E+04 -0.14914445841E+04  0.19020506606E+04  0.25500000920E-02 0. -1.
       -2    1    3    3    0  502 -0.56354778419E+03  0.10372095561E+04  0.28591666164E+03  0.12145526360E+04  0.25500000920E-02 0.  1.
</event>
<event>
 5   0  0.1918901E-05  0.2856184E+04  0.7818609E-02  0.8286035E-01
       -2   -1    0    0    0  501  0.00000000000E+00  0.00000000000E+00  0.17161941128E+04  0.17161941128E+04  0.25500000920E-02 0.  1.
        2   -1    0    0  501    0  0.00000000000E+00  0.00000000000E+00 -0.11883544189E+04  0.11883544190E+04  0.25500000920E-02 0. -1.
    10030    2    1    2    0    0  0.00000000000E+00  0.00000000000E+00  0.52783969383E+03  0.29045485317E+04  0.28561840681E+04 0.  0.
        1    1    3    3  502    0  0.19338659259E+03 -0.64217024716E+03 -0.10182494365E+04  0.12192673684E+04  0.50400001928E-02 0. -1.
       -1    1    3    3    0  502 -0.19338659259E+03  0.64217024716E+03  0.15460891304E+04  0.16852811634E+04  0.50400001928E-02 0.  1.
</event>
<event>
 5   0  0.1960961E-05  0.2913963E+04  0.7818609E-02  0.8268735E-01
       -2   -1    0    0    0  501  0.00000000000E+00  0.00000000000E+00  0.10672083344E+04  0.10672083344E+04  0.25500000920E-02 0.  1.
        2   -1    0    0  501    0  0.00000000000E+00  0.00000000000E+00 -0.19891106535E+04  0.19891106535E+04  0.25500000920E-02 0. -1.
    10030    2    1    2    0    0  0.00000000000E+00  0.00000000000E+00 -0.92190231908E+03  0.30563189878E+04  0.29139632581E+04 0.  0.
        5    1    3    3  502    0  0.12294040692E+04 -0.70119909205E+03 -0.82376764502E+03  0.16375987771E+04  0.46999998093E+01 0.  1.
       -5    1    3    3    0  502 -0.12294040692E+04  0.70119909205E+03 -0.98134674067E+02  0.14187202107E+04  0.46999998093E+01 0. -1.
</event>
<event>
 5   0  0.7971153E-06  0.2327990E+04  0.7818609E-02  0.8466966E-01
       -1   -1    0    0    0  501  0.00000000000E+00  0.00000000000E+00  0.11921628506E+04  0.11921628506E+04  0.50400001928E-02 0.  1.
        1   -1    0    0  501    0  0.00000000000E+00  0.00000000000E+00 -0.11364924728E+04  0.11364924728E+04  0.50400001928E-02 0. -1.
    10030    2    1    2    0    0  0.00000000000E+00  0.00000000000E+00  0.55670377797E+02  0.23286553234E+04  0.23279897818E+04 0.  0.
        5    1    3    3  502    0  0.58068468560E+03  0.69176718613E+03 -0.70662636483E+03  0.11467691369E+04  0.46999998093E+01 0. -1.
       -5    1    3    3    0  502 -0.58068468560E+03 -0.69176718613E+03  0.76229674263E+03  0.11818861864E+04  0.46999998093E+01 0.  1.
</event>
<event>
 5   0  0.1829810E-05  0.2787935E+04  0.7818609E-02  0.8307024E-01
       -2   -1    0    0    0  501  0.00000000000E+00  0.00000000000E+00  0.15655274973E+04  0.15655274973E+04  0.25500000920E-02 0.  1.
        2   -1    0    0  501    0  0.00000000000E+00  0.00000000000E+00 -0.12412077716E+04  0.12412077716E+04  0.25500000920E-02 0. -1.
    10030    2    1    2    0    0  0.00000000000E+00  0.00000000000E+00  0.32431972575E+03  0.28067352689E+04  0.27879346451E+04 0.  0.
        4    1    3    3  502    0 -0.10215947368E+04  0.51493083427E+03 -0.63966175295E+03  0.13107167281E+04  0.12699999809E+01 0. -1.
       -4    1    3    3    0  502  0.10215947368E+04 -0.51493083427E+03  0.96398147870E+03  0.14960185408E+04  0.12699999809E+01 0.  1.
</event>
<event>
 5   0  0.8122088E-06  0.2748704E+04  0.7818609E-02  0.8319373E-01
        1   -1    0    0  501    0  0.00000000000E+00  0.00000000000E+00  0.18289524180E+04  0.18289524180E+04  0.50400001928E-02 0. -1.
       -1   -1    0    0    0  501  0.00000000000E+00  0.00000000000E+00 -0.10327463380E+04  0.10327463380E+04  0.50400001928E-02 0.  1.
    10030    2    1    2    0    0  0.00000000000E+00  0.00000000000E+00  0.79620608007E+03  0.28616987560E+04  0.27487043581E+04 0.  0.
        1    1    3    3  502    0  0.10249745018E+04 -0.84860506286E+03  0.75594851099E+03  0.15304121776E+04  0.50400001928E-02 0. -1.
       -1    1    3    3    0  502 -0.10249745018E+04  0.84860506286E+03  0.40257569080E+02  0.13312865784E+04  0.50400001928E-02 0.  1.
</event>
<event>
 5   0  0.7971153E-06  0.2843819E+04  0.7818609E-02  0.8289792E-01
        1   -1    0    0  501    0  0.00000000000E+00  0.00000000000E+00  0.16614531304E+04  0.16614531304E+04  0.50400001928E-02 0. -1.
       -1   -1    0    0    0  501  0.00000000000E+00  0.00000000000E+00 -0.12169025451E+04  0.12169025451E+04  0.50400001928E-02 0.  1.
    10030    2    1    2    0    0  0.00000000000E+00  0.00000000000E+00  0.44455058524E+03  0.28783556755E+04  0.28438189415E+04 0.  0.
        5    1    3    3  502    0  0.98925550273E+03 -0.39822907761E+03  0.11742248197E+04  0.15862026558E+04  0.46999998093E+01 0. -1.
       -5    1    3    3    0  502 -0.98925550273E+03  0.39822907761E+03 -0.72967423447E+03  0.12921530197E+04  0.46999998093E+01 0.  1.
</event>
<event>
 5   0  0.8055928E-06  0.2684287E+04  0.7818609E-02  0.8340121E-01
        1   -1    0    0  501    0  0.00000000000E+00  0.00000000000E+00  0.15291113722E+04  0.15291113722E+04  0.50400001928E-02 0.  1.
       -1   -1    0    0    0  501  0.00000000000E+00  0.00000000000E+00 -0.11780368598E+04  0.11780368599E+04  0.50400001928E-02 0. -1.
    10030    2    1    2    0    0  0.00000000000E+00  0.00000000000E+00  0.35107451235E+03  0.27071482321E+04  0.26842872866E+04 0.  0.
        2    1    3    3  502    0  0.74476664865E+02  0.11784886191E+04  0.81891025695E+03  0.14370094669E+04  0.25500000920E-02 0.  1.
       -2    1    3    3    0  502 -0.74476664865E+02 -0.11784886191E+04 -0.46783574460E+03  0.12701387652E+04  0.25500000920E-02 0. -1.
</event>
<event>
 5   0  0.8055928E-06  0.1764388E+04  0.7818609E-02  0.8725470E-01
       -1   -1    0    0    0  501  0.00000000000E+00  0.00000000000E+00  0.46026499952E+03  0.46026499954E+03  0.50400001928E-02 0.  1.
        1   -1    0    0  501    0  0.00000000000E+00  0.00000000000E+00 -0.16909093274E+04  0.16909093274E+04  0.50400001928E-02 0. -1.
    10030    2    1    2    0    0  0.00000000000E+00  0.00000000000E+00 -0.12306443279E+04  0.21511743269E+04  0.17643881441E+04 0.  0.
        2    1    3    3  502    0  0.21965869031E+03  0.47531619240E+03 -0.14809593986E+04  0.15708011215E+04  0.25500000920E-02 0. -1.
       -2    1    3    3    0  502 -0.21965869031E+03 -0.47531619240E+03  0.25031507071E+03  0.58037320546E+03  0.25500000920E-02 0.  1.
</event>
<event>
 5   0  0.7971153E-06  0.3253213E+04  0.7818609E-02  0.8174903E-01
       -1   -1    0    0    0  501  0.00000000000E+00  0.00000000000E+00  0.21754975871E+04  0.21754975871E+04  0.50400001928E-02 0.  1.
        1   -1    0    0  501    0  0.00000000000E+00  0.00000000000E+00 -0.12162042131E+04  0.12162042131E+04  0.50400001928E-02 0. -1.
    10030    2    1    2    0    0  0.00000000000E+00  0.00000000000E+00  0.95929337400E+03  0.33917018002E+04  0.32532133843E+04 0.  0.
        5    1    3    3  502    0  0.67676641195E+03  0.12507836287E+04  0.13027848896E+04  0.19286635322E+04  0.46999998093E+01 0. -1.
       -5    1    3    3    0  502 -0.67676641195E+03 -0.12507836287E+04 -0.34349151558E+03  0.14630382679E+04  0.46999998093E+01 0.  1.
</event>
<event>
 5   0  0.7971153E-06  0.2921958E+04  0.7818609E-02  0.8266374E-01
       -1   -1    0    0    0  501  0.00000000000E+00  0.00000000000E+00  0.11884688458E+04  0.11884688458E+04  0.50400001928E-02 0.  1.
        1   -1    0    0  501    0  0.00000000000E+00  0.00000000000E+00 -0.17959749275E+04  0.17959749275E+04  0.50400001928E-02 0. -1.
    10030    2    1    2    0    0  0.00000000000E+00  0.00000000000E+00 -0.60750608171E+03  0.29844437733E+04  0.29219584180E+04 0.  0.
        5    1    3    3  502    0 -0.92174460656E+03 -0.50718512947E+03 -0.13391310629E+04  0.17029809068E+04  0.46999998093E+01 0. -1.
       -5    1    3    3    0  502  0.92174460656E+03  0.50718512947E+03  0.73162498116E+03  0.12814628665E+04  0.46999998093E+01 0.  1.
</event>
<event>
 5   0  0.8055928E-06  0.2574403E+04  0.7818609E-02  0.8376948E-01
        1   -1    0    0  501    0  0.00000000000E+00  0.00000000000E+00  0.12326655507E+04  0.12326655508E+04  0.50400001928E-02 0. -1.
       -1   -1    0    0    0  501  0.00000000000E+00  0.00000000000E+00 -0.13441503263E+04  0.13441503264E+04  0.50400001928E-02 0.  1.
    10030    2    1    2    0    0  0.00000000000E+00  0.00000000000E+00 -0.11148477560E+03  0.25768158771E+04  0.25744030783E+04 0.  0.
        2    1    3    3  502    0 -0.47666418979E+03  0.10975441206E+04  0.41912395964E+03  0.12678630604E+04  0.25500000920E-02 0.  1.
       -2    1    3    3    0  502  0.47666418979E+03 -0.10975441206E+04 -0.53060873524E+03  0.13089528167E+04  0.25500000920E-02 0. -1.
</event>
<event>
 5   0  0.8055928E-06  0.1980635E+04  0.7818609E-02  0.8615728E-01
       -1   -1    0    0    0  501  0.00000000000E+00  0.00000000000E+00  0.14288085209E+04  0.14288085209E+04  0.50400001928E-02 0. -1.
        1   -1    0    0  501    0  0.00000000000E+00  0.00000000000E+00 -0.68639627859E+03  0.68639627861E+03  0.50400001928E-02 0.  1.
    10030    2    1    2    0    0  0.00000000000E+00  0.00000000000E+00  0.74241224226E+03  0.21152047995E+04  0.19806351017E+04 0.  0.
        2    1    3    3  502    0 -0.87618844011E+03 -0.89060029664E+02 -0.11243278688E+03  0.88785077747E+03  0.25500000920E-02 0.  1.
       -2    1    3    3    0  502  0.87618844011E+03  0.89060029664E+02  0.85484502915E+03  0.12273540220E+04  0.25500000920E-02 0. -1.
</event>
<event>
 5   0  0.1960961E-05  0.2912210E+04  0.7818609E-02  0.8269254E-01
       -2   -1    0    0    0  501  0.00000000000E+00  0.00000000000E+00  0.11560080907E+04  0.11560080907E+04  0.25500000920E-02 0.  1.
        2   -1    0    0  501    0  0.00000000000E+00  0.00000000000E+00 -0.18341065614E+04  0.18341065614E+04  0.25500000920E-02 0. -1.
    10030    2    1    2    0    0  0.00000000000E+00  0.00000000000E+00 -0.67809847072E+03  0.29901146520E+04  0.29122101738E+04 0.  0.
        5    1    3    3  502    0  0.54507891464E+03 -0.55422503260E+03 -0.16032226048E+04  0.17817466769E+04  0.46999998093E+01 0. -1.
       -5    1    3    3    0  502 -0.54507891464E+03  0.55422503260E+03  0.92512413410E+03  0.12083679752E+04  0.46999998093E+01 0.  1.
</event>
<event>
 5   0  0.1918901E-05  0.3058104E+04  0.7818609E-02  0.8227331E-01
        2   -1    0    0  501    0  0.00000000000E+00  0.00000000000E+00  0.23507036322E+04  0.23507036322E+04  0.25500000920E-02 0.  1.
       -2   -1    0    0    0  501  0.00000000000E+00  0.00000000000E+00 -0.99459597537E+03  0.99459597537E+03  0.25500000920E-02 0. -1.
    10030    2    1    2    0    0  0.00000000000E+00  0.00000000000E+00  0.13561076569E+04  0.33452996076E+04  0.30581042310E+04 0.  0.
        1    1    3    3  502    0 -0.29667524121E+03 -0.38527677871E+03  0.22638675957E+04  0.23155022967E+04  0.50400001928E-02 0.  1.
       -1    1    3    3    0  502  0.29667524121E+03  0.38527677871E+03 -0.90775993886E+03  0.10297973109E+04  0.50400001928E-02 0. -1.
</event>
<event>
 5   0  0.7971153E-06  0.1543429E+04  0.7818609E-02  0.8856076E-01
       -1   -1    0    0    0  501  0.00000000000E+00  0.00000000000E+00  0.97456931687E+03  0.97456931688E+03  0.50400001928E-02 0.  1.
        1   -1    0    0  501    0  0.00000000000E+00  0.00000000000E+00 -0.61108340927E+03  0.61108340929E+03  0.50400001928E-02 0. -1.
    10030    2    1    2    0    0  0.00000000000E+00  0.00000000000E+00  0.36348590760E+03  0.15856527262E+04  0.15434288331E+04 0.  0.
        5    1    3    3  502    0 -0.60790882332E+03  0.21534184375E+03 -0.25363813572E+03  0.69302210717E+03  0.46999998093E+01 0. -1.
       -5    1    3    3    0  502  0.60790882332E+03 -0.21534184375E+03  0.61712404332E+03  0.89263061900E+03  0.46999998093E+01 0.  1.
</event>
<event>
 5   0  0.8055928E-06  0.2993143E+04  0.7818609E-02  0.8245692E-01
       -1   -1    0    0    0  501  0.00000000000E+00  0.00000000000E+00  0.17767196123E+04  0.17767196123E+04  0.50400001928E-02 0. -1.
        1   -1    0    0  501    0  0.00000000000E+00  0.00000000000E+00 -0.12605962999E+04  0.12605962999E+04  0.50400001928E-02 0.  1.
    10030    2    1    2    0    0  0.00000000000E+00  0.00000000000E+00  0.51612331240E+03  0.30373159122E+04  0.29931429429E+04 0.  0.
        2    1    3    3  502    0  0.78009627152E+03  0.85491862207E+03  0.12209008288E+04  0.16822707502E+04  0.25500000920E-02 0. -1.
       -2    1    3    3    0  502 -0.78009627152E+03 -0.85491862207E+03 -0.70477751645E+03  0.13550451619E+04  0.25500000920E-02 0.  1.
</event>
<event>
 5   0  0.8122088E-06  0.2868768E+04  0.7818609E-02  0.8282231E-01
       -1   -1    0    0    0  501  0.00000000000E+00  0.00000000000E+00  0.11387317363E+04  0.11387317364E+04  0.50400001928E-02 0.  1.
        1   -1    0    0  501    0  0.00000000000E+00  0.00000000000E+00 -0.18067971257E+04  0.18067971258E+04  0.50400001928E-02 0. -1.
    10030    2    1    2    0    0  0.00000000000E+00  0.00000000000E+00 -0.66806538941E+03  0.29455288621E+04  0.28687678388E+04 0.  0.
        1    1    3    3  502    0 -0.14268069375E+03  0.10960384901E+04 -0.12727154134E+04  0.16856638679E+04  0.50400001928E-02 0. -1.
       -1    1    3    3    0  502  0.14268069375E+03 -0.10960384901E+04  0.60465002398E+03  0.12598649942E+04  0.50400001928E-02 0.  1.
</event>
<event>
 5   0  0.1960961E-05  0.2891803E+04  0.7818609E-02  0.8275320E-01
       -2   -1    0    0    0  501  0.00000000000E+00  0.00000000000E+00  0.15145678568E+04  0.15145678568E+04  0.25500000920E-02 0.  1.
        2   -1    0    0  501    0  0.00000000000E+00  0.00000000000E+00 -0.13803486629E+04  0.13803486629E+04  0.25500000920E-02 0. -1.
    10030    2    1    2    0    0  0.00000000000E+00  0.00000000000E+00  0.13421919386E+03  0.28949165198E+04  0.28918033931E+04 0.  0.
        5    1    3    3  502    0 -0.62727680622E+02  0.30158297051E+03 -0.13471116793E+04  0.13818896542E+04  0.46999998093E+01 0. -1.
       -5    1    3    3    0  502  0.62727680622E+02 -0.30158297051E+03  0.14813308732E+04  0.15130268655E+04  0.46999998093E+01 0.  1.
</event>
<event>
 5   0  0.1960961E-05  0.2892154E+04  0.7818609E-02  0.8275216E-01
        2   -1    0    0  501    0  0.00000000000E+00  0.00000000000E+00  0.18795450531E+04  0.18795450531E+04  0.25500000920E-02 0.  1.
       -2   -1    0    0    0  501  0.00000000000E+00  0.00000000000E+00 -0.11125767664E+04  0.11125767665E+04  0.25500000920E-02 0. -1.
    10030    2    1    2    0    0  0.00000000000E+00  0.00000000000E+00  0.76696828669E+03  0.29921218196E+04  0.28921536319E+04 0.  0.
        5    1    3    3  502    0  0.41724477785E+03  0.26566017205E+03  0.17892933989E+04  0.18564109160E+04  0.46999998093E+01 0.  1.
       -5    1    3    3    0  502 -0.41724477785E+03 -0.26566017205E+03 -0.10223251122E+04  0.11357109036E+04  0.46999998093E+01 0. -1.
</event>
<event>
 5   0  0.1829810E-05  0.2823941E+04  0.7818609E-02  0.8295874E-01
       -2   -1    0    0    0  501  0.00000000000E+00  0.00000000000E+00  0.19003059548E+04  0.19003059548E+04  0.25500000920E-02 0.  1.
        2   -1    0    0  501    0  0.00000000000E+00  0.00000000000E+00 -0.10491263261E+04  0.10491263261E+04  0.25500000920E-02 0. -1.
    10030    2    1    2    0    0  0.00000000000E+00  0.00000000000E+00  0.85117962873E+03  0.29494322809E+04  0.28239412210E+04 0.  0.
        4    1    3    3  502    0 -0.24550406820E+03 -0.41684758603E+03  0.18110462269E+04  0.18745464002E+04  0.12699999809E+01 0.  1.
       -4    1    3    3    0  502  0.24550406820E+03  0.41684758603E+03 -0.95986659817E+03  0.10748858808E+04  0.12699999809E+01 0. -1.
</event>
<event>
 5   0  0.7971153E-06  0.2887154E+04  0.7818609E-02  0.8276710E-01
        1   -1    0    0  501    0  0.00000000000E+00  0.00000000000E+00  0.11748871360E+04  0.11748871361E+04  0.50400001928E-02 0. -1.
       -1   -1    0    0    0  501  0.00000000000E+00  0.00000000000E+00 -0.17737147714E+04  0.17737147714E+04  0.50400001928E-02 0.  1.
    10030    2    1    2    0    0  0.00000000000E+00  0.00000000000E+00 -0.59882763539E+03  0.29486019075E+04  0.28871540783E+04 0.  0.
        5    1    3    3  502    0 -0.52645006461E+03  0.69338372855E+03  0.87659805264E+03  0.12354662688E+04  0.46999998093E+01 0. -1.
       -5    1    3    3    0  502  0.52645006461E+03 -0.69338372855E+03 -0.14754256880E+04  0.17131356387E+04  0.46999998093E+01 0.  1.
</event>
<event>
 5   0  0.1976233E-05  0.3039560E+04  0.7818609E-02  0.8232524E-01
       -2   -1    0    0    0  501  0.00000000000E+00  0.00000000000E+00  0.11090323620E+04  0.11090323620E+04  0.25500000920E-02 0. -1.
        2   -1    0    0  501    0  0.00000000000E+00  0.00000000000E+00 -0.20826539874E+04  0.20826539874E+04  0.25500000920E-02 0.  1.
    10030    2    1    2    0    0  0.00000000000E+00  0.00000000000E+00 -0.97362162537E+03  0.31916863494E+04  0.30395596200E+04 0.  0.
        2    1    3    3  502    0  0.50239446573E+03 -0.13300946758E+04  0.76879306530E+02  0.14238899092E+04  0.25500000920E-02 0. -1.
       -2    1    3    3    0  502 -0.50239446573E+03  0.13300946758E+04 -0.10505009319E+04  0.17677964401E+04  0.25500000920E-02 0.  1.
</event>
<event>
 5   0  0.8055928E-06  0.2332187E+04  0.7818609E-02  0.8465337E-01
       -1   -1    0    0    0  501  0.00000000000E+00  0.00000000000E+00  0.13274333162E+04  0.13274333162E+04  0.50400001928E-02 0.  1.
        1   -1    0    0  501    0  0.00000000000E+00  0.00000000000E+00 -0.10243633941E+04  0.10243633941E+04  0.50400001928E-02 0. -1.
    10030    2    1    2    0    0  0.00000000000E+00  0.00000000000E+00  0.30306992205E+03  0.23517967103E+04  0.23321870399E+04 0.  0.
        2    1    3    3  502    0 -0.40417800538E+03 -0.97769821652E+03 -0.34301752676E+03  0.11121666630E+04  0.25500000920E-02 0. -1.
       -2    1    3    3    0  502  0.40417800538E+03  0.97769821652E+03  0.64608744881E+03  0.12396300473E+04  0.25500000920E-02 0.  1.
</event>
<event>
 5   0  0.1976233E-05  0.2890042E+04  0.7818609E-02  0.8275846E-01
        2   -1    0    0  501    0  0.00000000000E+00  0.00000000000E+00  0.13790509768E+04  0.13790509768E+04  0.25500000920E-02 0.  1.
       -2   -1    0    0    0  501  0.00000000000E+00  0.00000000000E+00 -0.15141473060E+04  0.15141473060E+04  0.25500000920E-02 0. -1.
    10030    2    1    2    0    0  0.00000000000E+00  0.00000000000E+00 -0.13509632919E+03  0.28931982828E+04  0.28900424366E+04 0.  0.
        2    1    3    3  502    0  0.94686535246E+02 -0.12372467962E+04 -0.80885737623E+03  0.14812141741E+04  0.25500000920E-02 0. -1.
       -2    1    3    3    0  502 -0.94686535246E+02  0.12372467962E+04  0.67376104704E+03  0.14119841086E+04  0.25500000920E-02 0.  1.
</event>
<event>
 5   0  0.7971153E-06  0.2735144E+04  0.7818609E-02  0.8323691E-01
       -1   -1    0    0    0  501  0.00000000000E+00  0.00000000000E+00  0.90723179793E+03  0.90723179794E+03  0.50400001928E-02 0.  1.
        1   -1    0    0  501    0  0.00000000000E+00  0.00000000000E+00 -0.20614946643E+04  0.20614946643E+04  0.50400001928E-02 0. -1.
    10030    2    1    2    0    0  0.00000000000E+00  0.00000000000E+00 -0.11542628664E+04  0.29687264623E+04  0.27351442454E+04 0.  0.
        5    1    3    3  502    0  0.12499574170E+04 -0.37644800361E+02 -0.11779578664E+04  0.17179690044E+04  0.46999998093E+01 0. -1.
       -5    1    3    3    0  502 -0.12499574170E+04  0.37644800361E+02  0.23694999947E+02  0.12507574578E+04  0.46999998093E+01 0.  1.
</event>
<event>
 5   0  0.1829810E-05  0.2617098E+04  0.7818609E-02  0.8362417E-01
       -2   -1    0    0    0  501  0.00000000000E+00  0.00000000000E+00  0.95147855429E+03  0.95147855429E+03  0.25500000920E-02 0.  1.
        2   -1    0    0  501    0  0.00000000000E+00  0.00000000000E+00 -0.17996206333E+04  0.17996206333E+04  0.25500000920E-02 0. -1.
    10030    2    1    2    0    0  0.00000000000E+00  0.00000000000E+00 -0.84814207899E+03  0.27510991876E+04  0.26170979641E+04 0.  0.
        4    1    3    3  502    0  0.62945782486E+03  0.47501385673E+03  0.67363955220E+03  0.10371341170E+04  0.12699999809E+01 0.  1.
       -4    1    3    3    0  502 -0.62945782486E+03 -0.47501385673E+03 -0.15217816312E+04  0.17139650706E+04  0.12699999809E+01 0. -1.
</event>
<event>
 5   0  0.8122088E-06  0.2969522E+04  0.7818609E-02  0.8252488E-01
        1   -1    0    0  501    0  0.00000000000E+00  0.00000000000E+00  0.20025050918E+04  0.20025050918E+04  0.50400001928E-02 0.  1.
       -1   -1    0    0    0  501  0.00000000000E+00  0.00000000000E+00 -0.11008788490E+04  0.11008788490E+04  0.50400001928E-02 0. -1.
    10030    2    1    2    0    0  0.00000000000E+00  0.00000000000E+00  0.90162624277E+03  0.31033839408E+04  0.29695221842E+04 0.  0.
        1    1    3    3  502    0  0.10564111965E+04 -0.60193123200E+03  0.13413952373E+04  0.18104328231E+04  0.50400001928E-02 0.  1.
       -1    1    3    3    0  502 -0.10564111965E+04  0.60193123200E+03 -0.43976899457E+03  0.12929511177E+04  0.50400001928E-02 0. -1.
</event>
<event>
 5   0  0.7971153E-06  0.1522662E+04  0.7818609E-02  0.8869521E-01
       -1   -1    0    0    0  501  0.00000000000E+00  0.00000000000E+00  0.29241437774E+03  0.29241437779E+03  0.50400001928E-02 0.  1.
        1   -1    0    0  501    0  0.00000000000E+00  0.00000000000E+00 -0.19822033207E+04  0.19822033207E+04  0.50400001928E-02 0. -1.
    10030    2    1    2    0    0  0.00000000000E+00  0.00000000000E+00 -0.16897889429E+04  0.22746176985E+04  0.15226618149E+04 0.  0.
        5    1    3    3  502    0  0.31202339193E+03 -0.45664030888E+03 -0.16264523615E+04  0.17179197720E+04  0.46999998093E+01 0. -1.
       -5    1    3    3    0  502 -0.31202339193E+03  0.45664030888E+03 -0.63336581456E+02  0.55669792649E+03  0.46999998093E+01 0.  1.
</event>
<event>
 5   0  0.7305460E-06  0.2760082E+04  0.7818609E-02  0.8315769E-01
       -1   -1    0    0    0  501  0.00000000000E+00  0.00000000000E+00  0.10269219541E+04  0.10269219542E+04  0.50400001928E-02 0.  1.
        1   -1    0    0  501    0  0.00000000000E+00  0.00000000000E+00 -0.18545842719E+04  0.18545842719E+04  0.50400001928E-02 0. -1.
    10030    2    1    2    0    0  0.00000000000E+00  0.00000000000E+00 -0.82766231773E+03  0.28815062260E+04  0.27600821036E+04 0.  0.
        4    1    3    3  502    0  0.10094536674E+04  0.88520896676E+03 -0.80537218130E+02  0.13450202519E+04  0.12699999809E+01 0.  1.
       -4    1    3    3    0  502 -0.10094536674E+04 -0.88520896676E+03 -0.74712509960E+03  0.15364859742E+04  0.12699999809E+01 0. -1.
</event>
<event>
 5   0  0.1976233E-05  0.2993907E+04  0.7818609E-02  0.8245473E-01
       -2   -1    0    0    0  501  0.00000000000E+00  0.00000000000E+00  0.32029248112E+04  0.32029248112E+04  0.25500000920E-02 0.  1.
        2   -1    0    0  501    0  0.00000000000E+00  0.00000000000E+00 -0.69963227675E+03  0.69963227675E+03  0.25500000920E-02 0. -1.
    10030    2    1    2    0    0  0.00000000000E+00  0.00000000000E+00  0.25032925345E+04  0.39025570880E+04  0.29939068642E+04 0.  0.
        2    1    3    3  502    0  0.23345378642E+03  0.78912202916E+02  0.31763032818E+04  0.31858484497E+04  0.25500000920E-02 0.  1.
       -2    1    3    3    0  502 -0.23345378642E+03 -0.78912202916E+02 -0.67301074735E+03  0.71670863830E+03  0.25500000920E-02 0. -1.
</event>
<event>
 5   0  0.1918901E-05  0.2660108E+04  0.7818609E-02  0.8348066E-01
       -2   -1    0    0    0  501  0.00000000000E+00  0.00000000000E+00  0.10385424799E+04  0.10385424799E+04  0.25500000920E-02 0.  1.
        2   -1    0    0  501    0  0.00000000000E+00  0.00000000000E+00 -0.17033904120E+04  0.17033904120E+04  0.25500000920E-02 0. -1.
    10030    2    1    2    0    0  0.00000000000E+00  0.00000000000E+00 -0.66484793210E+03  0.27419328919E+04  0.26601077442E+04 0.  0.
        1    1    3    3  502    0 -0.18939332776E+03  0.11197794726E+04  0.38116239332E+03  0.11979401779E+04  0.50400001928E-02 0.  1.
       -1    1    3    3    0  502  0.18939332776E+03 -0.11197794726E+04 -0.10460103254E+04  0.15439927139E+04  0.50400001928E-02 0. -1.
</event>
<event>
 5   0  0.7971153E-06  0.2886358E+04  0.7818609E-02  0.8276948E-01
       -1   -1    0    0    0  501  0.00000000000E+00  0.00000000000E+00  0.18780511879E+04  0.18780511879E+04  0.50400001928E-02 0.  1.
        1   -1    0    0  501    0  0.00000000000E+00  0.00000000000E+00 -0.11090037773E+04  0.11090037773E+04  0.50400001928E-02 0. -1.
    10030    2    1    2    0    0  0.00000000000E+00  0.00000000000E+00  0.76904741059E+03  0.29870549652E+04  0.28863581631E+04 0.  0.
        5    1    3    3  502    0  0.10947146888E+04 -0.90392040636E+03  0.65293963865E+03  0.15626338703E+04  0.46999998093E+01 0. -1.
       -5    1    3    3    0  502 -0.10947146888E+04  0.90392040636E+03  0.11610777194E+03  0.14244210949E+04  0.46999998093E+01 0.  1.
</event>
<event>
 5   0  0.1960961E-05  0.1690884E+04  0.7818609E-02  0.8766581E-01
        2   -1    0    0  501    0  0.00000000000E+00  0.00000000000E+00  0.77415208276E+03  0.77415208276E+03  0.25500000920E-02 0. -1.
       -2   -1    0    0    0  501  0.00000000000E+00  0.00000000000E+00 -0.92329660995E+03  0.92329660995E+03  0.25500000920E-02 0.  1.
    10030    2    1    2    0    0  0.00000000000E+00  0.00000000000E+00 -0.14914452719E+03  0.16974486927E+04  0.16908837850E+04 0.  0.
        5    1    3    3  502    0  0.46501339308E+02 -0.75040619088E+03 -0.46269729158E+03  0.88282653987E+03  0.46999998093E+01 0.  1.
       -5    1    3    3    0  502 -0.46501339308E+02  0.75040619088E+03  0.31355276439E+03  0.81462215285E+03  0.46999998093E+01 0. -1.
</event>
<event>
 5   0  0.1960961E-05  0.2800748E+04  0.7818609E-02  0.8303036E-01
       -2   -1    0    0    0  501  0.00000000000E+00  0.00000000000E+00  0.16507177227E+04  0.16507177227E+04  0.25500000920E-02 0. -1.
        2   -1    0    0  501    0  0.00000000000E+00  0.00000000000E+00 -0.11879971511E+04  0.11879971511E+04  0.25500000920E-02 0.  1.
    10030    2    1    2    0    0  0.00000000000E+00  0.00000000000E+00  0.46272057155E+03  0.28387148738E+04  0.28007484370E+04 0.  0.
        5    1    3    3  502    0  0.11236873243E+04 -0.54561878288E+03 -0.41019156712E+03  0.13147822142E+04  0.46999998093E+01 0. -1.
       -5    1    3    3    0  502 -0.11236873243E+04  0.54561878288E+03  0.87291213867E+03  0.15239326596E+04  0.46999998093E+01 0.  1.
</event>
<event>
 5   0  0.1960961E-05  0.2910802E+04  0.7818609E-02  0.8269671E-01
       -2   -1    0    0    0  501  0.00000000000E+00  0.00000000000E+00  0.11388197094E+04  0.11388197094E+04  0.25500000920E-02 0. -1.
        2   -1    0    0  501    0  0.00000000000E+00  0.00000000000E+00 -0.18599886976E+04  0.18599886976E+04  0.25500000920E-02 0.  1.
    10030    2    1    2    0    0  0.00000000000E+00  0.00000000000E+00 -0.72116898818E+03  0.29988084069E+04  0.29108018057E+04 0.  0.
        5    1    3    3  502    0  0.24455426562E+03 -0.29095934771E+03  0.10867778422E+04  0.11513350073E+04  0.46999998093E+01 0. -1.
       -5    1    3    3    0  502 -0.24455426562E+03  0.29095934771E+03 -0.18079468304E+04  0.18474733996E+04  0.46999998093E+01 0.  1.
</event>
<event>
 5   0  0.8122088E-06  0.2930622E+04  0.7818609E-02  0.8263824E-01
        1   -1    0    0  501    0  0.00000000000E+00  0.00000000000E+00  0.10342254804E+04  0.10342254804E+04  0.50400001928E-02 0.  1.
       -1   -1    0    0    0  501  0.00000000000E+00  0.00000000000E+00 -0.20760818278E+04  0.20760818278E+04  0.50400001928E-02 0. -1.
    10030    2    1    2    0    0  0.00000000000E+00  0.00000000000E+00 -0.10418563474E+04  0.31103073082E+04  0.29306222723E+04 0.  0.
        1    1    3    3  502    0  0.61629492098E+03 -0.12995342638E+03 -0.19250854502E+04  0.20255027310E+04  0.50400001928E-02 0. -1.
       -1    1    3    3    0  502 -0.61629492098E+03  0.12995342638E+03  0.88322910282E+03  0.10848045772E+04  0.50400001928E-02 0.  1.
</event>
<event>
 5   0  0.1829810E-05  0.2164186E+04  0.7818609E-02  0.8533484E-01
        2   -1    0    0  501    0  0.00000000000E+00  0.00000000000E+00  0.14660633555E+04  0.14660633555E+04  0.25500000920E-02 0. -1.
       -2   -1    0    0    0  501  0.00000000000E+00  0.00000000000E+00 -0.79868650862E+03  0.79868650862E+03  0.25500000920E-02 0.  1.
    10030    2    1    2    0    0  0.00000000000E+00  0.00000000000E+00  0.66737684691E+03  0.22647498642E+04  0.21641857802E+04 0.  0.
        4    1    3    3  502    0 -0.43546394579E+03  0.64813309533E+02 -0.70072424605E+03  0.82755404360E+03  0.12699999809E+01 0.  1.
       -4    1    3    3    0  502  0.43546394579E+03 -0.64813309533E+02  0.13681010930E+04  0.14371958206E+04  0.12699999809E+01 0. -1.
</event>
<event>
 5   0  0.8122088E-06  0.2814092E+04  0.7818609E-02  0.8298907E-01
       -1   -1    0    0    0  501  0.00000000000E+00  0.00000000000E+00  0.11167536434E+04  0.11167536434E+04  0.50400001928E-02 0. -1.
        1   -1    0    0  501    0  0.00000000000E+00  0.00000000000E+00 -0.17727976135E+04  0.17727976135E+04  0.50400001928E-02 0.  1.
    10030    2    1    2    0    0  0.00000000000E+00  0.00000000000E+00 -0.65604397016E+03  0.28895512569E+04  0.28140918207E+04 0.  0.
        1    1    3    3  502    0 -0.32816046223E+03 -0.13325792045E+04 -0.64670132728E+03  0.15171286142E+04  0.50400001928E-02 0.  1.
       -1    1    3    3    0  502  0.32816046223E+03  0.13325792045E+04 -0.93426428730E+01  0.13724226427E+04  0.50400001928E-02 0. -1.
</event>
<event>
 5   0  0.8234888E-06  0.2992957E+04  0.7818609E-02  0.8245745E-01
       -1   -1    0    0    0  501  0.00000000000E+00  0.00000000000E+00  0.18660362689E+04  0.18660362689E+04  0.50400001928E-02 0. -1.
        1   -1    0    0  501    0  0.00000000000E+00  0.00000000000E+00 -0.12001097075E+04  0.12001097075E+04  0.50400001928E-02 0.  1.
    10030    2    1    2    0    0  0.00000000000E+00  0.00000000000E+00  0.66592656140E+03  0.30661459765E+04  0.29929572272E+04 0.  0.
        3    1    3    3  502    0 -0.52544164514E+03 -0.23462029963E+03 -0.10822343038E+04  0.12257106942E+04  0.10100000352E+00 0.  1.
       -3    1    3    3    0  502  0.52544164514E+03  0.23462029963E+03  0.17481608652E+04  0.18404352822E+04  0.10100000352E+00 0. -1.
</event>
<event>
 5   0  0.8055928E-06  0.2861780E+04  0.7818609E-02  0.8284341E-01
        1   -1    0    0  501    0  0.00000000000E+00  0.00000000000E+00  0.19884610043E+04  0.19884610043E+04  0.50400001928E-02 0. -1.
       -1   -1    0    0    0  501  0.00000000000E+00  0.00000000000E+00 -0.10296635111E+04  0.10296635111E+04  0.50400001928E-02 0.  1.
    10030    2    1    2    0    0  0.00000000000E+00  0.00000000000E+00  0.95879749322E+03  0.30181245155E+04  0.28617796837E+04 0.  0.
        2    1    3    3  502    0  0.27998134501E+02 -0.19710414139E+03 -0.10149861104E+04  0.10343262263E+04  0.25500000920E-02 0.  1.
       -2    1    3    3    0  502 -0.27998134501E+02  0.19710414139E+03  0.19737836036E+04  0.19837982892E+04  0.25500000920E-02 0. -1.
</event>
<event>
 5   0  0.1829810E-05  0.1869968E+04  0.7818609E-02  0.8669951E-01
        2   -1    0    0  501    0  0.00000000000E+00  0.00000000000E+00  0.68470464981E+03  0.68470464982E+03  0.25500000920E-02 0.  1.
       -2   -1    0    0    0  501  0.00000000000E+00  0.00000000000E+00 -0.12767472327E+04  0.12767472327E+04  0.25500000920E-02 0. -1.
    10030    2    1    2    0    0  0.00000000000E+00  0.00000000000E+00 -0.59204258289E+03  0.19614518825E+04  0.18699676648E+04 0.  0.
        4    1    3    3  502    0  0.16900128440E+02  0.23806022287E+03 -0.12442585292E+04  0.12669408765E+04  0.12699999809E+01 0. -1.
       -4    1    3    3    0  502 -0.16900128440E+02 -0.23806022287E+03  0.65221594630E+03  0.69451100608E+03  0.12699999809E+01 0.  1.
</event>
<event>
 5   0  0.7305460E-06  0.2831328E+04  0.7818609E-02  0.8293608E-01
       -1   -1    0    0    0  501  0.00000000000E+00  0.00000000000E+00  0.69214638702E+03  0.69214638704E+03  0.50400001928E-02 0.  1.
        1   -1    0    0  501    0  0.00000000000E+00  0.00000000000E+00 -0.28954923796E+04  0.28954923796E+04  0.50400001928E-02 0. -1.
    10030    2    1    2    0    0  0.00000000000E+00  0.00000000000E+00 -0.22033459926E+04  0.35876387667E+04  0.28313280200E+04 0.  0.
        4    1    3    3  502    0 -0.59495468111E+03 -0.10574901571E+04 -0.20257574467E+04  0.23613452417E+04  0.12699999809E+01 0. -1.
       -4    1    3    3    0  502  0.59495468111E+03  0.10574901571E+04 -0.17758854593E+03  0.12262935250E+04  0.12699999809E+01 0.  1.
</event>
<event>
 5   0  0.8234888E-06  0.2938805E+04  0.7818609E-02  0.8261425E-01
        1   -1    0    0  501    0  0.00000000000E+00  0.00000000000E+00  0.16828487151E+04  0.16828487151E+04  0.50400001928E-02 0. -1.
       -1   -1    0    0    0  501  0.00000000000E+00  0.00000000000E+00 -0.12830289529E+04  0.12830289529E+04  0.50400001928E-02 0.  1.
    10030    2    1    2    0    0  0.00000000000E+00  0.00000000000E+00  0.39981976229E+03  0.29658776680E+04  0.29388049441E+04 0.  0.
        3    1    3    3  502    0 -0.83767852577E+03  0.15671669314E+03  0.14079659927E+04  0.16457927213E+04  0.10100000352E+00 0. -1.
       -3    1    3    3    0  502  0.83767852577E+03 -0.15671669314E+03 -0.10081462305E+04  0.13200849467E+04  0.10100000352E+00 0.  1.
</event>
<event>
 5   0  0.1918901E-05  0.2805088E+04  0.7818609E-02  0.8301691E-01
       -2   -1    0    0    0  501  0.00000000000E+00  0.00000000000E+00  0.79267189450E+03  0.79267189451E+03  0.25500000920E-02 0. -1.
        2   -1    0    0  501    0  0.00000000000E+00  0.00000000000E+00 -0.24816436308E+04  0.24816436308E+04  0.25500000920E-02 0.  1.
    10030    2    1    2    0    0  0.00000000000E+00  0.00000000000E+00 -0.16889717363E+04  0.32743155253E+04  0.28050876338E+04 0.  0.
        1    1    3    3  502    0  0.32249157484E+03  0.11447910097E+04  0.23219763437E+02  0.11895740537E+04  0.50400001928E-02 0. -1.
       -1    1    3    3    0  502 -0.32249157484E+03 -0.11447910097E+04 -0.17121914997E+04  0.20847414716E+04  0.50400001928E-02 0.  1.
</event>
<event>
 5   0  0.1960961E-05  0.2868501E+04  0.7818609E-02  0.8282311E-01
       -2   -1    0    0    0  501  0.00000000000E+00  0.00000000000E+00  0.58493982974E+03  0.58493982974E+03  0.25500000920E-02 0. -1.
        2   -1    0    0  501    0  0.00000000000E+00  0.00000000000E+00 -0.35167293261E+04  0.35167293261E+04  0.25500000920E-02 0.  1.
    10030    2    1    2    0    0  0.00000000000E+00  0.00000000000E+00 -0.29317894964E+04  0.41016691559E+04  0.28685013880E+04 0.  0.
        5    1    3    3  502    0  0.57902229825E+03  0.42735195274E+03  0.30807800779E+03  0.78283501599E+03  0.46999998093E+01 0. -1.
       -5    1    3    3    0  502 -0.57902229825E+03 -0.42735195274E+03 -0.32398675042E+04  0.33188341399E+04  0.46999998093E+01 0.  1.
</event>
<event>
 5   0  0.7305460E-06  0.2883163E+04  0.7818609E-02  0.8277905E-01
        1   -1    0    0  501    0  0.00000000000E+00  0.00000000000E+00  0.21014874583E+04  0.21014874583E+04  0.50400001928E-02 0.  1.
       -1   -1    0    0    0  501  0.00000000000E+00  0.00000000000E+00 -0.98889846886E+03  0.98889846887E+03  0.50400001928E-02 0. -1.
    10030    2    1    2    0    0  0.00000000000E+00  0.00000000000E+00  0.11125889895E+04  0.30903859272E+04  0.28831633529E+04 0.  0.
        4    1    3    3  502    0 -0.63283669491E+03  0.97266167629E+03  0.14731084943E+04  0.18752608533E+04  0.12699999809E+01 0.  1.
       -4    1    3    3    0  502  0.63283669491E+03 -0.97266167629E+03 -0.36051950486E+03  0.12151250739E+04  0.12699999809E+01 0. -1.
</event>
<event>
 5   0  0.1829810E-05  0.2850278E+04  0.7818609E-02  0.8287827E-01
        2   -1    0    0  501    0  0.00000000000E+00  0.00000000000E+00  0.14005569156E+04  0.14005569156E+04  0.25500000920E-02 0.  1.
       -2   -1    0    0    0  501  0.00000000000E+00  0.00000000000E+00 -0.14501520548E+04  0.14501520548E+04  0.25500000920E-02 0. -1.
    10030    2    1    2    0    0  0.00000000000E+00  0.00000000000E+00 -0.49595139172E+02  0.28507089704E+04  0.28502775227E+04 0.  0.
        4    1    3    3  502    0 -0.95354374120E+03 -0.27221408976E+03 -0.10485113462E+04  0.14431645205E+04  0.12699999809E+01 0. -1.
       -4    1    3    3    0  502  0.95354374120E+03  0.27221408976E+03  0.99891620705E+03  0.14075444500E+04  0.12699999809E+01 0.  1.
</event>
<event>
 5   0  0.1976233E-05  0.2686490E+04  0.7818609E-02  0.8339402E-01
       -2   -1    0    0    0  501  0.00000000000E+00  0.00000000000E+00  0.13215268827E+04  0.13215268827E+04  0.25500000920E-02 0. -1.
        2   -1    0    0  501    0  0.00000000000E+00  0.00000000000E+00 -0.13653198502E+04  0.13653198502E+04  0.25500000920E-02 0.  1.
    10030    2    1    2    0    0  0.00000000000E+00  0.00000000000E+00 -0.43792967462E+02  0.26868467329E+04  0.26864898180E+04 0.  0.
        2    1    3    3  502    0 -0.13359883462E+04  0.12788591770E+03 -0.77466591813E+02  0.13443291047E+04  0.25500000920E-02 0.  1.
       -2    1    3    3    0  502  0.13359883462E+04 -0.12788591770E+03  0.33673624351E+02  0.13425176282E+04  0.25500000920E-02 0. -1.
</event>
<event>
 5   0  0.8122088E-06  0.2913772E+04  0.7818609E-02  0.8268792E-01
        1   -1    0    0  501    0  0.00000000000E+00  0.00000000000E+00  0.17559735492E+04  0.17559735492E+04  0.50400001928E-02 0.  1.
       -1   -1    0    0    0  501  0.00000000000E+00  0.00000000000E+00 -0.12087407052E+04  0.12087407053E+04  0.50400001928E-02 0. -1.
    10030    2    1    2    0    0  0.00000000000E+00  0.00000000000E+00  0.54723284397E+03  0.29647142545E+04  0.29137719240E+04 0.  0.
        1    1    3    3  502    0 -0.58506780771E+03 -0.18796924411E+03  0.16176498205E+04  0.17304414807E+04  0.50400001928E-02 0.  1.
       -1    1    3    3    0  502  0.58506780771E+03  0.18796924411E+03 -0.10704169765E+04  0.12342727738E+04  0.50400001928E-02 0. -1.
</event>
<event>
 5   0  0.1976233E-05  0.1485180E+04  0.7818609E-02  0.8894368E-01
       -2   -1    0    0    0  501  0.00000000000E+00  0.00000000000E+00  0.94519088265E+03  0.94519088265E+03  0.25500000920E-02 0. -1.
        2   -1    0    0  501    0  0.00000000000E+00  0.00000000000E+00 -0.58341619309E+03  0.58341619309E+03  0.25500000920E-02 0.  1.
    10030    2    1    2    0    0  0.00000000000E+00  0.00000000000E+00  0.36177468956E+03  0.15286070757E+04  0.14851796747E+04 0.  0.
        2    1    3    3  502    0 -0.45265897741E+02  0.54330173274E+03  0.69982658124E+03  0.88712063335E+03  0.25500000920E-02 0. -1.
       -2    1    3    3    0  502  0.45265897741E+02 -0.54330173274E+03 -0.33805189168E+03  0.64148644239E+03  0.25500000920E-02 0.  1.
</event>
<event>
 5   0  0.8055928E-06  0.2670073E+04  0.7818609E-02  0.8344781E-01
       -1   -1    0    0    0  501  0.00000000000E+00  0.00000000000E+00  0.11648579777E+04  0.11648579777E+04  0.50400001928E-02 0. -1.
        1   -1    0    0  501    0  0.00000000000E+00  0.00000000000E+00 -0.15300770523E+04  0.15300770523E+04  0.50400001928E-02 0.  1.
    10030    2    1    2    0    0  0.00000000000E+00  0.00000000000E+00 -0.36521907469E+03  0.26949350300E+04  0.26700730034E+04 0.  0.
        2    1    3    3  502    0 -0.41888807382E+03  0.10046968549E+04  0.59752969770E+03  0.12417426176E+04  0.25500000920E-02 0. -1.
       -2    1    3    3    0  502  0.41888807382E+03 -0.10046968549E+04 -0.96274877239E+03  0.14531924124E+04  0.25500000920E-02 0.  1.
</event>
<event>
 5   0  0.7305460E-06  0.1673041E+04  0.7818609E-02  0.8776891E-01
        1   -1    0    0  501    0  0.00000000000E+00  0.00000000000E+00  0.13900521231E+04  0.13900521231E+04  0.50400001928E-02 0. -1.
       -1   -1    0    0    0  501  0.00000000000E+00  0.00000000000E+00 -0.50341038781E+03  0.50341038783E+03  0.50400001928E-02 0.  1.
    10030    2    1    2    0    0  0.00000000000E+00  0.00000000000E+00  0.88664173528E+03  0.18934625109E+04  0.16730411572E+04 0.  0.
        4    1    3    3  502    0 -0.59462684637E+03 -0.57874816242E+03  0.56327847704E+03  0.10029031746E+04  0.12699999809E+01 0.  1.
       -4    1    3    3    0  502  0.59462684637E+03  0.57874816242E+03  0.32336325824E+03  0.89055933638E+03  0.12699999809E+01 0. -1.
</event>
<event>
 5   0  0.1918901E-05  0.2910931E+04  0.7818609E-02  0.8269633E-01
       -2   -1    0    0    0  501  0.00000000000E+00  0.00000000000E+00  0.11842615800E+04  0.11842615800E+04  0.25500000920E-02 0.  1.
        2   -1    0    0  501    0  0.00000000000E+00  0.00000000000E+00 -0.17887768574E+04  0.17887768574E+04  0.25500000920E-02 0. -1.
    10030    2    1    2    0    0  0.00000000000E+00  0.00000000000E+00 -0.60451527743E+03  0.29730384375E+04  0.29109309215E+04 0.  0.
        1    1    3    3  502    0 -0.69615604996E+03  0.26855273585E+03  0.97405516158E+03  0.12270033723E+04  0.50400001928E-02 0.  1.
       -1    1    3    3    0  502  0.69615604996E+03 -0.26855273585E+03 -0.15785704390E+04  0.17460350652E+04  0.50400001928E-02 0. -1.
</event>
<event>
 5   0  0.1976233E-05  0.2819776E+04  0.7818609E-02  0.8297155E-01
       -2   -1    0    0    0  501  0.00000000000E+00  0.00000000000E+00  0.88002798215E+03  0.88002798216E+03  0.25500000920E-02 0.  1.
        2   -1    0    0  501    0  0.00000000000E+00  0.00000000000E+00 -0.22587735662E+04  0.22587735662E+04  0.25500000920E-02 0. -1.
    10030    2    1    2    0    0  0.00000000000E+00  0.00000000000E+00 -0.13787455841E+04  0.31388015484E+04  0.28197758376E+04 0.  0.
        2    1    3    3  502    0  0.23359406779E+03  0.27676439720E+01 -0.22370799835E+04  0.22492444734E+04  0.25500000920E-02 0. -1.
       -2    1    3    3    0  502 -0.23359406779E+03 -0.27676439720E+01  0.85833439946E+03  0.88955707499E+03  0.25500000920E-02 0.  1.
</event>
<event>
 5   0  0.8122088E-06  0.2891018E+04  0.7818609E-02  0.8275555E-01
       -1   -1    0    0    0  501  0.00000000000E+00  0.00000000000E+00  0.15070791535E+04  0.15070791535E+04  0.50400001928E-02 0. -1.
        1   -1    0    0  501    0  0.00000000000E+00  0.00000000000E+00 -0.13864537648E+04  0.13864537648E+04  0.50400001928E-02 0.  1.
    10030    2    1    2    0    0  0.00000000000E+00  0.00000000000E+00  0.12062538865E+03  0.28935329183E+04  0.28910175138E+04 0.  0.
        1    1    3    3  502    0  0.47279865669E+03 -0.12309641640E+04 -0.53238852272E+03  0.14220579742E+04  0.50400001928E-02 0.  1.
       -1    1    3    3    0  502 -0.47279865669E+03  0.12309641640E+04  0.65301391137E+03  0.14714749441E+04  0.50400001928E-02 0. -1.
</event>
<event>
 5   0  0.8055928E-06  0.2973418E+04  0.7818609E-02  0.8251363E-01
       -1   -1    0    0    0  501  0.00000000000E+00  0.00000000000E+00  0.10120172629E+04  0.10120172629E+04  0.50400001928E-02 0.  1.
        1   -1    0    0  501    0  0.00000000000E+00  0.00000000000E+00 -0.21840569009E+04  0.21840569009E+04  0.50400001928E-02 0. -1.
    10030    2    1    2    0    0  0.00000000000E+00  0.00000000000E+00 -0.11720396380E+04  0.31960741639E+04  0.29734177553E+04 0.  0.
        2    1    3    3  502    0 -0.13334331896E+04 -0.63855469856E+03 -0.41774970322E+03  0.15363303644E+04  0.25500000920E-02 0.  1.
       -2    1    3    3    0  502  0.13334331896E+04  0.63855469856E+03 -0.75428993482E+03  0.16597437995E+04  0.25500000920E-02 0. -1.
</event>
<event>
 5   0  0.1918901E-05  0.3025081E+04  0.7818609E-02  0.8236605E-01
       -2   -1    0    0    0  501  0.00000000000E+00  0.00000000000E+00  0.10553504496E+04  0.10553504496E+04  0.25500000920E-02 0. -1.
        2   -1    0    0  501    0  0.00000000000E+00  0.00000000000E+00 -0.21677907724E+04  0.21677907724E+04  0.25500000920E-02 0.  1.
    10030    2    1    2    0    0  0.00000000000E+00  0.00000000000E+00 -0.11124403228E+04  0.32231412221E+04  0.30250811337E+04 0.  0.
        1    1    3    3  502    0  0.74621645728E+03  0.13156470554E+04 -0.55240957283E+03  0.16102554181E+04  0.50400001928E-02 0. -1.
       -1    1    3    3    0  502 -0.74621645728E+03 -0.13156470554E+04 -0.56003075002E+03  0.16128858039E+04  0.50400001928E-02 0.  1.
</event>
<event>
 5   0  0.8055928E-06  0.2952900E+04  0.7818609E-02  0.8257310E-01
        1   -1    0    0  501    0  0.00000000000E+00  0.00000000000E+00  0.17704506776E+04  0.17704506776E+04  0.50400001928E-02 0. -1.
       -1   -1    0    0    0  501  0.00000000000E+00  0.00000000000E+00 -0.12312709977E+04  0.12312709977E+04  0.50400001928E-02 0.  1.
    10030    2    1    2    0    0  0.00000000000E+00  0.00000000000E+00  0.53917967986E+03  0.30017216753E+04  0.29528999795E+04 0.  0.
        2    1    3    3  502    0 -0.45358743353E+03 -0.62283338289E+03  0.15498739361E+04  0.17308299166E+04  0.25500000920E-02 0. -1.
       -2    1    3    3    0  502  0.45358743353E+03  0.62283338289E+03 -0.10106942562E+04  0.12708917587E+04  0.25500000920E-02 0.  1.
</event>
<event>
 5   0  0.8234888E-06  0.2675943E+04  0.7818609E-02  0.8342853E-01
        1   -1    0    0  501    0  0.00000000000E+00  0.00000000000E+00  0.12301130369E+04  0.12301130369E+04  0.50400001928E-02 0. -1.
       -1   -1    0    0    0  501  0.00000000000E+00  0.00000000000E+00 -0.14552876713E+04  0.14552876714E+04  0.50400001928E-02 0.  1.
    10030    2    1    2    0    0  0.00000000000E+00  0.00000000000E+00 -0.22517463441E+03  0.26854007083E+04  0.26759434501E+04 0.  0.
        3    1    3    3  502    0  0.42946329857E+03  0.50443986392E+03 -0.12791369985E+04  0.14405171892E+04  0.10100000352E+00 0.  1.
       -3    1    3    3    0  502 -0.42946329857E+03 -0.50443986392E+03  0.10539623641E+04  0.12448835191E+04  0.10100000352E+00 0. -1.
</event>
<event>
 5   0  0.1829810E-05  0.1537385E+04  0.7818609E-02  0.8859966E-01
       -2   -1    0    0    0  501  0.00000000000E+00  0.00000000000E+00  0.37883675278E+03  0.37883675278E+03  0.25500000920E-02 0. -1.
        2   -1    0    0  501    0  0.00000000000E+00  0.00000000000E+00 -0.15597435859E+04  0.15597435859E+04  0.25500000920E-02 0.  1.
    10030    2    1    2    0    0  0.00000000000E+00  0.00000000000E+00 -0.11809068331E+04  0.19385803386E+04  0.15373850464E+04 0.  0.
        4    1    3    3  502    0 -0.43566108277E+03 -0.34183689489E+03 -0.12627158043E+04  0.13788059534E+04  0.12699999809E+01 0.  1.
       -4    1    3    3    0  502  0.43566108277E+03  0.34183689489E+03  0.81808971203E+02  0.55977438528E+03  0.12699999809E+01 0. -1.
</event>
<event>
 5   0  0.1829810E-05  0.2973061E+04  0.7818609E-02  0.8251466E-01
       -2   -1    0    0    0  501  0.00000000000E+00  0.00000000000E+00  0.84205471081E+03  0.84205471082E+03  0.25500000920E-02 0. -1.
        2   -1    0    0  501    0  0.00000000000E+00  0.00000000000E+00 -0.26242628650E+04  0.26242628650E+04  0.25500000920E-02 0.  1.
    10030    2    1    2    0    0  0.00000000000E+00  0.00000000000E+00 -0.17822081542E+04  0.34663175758E+04  0.29730609869E+04 0.  0.
        4    1    3    3  502    0 -0.79023739488E+03  0.11461956779E+04 -0.28356427032E+03  0.14207920258E+04  0.12699999809E+01 0. -1.
       -4    1    3    3    0  502  0.79023739488E+03 -0.11461956779E+04 -0.14986438839E+04  0.20455255500E+04  0.12699999809E+01 0.  1.
</event>
<event>
 5   0  0.1829810E-05  0.3153901E+04  0.7818609E-02  0.8201099E-01
       -2   -1    0    0    0  501  0.00000000000E+00  0.00000000000E+00  0.73461746751E+03  0.73461746752E+03  0.25500000920E-02 0.  1.
        2   -1    0    0  501    0  0.00000000000E+00  0.00000000000E+00 -0.33851264438E+04  0.33851264438E+04  0.25500000920E-02 0. -1.
    10030    2    1    2    0    0  0.00000000000E+00  0.00000000000E+00 -0.26505089763E+04  0.41197439113E+04  0.31539010862E+04 0.  0.
        4    1    3    3  502    0 -0.14003310643E+03  0.76656516251E+02  0.72403439734E+03  0.74142626998E+03  0.12699999809E+01 0.  1.
       -4    1    3    3    0  502  0.14003310643E+03 -0.76656516251E+02 -0.33745433736E+04  0.33783176414E+04  0.12699999809E+01 0. -1.
</event>
<event>
 5   0  0.1937947E-05  0.2954802E+04  0.7818609E-02  0.8256757E-01
        2   -1    0    0  501    0  0.00000000000E+00  0.00000000000E+00  0.26732155080E+04  0.26732155080E+04  0.25500000920E-02 0. -1.
       -2   -1    0    0    0  501  0.00000000000E+00  0.00000000000E+00 -0.81651220182E+03  0.81651220182E+03  0.25500000920E-02 0.  1.
    10030    2    1    2    0    0  0.00000000000E+00  0.00000000000E+00  0.18567033062E+04  0.34897277099E+04  0.29548015706E+04 0.  0.
        3    1    3    3  502    0 -0.78925632655E+03 -0.51526329014E+03 -0.41527691906E+03  0.10299887072E+04  0.10100000352E+00 0.  1.
       -3    1    3    3    0  502  0.78925632655E+03  0.51526329014E+03  0.22719802253E+04  0.24597390027E+04  0.10100000352E+00 0. -1.
</event>
<event>
 5   0  0.8122088E-06  0.2919707E+04  0.7818609E-02  0.8267038E-01
        1   -1    0    0  501    0  0.00000000000E+00  0.00000000000E+00  0.13165635906E+04  0.13165635907E+04  0.50400001928E-02 0.  1.
       -1   -1    0    0    0  501  0.00000000000E+00  0.00000000000E+00 -0.16187380107E+04  0.16187380107E+04  0.50400001928E-02 0. -1.
    10030    2    1    2    0    0  0.00000000000E+00  0.00000000000E+00 -0.30217442005E+03  0.29353016014E+04  0.29197065111E+04 0.  0.
        1    1    3    3  502    0 -0.90896583583E+03  0.58925042466E+03 -0.11349546072E+04  0.15689349617E+04  0.50400001928E-02 0. -1.
       -1    1    3    3    0  502  0.90896583583E+03 -0.58925042466E+03  0.83278018718E+03  0.13663666396E+04  0.50400001928E-02 0.  1.
</event>
<event>
 5   0  0.1976233E-05  0.1544696E+04  0.7818609E-02  0.8855263E-01
        2   -1    0    0  501    0  0.00000000000E+00  0.00000000000E+00  0.10922716802E+04  0.10922716802E+04  0.25500000920E-02 0.  1.
       -2   -1    0    0    0  501  0.00000000000E+00  0.00000000000E+00 -0.54612890852E+03  0.54612890853E+03  0.25500000920E-02 0. -1.
    10030    2    1    2    0    0  0.00000000000E+00  0.00000000000E+00  0.54614277170E+03  0.16384005887E+04  0.15446956212E+04 0.  0.
        2    1    3    3  502    0  0.83308210950E+02 -0.26096060601E+03  0.10390139308E+04  0.10745187967E+04  0.25500000920E-02 0.  1.
       -2    1    3    3    0  502 -0.83308210950E+02  0.26096060601E+03 -0.49287115915E+03  0.56388179207E+03  0.25500000920E-02 0. -1.
</event>
<event>
 5   0  0.1918901E-05  0.2897213E+04  0.7818609E-02  0.8273707E-01
        2   -1    0    0  501    0  0.00000000000E+00  0.00000000000E+00  0.19621651073E+04  0.19621651073E+04  0.25500000920E-02 0. -1.
       -2   -1    0    0    0  501  0.00000000000E+00  0.00000000000E+00 -0.10694617300E+04  0.10694617300E+04  0.25500000920E-02 0.  1.
    10030    2    1    2    0    0  0.00000000000E+00  0.00000000000E+00  0.89270337727E+03  0.30316268373E+04  0.28972127918E+04 0.  0.
        1    1    3    3  502    0  0.50773170751E+03  0.40357476726E+03 -0.90904050324E+03  0.11166999222E+04  0.50400001928E-02 0.  1.
       -1    1    3    3    0  502 -0.50773170751E+03 -0.40357476726E+03  0.18017438805E+04  0.19149269152E+04  0.50400001928E-02 0. -1.
</event>
<event>
 5   0  0.8055928E-06  0.2376059E+04  0.7818609E-02  0.8448522E-01
        1   -1    0    0  501    0  0.00000000000E+00  0.00000000000E+00  0.17149650885E+04  0.17149650886E+04  0.50400001928E-02 0. -1.
       -1   -1    0    0    0  501  0.00000000000E+00  0.00000000000E+00 -0.82299861644E+03  0.82299861645E+03  0.50400001928E-02 0.  1.
    10030    2    1    2    0    0  0.00000000000E+00  0.00000000000E+00  0.89196647210E+03  0.25379637050E+04  0.23760588336E+04 0.  0.
        2    1    3    3  502    0  0.47134371598E+03 -0.55608242717E+03 -0.55603313369E+03  0.91682354364E+03  0.25500000920E-02 0.  1.
       -2    1    3    3    0  502 -0.47134371598E+03  0.55608242717E+03  0.14479996058E+04  0.16211401614E+04  0.25500000920E-02 0. -1.
</event>
<event>
 5   0  0.8055928E-06  0.3228335E+04  0.7818609E-02  0.8181374E-01
       -1   -1    0    0    0  501  0.00000000000E+00  0.00000000000E+00  0.14474743879E+04  0.14474743879E+04  0.50400001928E-02 0.  1.
        1   -1    0    0  501    0  0.00000000000E+00  0.00000000000E+00 -0.18000576799E+04  0.18000576799E+04  0.50400001928E-02 0. -1.
    10030    2    1    2    0    0  0.00000000000E+00  0.00000000000E+00 -0.35258329198E+03  0.32475320678E+04  0.32283354153E+04 0.  0.
        2    1    3    3  502    0  0.34672932366E+03  0.54512511451E+03 -0.16643289424E+04  0.17853216637E+04  0.25500000920E-02 0. -1.
       -2    1    3    3    0  502 -0.34672932366E+03 -0.54512511451E+03  0.13117456505E+04  0.14622104041E+04  0.25500000920E-02 0.  1.
</event>
<event>
 5   0  0.1829810E-05  0.3007836E+04  0.7818609E-02  0.8241497E-01
       -2   -1    0    0    0  501  0.00000000000E+00  0.00000000000E+00  0.18454647367E+04  0.18454647367E+04  0.25500000920E-02 0.  1.
        2   -1    0    0  501    0  0.00000000000E+00  0.00000000000E+00 -0.12255828095E+04  0.12255828095E+04  0.25500000920E-02 0. -1.
    10030    2    1    2    0    0  0.00000000000E+00  0.00000000000E+00  0.61988192716E+03  0.30710475462E+04  0.30078363366E+04 0.  0.
        4    1    3    3  502    0  0.14122964361E+04  0.34632933857E+03 -0.81845730158E+02  0.14564427797E+04  0.12699999809E+01 0. -1.
       -4    1    3    3    0  502 -0.14122964361E+04 -0.34632933857E+03  0.70172765732E+03  0.16146047665E+04  0.12699999809E+01 0.  1.
</event>
<event>
 5   0  0.1829810E-05  0.2012868E+04  0.7818609E-02  0.8600628E-01
        2   -1    0    0  501    0  0.00000000000E+00  0.00000000000E+00  0.95030629411E+03  0.95030629411E+03  0.25500000920E-02 0. -1.
       -2   -1    0    0    0  501  0.00000000000E+00  0.00000000000E+00 -0.10658763002E+04  0.10658763002E+04  0.25500000920E-02 0.  1.
    10030    2    1    2    0    0  0.00000000000E+00  0.00000000000E+00 -0.11557000605E+03  0.20161825943E+04  0.20128675632E+04 0.  0.
        4    1    3    3  502    0 -0.55303763364E+03 -0.43090277932E+03 -0.78104033060E+03  0.10495491605E+04  0.12699999809E+01 0.  1.
       -4    1    3    3    0  502  0.55303763364E+03  0.43090277932E+03  0.66547032456E+03  0.96663343373E+03  0.12699999809E+01 0. -1.
</event>
<event>
 5   0  0.1829810E-05  0.2925323E+04  0.7818609E-02  0.8265383E-01
       -2   -1    0    0    0  501  0.00000000000E+00  0.00000000000E+00  0.86430058891E+03  0.86430058891E+03  0.25500000920E-02 0.  1.
        2   -1    0    0  501    0  0.00000000000E+00  0.00000000000E+00 -0.24752721194E+04  0.24752721194E+04  0.25500000920E-02 0. -1.
    10030    2    1    2    0    0  0.00000000000E+00  0.00000000000E+00 -0.16109715305E+04  0.33395727083E+04  0.29253233329E+04 0.  0.
        4    1    3    3  502    0 -0.31510664832E+02 -0.34043452071E+03 -0.24290149767E+04  0.24529582049E+04  0.12699999809E+01 0. -1.
       -4    1    3    3    0  502  0.31510664832E+02  0.34043452071E+03  0.81804344622E+03  0.88661450343E+03  0.12699999809E+01 0.  1.
</event>
<event>
 5   0  0.8234888E-06  0.2881217E+04  0.7818609E-02  0.8278488E-01
       -1   -1    0    0    0  501  0.00000000000E+00  0.00000000000E+00  0.91681885093E+03  0.91681885095E+03  0.50400001928E-02 0.  1.
        1   -1    0    0  501    0  0.00000000000E+00  0.00000000000E+00 -0.22636454851E+04  0.22636454851E+04  0.50400001928E-02 0. -1.
    10030    2    1    2    0    0  0.00000000000E+00  0.00000000000E+00 -0.13468266342E+04  0.31804643361E+04  0.28812170016E+04 0.  0.
        3    1    3    3  502    0  0.99990093585E+02  0.59814415143E+03  0.76905036416E+03  0.97939415840E+03  0.10100000352E+00 0.  1.
       -3    1    3    3    0  502 -0.99990093585E+02 -0.59814415143E+03 -0.21158769983E+04  0.22010701777E+04  0.10100000352E+00 0. -1.
</event>
<event>
 5   0  0.7971153E-06  0.2831902E+04  0.7818609E-02  0.8293432E-01
        1   -1    0    0  501    0  0.00000000000E+00  0.00000000000E+00  0.19623689216E+04  0.19623689216E+04  0.50400001928E-02 0. -1.
       -1   -1    0    0    0  501  0.00000000000E+00  0.00000000000E+00 -0.10216823152E+04  0.10216823152E+04  0.50400001928E-02 0.  1.
    10030    2    1    2    0    0  0.00000000000E+00  0.00000000000E+00  0.94068660637E+03  0.29840512369E+04  0.28319022746E+04 0.  0.
        5    1    3    3  502    0 -0.66782986457E+03  0.12329203897E+04  0.26276683758E+03  0.14265896103E+04  0.46999998093E+01 0. -1.
       -5    1    3    3    0  502  0.66782986457E+03 -0.12329203897E+04  0.67791976879E+03  0.15574616266E+04  0.46999998093E+01 0.  1.
</event>
<event>
 5   0  0.1976233E-05  0.2772813E+04  0.7818609E-02  0.8311759E-01
        2   -1    0    0  501    0  0.00000000000E+00  0.00000000000E+00  0.75597323363E+03  0.75597323363E+03  0.25500000920E-02 0. -1.
       -2   -1    0    0    0  501  0.00000000000E+00  0.00000000000E+00 -0.25425802827E+04  0.25425802827E+04  0.25500000920E-02 0.  1.
    10030    2    1    2    0    0  0.00000000000E+00  0.00000000000E+00 -0.17866070490E+04  0.32985535163E+04  0.27728127510E+04 0.  0.
        2    1    3    3  502    0  0.66577141234E+03 -0.28113563825E+03  0.51417323539E+03  0.88694021027E+03  0.25500000920E-02 0. -1.
       -2    1    3    3    0  502 -0.66577141234E+03  0.28113563825E+03 -0.23007802844E+04  0.24116133060E+04  0.25500000920E-02 0.  1.
</event>
<event>
 5   0  0.8055928E-06  0.2768707E+04  0.7818609E-02  0.8313050E-01
        1   -1    0    0  501    0  0.00000000000E+00  0.00000000000E+00  0.14237308858E+04  0.14237308858E+04  0.50400001928E-02 0. -1.
       -1   -1    0    0    0  501  0.00000000000E+00  0.00000000000E+00 -0.13460656588E+04  0.13460656588E+04  0.50400001928E-02 0.  1.
    10030    2    1    2    0    0  0.00000000000E+00  0.00000000000E+00  0.77665227032E+02  0.27697965446E+04  0.27687074621E+04 0.  0.
        2    1    3    3  502    0 -0.40198146869E+03 -0.11294934590E+00  0.13640597496E+04  0.14220577043E+04  0.25500000920E-02 0. -1.
       -2    1    3    3    0  502  0.40198146869E+03  0.11294934590E+00 -0.12863945226E+04  0.13477388403E+04  0.25500000920E-02 0.  1.
</event>
<event>
 5   0  0.8055928E-06  0.2850753E+04  0.7818609E-02  0.8287683E-01
        1   -1    0    0  501    0  0.00000000000E+00  0.00000000000E+00  0.16272793960E+04  0.16272793960E+04  0.50400001928E-02 0. -1.
       -1   -1    0    0    0  501  0.00000000000E+00  0.00000000000E+00 -0.12485244286E+04  0.12485244286E+04  0.50400001928E-02 0.  1.
    10030    2    1    2    0    0  0.00000000000E+00  0.00000000000E+00  0.37875496742E+03  0.28758038246E+04  0.28507529378E+04 0.  0.
        2    1    3    3  502    0 -0.10267898988E+04 -0.98180495263E+03  0.30641255452E+03  0.14533159034E+04  0.25500000920E-02 0. -1.
       -2    1    3    3    0  502  0.10267898988E+04  0.98180495263E+03  0.72342412902E+02  0.14224879212E+04  0.25500000920E-02 0.  1.
</event>
<event>
 5   0  0.8122088E-06  0.2681450E+04  0.7818609E-02  0.8341049E-01
       -1   -1    0    0    0  501  0.00000000000E+00  0.00000000000E+00  0.10089155317E+04  0.10089155317E+04  0.50400001928E-02 0. -1.
        1   -1    0    0  501    0  0.00000000000E+00  0.00000000000E+00 -0.17816590121E+04  0.17816590121E+04  0.50400001928E-02 0.  1.
    10030    2    1    2    0    0  0.00000000000E+00  0.00000000000E+00 -0.77274348042E+03  0.27905745439E+04  0.26814499433E+04 0.  0.
        1    1    3    3  502    0 -0.58985707644E+03 -0.22465505016E+03 -0.16173626900E+04  0.17361633947E+04  0.50400001928E-02 0.  1.
       -1    1    3    3    0  502  0.58985707644E+03  0.22465505016E+03  0.84461920958E+03  0.10544111491E+04  0.50400001928E-02 0. -1.
</event>
<event>
 5   0  0.1976233E-05  0.2491601E+04  0.7818609E-02  0.8405984E-01
        2   -1    0    0  501    0  0.00000000000E+00  0.00000000000E+00  0.11898183520E+04  0.11898183520E+04  0.25500000920E-02 0.  1.
       -2   -1    0    0    0  501  0.00000000000E+00  0.00000000000E+00 -0.13044165281E+04  0.13044165281E+04  0.25500000920E-02 0. -1.
    10030    2    1    2    0    0  0.00000000000E+00  0.00000000000E+00 -0.11459817610E+03  0.24942348802E+04  0.24916008700E+04 0.  0.
        2    1    3    3  502    0  0.54862538055E+03 -0.11117843230E+04 -0.17975802533E+03  0.12527438432E+04  0.25500000920E-02 0. -1.
       -2    1    3    3    0  502 -0.54862538055E+03  0.11117843230E+04  0.65159849224E+02  0.12414910370E+04  0.25500000920E-02 0.  1.
</event>
<event>
 5   0  0.1829810E-05  0.2881776E+04  0.7818609E-02  0.8278320E-01
        2   -1    0    0  501    0  0.00000000000E+00  0.00000000000E+00  0.15549403283E+04  0.15549403283E+04  0.25500000920E-02 0.  1.
       -2   -1    0    0    0  501  0.00000000000E+00  0.00000000000E+00 -0.13352015570E+04  0.13352015570E+04  0.25500000920E-02 0. -1.
    10030    2    1    2    0    0  0.00000000000E+00  0.00000000000E+00  0.21973877128E+03  0.28901418853E+04  0.28817763601E+04 0.  0.
        4    1    3    3  502    0  0.54239016585E+03 -0.33169919180E+03  0.14066603401E+04  0.15436665349E+04  0.12699999809E+01 0.  1.
       -4    1    3    3    0  502 -0.54239016585E+03  0.33169919180E+03 -0.11869215688E+04  0.13464753504E+04  0.12699999809E+01 0. -1.
</event>
<event>
 5   0  0.8122088E-06  0.2908029E+04  0.7818609E-02  0.8270493E-01
       -1   -1    0    0    0  501  0.00000000000E+00  0.00000000000E+00  0.99810148326E+03  0.99810148328E+03  0.50400001928E-02 0.  1.
        1   -1    0    0  501    0  0.00000000000E+00  0.00000000000E+00 -0.21181798153E+04  0.21181798153E+04  0.50400001928E-02 0. -1.
    10030    2    1    2    0    0  0.00000000000E+00  0.00000000000E+00 -0.11200783320E+04  0.31162812986E+04  0.29080291714E+04 0.  0.
        1    1    3    3  502    0 -0.75841524556E+02  0.67142833129E+02 -0.21143943569E+04  0.21168192161E+04  0.50400001928E-02 0. -1.
       -1    1    3    3    0  502  0.75841524556E+02 -0.67142833129E+02  0.99431602492E+03  0.99946208249E+03  0.50400001928E-02 0.  1.
</event>
<event>
 5   0  0.1918901E-05  0.2267026E+04  0.7818609E-02  0.8491037E-01
        2   -1    0    0  501    0  0.00000000000E+00  0.00000000000E+00  0.19492956635E+04  0.19492956635E+04  0.25500000920E-02 0. -1.
       -2   -1    0    0    0  501  0.00000000000E+00  0.00000000000E+00 -0.65913618129E+03  0.65913618129E+03  0.25500000920E-02 0.  1.
    10030    2    1    2    0    0  0.00000000000E+00  0.00000000000E+00  0.12901594822E+04  0.26084318448E+04  0.22670256283E+04 0.  0.
        1    1    3    3  502    0 -0.43915387010E+03  0.78316373155E+03  0.14411144072E+04  0.16979435464E+04  0.50400001928E-02 0. -1.
       -1    1    3    3    0  502  0.43915387010E+03 -0.78316373155E+03 -0.15095492504E+03  0.91048829836E+03  0.50400001928E-02 0.  1.
</event>
<event>
 5   0  0.8055928E-06  0.2916287E+04  0.7818609E-02  0.8268048E-01
        1   -1    0    0  501    0  0.00000000000E+00  0.00000000000E+00  0.15409341215E+04  0.15409341215E+04  0.50400001928E-02 0.  1.
       -1   -1    0    0    0  501  0.00000000000E+00  0.00000000000E+00 -0.13798014123E+04  0.13798014123E+04  0.50400001928E-02 0. -1.
    10030    2    1    2    0    0  0.00000000000E+00  0.00000000000E+00  0.16113270919E+03  0.29207355339E+04  0.29162874187E+04 0.  0.
        2    1    3    3  502    0  0.36821474954E+03 -0.58741546808E+03 -0.12041778446E+04  0.13894903078E+04  0.25500000920E-02 0. -1.
       -2    1    3    3    0  502 -0.36821474954E+03  0.58741546808E+03  0.13653105538E+04  0.15312452261E+04  0.25500000920E-02 0.  1.
</event>
<event>
 5   0  0.8122088E-06  0.2920682E+04  0.7818609E-02  0.8266750E-01
        1   -1    0    0  501    0  0.00000000000E+00  0.00000000000E+00  0.14751656101E+04  0.14751656101E+04  0.50400001928E-02 0.  1.
       -1   -1    0    0    0  501  0.00000000000E+00  0.00000000000E+00 -0.14456656826E+04  0.14456656826E+04  0.50400001928E-02 0. -1.
    10030    2    1    2    0    0  0.00000000000E+00  0.00000000000E+00  0.29499927482E+02  0.29208312927E+04  0.29206823167E+04 0.  0.
        1    1    3    3  502    0 -0.58652951444E+03 -0.27253914736E+03  0.13241302480E+04  0.14736401772E+04  0.50400001928E-02 0.  1.
       -1    1    3    3    0  502  0.58652951444E+03  0.27253914736E+03 -0.12946303205E+04  0.14471911156E+04  0.50400001928E-02 0. -1.
</event>
<event>
 5   0  0.8122088E-06  0.1495301E+04  0.7818609E-02  0.8887583E-01
       -1   -1    0    0    0  501  0.00000000000E+00  0.00000000000E+00  0.92802002894E+03  0.92802002895E+03  0.50400001928E-02 0. -1.
        1   -1    0    0  501    0  0.00000000000E+00  0.00000000000E+00 -0.60233782360E+03  0.60233782362E+03  0.50400001928E-02 0.  1.
    10030    2    1    2    0    0  0.00000000000E+00  0.00000000000E+00  0.32568220534E+03  0.15303578526E+04  0.14953013937E+04 0.  0.
        1    1    3    3  502    0  0.35375094552E+03  0.56855278324E+03 -0.17750543312E+03  0.69274827867E+03  0.50400001928E-02 0.  1.
       -1    1    3    3    0  502 -0.35375094552E+03 -0.56855278324E+03  0.50318763845E+03  0.83760957391E+03  0.50400001928E-02 0. -1.
</event>
<event>
 5   0  0.8122088E-06  0.2174105E+04  0.7818609E-02  0.8529284E-01
       -1   -1    0    0    0  501  0.00000000000E+00  0.00000000000E+00  0.80278109651E+03  0.80278109652E+03  0.50400001928E-02 0.  1.
        1   -1    0    0  501    0  0.00000000000E+00  0.00000000000E+00 -0.14719862514E+04  0.14719862515E+04  0.50400001928E-02 0. -1.
    10030    2    1    2    0    0  0.00000000000E+00  0.00000000000E+00 -0.66920515494E+03  0.22747673480E+04  0.21741046313E+04 0.  0.
        1    1    3    3  502    0 -0.69660192573E+03 -0.60094116549E+03  0.27125725695E+03  0.95914807344E+03  0.50400001928E-02 0.  1.
       -1    1    3    3    0  502  0.69660192573E+03  0.60094116549E+03 -0.94046241189E+03  0.13156192745E+04  0.50400001928E-02 0. -1.
</event>
<event>
 5   0  0.8122088E-06  0.2913966E+04  0.7818609E-02  0.8268734E-01
        1   -1    0    0  501    0  0.00000000000E+00  0.00000000000E+00  0.14788281590E+04  0.14788281590E+04  0.50400001928E-02 0.  1.
       -1   -1    0    0    0  501  0.00000000000E+00  0.00000000000E+00 -0.14354606038E+04  0.14354606038E+04  0.50400001928E-02 0. -1.
    10030    2    1    2    0    0  0.00000000000E+00  0.00000000000E+00  0.43367555222E+02  0.29142887628E+04  0.29139660685E+04 0.  0.
        1    1    3    3  502    0 -0.45482222468E+03  0.31971272095E+03 -0.13252096143E+04  0.14371012497E+04  0.50400001928E-02 0. -1.
       -1    1    3    3    0  502  0.45482222468E+03 -0.31971272095E+03  0.13685771695E+04  0.14771875131E+04  0.50400001928E-02 0.  1.
</event>
<event>
 5   0  0.8055928E-06  0.3014563E+04  0.7818609E-02  0.8239585E-01
        1   -1    0    0  501    0  0.00000000000E+00  0.00000000000E+00  0.25827375144E+04  0.25827375144E+04  0.50400001928E-02 0.  1.
       -1   -1    0    0    0  501  0.00000000000E+00  0.00000000000E+00 -0.87964693102E+03  0.87964693104E+03  0.50400001928E-02 0. -1.
    10030    2    1    2    0    0  0.00000000000E+00  0.00000000000E+00  0.17030905834E+04  0.34623844455E+04  0.30145627399E+04 0.  0.
        2    1    3    3  502    0 -0.92306762490E+03 -0.54865460984E+03  0.20664195915E+04  0.23287691275E+04  0.25500000920E-02 0.  1.
       -2    1    3    3    0  502  0.92306762490E+03  0.54865460984E+03 -0.36332900809E+03  0.11336153180E+04  0.25500000920E-02 0. -1.
</event>
<event>
 5   0  0.7305460E-06  0.1735467E+04  0.7818609E-02  0.8741391E-01
        1   -1    0    0  501    0  0.00000000000E+00  0.00000000000E+00  0.26601844577E+04  0.26601844577E+04  0.50400001928E-02 0.  1.
       -1   -1    0    0    0  501  0.00000000000E+00  0.00000000000E+00 -0.28304852486E+03  0.28304852490E+03  0.50400001928E-02 0. -1.
    10030    2    1    2    0    0  0.00000000000E+00  0.00000000000E+00  0.23771359328E+04  0.29432329826E+04  0.17354668382E+04 0.  0.
        4    1    3    3  502    0 -0.55174428129E+02 -0.18254315450E+03 -0.24706935594E+03  0.31210751404E+03  0.12699999809E+01 0. -1.
       -4    1    3    3    0  502  0.55174428129E+02  0.18254315450E+03  0.26242052887E+04  0.26311254685E+04  0.12699999809E+01 0.  1.
</event>
<event>
 5   0  0.1976233E-05  0.2929499E+04  0.7818609E-02  0.8264154E-01
        2   -1    0    0  501    0  0.00000000000E+00  0.00000000000E+00  0.13257716471E+04  0.13257716471E+04  0.25500000920E-02 0. -1.
       -2   -1    0    0    0  501  0.00000000000E+00  0.00000000000E+00 -0.16182963905E+04  0.16182963905E+04  0.25500000920E-02 0.  1.
    10030    2    1    2    0    0  0.00000000000E+00  0.00000000000E+00 -0.29252474344E+03  0.29440680376E+04  0.29294992549E+04 0.  0.
        2    1    3    3  502    0  0.20876343384E+03 -0.91302933894E+03 -0.12780453919E+04  0.15844888036E+04  0.25500000920E-02 0.  1.
       -2    1    3    3    0  502 -0.20876343384E+03  0.91302933894E+03  0.98552064843E+03  0.13595792340E+04  0.25500000920E-02 0. -1.
</event>
<event>
 5   0  0.8055928E-06  0.2103621E+04  0.7818609E-02  0.8559650E-01
       -1   -1    0    0    0  501  0.00000000000E+00  0.00000000000E+00  0.13564763280E+04  0.13564763280E+04  0.50400001928E-02 0. -1.
        1   -1    0    0  501    0  0.00000000000E+00  0.00000000000E+00 -0.81557311648E+03  0.81557311650E+03  0.50400001928E-02 0.  1.
    10030    2    1    2    0    0  0.00000000000E+00  0.00000000000E+00  0.54090321147E+03  0.21720494445E+04  0.21036212836E+04 0.  0.
        2    1    3    3  502    0  0.20071954055E+03  0.84552411692E+03  0.88226846107E+03  0.12383848366E+04  0.25500000920E-02 0. -1.
       -2    1    3    3    0  502 -0.20071954055E+03 -0.84552411692E+03 -0.34136524959E+03  0.93366460781E+03  0.25500000920E-02 0.  1.
</event>
<event>
 5   0  0.7971153E-06  0.2024336E+04  0.7818609E-02  0.8595327E-01
       -1   -1    0    0    0  501  0.00000000000E+00  0.00000000000E+00  0.49443779117E+03  0.49443779120E+03  0.50400001928E-02 0. -1.
        1   -1    0    0  501    0  0.00000000000E+00  0.00000000000E+00 -0.20720173619E+04  0.20720173619E+04  0.50400001928E-02 0.  1.
    10030    2    1    2    0    0  0.00000000000E+00  0.00000000000E+00 -0.15775795707E+04  0.25664551531E+04  0.20243356320E+04 0.  0.
        5    1    3    3  502    0  0.72458824156E+03 -0.39064761621E+03 -0.42155060421E+02  0.82427714937E+03  0.46999998093E+01 0. -1.
       -5    1    3    3    0  502 -0.72458824156E+03  0.39064761621E+03 -0.15354245103E+04  0.17421780038E+04  0.46999998093E+01 0.  1.
</event>
<event>
 5   0  0.1918901E-05  0.2875630E+04  0.7818609E-02  0.8280165E-01
        2   -1    0    0  501    0  0.00000000000E+00  0.00000000000E+00  0.16970696031E+04  0.16970696031E+04  0.25500000920E-02 0. -1.
       -2   -1    0    0    0  501  0.00000000000E+00  0.00000000000E+00 -0.12181653744E+04  0.12181653744E+04  0.25500000920E-02 0.  1.
    10030    2    1    2    0    0  0.00000000000E+00  0.00000000000E+00  0.47890422868E+03  0.29152349775E+04  0.28756296204E+04 0.  0.
        1    1    3    3  502    0 -0.35608206615E+03 -0.94054376967E+03  0.12811717792E+04  0.16287474170E+04  0.50400001928E-02 0. -1.
       -1    1    3    3    0  502  0.35608206615E+03  0.94054376967E+03 -0.80226755056E+03  0.12864875605E+04  0.50400001928E-02 0.  1.
</event>
<event>
 5   0  0.1918901E-05  0.2831120E+04  0.7818609E-02  0.8293672E-01
        2   -1    0    0  501    0  0.00000000000E+00  0.00000000000E+00  0.19851282237E+04  0.19851282237E+04  0.25500000920E-02 0. -1.
       -2   -1    0    0    0  501  0.00000000000E+00  0.00000000000E+00 -0.10094106030E+04  0.10094106030E+04  0.25500000920E-02 0.  1.
    10030    2    1    2    0    0  0.00000000000E+00  0.00000000000E+00  0.97571762072E+03  0.29945388267E+04  0.28311195505E+04 0.  0.
        1    1    3    3  502    0 -0.17205670788E+03 -0.34645246542E+03 -0.95242239701E+03  0.10279792040E+04  0.50400001928E-02 0.  1.
       -1    1    3    3    0  502  0.17205670788E+03  0.34645246542E+03  0.19281400177E+04  0.19665596227E+04  0.50400001928E-02 0. -1.
</event>
<event>
 5   0  0.1976233E-05  0.3062268E+04  0.7818609E-02  0.8226170E-01
       -2   -1    0    0    0  501  0.00000000000E+00  0.00000000000E+00  0.17329500662E+04  0.17329500662E+04  0.25500000920E-02 0.  1.
        2   -1    0    0  501    0  0.00000000000E+00  0.00000000000E+00 -0.13528214271E+04  0.13528214271E+04  0.25500000920E-02 0. -1.
    10030    2    1    2    0    0  0.00000000000E+00  0.00000000000E+00  0.38012863908E+03  0.30857714933E+04  0.30622684283E+04 0.  0.
        2    1    3    3  502    0 -0.50720701865E+03 -0.99146537651E+03  0.12488951179E+04  0.16733205217E+04  0.25500000920E-02 0.  1.
       -2    1    3    3    0  502  0.50720701865E+03  0.99146537651E+03 -0.86876647886E+03  0.14124509717E+04  0.25500000920E-02 0. -1.
</event>
<event>
 5   0  0.1960961E-05  0.3014726E+04  0.7818609E-02  0.8239538E-01
        2   -1    0    0  501    0  0.00000000000E+00  0.00000000000E+00  0.18638755191E+04  0.18638755191E+04  0.25500000920E-02 0. -1.
       -2   -1    0    0    0  501  0.00000000000E+00  0.00000000000E+00 -0.12190421319E+04  0.12190421319E+04  0.25500000920E-02 0.  1.
    10030    2    1    2    0    0  0.00000000000E+00  0.00000000000E+00  0.64483338719E+03  0.30829176509E+04  0.30147257164E+04 0.  0.
        5    1    3    3  502    0  0.98954497710E+03  0.11202107531E+04  0.52189123398E+03  0.15831815888E+04  0.46999998093E+01 0. -1.
       -5    1    3    3    0  502 -0.98954497710E+03 -0.11202107531E+04  0.12294215321E+03  0.14997360621E+04  0.46999998093E+01 0.  1.
</event>
<event>
 5   0  0.7305460E-06  0.2945247E+04  0.7818609E-02  0.8259541E-01
        1   -1    0    0  501    0  0.00000000000E+00  0.00000000000E+00  0.20139765273E+04  0.20139765273E+04  0.50400001928E-02 0.  1.
       -1   -1    0    0    0  501  0.00000000000E+00  0.00000000000E+00 -0.10767854458E+04  0.10767854458E+04  0.50400001928E-02 0. -1.
    10030    2    1    2    0    0  0.00000000000E+00  0.00000000000E+00  0.93719108150E+03  0.30907619731E+04  0.29452474346E+04 0.  0.
        4    1    3    3  502    0 -0.12827596050E+04  0.67537951400E+02  0.12243033766E+04  0.17745292193E+04  0.12699999809E+01 0.  1.
       -4    1    3    3    0  502  0.12827596050E+04 -0.67537951400E+02 -0.28711229513E+03  0.13162327538E+04  0.12699999809E+01 0. -1.
</event>
<event>
 5   0  0.1918901E-05  0.2803585E+04  0.7818609E-02  0.8302156E-01
       -2   -1    0    0    0  501  0.00000000000E+00  0.00000000000E+00  0.72830087802E+03  0.72830087802E+03  0.25500000920E-02 0. -1.
        2   -1    0    0  501    0  0.00000000000E+00  0.00000000000E+00 -0.26980920126E+04  0.26980920126E+04  0.25500000920E-02 0.  1.
    10030    2    1    2    0    0  0.00000000000E+00  0.00000000000E+00 -0.19697911346E+04  0.34263928907E+04  0.28035854057E+04 0.  0.
        1    1    3    3  502    0 -0.81077442808E+03 -0.32609949106E+03 -0.23244301801E+04  0.24832784205E+04  0.50400001928E-02 0.  1.
       -1    1    3    3    0  502  0.81077442808E+03  0.32609949106E+03  0.35463904549E+03  0.94311447020E+03  0.50400001928E-02 0. -1.
</event>
<event>
 5   0  0.8122088E-06  0.2899288E+04  0.7818609E-02  0.8273089E-01
        1   -1    0    0  501    0  0.00000000000E+00  0.00000000000E+00  0.19012944145E+04  0.19012944145E+04  0.50400001928E-02 0.  1.
       -1   -1    0    0    0  501  0.00000000000E+00  0.00000000000E+00 -0.11052829911E+04  0.11052829911E+04  0.50400001928E-02 0. -1.
    10030    2    1    2    0    0  0.00000000000E+00  0.00000000000E+00  0.79601142346E+03  0.30065774056E+04  0.28992884489E+04 0.  0.
        1    1    3    3  502    0 -0.11648198384E+04  0.50408371806E+03  0.11243261042E+04  0.16955868716E+04  0.50400001928E-02 0.  1.
       -1    1    3    3    0  502  0.11648198384E+04 -0.50408371806E+03 -0.32831468073E+03  0.13109905340E+04  0.50400001928E-02 0. -1.
</event>
<event>
 5   0  0.8055928E-06  0.2885865E+04  0.7818609E-02  0.8277096E-01
       -1   -1    0    0    0  501  0.00000000000E+00  0.00000000000E+00  0.18510204727E+04  0.18510204727E+04  0.50400001928E-02 0.  1.
        1   -1    0    0  501    0  0.00000000000E+00  0.00000000000E+00 -0.11248140961E+04  0.11248140961E+04  0.50400001928E-02 0. -1.
    10030    2    1    2    0    0  0.00000000000E+00  0.00000000000E+00  0.72620637654E+03  0.29758345688E+04  0.28858648062E+04 0.  0.
        2    1    3    3  502    0  0.67485078009E+03  0.12113659311E+04  0.77457074917E+03  0.15883295753E+04  0.25500000920E-02 0.  1.
       -2    1    3    3    0  502 -0.67485078009E+03 -0.12113659311E+04 -0.48364372631E+02  0.13875049935E+04  0.25500000920E-02 0. -1.
</event>
<event>
 5   0  0.8122088E-06  0.2837060E+04  0.7818609E-02  0.8291854E-01
       -1   -1    0    0    0  501  0.00000000000E+00  0.00000000000E+00  0.13421984505E+04  0.13421984505E+04  0.50400001928E-02 0.  1.
        1   -1    0    0  501    0  0.00000000000E+00  0.00000000000E+00 -0.14992021770E+04  0.14992021770E+04  0.50400001928E-02 0. -1.
    10030    2    1    2    0    0  0.00000000000E+00  0.00000000000E+00 -0.15700372657E+03  0.28414006275E+04  0.28370596321E+04 0.  0.
        1    1    3    3  502    0  0.13163556106E+04 -0.44514301416E+03 -0.36403885544E+03  0.14364778748E+04  0.50400001928E-02 0.  1.
       -1    1    3    3    0  502 -0.13163556106E+04  0.44514301416E+03  0.20703512887E+03  0.14049227527E+04  0.50400001928E-02 0. -1.
</event>
<event>
 5   0  0.7971153E-06  0.2861986E+04  0.7818609E-02  0.8284278E-01
       -1   -1    0    0    0  501  0.00000000000E+00  0.00000000000E+00  0.10814844287E+04  0.10814844287E+04  0.50400001928E-02 0.  1.
        1   -1    0    0  501    0  0.00000000000E+00  0.00000000000E+00 -0.18934543961E+04  0.18934543961E+04  0.50400001928E-02 0. -1.
    10030    2    1    2    0    0  0.00000000000E+00  0.00000000000E+00 -0.81196996740E+03  0.29749388249E+04  0.28619863354E+04 0.  0.
        5    1    3    3  502    0 -0.66568832037E+03 -0.12583857706E+04 -0.55677452109E+03  0.15286254102E+04  0.46999998093E+01 0. -1.
       -5    1    3    3    0  502  0.66568832037E+03  0.12583857706E+04 -0.25519544631E+03  0.14463134146E+04  0.46999998093E+01 0.  1.
</event>
<event>
 5   0  0.8055928E-06  0.2926584E+04  0.7818609E-02  0.8265012E-01
        1   -1    0    0  501    0  0.00000000000E+00  0.00000000000E+00  0.15157290913E+04  0.15157290913E+04  0.50400001928E-02 0. -1.
       -1   -1    0    0    0  501  0.00000000000E+00  0.00000000000E+00 -0.14126685487E+04  0.14126685487E+04  0.50400001928E-02 0.  1.
    10030    2    1    2    0    0  0.00000000000E+00  0.00000000000E+00  0.10306054260E+03  0.29283976400E+04  0.29265835479E+04 0.  0.
        2    1    3    3  502    0  0.98721820133E+03  0.86380114455E+03 -0.59730873376E+03  0.14413639089E+04  0.25500000920E-02 0.  1.
       -2    1    3    3    0  502 -0.98721820133E+03 -0.86380114455E+03  0.70036927636E+03  0.14870337312E+04  0.25500000920E-02 0. -1.
</event>
<event>
 5   0  0.1918901E-05  0.2784939E+04  0.7818609E-02  0.8307959E-01
        2   -1    0    0  501    0  0.00000000000E+00  0.00000000000E+00  0.13381905251E+04  0.13381905251E+04  0.25500000920E-02 0. -1.
       -2   -1    0    0    0  501  0.00000000000E+00  0.00000000000E+00 -0.14489505478E+04  0.14489505478E+04  0.25500000920E-02 0.  1.
    10030    2    1    2    0    0  0.00000000000E+00  0.00000000000E+00 -0.11076002269E+03  0.27871410730E+04  0.27849394209E+04 0.  0.
        1    1    3    3  502    0  0.89493359783E+03 -0.39431542303E+03  0.93665591695E+03  0.13541473717E+04  0.50400001928E-02 0. -1.
       -1    1    3    3    0  502 -0.89493359783E+03  0.39431542303E+03 -0.10474159396E+04  0.14329937013E+04  0.50400001928E-02 0.  1.
</event>
<event>
 5   0  0.1937947E-05  0.2849903E+04  0.7818609E-02  0.8287941E-01
       -2   -1    0    0    0  501  0.00000000000E+00  0.00000000000E+00  0.12320073884E+04  0.12320073884E+04  0.25500000920E-02 0. -1.
        2   -1    0    0  501    0  0.00000000000E+00  0.00000000000E+00 -0.16481119450E+04  0.16481119450E+04  0.25500000920E-02 0.  1.
    10030    2    1    2    0    0  0.00000000000E+00  0.00000000000E+00 -0.41610455660E+03  0.28801193335E+04  0.28499025199E+04 0.  0.
        3    1    3    3  502    0  0.11711405568E+03 -0.12350321752E+04  0.50042703734E+03  0.13377022859E+04  0.10100000352E+00 0. -1.
       -3    1    3    3    0  502 -0.11711405568E+03  0.12350321752E+04 -0.91653159393E+03  0.15424170476E+04  0.10100000352E+00 0.  1.
</event>
<event>
 5   0  0.8122088E-06  0.2786792E+04  0.7818609E-02  0.8307381E-01
        1   -1    0    0  501    0  0.00000000000E+00  0.00000000000E+00  0.23863784585E+04  0.23863784585E+04  0.50400001928E-02 0.  1.
       -1   -1    0    0    0  501  0.00000000000E+00  0.00000000000E+00 -0.81359780065E+03  0.81359780067E+03  0.50400001928E-02 0. -1.
    10030    2    1    2    0    0  0.00000000000E+00  0.00000000000E+00  0.15727806579E+04  0.31999762592E+04  0.27867918942E+04 0.  0.
        1    1    3    3  502    0  0.13846784105E+04 -0.15049104228E+02  0.96424727125E+03  0.16874043902E+04  0.50400001928E-02 0.  1.
       -1    1    3    3    0  502 -0.13846784105E+04  0.15049104228E+02  0.60853338661E+03  0.15125718689E+04  0.50400001928E-02 0. -1.
</event>
<event>
 5   0  0.8055928E-06  0.2893076E+04  0.7818609E-02  0.8274940E-01
        1   -1    0    0  501    0  0.00000000000E+00  0.00000000000E+00  0.98941906311E+03  0.98941906312E+03  0.50400001928E-02 0. -1.
       -1   -1    0    0    0  501  0.00000000000E+00  0.00000000000E+00 -0.21148499427E+04  0.21148499428E+04  0.50400001928E-02 0.  1.
    10030    2    1    2    0    0  0.00000000000E+00  0.00000000000E+00 -0.11254308796E+04  0.31042690059E+04  0.28930764587E+04 0.  0.
        2    1    3    3  502    0 -0.44514450616E+03 -0.13737851556E+04 -0.47272691101E+03  0.15195097952E+04  0.25500000920E-02 0. -1.
       -2    1    3    3    0  502  0.44514450616E+03  0.13737851556E+04 -0.65270396863E+03  0.15847592107E+04  0.25500000920E-02 0.  1.
</event>
<event>
 5   0  0.8122088E-06  0.2910609E+04  0.7818609E-02  0.8269728E-01
        1   -1    0    0  501    0  0.00000000000E+00  0.00000000000E+00  0.20164698914E+04  0.20164698914E+04  0.50400001928E-02 0. -1.
       -1   -1    0    0    0  501  0.00000000000E+00  0.00000000000E+00 -0.10503062733E+04  0.10503062733E+04  0.50400001928E-02 0.  1.
    10030    2    1    2    0    0  0.00000000000E+00  0.00000000000E+00  0.96616361815E+03  0.30667761647E+04  0.29106088551E+04 0.  0.
        1    1    3    3  502    0  0.73059564540E+03 -0.97850936849E+03  0.13171745800E+04  0.17961624246E+04  0.50400001928E-02 0. -1.
       -1    1    3    3    0  502 -0.73059564540E+03  0.97850936849E+03 -0.35101096186E+03  0.12706137402E+04  0.50400001928E-02 0.  1.
</event>
<event>
 5   0  0.8055928E-06  0.3537522E+04  0.7818609E-02  0.8104955E-01
       -1   -1    0    0    0  501  0.00000000000E+00  0.00000000000E+00  0.13645260385E+04  0.13645260385E+04  0.50400001928E-02 0.  1.
        1   -1    0    0  501    0  0.00000000000E+00  0.00000000000E+00 -0.22927491217E+04  0.22927491217E+04  0.50400001928E-02 0. -1.
    10030    2    1    2    0    0  0.00000000000E+00  0.00000000000E+00 -0.92822308322E+03  0.36572751602E+04  0.35375222269E+04 0.  0.
        2    1    3    3  502    0 -0.12132071382E+04  0.23053353789E+03  0.84504853289E+03  0.14963703737E+04  0.25500000920E-02 0.  1.
       -2    1    3    3    0  502  0.12132071382E+04 -0.23053353789E+03 -0.17732716161E+04  0.21609047866E+04  0.25500000920E-02 0. -1.
</event>
<event>
 5   0  0.8234888E-06  0.2861130E+04  0.7818609E-02  0.8284537E-01
        1   -1    0    0  501    0  0.00000000000E+00  0.00000000000E+00  0.20405103343E+04  0.20405103343E+04  0.50400001928E-02 0.  1.
       -1   -1    0    0    0  501  0.00000000000E+00  0.00000000000E+00 -0.10029434768E+04  0.10029434768E+04  0.50400001928E-02 0. -1.
    10030    2    1    2    0    0  0.00000000000E+00  0.00000000000E+00  0.10375668575E+04  0.30434538111E+04  0.28611302166E+04 0.  0.
        3    1    3    3  502    0  0.51903130793E+03 -0.12688488206E+04  0.95367068686E+03  0.16699876099E+04  0.10100000352E+00 0.  1.
       -3    1    3    3    0  502 -0.51903130793E+03  0.12688488206E+04  0.83896170645E+02  0.13734662012E+04  0.10100000352E+00 0. -1.
</event>
<event>
 5   0  0.1918901E-05  0.2902151E+04  0.7818609E-02  0.8272238E-01
        2   -1    0    0  501    0  0.00000000000E+00  0.00000000000E+00  0.15277085376E+04  0.15277085376E+04  0.25500000920E-02 0. -1.
       -2   -1    0    0    0  501  0.00000000000E+00  0.00000000000E+00 -0.13782867463E+04  0.13782867463E+04  0.25500000920E-02 0.  1.
    10030    2    1    2    0    0  0.00000000000E+00  0.00000000000E+00  0.14942179133E+03  0.29059952839E+04  0.29021512225E+04 0.  0.
        1    1    3    3  502    0  0.21987637300E+03 -0.21798846990E+03 -0.13448254480E+04  0.13800072746E+04  0.50400001928E-02 0.  1.
       -1    1    3    3    0  502 -0.21987637300E+03  0.21798846990E+03  0.14942472393E+04  0.15259880093E+04  0.50400001928E-02 0. -1.
</event>
<event>
 5   0  0.7971153E-06  0.2487399E+04  0.7818609E-02  0.8407488E-01
        1   -1    0    0  501    0  0.00000000000E+00  0.00000000000E+00  0.14461187608E+04  0.14461187608E+04  0.50400001928E-02 0.  1.
       -1   -1    0    0    0  501  0.00000000000E+00  0.00000000000E+00 -0.10696139578E+04  0.10696139578E+04  0.50400001928E-02 0. -1.
    10030    2    1    2    0    0  0.00000000000E+00  0.00000000000E+00  0.37650480293E+03  0.25157327186E+04  0.24873992934E+04 0.  0.
        5    1    3    3  502    0 -0.24942514515E+03  0.35970344175E+03 -0.98912430835E+03  0.10816600466E+04  0.46999998093E+01 0. -1.
       -5    1    3    3    0  502  0.24942514515E+03 -0.35970344175E+03  0.13656291113E+04  0.14340726720E+04  0.46999998093E+01 0.  1.
</event>
<event>
 5   0  0.1976233E-05  0.2621517E+04  0.7818609E-02  0.8360929E-01
       -2   -1    0    0    0  501  0.00000000000E+00  0.00000000000E+00  0.98209172597E+03  0.98209172597E+03  0.25500000920E-02 0. -1.
        2   -1    0    0  501    0  0.00000000000E+00  0.00000000000E+00 -0.17494171867E+04  0.17494171867E+04  0.25500000920E-02 0.  1.
    10030    2    1    2    0    0  0.00000000000E+00  0.00000000000E+00 -0.76732546078E+03  0.27315089127E+04  0.26215172281E+04 0.  0.
        2    1    3    3  502    0  0.36701486913E+03 -0.72722316914E+03 -0.14536542650E+04  0.16663325520E+04  0.25500000920E-02 0.  1.
       -2    1    3    3    0  502 -0.36701486913E+03  0.72722316914E+03  0.68632880419E+03  0.10651763607E+04  0.25500000920E-02 0. -1.
</event>
<event>
 5   0  0.8055928E-06  0.2171657E+04  0.7818609E-02  0.8530318E-01
       -1   -1    0    0    0  501  0.00000000000E+00  0.00000000000E+00  0.10153525640E+04  0.10153525641E+04  0.50400001928E-02 0.  1.
        1   -1    0    0  501    0  0.00000000000E+00  0.00000000000E+00 -0.11611966623E+04  0.11611966624E+04  0.50400001928E-02 0. -1.
    10030    2    1    2    0    0  0.00000000000E+00  0.00000000000E+00 -0.14584409830E+03  0.21765492264E+04  0.21716574394E+04 0.  0.
        2    1    3    3  502    0  0.34250957469E+02  0.85006599371E+03  0.60331156497E+03  0.10429622075E+04  0.25500000920E-02 0.  1.
       -2    1    3    3    0  502 -0.34250957469E+02 -0.85006599371E+03 -0.74915566327E+03  0.11335870190E+04  0.25500000920E-02 0. -1.
</event>
<event>
 5   0  0.1937947E-05  0.2454027E+04  0.7818609E-02  0.8419549E-01
       -2   -1    0    0    0  501  0.00000000000E+00  0.00000000000E+00  0.16131332842E+04  0.16131332842E+04  0.25500000920E-02 0. -1.
        2   -1    0    0  501    0  0.00000000000E+00  0.00000000000E+00 -0.93331562992E+03  0.93331562992E+03  0.25500000920E-02 0.  1.
    10030    2    1    2    0    0  0.00000000000E+00  0.00000000000E+00  0.67981765432E+03  0.25464489142E+04  0.24540273082E+04 0.  0.
        3    1    3    3  502    0 -0.56471023383E+03  0.35169239016E+03 -0.72992807547E+03  0.98761338136E+03  0.10100000352E+00 0.  1.
       -3    1    3    3    0  502  0.56471023383E+03 -0.35169239016E+03  0.14097457298E+04  0.15588355328E+04  0.10100000352E+00 0. -1.
</event>
<event>
 5   0  0.8122088E-06  0.2648269E+04  0.7818609E-02  0.8351988E-01
       -1   -1    0    0    0  501  0.00000000000E+00  0.00000000000E+00  0.12769950449E+04  0.12769950449E+04  0.50400001928E-02 0. -1.
        1   -1    0    0  501    0  0.00000000000E+00  0.00000000000E+00 -0.13730136583E+04  0.13730136583E+04  0.50400001928E-02 0.  1.
    10030    2    1    2    0    0  0.00000000000E+00  0.00000000000E+00 -0.96018613358E+02  0.26500087032E+04  0.26482685953E+04 0.  0.
        1    1    3    3  502    0 -0.57303955006E+02  0.14520557090E+03 -0.13637737599E+04  0.13726788661E+04  0.50400001928E-02 0.  1.
       -1    1    3    3    0  502  0.57303955006E+02 -0.14520557090E+03  0.12677551466E+04  0.12773298371E+04  0.50400001928E-02 0. -1.
</event>
<event>
 5   0  0.1937947E-05  0.2912573E+04  0.7818609E-02  0.8269146E-01
        2   -1    0    0  501    0  0.00000000000E+00  0.00000000000E+00  0.24056766103E+04  0.24056766103E+04  0.25500000920E-02 0.  1.
       -2   -1    0    0    0  501  0.00000000000E+00  0.00000000000E+00 -0.88156910700E+03  0.88156910700E+03  0.25500000920E-02 0. -1.
    10030    2    1    2    0    0  0.00000000000E+00  0.00000000000E+00  0.15241075033E+04  0.32872457173E+04  0.29125728702E+04 0.  0.
        3    1    3    3  502    0  0.11049509572E+04  0.17823209010E+03 -0.28951328380E+03  0.11560714716E+04  0.10100000352E+00 0. -1.
       -3    1    3    3    0  502 -0.11049509572E+04 -0.17823209010E+03  0.18136207871E+04  0.21311742457E+04  0.10100000352E+00 0.  1.
</event>
<event>
 5   0  0.8234888E-06  0.2841079E+04  0.7818609E-02  0.8290627E-01
        1   -1    0    0  501    0  0.00000000000E+00  0.00000000000E+00  0.20852795299E+04  0.20852795299E+04  0.50400001928E-02 0.  1.
       -1   -1    0    0    0  501  0.00000000000E+00  0.00000000000E+00 -0.96770389639E+03  0.96770389640E+03  0.50400001928E-02 0. -1.
    10030    2    1    2    0    0  0.00000000000E+00  0.00000000000E+00  0.11175756335E+04  0.30529834263E+04  0.28410794612E+04 0.  0.
        3    1    3    3  502    0  0.36601341601E+02 -0.95849903290E+03 -0.56715706387E+03  0.11143281382E+04  0.10100000352E+00 0. -1.
       -3    1    3    3    0  502 -0.36601341601E+02  0.95849903290E+03  0.16847326974E+04  0.19386552881E+04  0.10100000352E+00 0.  1.
</event>
<event>
 5   0  0.7971153E-06  0.2891740E+04  0.7818609E-02  0.8275339E-01
        1   -1    0    0  501    0  0.00000000000E+00  0.00000000000E+00  0.19540559163E+04  0.19540559163E+04  0.50400001928E-02 0. -1.
       -1   -1    0    0    0  501  0.00000000000E+00  0.00000000000E+00 -0.10698469502E+04  0.10698469502E+04  0.50400001928E-02 0.  1.
    10030    2    1    2    0    0  0.00000000000E+00  0.00000000000E+00  0.88420896606E+03  0.30239028665E+04  0.28917404880E+04 0.  0.
        5    1    3    3  502    0  0.99791731032E+02  0.98239530682E+03 -0.66231859171E+03  0.11890109063E+04  0.46999998093E+01 0.  1.
       -5    1    3    3    0  502 -0.99791731032E+02 -0.98239530682E+03  0.15465275578E+04  0.18348919601E+04  0.46999998093E+01 0. -1.
</event>
<event>
 5   0  0.8234888E-06  0.2903668E+04  0.7818609E-02  0.8271787E-01
       -1   -1    0    0    0  501  0.00000000000E+00  0.00000000000E+00  0.14427599144E+04  0.14427599144E+04  0.50400001928E-02 0. -1.
        1   -1    0    0  501    0  0.00000000000E+00  0.00000000000E+00 -0.14609655050E+04  0.14609655050E+04  0.50400001928E-02 0.  1.
    10030    2    1    2    0    0  0.00000000000E+00  0.00000000000E+00 -0.18205590584E+02  0.29037254195E+04  0.29036683468E+04 0.  0.
        3    1    3    3  502    0  0.11867302333E+04  0.31739584153E+03 -0.78290976583E+03  0.14567142748E+04  0.10100000352E+00 0.  1.
       -3    1    3    3    0  502 -0.11867302333E+04 -0.31739584153E+03  0.76470417524E+03  0.14470111446E+04  0.10100000352E+00 0. -1.
</event>
<event>
 5   0  0.1960961E-05  0.2912163E+04  0.7818609E-02  0.8269268E-01
       -2   -1    0    0    0  501  0.00000000000E+00  0.00000000000E+00  0.22540514372E+04  0.22540514372E+04  0.25500000920E-02 0.  1.
        2   -1    0    0  501    0  0.00000000000E+00  0.00000000000E+00 -0.94060559891E+03  0.94060559892E+03  0.25500000920E-02 0. -1.
    10030    2    1    2    0    0  0.00000000000E+00  0.00000000000E+00  0.13134458383E+04  0.31946570361E+04  0.29121630463E+04 0.  0.
        5    1    3    3  502    0  0.13849612327E+04  0.27848429891E+03  0.26968039998E+03  0.14382005177E+04  0.46999998093E+01 0. -1.
       -5    1    3    3    0  502 -0.13849612327E+04 -0.27848429891E+03  0.10437654383E+04  0.17564565184E+04  0.46999998093E+01 0.  1.
</event>
<event>
 5   0  0.1918901E-05  0.2886896E+04  0.7818609E-02  0.8276787E-01
        2   -1    0    0  501    0  0.00000000000E+00  0.00000000000E+00  0.18189845525E+04  0.18189845525E+04  0.25500000920E-02 0.  1.
       -2   -1    0    0    0  501  0.00000000000E+00  0.00000000000E+00 -0.11454426829E+04  0.11454426829E+04  0.25500000920E-02 0. -1.
    10030    2    1    2    0    0  0.00000000000E+00  0.00000000000E+00  0.67354186959E+03  0.29644272354E+04  0.28868962890E+04 0.  0.
        1    1    3    3  502    0  0.13087892368E+04 -0.60215754521E+03  0.42872801288E+03  0.15031070104E+04  0.50400001928E-02 0.  1.
       -1    1    3    3    0  502 -0.13087892368E+04  0.60215754521E+03  0.24481385671E+03  0.14613202250E+04  0.50400001928E-02 0. -1.
</event>
<event>
 5   0  0.1918901E-05  0.3000190E+04  0.7818609E-02  0.8243677E-01
        2   -1    0    0  501    0  0.00000000000E+00  0.00000000000E+00  0.15377028587E+04  0.15377028587E+04  0.25500000920E-02 0.  1.
       -2   -1    0    0    0  501  0.00000000000E+00  0.00000000000E+00 -0.14634068064E+04  0.14634068064E+04  0.25500000920E-02 0. -1.
    10030    2    1    2    0    0  0.00000000000E+00  0.00000000000E+00  0.74296052290E+02  0.30011096652E+04  0.30001898805E+04 0.  0.
        1    1    3    3  502    0  0.60752851142E+03  0.96441944747E+03 -0.93838891188E+03  0.14764042511E+04  0.50400001928E-02 0. -1.
       -1    1    3    3    0  502 -0.60752851142E+03 -0.96441944747E+03  0.10126849642E+04  0.15247054140E+04  0.50400001928E-02 0.  1.
</event>
<event>
 5   0  0.8055928E-06  0.1823692E+04  0.7818609E-02  0.8693801E-01
       -1   -1    0    0    0  501  0.00000000000E+00  0.00000000000E+00  0.45569289112E+03  0.45569289115E+03  0.50400001928E-02 0. -1.
        1   -1    0    0  501    0  0.00000000000E+00  0.00000000000E+00 -0.18246120594E+04  0.18246120594E+04  0.50400001928E-02 0.  1.
    10030    2    1    2    0    0  0.00000000000E+00  0.00000000000E+00 -0.13689191683E+04  0.22803049506E+04  0.18236915798E+04 0.  0.
        2    1    3    3  502    0  0.70240308054E+02 -0.87621710636E+03 -0.98758970024E+03  0.13221284107E+04  0.25500000920E-02 0.  1.
       -2    1    3    3    0  502 -0.70240308054E+02  0.87621710636E+03 -0.38132946807E+03  0.95817653989E+03  0.25500000920E-02 0. -1.
</event>
<event>
 5   0  0.1960961E-05  0.2712286E+04  0.7818609E-02  0.8331030E-01
        2   -1    0    0  501    0  0.00000000000E+00  0.00000000000E+00  0.67187831621E+03  0.67187831621E+03  0.25500000920E-02 0. -1.
       -2   -1    0    0    0  501  0.00000000000E+00  0.00000000000E+00 -0.27372873869E+04  0.27372873869E+04  0.25500000920E-02 0.  1.
    10030    2    1    2    0    0  0.00000000000E+00  0.00000000000E+00 -0.20654090707E+04  0.34091657031E+04  0.27122861505E+04 0.  0.
        5    1    3    3  502    0 -0.85368514700E+03 -0.44238038039E+03 -0.22347854878E+04  0.24328516185E+04  0.46999998093E+01 0.  1.
       -5    1    3    3    0  502  0.85368514700E+03  0.44238038039E+03  0.16937641709E+03  0.97631408462E+03  0.46999998093E+01 0. -1.
</event>
<event>
 5   0  0.1976233E-05  0.2256843E+04  0.7818609E-02  0.8495134E-01
        2   -1    0    0  501    0  0.00000000000E+00  0.00000000000E+00  0.12748088086E+04  0.12748088086E+04  0.25500000920E-02 0. -1.
       -2   -1    0    0    0  501  0.00000000000E+00  0.00000000000E+00 -0.99884421768E+03  0.99884421769E+03  0.25500000920E-02 0.  1.
    10030    2    1    2    0    0  0.00000000000E+00  0.00000000000E+00  0.27596459087E+03  0.22736530262E+04  0.22568432884E+04 0.  0.
        2    1    3    3  502    0 -0.57005888568E+03  0.86555969423E+03  0.58759633141E+03  0.11913984078E+04  0.25500000920E-02 0. -1.
       -2    1    3    3    0  502  0.57005888568E+03 -0.86555969423E+03 -0.31163174054E+03  0.10822546184E+04  0.25500000920E-02 0.  1.
</event>
<event>
 5   0  0.7971153E-06  0.2506931E+04  0.7818609E-02  0.8400520E-01
        1   -1    0    0  501    0  0.00000000000E+00  0.00000000000E+00  0.10220186004E+04  0.10220186005E+04  0.50400001928E-02 0. -1.
       -1   -1    0    0    0  501  0.00000000000E+00  0.00000000000E+00 -0.15373261464E+04  0.15373261464E+04  0.50400001928E-02 0.  1.
    10030    2    1    2    0    0  0.00000000000E+00  0.00000000000E+00 -0.51530754592E+03  0.25593447468E+04  0.25069311251E+04 0.  0.
        5    1    3    3  502    0  0.11740011847E+04 -0.34412869986E+03  0.20907120279E+02  0.12235859355E+04  0.46999998093E+01 0.  1.
       -5    1    3    3    0  502 -0.11740011847E+04  0.34412869986E+03 -0.53621466620E+03  0.13357588113E+04  0.46999998093E+01 0. -1.
</event>
<event>
 5   0  0.7305460E-06  0.2940167E+04  0.7818609E-02  0.8261026E-01
       -1   -1    0    0    0  501  0.00000000000E+00  0.00000000000E+00  0.12002544446E+04  0.12002544446E+04  0.50400001928E-02 0.  1.
        1   -1    0    0  501    0  0.00000000000E+00  0.00000000000E+00 -0.18005732576E+04  0.18005732576E+04  0.50400001928E-02 0. -1.
    10030    2    1    2    0    0  0.00000000000E+00  0.00000000000E+00 -0.60031881296E+03  0.30008277022E+04  0.29401673797E+04 0.  0.
        4    1    3    3  502    0 -0.10472560176E+03  0.66497903573E+03 -0.16340198078E+04  0.17672540606E+04  0.12699999809E+01 0. -1.
       -4    1    3    3    0  502  0.10472560176E+03 -0.66497903573E+03  0.10337009948E+04  0.12335736416E+04  0.12699999809E+01 0.  1.
</event>
<event>
 5   0  0.8234888E-06  0.2881410E+04  0.7818609E-02  0.8278430E-01
       -1   -1    0    0    0  501  0.00000000000E+00  0.00000000000E+00  0.12661839903E+04  0.12661839903E+04  0.50400001928E-02 0.  1.
        1   -1    0    0  501    0  0.00000000000E+00  0.00000000000E+00 -0.16392804170E+04  0.16392804170E+04  0.50400001928E-02 0. -1.
    10030    2    1    2    0    0  0.00000000000E+00  0.00000000000E+00 -0.37309642670E+03  0.29054644073E+04  0.28814098074E+04 0.  0.
        3    1    3    3  502    0 -0.96250829838E+03 -0.16666634697E+03  0.88126859496E+03  0.13156117369E+04  0.10100000352E+00 0.  1.
       -3    1    3    3    0  502  0.96250829838E+03  0.16666634697E+03 -0.12543650217E+04  0.15898526704E+04  0.10100000352E+00 0. -1.
</event>
<event>
 5   0  0.7971153E-06  0.2912320E+04  0.7818609E-02  0.8269221E-01
       -1   -1    0    0    0  501  0.00000000000E+00  0.00000000000E+00  0.16982494438E+04  0.16982494438E+04  0.50400001928E-02 0.  1.
        1   -1    0    0  501    0  0.00000000000E+00  0.00000000000E+00 -0.12485806466E+04  0.12485806466E+04  0.50400001928E-02 0. -1.
    10030    2    1    2    0    0  0.00000000000E+00  0.00000000000E+00  0.44966879721E+03  0.29468300904E+04  0.29123196175E+04 0.  0.
        5    1    3    3  502    0 -0.25409206283E+03  0.10215656968E+04  0.12428478764E+04  0.16287578651E+04  0.46999998093E+01 0.  1.
       -5    1    3    3    0  502  0.25409206283E+03 -0.10215656968E+04 -0.79317907922E+03  0.13180722253E+04  0.46999998093E+01 0. -1.
</event>
<event>
 5   0  0.1976233E-05  0.1982202E+04  0.7818609E-02  0.8614987E-01
        2   -1    0    0  501    0  0.00000000000E+00  0.00000000000E+00  0.49931050812E+03  0.49931050813E+03  0.25500000920E-02 0. -1.
       -2   -1    0    0    0  501  0.00000000000E+00  0.00000000000E+00 -0.19672755275E+04  0.19672755275E+04  0.25500000920E-02 0.  1.
    10030    2    1    2    0    0  0.00000000000E+00  0.00000000000E+00 -0.14679650193E+04  0.24665860356E+04  0.19822021524E+04 0.  0.
        2    1    3    3  502    0  0.33428148772E+03 -0.54264135046E+03  0.21048890358E+03  0.67119991567E+03  0.25500000920E-02 0. -1.
       -2    1    3    3    0  502 -0.33428148772E+03  0.54264135046E+03 -0.16784539229E+04  0.17953861199E+04  0.25500000920E-02 0.  1.
</event>
<event>
 5   0  0.1976233E-05  0.2843856E+04  0.7818609E-02  0.8289781E-01
        2   -1    0    0  501    0  0.00000000000E+00  0.00000000000E+00  0.19350437635E+04  0.19350437635E+04  0.25500000920E-02 0. -1.
       -2   -1    0    0    0  501  0.00000000000E+00  0.00000000000E+00 -0.10448751648E+04  0.10448751648E+04  0.25500000920E-02 0.  1.
    10030    2    1    2    0    0  0.00000000000E+00  0.00000000000E+00  0.89016859870E+03  0.29799189284E+04  0.28438559537E+04 0.  0.
        2    1    3    3  502    0 -0.74936750927E+03  0.25210339853E+03 -0.79331163754E+03  0.11200228309E+04  0.25500000920E-02 0.  1.
       -2    1    3    3    0  502  0.74936750927E+03 -0.25210339853E+03  0.16834802362E+04  0.18598960975E+04  0.25500000920E-02 0. -1.
</event>
<event>
 5   0  0.7305460E-06  0.1838975E+04  0.7818609E-02  0.8685843E-01
        1   -1    0    0  501    0  0.00000000000E+00  0.00000000000E+00  0.95854900741E+03  0.95854900743E+03  0.50400001928E-02 0. -1.
       -1   -1    0    0    0  501  0.00000000000E+00  0.00000000000E+00 -0.88201775137E+03  0.88201775138E+03  0.50400001928E-02 0.  1.
    10030    2    1    2    0    0  0.00000000000E+00  0.00000000000E+00  0.76531256047E+02  0.18405667588E+04  0.18389749755E+04 0.  0.
        4    1    3    3  502    0  0.48001453312E+03 -0.61042031149E+03 -0.45453106835E+03  0.89979276152E+03  0.12699999809E+01 0.  1.
       -4    1    3    3    0  502 -0.48001453312E+03  0.61042031149E+03  0.53106232440E+03  0.94077399729E+03  0.12699999809E+01 0. -1.
</event>
<event>
 5   0  0.8122088E-06  0.2807185E+04  0.7818609E-02  0.8301041E-01
       -1   -1    0    0    0  501  0.00000000000E+00  0.00000000000E+00  0.92472123987E+03  0.92472123989E+03  0.50400001928E-02 0. -1.
        1   -1    0    0  501    0  0.00000000000E+00  0.00000000000E+00 -0.21304498341E+04  0.21304498341E+04  0.50400001928E-02 0.  1.
    10030    2    1    2    0    0  0.00000000000E+00  0.00000000000E+00 -0.12057285942E+04  0.30551710740E+04  0.28071852180E+04 0.  0.
        1    1    3    3  502    0 -0.51427371439E+03  0.35528782472E+03 -0.19706112754E+04  0.20673692680E+04  0.50400001928E-02 0.  1.
       -1    1    3    3    0  502  0.51427371439E+03 -0.35528782472E+03  0.76488268121E+03  0.98780180591E+03  0.50400001928E-02 0. -1.
</event>
<event>
 5   0  0.8122088E-06  0.2894427E+04  0.7818609E-02  0.8274538E-01
        1   -1    0    0  501    0  0.00000000000E+00  0.00000000000E+00  0.14889020522E+04  0.14889020522E+04  0.50400001928E-02 0. -1.
       -1   -1    0    0    0  501  0.00000000000E+00  0.00000000000E+00 -0.14066918751E+04  0.14066918752E+04  0.50400001928E-02 0.  1.
    10030    2    1    2    0    0  0.00000000000E+00  0.00000000000E+00  0.82210177044E+02  0.28955939273E+04  0.28944266581E+04 0.  0.
        1    1    3    3  502    0  0.10898261936E+04  0.89422137672E+03  0.36845779709E+03  0.14570909893E+04  0.50400001928E-02 0. -1.
       -1    1    3    3    0  502 -0.10898261936E+04 -0.89422137672E+03 -0.28624762005E+03  0.14385029381E+04  0.50400001928E-02 0.  1.
</event>
<event>
 5   0  0.7971153E-06  0.2666427E+04  0.7818609E-02  0.8345981E-01
        1   -1    0    0  501    0  0.00000000000E+00  0.00000000000E+00  0.13248014503E+04  0.13248014504E+04  0.50400001928E-02 0.  1.
       -1   -1    0    0    0  501  0.00000000000E+00  0.00000000000E+00 -0.13416789120E+04  0.13416789120E+04  0.50400001928E-02 0. -1.
    10030    2    1    2    0    0  0.00000000000E+00  0.00000000000E+00 -0.16877461682E+02  0.26664803624E+04  0.26664269490E+04 0.  0.
        5    1    3    3  502    0 -0.10077508476E+04 -0.73549122772E+03  0.46159936650E+03  0.13302650796E+04  0.46999998093E+01 0. -1.
       -5    1    3    3    0  502  0.10077508476E+04  0.73549122772E+03 -0.47847682818E+03  0.13362152828E+04  0.46999998093E+01 0.  1.
</event>
<event>
 5   0  0.1829810E-05  0.2974283E+04  0.7818609E-02  0.8251113E-01
       -2   -1    0    0    0  501  0.00000000000E+00  0.00000000000E+00  0.13934876326E+04  0.13934876327E+04  0.25500000920E-02 0. -1.
        2   -1    0    0  501    0  0.00000000000E+00  0.00000000000E+00 -0.15870892342E+04  0.15870892342E+04  0.25500000920E-02 0.  1.
    10030    2    1    2    0    0  0.00000000000E+00  0.00000000000E+00 -0.19360160155E+03  0.29805768669E+04  0.29742825823E+04 0.  0.
        4    1    3    3  502    0  0.49437907391E+03  0.24958537782E+03  0.12862953556E+04  0.14004502434E+04  0.12699999809E+01 0. -1.
       -4    1    3    3    0  502 -0.49437907391E+03 -0.24958537782E+03 -0.14798969571E+04  0.15801266235E+04  0.12699999809E+01 0.  1.
</event>
<event>
 5   0  0.1937947E-05  0.3132182E+04  0.7818609E-02  0.8206961E-01
       -2   -1    0    0    0  501  0.00000000000E+00  0.00000000000E+00  0.10159588508E+04  0.10159588508E+04  0.25500000920E-02 0.  1.
        2   -1    0    0  501    0  0.00000000000E+00  0.00000000000E+00 -0.24141141110E+04  0.24141141110E+04  0.25500000920E-02 0. -1.
    10030    2    1    2    0    0  0.00000000000E+00  0.00000000000E+00 -0.13981552602E+04  0.34300729618E+04  0.31321817303E+04 0.  0.
        3    1    3    3  502    0  0.15581324769E+03 -0.14804265087E+04 -0.12318671734E+04  0.19322104334E+04  0.10100000352E+00 0. -1.
       -3    1    3    3    0  502 -0.15581324769E+03  0.14804265087E+04 -0.16628808686E+03  0.14978625284E+04  0.10100000352E+00 0.  1.
</event>
<event>
 5   0  0.1918901E-05  0.2604241E+04  0.7818609E-02  0.8366762E-01
       -2   -1    0    0    0  501  0.00000000000E+00  0.00000000000E+00  0.75482213449E+03  0.75482213449E+03  0.25500000920E-02 0. -1.
        2   -1    0    0  501    0  0.00000000000E+00  0.00000000000E+00 -0.22462476182E+04  0.22462476182E+04  0.25500000920E-02 0.  1.
    10030    2    1    2    0    0  0.00000000000E+00  0.00000000000E+00 -0.14914254837E+04  0.30010697527E+04  0.26042407122E+04 0.  0.
        1    1    3    3  502    0 -0.32751704833E+03  0.38857915691E+03  0.63582281746E+03  0.81396058464E+03  0.50400001928E-02 0. -1.
       -1    1    3    3    0  502  0.32751704833E+03 -0.38857915691E+03 -0.21272483012E+04  0.21871091680E+04  0.50400001928E-02 0.  1.
</event>
<event>
 5   0  0.1937947E-05  0.1573848E+04  0.7818609E-02  0.8836777E-01
       -2   -1    0    0    0  501  0.00000000000E+00  0.00000000000E+00  0.56710236668E+03  0.56710236668E+03  0.25500000920E-02 0. -1.
        2   -1    0    0  501    0  0.00000000000E+00  0.00000000000E+00 -0.10919529783E+04  0.10919529783E+04  0.25500000920E-02 0.  1.
    10030    2    1    2    0    0  0.00000000000E+00  0.00000000000E+00 -0.52485061164E+03  0.16590553450E+04  0.15738476652E+04 0.  0.
        3    1    3    3  502    0  0.11261013835E+03  0.76112981673E+03 -0.43643649914E+03  0.88457700013E+03  0.10100000352E+00 0. -1.
       -3    1    3    3    0  502 -0.11261013835E+03 -0.76112981673E+03 -0.88414112495E+02  0.77447834487E+03  0.10100000352E+00 0.  1.
</event>
<event>
 5   0  0.1960961E-05  0.2852402E+04  0.7818609E-02  0.8287182E-01
        2   -1    0    0  501    0  0.00000000000E+00  0.00000000000E+00  0.24165817814E+04  0.24165817814E+04  0.25500000920E-02 0. -1.
       -2   -1    0    0    0  501  0.00000000000E+00  0.00000000000E+00 -0.84170492632E+03  0.84170492633E+03  0.25500000920E-02 0.  1.
    10030    2    1    2    0    0  0.00000000000E+00  0.00000000000E+00  0.15748768551E+04  0.32582867077E+04  0.28524016479E+04 0.  0.
        5    1    3    3  502    0  0.11801229168E+04  0.27587345845E+03 -0.71360291265E+02  0.12140472169E+04  0.46999998093E+01 0.  1.
       -5    1    3    3    0  502 -0.11801229168E+04 -0.27587345845E+03  0.16462371463E+04  0.20442394908E+04  0.46999998093E+01 0. -1.
</event>
<event>
 5   0  0.1960961E-05  0.2750698E+04  0.7818609E-02  0.8318740E-01
       -2   -1    0    0    0  501  0.00000000000E+00  0.00000000000E+00  0.13193713405E+04  0.13193713405E+04  0.25500000920E-02 0. -1.
        2   -1    0    0  501    0  0.00000000000E+00  0.00000000000E+00 -0.14337011646E+04  0.14337011646E+04  0.25500000920E-02 0.  1.
    10030    2    1    2    0    0  0.00000000000E+00  0.00000000000E+00 -0.11432982405E+03  0.27530725051E+04  0.27506975315E+04 0.  0.
        5    1    3    3  502    0  0.81745526246E+03  0.17446129620E+03 -0.11503040073E+04  0.14219322238E+04  0.46999998093E+01 0.  1.
       -5    1    3    3    0  502 -0.81745526246E+03 -0.17446129620E+03  0.10359741833E+04  0.13311402813E+04  0.46999998093E+01 0. -1.
</event>
<event>
 5   0  0.8234888E-06  0.1718085E+04  0.7818609E-02  0.8751116E-01
        1   -1    0    0  501    0  0.00000000000E+00  0.00000000000E+00  0.85317315210E+03  0.85317315212E+03  0.50400001928E-02 0.  1.
       -1   -1    0    0    0  501  0.00000000000E+00  0.00000000000E+00 -0.86495258518E+03  0.86495258519E+03  0.50400001928E-02 0. -1.
    10030    2    1    2    0    0  0.00000000000E+00  0.00000000000E+00 -0.11779433076E+02  0.17181257373E+04  0.17180853571E+04 0.  0.
        3    1    3    3  502    0  0.24195461900E+03 -0.46604061914E+03  0.67399273237E+03  0.85440160922E+03  0.10100000352E+00 0.  1.
       -3    1    3    3    0  502 -0.24195461900E+03  0.46604061914E+03 -0.68577216545E+03  0.86372412809E+03  0.10100000352E+00 0. -1.
</event>
<event>
 5   0  0.1829810E-05  0.2911796E+04  0.7818609E-02  0.8269376E-01
        2   -1    0    0  501    0  0.00000000000E+00  0.00000000000E+00  0.89686527026E+03  0.89686527026E+03  0.25500000920E-02 0.  1.
       -2   -1    0    0    0  501  0.00000000000E+00  0.00000000000E+00 -0.23633861231E+04  0.23633861231E+04  0.25500000920E-02 0. -1.
    10030    2    1    2    0    0  0.00000000000E+00  0.00000000000E+00 -0.14665208528E+04  0.32602513933E+04  0.29117959640E+04 0.  0.
        4    1    3    3  502    0 -0.12980850769E+04 -0.65746330351E+03 -0.67893092829E+03  0.16056872923E+04  0.12699999809E+01 0.  1.
       -4    1    3    3    0  502  0.12980850769E+04  0.65746330351E+03 -0.78758992452E+03  0.16545641010E+04  0.12699999809E+01 0. -1.
</event>
<event>
 5   0  0.8234888E-06  0.2915157E+04  0.7818609E-02  0.8268382E-01
       -1   -1    0    0    0  501  0.00000000000E+00  0.00000000000E+00  0.17646347430E+04  0.17646347430E+04  0.50400001928E-02 0. -1.
        1   -1    0    0  501    0  0.00000000000E+00  0.00000000000E+00 -0.12039521288E+04  0.12039521289E+04  0.50400001928E-02 0.  1.
    10030    2    1    2    0    0  0.00000000000E+00  0.00000000000E+00  0.56068261411E+03  0.29685868718E+04  0.29151574609E+04 0.  0.
        3    1    3    3  502    0  0.82692962369E+03 -0.12000033931E+04  0.25311175229E+03  0.14791505384E+04  0.10100000352E+00 0.  1.
       -3    1    3    3    0  502 -0.82692962369E+03  0.12000033931E+04  0.30757086183E+03  0.14894363334E+04  0.10100000352E+00 0. -1.
</event>
<event>
 5   0  0.8055928E-06  0.2844099E+04  0.7818609E-02  0.8289707E-01
        1   -1    0    0  501    0  0.00000000000E+00  0.00000000000E+00  0.19941467740E+04  0.19941467740E+04  0.50400001928E-02 0. -1.
       -1   -1    0    0    0  501  0.00000000000E+00  0.00000000000E+00 -0.10140798729E+04  0.10140798729E+04  0.50400001928E-02 0.  1.
    10030    2    1    2    0    0  0.00000000000E+00  0.00000000000E+00  0.98006690107E+03  0.30082266469E+04  0.28440985265E+04 0.  0.
        2    1    3    3  502    0 -0.75454811454E+03 -0.97100250450E+03  0.12454144748E+04  0.17502131113E+04  0.25500000920E-02 0. -1.
       -2    1    3    3    0  502  0.75454811454E+03  0.97100250450E+03 -0.26534757373E+03  0.12580135356E+04  0.25500000920E-02 0.  1.
</event>
<event>
 5   0  0.7305460E-06  0.2894063E+04  0.7818609E-02  0.8274646E-01
        1   -1    0    0  501    0  0.00000000000E+00  0.00000000000E+00  0.19135994438E+04  0.19135994439E+04  0.50400001928E-02 0.  1.
       -1   -1    0    0    0  501  0.00000000000E+00  0.00000000000E+00 -0.10942208658E+04  0.10942208658E+04  0.50400001928E-02 0. -1.
    10030    2    1    2    0    0  0.00000000000E+00  0.00000000000E+00  0.81937857808E+03  0.30078203096E+04  0.28940631923E+04 0.  0.
        4    1    3    3  502    0 -0.13945314864E+04 -0.23024424600E+03  0.87389548924E+02  0.14161105273E+04  0.12699999809E+01 0. -1.
       -4    1    3    3    0  502  0.13945314864E+04  0.23024424600E+03  0.73198902916E+03  0.15917097823E+04  0.12699999809E+01 0.  1.
</event>
<event>
 5   0  0.1829810E-05  0.2729556E+04  0.7818609E-02  0.8325478E-01
        2   -1    0    0  501    0  0.00000000000E+00  0.00000000000E+00  0.14169203810E+04  0.14169203810E+04  0.25500000920E-02 0.  1.
       -2   -1    0    0    0  501  0.00000000000E+00  0.00000000000E+00 -0.13145539754E+04  0.13145539754E+04  0.25500000920E-02 0. -1.
    10030    2    1    2    0    0  0.00000000000E+00  0.00000000000E+00  0.10236640555E+03  0.27314743564E+04  0.27295555094E+04 0.  0.
        4    1    3    3  502    0 -0.10810689748E+04  0.53258604312E+02  0.88307386285E+03  0.13969136220E+04  0.12699999809E+01 0. -1.
       -4    1    3    3    0  502  0.10810689748E+04 -0.53258604312E+02 -0.78070745730E+03  0.13345607344E+04  0.12699999809E+01 0.  1.
</event>
<event>
 5   0  0.6578125E-06  0.2189197E+04  0.7818609E-02  0.8522938E-01
       -3   -1    0    0    0  501  0.00000000000E+00  0.00000000000E+00  0.71929575574E+03  0.71929576283E+03  0.10100000352E+00 0.  1.
        3   -1    0    0  501    0  0.00000000000E+00  0.00000000000E+00 -0.16657212174E+04  0.16657212205E+04  0.10100000352E+00 0. -1.
    10030    2    1    2    0    0  0.00000000000E+00  0.00000000000E+00 -0.94642546167E+03  0.23850169833E+04  0.21891973086E+04 0.  0.
        2    1    3    3  502    0  0.23128244105E+03 -0.63497526039E+03  0.46489074639E+03  0.82024908103E+03  0.25500000920E-02 0.  1.
       -2    1    3    3    0  502 -0.23128244105E+03  0.63497526039E+03 -0.14113162081E+04  0.15647679023E+04  0.25500000920E-02 0. -1.
</event>
<event>
 5   0  0.7971153E-06  0.1650847E+04  0.7818609E-02  0.8789906E-01
       -1   -1    0    0    0  501  0.00000000000E+00  0.00000000000E+00  0.59632406107E+03  0.59632406109E+03  0.50400001928E-02 0.  1.
        1   -1    0    0  501    0  0.00000000000E+00  0.00000000000E+00 -0.11425397995E+04  0.11425397995E+04  0.50400001928E-02 0. -1.
    10030    2    1    2    0    0  0.00000000000E+00  0.00000000000E+00 -0.54621573840E+03  0.17388638606E+04  0.16508470228E+04 0.  0.
        5    1    3    3  502    0  0.31030420095E+03 -0.53615372117E+03  0.30145884116E+03  0.68894777216E+03  0.46999998093E+01 0.  1.
       -5    1    3    3    0  502 -0.31030420095E+03  0.53615372117E+03 -0.84767457956E+03  0.10499160884E+04  0.46999998093E+01 0. -1.
</event>
<event>
 5   0  0.7971153E-06  0.2923290E+04  0.7818609E-02  0.8265982E-01
        1   -1    0    0  501    0  0.00000000000E+00  0.00000000000E+00  0.13119716646E+04  0.13119716646E+04  0.50400001928E-02 0. -1.
       -1   -1    0    0    0  501  0.00000000000E+00  0.00000000000E+00 -0.16283937512E+04  0.16283937513E+04  0.50400001928E-02 0.  1.
    10030    2    1    2    0    0  0.00000000000E+00  0.00000000000E+00 -0.31642208660E+03  0.29403654159E+04  0.29232902425E+04 0.  0.
        5    1    3    3  502    0 -0.10992931517E+04 -0.19093160574E+03 -0.11079104353E+04  0.15723828840E+04  0.46999998093E+01 0.  1.
       -5    1    3    3    0  502  0.10992931517E+04  0.19093160574E+03  0.79148834868E+03  0.13679825319E+04  0.46999998093E+01 0. -1.
</event>
<event>
 5   0  0.1960961E-05  0.2267527E+04  0.7818609E-02  0.8490836E-01
       -2   -1    0    0    0  501  0.00000000000E+00  0.00000000000E+00  0.77521712615E+03  0.77521712615E+03  0.25500000920E-02 0. -1.
        2   -1    0    0  501    0  0.00000000000E+00  0.00000000000E+00 -0.16581410717E+04  0.16581410717E+04  0.25500000920E-02 0.  1.
    10030    2    1    2    0    0  0.00000000000E+00  0.00000000000E+00 -0.88292394555E+03  0.24333581978E+04  0.22675267199E+04 0.  0.
        5    1    3    3  502    0 -0.93494193960E+03 -0.46938920115E+03  0.27479569931E+02  0.10465275292E+04  0.46999998093E+01 0.  1.
       -5    1    3    3    0  502  0.93494193960E+03  0.46938920115E+03 -0.91040351548E+03  0.13868306687E+04  0.46999998093E+01 0. -1.
</event>
<event>
 5   0  0.1918901E-05  0.3155045E+04  0.7818609E-02  0.8200792E-01
       -2   -1    0    0    0  501  0.00000000000E+00  0.00000000000E+00  0.12613404638E+04  0.12613404638E+04  0.25500000920E-02 0.  1.
        2   -1    0    0  501    0  0.00000000000E+00  0.00000000000E+00 -0.19729621556E+04  0.19729621556E+04  0.25500000920E-02 0. -1.
    10030    2    1    2    0    0  0.00000000000E+00  0.00000000000E+00 -0.71162169181E+03  0.32343026193E+04  0.31550448493E+04 0.  0.
        1    1    3    3  502    0 -0.78322314823E+03 -0.11908826973E+04  0.33714128008E+03  0.14646857484E+04  0.50400001928E-02 0.  1.
       -1    1    3    3    0  502  0.78322314823E+03  0.11908826973E+04 -0.10487629719E+04  0.17696168709E+04  0.50400001928E-02 0. -1.
</event>
<event>
 5   0  0.8055928E-06  0.3078557E+04  0.7818609E-02  0.8221647E-01
       -1   -1    0    0    0  501  0.00000000000E+00  0.00000000000E+00  0.86564489583E+03  0.86564489584E+03  0.50400001928E-02 0. -1.
        1   -1    0    0  501    0  0.00000000000E+00  0.00000000000E+00 -0.27371253577E+04  0.27371253577E+04  0.50400001928E-02 0.  1.
    10030    2    1    2    0    0  0.00000000000E+00  0.00000000000E+00 -0.18714804618E+04  0.36027702535E+04  0.30785571914E+04 0.  0.
        2    1    3    3  502    0 -0.12131514302E+04  0.79921302416E+02 -0.20405570581E+04  0.23752888066E+04  0.25500000920E-02 0.  1.
       -2    1    3    3    0  502  0.12131514302E+04 -0.79921302416E+02  0.16907659631E+03  0.12274814469E+04  0.25500000920E-02 0. -1.
</event>
<event>
 5   0  0.1960961E-05  0.2880049E+04  0.7818609E-02  0.8278838E-01
       -2   -1    0    0    0  501  0.00000000000E+00  0.00000000000E+00  0.21018140467E+04  0.21018140467E+04  0.25500000920E-02 0. -1.
        2   -1    0    0  501    0  0.00000000000E+00  0.00000000000E+00 -0.98660971360E+03  0.98660971360E+03  0.25500000920E-02 0.  1.
    10030    2    1    2    0    0  0.00000000000E+00  0.00000000000E+00  0.11152043331E+04  0.30884237603E+04  0.28800487181E+04 0.  0.
        5    1    3    3  502    0 -0.12255535267E+04  0.55023925207E+03  0.11136794887E+04  0.17450068122E+04  0.46999998093E+01 0. -1.
       -5    1    3    3    0  502  0.12255535267E+04 -0.55023925207E+03  0.15248444753E+01  0.13434169481E+04  0.46999998093E+01 0.  1.
</event>
<event>
 5   0  0.1918901E-05  0.3091157E+04  0.7818609E-02  0.8218169E-01
        2   -1    0    0  501    0  0.00000000000E+00  0.00000000000E+00  0.26224881003E+04  0.26224881003E+04  0.25500000920E-02 0.  1.
       -2   -1    0    0    0  501  0.00000000000E+00  0.00000000000E+00 -0.91089577372E+03  0.91089577372E+03  0.25500000920E-02 0. -1.
    10030    2    1    2    0    0  0.00000000000E+00  0.00000000000E+00  0.17115923266E+04  0.35333838740E+04  0.30911572766E+04 0.  0.
        1    1    3    3  502    0  0.78557217241E+03 -0.18104138579E+03 -0.65153519961E+03  0.10365315903E+04  0.50400001928E-02 0. -1.
       -1    1    3    3    0  502 -0.78557217241E+03  0.18104138579E+03  0.23631275262E+04  0.24968522837E+04  0.50400001928E-02 0.  1.
</event>
<event>
 5   0  0.1918901E-05  0.2934721E+04  0.7818609E-02  0.8262621E-01
        2   -1    0    0  501    0  0.00000000000E+00  0.00000000000E+00  0.25931172915E+04  0.25931172915E+04  0.25500000920E-02 0.  1.
       -2   -1    0    0    0  501  0.00000000000E+00  0.00000000000E+00 -0.83033120323E+03  0.83033120323E+03  0.25500000920E-02 0. -1.
    10030    2    1    2    0    0  0.00000000000E+00  0.00000000000E+00  0.17627860882E+04  0.34234484947E+04  0.29347205664E+04 0.  0.
        1    1    3    3  502    0  0.20660589059E+03  0.85593793526E+02  0.25731209201E+04  0.25828208534E+04  0.50400001928E-02 0.  1.
       -1    1    3    3    0  502 -0.20660589059E+03 -0.85593793526E+02 -0.81033483185E+03  0.84062764126E+03  0.50400001928E-02 0. -1.
</event>
<event>
 5   0  0.1937947E-05  0.2830522E+04  0.7818609E-02  0.8293855E-01
        2   -1    0    0  501    0  0.00000000000E+00  0.00000000000E+00  0.18502597008E+04  0.18502597008E+04  0.25500000920E-02 0. -1.
       -2   -1    0    0    0  501  0.00000000000E+00  0.00000000000E+00 -0.10825312800E+04  0.10825312800E+04  0.25500000920E-02 0.  1.
    10030    2    1    2    0    0  0.00000000000E+00  0.00000000000E+00  0.76772842081E+03  0.29327909809E+04  0.28305222150E+04 0.  0.
        3    1    3    3  502    0 -0.66729881488E+03 -0.12474249595E+04  0.42540328611E+03  0.14772693404E+04  0.10100000352E+00 0.  1.
       -3    1    3    3    0  502  0.66729881488E+03  0.12474249595E+04  0.34232513470E+03  0.14555216405E+04  0.10100000352E+00 0. -1.
</event>
<event>
 5   0  0.7305460E-06  0.2848953E+04  0.7818609E-02  0.8288229E-01
       -1   -1    0    0    0  501  0.00000000000E+00  0.00000000000E+00  0.19510396733E+04  0.19510396733E+04  0.50400001928E-02 0. -1.
        1   -1    0    0  501    0  0.00000000000E+00  0.00000000000E+00 -0.10400270012E+04  0.10400270012E+04  0.50400001928E-02 0.  1.
    10030    2    1    2    0    0  0.00000000000E+00  0.00000000000E+00  0.91101267210E+03  0.29910666745E+04  0.28489534504E+04 0.  0.
        4    1    3    3  502    0  0.10112614438E+04  0.56237455579E+03  0.13277417535E+04  0.17611969298E+04  0.12699999809E+01 0. -1.
       -4    1    3    3    0  502 -0.10112614438E+04 -0.56237455579E+03 -0.41672908143E+03  0.12298697447E+04  0.12699999809E+01 0.  1.
</event>
<event>
 5   0  0.7305460E-06  0.2304234E+04  0.7818609E-02  0.8476254E-01
       -1   -1    0    0    0  501  0.00000000000E+00  0.00000000000E+00  0.11880574972E+04  0.11880574972E+04  0.50400001928E-02 0. -1.
        1   -1    0    0  501    0  0.00000000000E+00  0.00000000000E+00 -0.11172632845E+04  0.11172632845E+04  0.50400001928E-02 0.  1.
    10030    2    1    2    0    0  0.00000000000E+00  0.00000000000E+00  0.70794212697E+02  0.23053207816E+04  0.23042335137E+04 0.  0.
        4    1    3    3  502    0 -0.11094117134E+04 -0.22712184215E+03 -0.17681787377E+03  0.11461434702E+04  0.12699999809E+01 0. -1.
       -4    1    3    3    0  502  0.11094117134E+04  0.22712184215E+03  0.24761208647E+03  0.11591773114E+04  0.12699999809E+01 0.  1.
</event>
<event>
 5   0  0.8122088E-06  0.2851261E+04  0.7818609E-02  0.8287528E-01
        1   -1    0    0  501    0  0.00000000000E+00  0.00000000000E+00  0.17582136385E+04  0.17582136385E+04  0.50400001928E-02 0. -1.
       -1   -1    0    0    0  501  0.00000000000E+00  0.00000000000E+00 -0.11559585085E+04  0.11559585085E+04  0.50400001928E-02 0.  1.
    10030    2    1    2    0    0  0.00000000000E+00  0.00000000000E+00  0.60225513007E+03  0.29141721470E+04  0.28512607844E+04 0.  0.
        1    1    3    3  502    0  0.79849765572E+03 -0.39828464193E+03 -0.83524666435E+03  0.12222381734E+04  0.50400001928E-02 0.  1.
       -1    1    3    3    0  502 -0.79849765572E+03  0.39828464193E+03  0.14375017944E+04  0.16919339736E+04  0.50400001928E-02 0. -1.
</event>
<event>
 5   0  0.1960961E-05  0.2896520E+04  0.7818609E-02  0.8273914E-01
        2   -1    0    0  501    0  0.00000000000E+00  0.00000000000E+00  0.21178672829E+04  0.21178672829E+04  0.25500000920E-02 0. -1.
       -2   -1    0    0    0  501  0.00000000000E+00  0.00000000000E+00 -0.99036286106E+03  0.99036286107E+03  0.25500000920E-02 0.  1.
    10030    2    1    2    0    0  0.00000000000E+00  0.00000000000E+00  0.11275044219E+04  0.31082301440E+04  0.28965200512E+04 0.  0.
        5    1    3    3  502    0 -0.79164319687E+03 -0.12039400153E+04  0.72023414912E+03  0.16108785898E+04  0.46999998093E+01 0. -1.
       -5    1    3    3    0  502  0.79164319687E+03  0.12039400153E+04  0.40727027276E+03  0.14973515542E+04  0.46999998093E+01 0.  1.
</event>
<event>
 5   0  0.8122088E-06  0.2975912E+04  0.7818609E-02  0.8250643E-01
        1   -1    0    0  501    0  0.00000000000E+00  0.00000000000E+00  0.21282286234E+04  0.21282286234E+04  0.50400001928E-02 0. -1.
       -1   -1    0    0    0  501  0.00000000000E+00  0.00000000000E+00 -0.10403078471E+04  0.10403078471E+04  0.50400001928E-02 0.  1.
    10030    2    1    2    0    0  0.00000000000E+00  0.00000000000E+00  0.10879207763E+04  0.31685364705E+04  0.29759119189E+04 0.  0.
        1    1    3    3  502    0  0.23994063338E+03  0.12198138411E+04  0.14144987652E+04  0.18831686253E+04  0.50400001928E-02 0. -1.
       -1    1    3    3    0  502 -0.23994063338E+03 -0.12198138411E+04 -0.32657798892E+03  0.12853678452E+04  0.50400001928E-02 0.  1.
</event>
<event>
 5   0  0.1960961E-05  0.3131991E+04  0.7818609E-02  0.8207013E-01
       -2   -1    0    0    0  501  0.00000000000E+00  0.00000000000E+00  0.10457882368E+04  0.10457882368E+04  0.25500000920E-02 0. -1.
        2   -1    0    0  501    0  0.00000000000E+00  0.00000000000E+00 -0.23449702626E+04  0.23449702626E+04  0.25500000920E-02 0.  1.
    10030    2    1    2    0    0  0.00000000000E+00  0.00000000000E+00 -0.12991820258E+04  0.33907584994E+04  0.31319912620E+04 0.  0.
        5    1    3    3  502    0 -0.61577049374E+03  0.13482098778E+04 -0.11967987940E+04  0.19050439939E+04  0.46999998093E+01 0.  1.
       -5    1    3    3    0  502  0.61577049374E+03 -0.13482098778E+04 -0.10238323179E+03  0.14857145054E+04  0.46999998093E+01 0. -1.
</event>
<event>
 5   0  0.1918901E-05  0.1506568E+04  0.7818609E-02  0.8880097E-01
       -2   -1    0    0    0  501  0.00000000000E+00  0.00000000000E+00  0.10019831959E+04  0.10019831959E+04  0.25500000920E-02 0.  1.
        2   -1    0    0  501    0  0.00000000000E+00  0.00000000000E+00 -0.56631331179E+03  0.56631331179E+03  0.25500000920E-02 0. -1.
    10030    2    1    2    0    0  0.00000000000E+00  0.00000000000E+00  0.43566988415E+03  0.15682965077E+04  0.15065675186E+04 0.  0.
        1    1    3    3  502    0  0.13045107951E+02 -0.80114470972E+02 -0.56174764810E+03  0.56758164476E+03  0.50400001928E-02 0. -1.
       -1    1    3    3    0  502 -0.13045107951E+02  0.80114470972E+02  0.99741753226E+03  0.10007148630E+04  0.50400001928E-02 0.  1.
</event>
<event>
 5   0  0.1829810E-05  0.2763847E+04  0.7818609E-02  0.8314581E-01
       -2   -1    0    0    0  501  0.00000000000E+00  0.00000000000E+00  0.16643451933E+04  0.16643451933E+04  0.25500000920E-02 0.  1.
        2   -1    0    0  501    0  0.00000000000E+00  0.00000000000E+00 -0.11474253966E+04  0.11474253966E+04  0.25500000920E-02 0. -1.
    10030    2    1    2    0    0  0.00000000000E+00  0.00000000000E+00  0.51691979669E+03  0.28117705899E+04  0.27638465540E+04 0.  0.
        4    1    3    3  502    0 -0.10136633400E+04  0.33945452454E+01 -0.69707356156E+03  0.12302187012E+04  0.12699999809E+01 0. -1.
       -4    1    3    3    0  502  0.10136633400E+04 -0.33945452454E+01  0.12139933583E+04  0.15815518887E+04  0.12699999809E+01 0.  1.
</event>
<event>
 5   0  0.1960961E-05  0.2752647E+04  0.7818609E-02  0.8318122E-01
       -2   -1    0    0    0  501  0.00000000000E+00  0.00000000000E+00  0.96020096953E+03  0.96020096954E+03  0.25500000920E-02 0.  1.
        2   -1    0    0  501    0  0.00000000000E+00  0.00000000000E+00 -0.19727805191E+04  0.19727805191E+04  0.25500000920E-02 0. -1.
    10030    2    1    2    0    0  0.00000000000E+00  0.00000000000E+00 -0.10125795496E+04  0.29329814886E+04  0.27526465571E+04 0.  0.
        5    1    3    3  502    0 -0.97236456547E+03 -0.65211333762E+03  0.26464353199E+03  0.12003345127E+04  0.46999998093E+01 0.  1.
       -5    1    3    3    0  502  0.97236456547E+03  0.65211333762E+03 -0.12772230816E+04  0.17326469760E+04  0.46999998093E+01 0. -1.
</event>
<event>
 5   0  0.7305460E-06  0.1984710E+04  0.7818609E-02  0.8613803E-01
        1   -1    0    0  501    0  0.00000000000E+00  0.00000000000E+00  0.15836172977E+04  0.15836172977E+04  0.50400001928E-02 0. -1.
       -1   -1    0    0    0  501  0.00000000000E+00  0.00000000000E+00 -0.62184758893E+03  0.62184758895E+03  0.50400001928E-02 0.  1.
    10030    2    1    2    0    0  0.00000000000E+00  0.00000000000E+00  0.96176970875E+03  0.22054648866E+04  0.19847101535E+04 0.  0.
        4    1    3    3  502    0 -0.28168000306E+03  0.27474028212E+03 -0.53145585705E+03  0.66126604906E+03  0.12699999809E+01 0.  1.
       -4    1    3    3    0  502  0.28168000306E+03 -0.27474028212E+03  0.14932255658E+04  0.15441988376E+04  0.12699999809E+01 0. -1.
</event>
<event>
 5   0  0.1918901E-05  0.2892325E+04  0.7818609E-02  0.8275165E-01
       -2   -1    0    0    0  501  0.00000000000E+00  0.00000000000E+00  0.80575421126E+03  0.80575421127E+03  0.25500000920E-02 0. -1.
        2   -1    0    0  501    0  0.00000000000E+00  0.00000000000E+00 -0.25955638876E+04  0.25955638876E+04  0.25500000920E-02 0.  1.
    10030    2    1    2    0    0  0.00000000000E+00  0.00000000000E+00 -0.17898096763E+04  0.34013180988E+04  0.28923253849E+04 0.  0.
        1    1    3    3  502    0  0.13080352536E+04  0.98756209600E+02 -0.17892923369E+03  0.13239050889E+04  0.50400001928E-02 0. -1.
       -1    1    3    3    0  502 -0.13080352536E+04 -0.98756209600E+02 -0.16108804426E+04  0.20774130100E+04  0.50400001928E-02 0.  1.
</event>
<event>
 5   0  0.7305460E-06  0.2850531E+04  0.7818609E-02  0.8287750E-01
        1   -1    0    0  501    0  0.00000000000E+00  0.00000000000E+00  0.16033719049E+04  0.16033719049E+04  0.50400001928E-02 0.  1.
       -1   -1    0    0    0  501  0.00000000000E+00  0.00000000000E+00 -0.12669434187E+04  0.12669434187E+04  0.50400001928E-02 0. -1.
    10030    2    1    2    0    0  0.00000000000E+00  0.00000000000E+00  0.33642848623E+03  0.28703153237E+04  0.28505308156E+04 0.  0.
        4    1    3    3  502    0  0.41328625063E+03 -0.86395715143E+03  0.12310744964E+04  0.15597350778E+04  0.12699999809E+01 0.  1.
       -4    1    3    3    0  502 -0.41328625063E+03  0.86395715143E+03 -0.89464601013E+03  0.13105802459E+04  0.12699999809E+01 0. -1.
</event>
<event>
 5   0  0.8055928E-06  0.2894826E+04  0.7818609E-02  0.8274419E-01
        1   -1    0    0  501    0  0.00000000000E+00  0.00000000000E+00  0.17541539219E+04  0.17541539219E+04  0.50400001928E-02 0.  1.
       -1   -1    0    0    0  501  0.00000000000E+00  0.00000000000E+00 -0.11943101990E+04  0.11943101990E+04  0.50400001928E-02 0. -1.
    10030    2    1    2    0    0  0.00000000000E+00  0.00000000000E+00  0.55984372290E+03  0.29484641210E+04  0.28948256733E+04 0.  0.
        2    1    3    3  502    0 -0.21022128885E+03  0.46310235926E+03  0.16601498267E+04  0.17363047637E+04  0.25500000920E-02 0.  1.
       -2    1    3    3    0  502  0.21022128885E+03 -0.46310235926E+03 -0.11003061038E+04  0.12121593573E+04  0.25500000920E-02 0. -1.
</event>
<event>
 5   0  0.6578125E-06  0.2666932E+04  0.7818609E-02  0.8345815E-01
       -4   -1    0    0    0  501  0.00000000000E+00  0.00000000000E+00  0.95570488971E+03  0.95570573353E+03  0.12699999809E+01 0. -1.
        4   -1    0    0  501    0  0.00000000000E+00  0.00000000000E+00 -0.18605427365E+04  0.18605431700E+04  0.12699999809E+01 0.  1.
    10030    2    1    2    0    0  0.00000000000E+00  0.00000000000E+00 -0.90483784681E+03  0.28162489035E+04  0.26669320121E+04 0.  0.
        3    1    3    3  502    0 -0.13534782510E+03  0.19127617241E+03  0.93379484124E+03  0.96274525375E+03  0.10100000352E+00 0. -1.
       -3    1    3    3    0  502  0.13534782510E+03 -0.19127617241E+03 -0.18386326880E+04  0.18535036497E+04  0.10100000352E+00 0.  1.
</event>
<event>
 5   0  0.8122088E-06  0.2940400E+04  0.7818609E-02  0.8260958E-01
       -1   -1    0    0    0  501  0.00000000000E+00  0.00000000000E+00  0.10339836193E+04  0.10339836194E+04  0.50400001928E-02 0. -1.
        1   -1    0    0  501    0  0.00000000000E+00  0.00000000000E+00 -0.20904476656E+04  0.20904476656E+04  0.50400001928E-02 0.  1.
    10030    2    1    2    0    0  0.00000000000E+00  0.00000000000E+00 -0.10564640463E+04  0.31244312850E+04  0.29404004104E+04 0.  0.
        1    1    3    3  502    0 -0.10799170997E+04 -0.26425277540E+03 -0.15504375095E+04  0.19078540150E+04  0.50400001928E-02 0.  1.
       -1    1    3    3    0  502  0.10799170997E+04  0.26425277540E+03  0.49397346323E+03  0.12165772700E+04  0.50400001928E-02 0. -1.
</event>
<event>
 5   0  0.7305460E-06  0.2920377E+04  0.7818609E-02  0.8266841E-01
        1   -1    0    0  501    0  0.00000000000E+00  0.00000000000E+00  0.16714311251E+04  0.16714311251E+04  0.50400001928E-02 0.  1.
       -1   -1    0    0    0  501  0.00000000000E+00  0.00000000000E+00 -0.12756432761E+04  0.12756432761E+04  0.50400001928E-02 0. -1.
    10030    2    1    2    0    0  0.00000000000E+00  0.00000000000E+00  0.39578784902E+03  0.29470744011E+04  0.29203766032E+04 0.  0.
        4    1    3    3  502    0 -0.10837090585E+03  0.14365554414E+04  0.43821482108E+03  0.15058119510E+04  0.12699999809E+01 0.  1.
       -4    1    3    3    0  502  0.10837090585E+03 -0.14365554414E+04 -0.42426972062E+02  0.14412624502E+04  0.12699999809E+01 0. -1.
</event>
<event>
 5   0  0.1829810E-05  0.2956099E+04  0.7818609E-02  0.8256379E-01
        2   -1    0    0  501    0  0.00000000000E+00  0.00000000000E+00  0.29198795271E+04  0.29198795271E+04  0.25500000920E-02 0.  1.
       -2   -1    0    0    0  501  0.00000000000E+00  0.00000000000E+00 -0.74819179353E+03  0.74819179353E+03  0.25500000920E-02 0. -1.
    10030    2    1    2    0    0  0.00000000000E+00  0.00000000000E+00  0.21716877336E+04  0.36680713206E+04  0.29560987130E+04 0.  0.
        4    1    3    3  502    0 -0.30504348384E+03  0.13305468172E+04  0.38257493695E+03  0.14176641193E+04  0.12699999809E+01 0. -1.
       -4    1    3    3    0  502  0.30504348384E+03 -0.13305468172E+04  0.17891127966E+04  0.22504072013E+04  0.12699999809E+01 0.  1.
</event>
<event>
 5   0  0.1829810E-05  0.2524691E+04  0.7818609E-02  0.8394242E-01
       -2   -1    0    0    0  501  0.00000000000E+00  0.00000000000E+00  0.98992252345E+03  0.98992252345E+03  0.25500000920E-02 0. -1.
        2   -1    0    0  501    0  0.00000000000E+00  0.00000000000E+00 -0.16097379995E+04  0.16097379995E+04  0.25500000920E-02 0.  1.
    10030    2    1    2    0    0  0.00000000000E+00  0.00000000000E+00 -0.61981547603E+03  0.25996605229E+04  0.25246907950E+04 0.  0.
        4    1    3    3  502    0  0.46375094188E+03 -0.89428151967E+03  0.47341170248E+03  0.11130699104E+04  0.12699999809E+01 0. -1.
       -4    1    3    3    0  502 -0.46375094188E+03  0.89428151967E+03 -0.10932271785E+04  0.14865906125E+04  0.12699999809E+01 0.  1.
</event>
<event>
 5   0  0.7971153E-06  0.3185112E+04  0.7818609E-02  0.8192760E-01
       -1   -1    0    0    0  501  0.00000000000E+00  0.00000000000E+00  0.17042919176E+04  0.17042919176E+04  0.50400001928E-02 0. -1.
        1   -1    0    0  501    0  0.00000000000E+00  0.00000000000E+00 -0.14881461030E+04  0.14881461030E+04  0.50400001928E-02 0.  1.
    10030    2    1    2    0    0  0.00000000000E+00  0.00000000000E+00  0.21614581461E+03  0.31924380206E+04  0.31851124787E+04 0.  0.
        5    1    3    3  502    0 -0.58259135362E+03  0.13401878008E+04 -0.52638948807E+03  0.15532623764E+04  0.46999998093E+01 0.  1.
       -5    1    3    3    0  502  0.58259135362E+03 -0.13401878008E+04  0.74253530268E+03  0.16391756442E+04  0.46999998093E+01 0. -1.
</event>
<event>
 5   0  0.1976233E-05  0.2872876E+04  0.7818609E-02  0.8280994E-01
        2   -1    0    0  501    0  0.00000000000E+00  0.00000000000E+00  0.20090887396E+04  0.20090887396E+04  0.25500000920E-02 0.  1.
       -2   -1    0    0    0  501  0.00000000000E+00  0.00000000000E+00 -0.10270097953E+04  0.10270097953E+04  0.25500000920E-02 0. -1.
    10030    2    1    2    0    0  0.00000000000E+00  0.00000000000E+00  0.98207894432E+03  0.30360985349E+04  0.28728757823E+04 0.  0.
        2    1    3    3  502    0 -0.11065901110E+04 -0.23326179424E+03 -0.44494383739E+03  0.12152891660E+04  0.25500000920E-02 0. -1.
       -2    1    3    3    0  502  0.11065901110E+04  0.23326179424E+03  0.14270227817E+04  0.18208093689E+04  0.25500000920E-02 0.  1.
</event>
<event>
 5   0  0.7971153E-06  0.2753621E+04  0.7818609E-02  0.8317813E-01
       -1   -1    0    0    0  501  0.00000000000E+00  0.00000000000E+00  0.10689574556E+04  0.10689574556E+04  0.50400001928E-02 0.  1.
        1   -1    0    0  501    0  0.00000000000E+00  0.00000000000E+00 -0.17733238293E+04  0.17733238293E+04  0.50400001928E-02 0. -1.
    10030    2    1    2    0    0  0.00000000000E+00  0.00000000000E+00 -0.70436637363E+03  0.28422812849E+04  0.27536214181E+04 0.  0.
        5    1    3    3  502    0 -0.90473245502E+03 -0.90180429276E+03  0.17796239959E+03  0.12897614133E+04  0.46999998093E+01 0.  1.
       -5    1    3    3    0  502  0.90473245502E+03  0.90180429276E+03 -0.88232877322E+03  0.15525198716E+04  0.46999998093E+01 0. -1.
</event>
<event>
 5   0  0.1918901E-05  0.2867834E+04  0.7818609E-02  0.8282513E-01
        2   -1    0    0  501    0  0.00000000000E+00  0.00000000000E+00  0.16778256391E+04  0.16778256391E+04  0.25500000920E-02 0. -1.
       -2   -1    0    0    0  501  0.00000000000E+00  0.00000000000E+00 -0.12254656606E+04  0.12254656606E+04  0.25500000920E-02 0.  1.
    10030    2    1    2    0    0  0.00000000000E+00  0.00000000000E+00  0.45235997855E+03  0.29032912997E+04  0.28678338203E+04 0.  0.
        1    1    3    3  502    0 -0.13473039110E+04 -0.48813268072E+03  0.17439718043E+03  0.14435774032E+04  0.50400001928E-02 0. -1.
       -1    1    3    3    0  502  0.13473039110E+04  0.48813268072E+03  0.27796279812E+03  0.14597138965E+04  0.50400001928E-02 0.  1.
</event>
<event>
 5   0  0.1829810E-05  0.2862474E+04  0.7818609E-02  0.8284131E-01
       -2   -1    0    0    0  501  0.00000000000E+00  0.00000000000E+00  0.66085445424E+03  0.66085445424E+03  0.25500000920E-02 0. -1.
        2   -1    0    0  501    0  0.00000000000E+00  0.00000000000E+00 -0.30996837439E+04  0.30996837439E+04  0.25500000920E-02 0.  1.
    10030    2    1    2    0    0  0.00000000000E+00  0.00000000000E+00 -0.24388292897E+04  0.37605381981E+04  0.28624743205E+04 0.  0.
        4    1    3    3  502    0  0.42213088129E+03 -0.11742022449E+04 -0.21404302456E+04  0.24775771718E+04  0.12699999809E+01 0.  1.
       -4    1    3    3    0  502 -0.42213088129E+03  0.11742022449E+04 -0.29839904402E+03  0.12829610264E+04  0.12699999809E+01 0. -1.
</event>
<event>
 5   0  0.7971153E-06  0.2905644E+04  0.7818609E-02  0.8271200E-01
        1   -1    0    0  501    0  0.00000000000E+00  0.00000000000E+00  0.15559677546E+04  0.15559677546E+04  0.50400001928E-02 0. -1.
       -1   -1    0    0    0  501  0.00000000000E+00  0.00000000000E+00 -0.13565137104E+04  0.13565137104E+04  0.50400001928E-02 0.  1.
    10030    2    1    2    0    0  0.00000000000E+00  0.00000000000E+00  0.19945404415E+03  0.29124814650E+04  0.29056438819E+04 0.  0.
        5    1    3    3  502    0 -0.10256474723E+04  0.89536458114E+03  0.60791024422E+03  0.14910423956E+04  0.46999998093E+01 0. -1.
       -5    1    3    3    0  502  0.10256474723E+04 -0.89536458114E+03 -0.40845620006E+03  0.14214390694E+04  0.46999998093E+01 0.  1.
</event>
<event>
 5   0  0.1829810E-05  0.2849425E+04  0.7818609E-02  0.8288086E-01
       -2   -1    0    0    0  501  0.00000000000E+00  0.00000000000E+00  0.15350802454E+04  0.15350802454E+04  0.25500000920E-02 0. -1.
        2   -1    0    0  501    0  0.00000000000E+00  0.00000000000E+00 -0.13222796035E+04  0.13222796035E+04  0.25500000920E-02 0.  1.
    10030    2    1    2    0    0  0.00000000000E+00  0.00000000000E+00  0.21280064194E+03  0.28573598490E+04  0.28494247127E+04 0.  0.
        4    1    3    3  502    0 -0.22528387896E+03 -0.58170763307E+03  0.13908526320E+04  0.15243389562E+04  0.12699999809E+01 0. -1.
       -4    1    3    3    0  502  0.22528387896E+03  0.58170763307E+03 -0.11780519900E+04  0.13330208928E+04  0.12699999809E+01 0.  1.
</event>
<event>
 5   0  0.1960961E-05  0.2703878E+04  0.7818609E-02  0.8333748E-01
        2   -1    0    0  501    0  0.00000000000E+00  0.00000000000E+00  0.11458702192E+04  0.11458702192E+04  0.25500000920E-02 0.  1.
       -2   -1    0    0    0  501  0.00000000000E+00  0.00000000000E+00 -0.15950659735E+04  0.15950659735E+04  0.25500000920E-02 0. -1.
    10030    2    1    2    0    0  0.00000000000E+00  0.00000000000E+00 -0.44919575428E+03  0.27409361927E+04  0.27038776575E+04 0.  0.
        5    1    3    3  502    0 -0.77311582616E+02 -0.11943322369E+04  0.41275617648E+03  0.12660159257E+04  0.46999998093E+01 0.  1.
       -5    1    3    3    0  502  0.77311582616E+02  0.11943322369E+04 -0.86195193076E+03  0.14749202670E+04  0.46999998093E+01 0. -1.
</event>
<event>
 5   0  0.1918901E-05  0.2881596E+04  0.7818609E-02  0.8278374E-01
       -2   -1    0    0    0  501  0.00000000000E+00  0.00000000000E+00  0.23640047510E+04  0.23640047510E+04  0.25500000920E-02 0. -1.
        2   -1    0    0  501    0  0.00000000000E+00  0.00000000000E+00 -0.87812790804E+03  0.87812790804E+03  0.25500000920E-02 0.  1.
    10030    2    1    2    0    0  0.00000000000E+00  0.00000000000E+00  0.14858768429E+04  0.32421326590E+04  0.28815957708E+04 0.  0.
        1    1    3    3  502    0 -0.47380579890E+03  0.70985730274E+03 -0.56312298315E+03  0.10224953885E+04  0.50400001928E-02 0.  1.
       -1    1    3    3    0  502  0.47380579890E+03 -0.70985730274E+03  0.20489998261E+04  0.22196372705E+04  0.50400001928E-02 0. -1.
</event>
<event>
 5   0  0.7305460E-06  0.2906729E+04  0.7818609E-02  0.8270878E-01
       -1   -1    0    0    0  501  0.00000000000E+00  0.00000000000E+00  0.93092579493E+03  0.93092579495E+03  0.50400001928E-02 0. -1.
        1   -1    0    0  501    0  0.00000000000E+00  0.00000000000E+00 -0.22689976453E+04  0.22689976454E+04  0.50400001928E-02 0.  1.
    10030    2    1    2    0    0  0.00000000000E+00  0.00000000000E+00 -0.13380718504E+04  0.31999234403E+04  0.29067290460E+04 0.  0.
        4    1    3    3  502    0 -0.86833156614E+03  0.77152787307E+03  0.29257785993E+03  0.11978557445E+04  0.12699999809E+01 0. -1.
       -4    1    3    3    0  502  0.86833156614E+03 -0.77152787307E+03 -0.16306497103E+04  0.20020676958E+04  0.12699999809E+01 0.  1.
</event>
<event>
 5   0  0.1918901E-05  0.2911692E+04  0.7818609E-02  0.8269407E-01
       -2   -1    0    0    0  501  0.00000000000E+00  0.00000000000E+00  0.14595736879E+04  0.14595736879E+04  0.25500000920E-02 0.  1.
        2   -1    0    0  501    0  0.00000000000E+00  0.00000000000E+00 -0.14521282355E+04  0.14521282355E+04  0.25500000920E-02 0. -1.
    10030    2    1    2    0    0  0.00000000000E+00  0.00000000000E+00  0.74454523385E+01  0.29117019234E+04  0.29116924041E+04 0.  0.
        1    1    3    3  502    0  0.10607066815E+04  0.40559544075E+03  0.91470421033E+03  0.14581804135E+04  0.50400001928E-02 0.  1.
       -1    1    3    3    0  502 -0.10607066815E+04 -0.40559544075E+03 -0.90725875799E+03  0.14535215099E+04  0.50400001928E-02 0. -1.
</event>
<event>
 5   0  0.8055928E-06  0.2854101E+04  0.7818609E-02  0.8286666E-01
        1   -1    0    0  501    0  0.00000000000E+00  0.00000000000E+00  0.15897401421E+04  0.15897401421E+04  0.50400001928E-02 0.  1.
       -1   -1    0    0    0  501  0.00000000000E+00  0.00000000000E+00 -0.12810101346E+04  0.12810101346E+04  0.50400001928E-02 0. -1.
    10030    2    1    2    0    0  0.00000000000E+00  0.00000000000E+00  0.30873000749E+03  0.28707502767E+04  0.28541010727E+04 0.  0.
        2    1    3    3  502    0  0.61566928424E+03 -0.58671288983E+03  0.13069959401E+04  0.15593328927E+04  0.25500000920E-02 0.  1.
       -2    1    3    3    0  502 -0.61566928424E+03  0.58671288983E+03 -0.99826593266E+03  0.13114173840E+04  0.25500000920E-02 0. -1.
</event>
<event>
 5   0  0.1937947E-05  0.2902214E+04  0.7818609E-02  0.8272219E-01
       -2   -1    0    0    0  501  0.00000000000E+00  0.00000000000E+00  0.13655021103E+04  0.13655021103E+04  0.25500000920E-02 0.  1.
        2   -1    0    0  501    0  0.00000000000E+00  0.00000000000E+00 -0.15420786320E+04  0.15420786320E+04  0.25500000920E-02 0. -1.
    10030    2    1    2    0    0  0.00000000000E+00  0.00000000000E+00 -0.17657652176E+03  0.29075807423E+04  0.29022140694E+04 0.  0.
        3    1    3    3  502    0 -0.99246442530E+03  0.71616042027E+03 -0.86937103834E+03  0.15012252981E+04  0.10100000352E+00 0. -1.
       -3    1    3    3    0  502  0.99246442530E+03 -0.71616042027E+03  0.69279451657E+03  0.14063554442E+04  0.10100000352E+00 0.  1.
</event>
<event>
 5   0  0.7305460E-06  0.2885825E+04  0.7818609E-02  0.8277108E-01
        1   -1    0    0  501    0  0.00000000000E+00  0.00000000000E+00  0.11814382357E+04  0.11814382357E+04  0.50400001928E-02 0.  1.
       -1   -1    0    0    0  501  0.00000000000E+00  0.00000000000E+00 -0.17622552796E+04  0.17622552796E+04  0.50400001928E-02 0. -1.
    10030    2    1    2    0    0  0.00000000000E+00  0.00000000000E+00 -0.58081704393E+03  0.29436935153E+04  0.28858245050E+04 0.  0.
        4    1    3    3  502    0 -0.31394711395E+03  0.96028824260E+03  0.76043300201E+03  0.12645063316E+04  0.12699999809E+01 0.  1.
       -4    1    3    3    0  502  0.31394711395E+03 -0.96028824260E+03 -0.13412500459E+04  0.16791871837E+04  0.12699999809E+01 0. -1.
</event>
<event>
 5   0  0.7305460E-06  0.2719320E+04  0.7818609E-02  0.8328763E-01
       -1   -1    0    0    0  501  0.00000000000E+00  0.00000000000E+00  0.92833236388E+03  0.92833236390E+03  0.50400001928E-02 0.  1.
        1   -1    0    0  501    0  0.00000000000E+00  0.00000000000E+00 -0.19913944829E+04  0.19913944829E+04  0.50400001928E-02 0. -1.
    10030    2    1    2    0    0  0.00000000000E+00  0.00000000000E+00 -0.10630621190E+04  0.29197268468E+04  0.27193204650E+04 0.  0.
        4    1    3    3  502    0 -0.30240396479E+03 -0.57318307786E+03 -0.18148967649E+04  0.19271322940E+04  0.12699999809E+01 0. -1.
       -4    1    3    3    0  502  0.30240396479E+03  0.57318307786E+03  0.75183464583E+03  0.99259455280E+03  0.12699999809E+01 0.  1.
</event>
<event>
 5   0  0.1918901E-05  0.2806446E+04  0.7818609E-02  0.8301270E-01
        2   -1    0    0  501    0  0.00000000000E+00  0.00000000000E+00  0.17113709071E+04  0.17113709072E+04  0.25500000920E-02 0. -1.
       -2   -1    0    0    0  501  0.00000000000E+00  0.00000000000E+00 -0.11505602349E+04  0.11505602349E+04  0.25500000920E-02 0.  1.
    10030    2    1    2    0    0  0.00000000000E+00  0.00000000000E+00  0.56081067224E+03  0.28619311421E+04  0.28064463743E+04 0.  0.
        1    1    3    3  502    0 -0.87176316777E+03 -0.20259457521E+03  0.13825218805E+04  0.16469311864E+04  0.50400001928E-02 0. -1.
       -1    1    3    3    0  502  0.87176316777E+03  0.20259457521E+03 -0.82171120824E+03  0.12149999557E+04  0.50400001928E-02 0.  1.
</event>
<event>
 5   0  0.1829810E-05  0.2881458E+04  0.7818609E-02  0.8278416E-01
        2   -1    0    0  501    0  0.00000000000E+00  0.00000000000E+00  0.16970210903E+04  0.16970210903E+04  0.25500000920E-02 0. -1.
       -2   -1    0    0    0  501  0.00000000000E+00  0.00000000000E+00 -0.12231435142E+04  0.12231435142E+04  0.25500000920E-02 0.  1.
    10030    2    1    2    0    0  0.00000000000E+00  0.00000000000E+00  0.47387757615E+03  0.29201646045E+04  0.28814582003E+04 0.  0.
        4    1    3    3  502    0 -0.21374714775E+03  0.14215743133E+04  0.14006522541E+03  0.14443618839E+04  0.12699999809E+01 0.  1.
       -4    1    3    3    0  502  0.21374714775E+03 -0.14215743133E+04  0.33381235074E+03  0.14758027205E+04  0.12699999809E+01 0. -1.
</event>
<event>
 5   0  0.7971153E-06  0.2892023E+04  0.7818609E-02  0.8275255E-01
        1   -1    0    0  501    0  0.00000000000E+00  0.00000000000E+00  0.11345957449E+04  0.11345957449E+04  0.50400001928E-02 0. -1.
       -1   -1    0    0    0  501  0.00000000000E+00  0.00000000000E+00 -0.18429026938E+04  0.18429026938E+04  0.50400001928E-02 0.  1.
    10030    2    1    2    0    0  0.00000000000E+00  0.00000000000E+00 -0.70830694890E+03  0.29774984387E+04  0.28920232051E+04 0.  0.
        5    1    3    3  502    0  0.12741559397E+04 -0.67939190289E+03 -0.27520094129E+03  0.14699674705E+04  0.46999998093E+01 0.  1.
       -5    1    3    3    0  502 -0.12741559397E+04  0.67939190289E+03 -0.43310600761E+03  0.15075309682E+04  0.46999998093E+01 0. -1.
</event>
<event>
 5   0  0.1918901E-05  0.2928119E+04  0.7818609E-02  0.8264560E-01
       -2   -1    0    0    0  501  0.00000000000E+00  0.00000000000E+00  0.81617172850E+03  0.81617172850E+03  0.25500000920E-02 0.  1.
        2   -1    0    0  501    0  0.00000000000E+00  0.00000000000E+00 -0.26262497626E+04  0.26262497626E+04  0.25500000920E-02 0. -1.
    10030    2    1    2    0    0  0.00000000000E+00  0.00000000000E+00 -0.18100780341E+04  0.34424214911E+04  0.29281194021E+04 0.  0.
        1    1    3    3  502    0  0.53154538072E+03  0.12945196545E+04 -0.39917223853E+03  0.14552182323E+04  0.50400001928E-02 0.  1.
       -1    1    3    3    0  502 -0.53154538072E+03 -0.12945196545E+04 -0.14109057956E+04  0.19872032588E+04  0.50400001928E-02 0. -1.
</event>
<event>
 5   0  0.1937947E-05  0.2775963E+04  0.7818609E-02  0.8310770E-01
        2   -1    0    0  501    0  0.00000000000E+00  0.00000000000E+00  0.11387221731E+04  0.11387221731E+04  0.25500000920E-02 0.  1.
       -2   -1    0    0    0  501  0.00000000000E+00  0.00000000000E+00 -0.16918019919E+04  0.16918019919E+04  0.25500000920E-02 0. -1.
    10030    2    1    2    0    0  0.00000000000E+00  0.00000000000E+00 -0.55307981871E+03  0.28305241650E+04  0.27759628533E+04 0.  0.
        3    1    3    3  502    0 -0.44212472126E+03  0.13095111770E+04 -0.14676447949E+03  0.13899041746E+04  0.10100000352E+00 0.  1.
       -3    1    3    3    0  502  0.44212472126E+03 -0.13095111770E+04 -0.40631533922E+03  0.14406199904E+04  0.10100000352E+00 0. -1.
</event>
<event>
 5   0  0.8122088E-06  0.1692206E+04  0.7818609E-02  0.8765822E-01
       -1   -1    0    0    0  501  0.00000000000E+00  0.00000000000E+00  0.13499720338E+04  0.13499720338E+04  0.50400001928E-02 0.  1.
        1   -1    0    0  501    0  0.00000000000E+00  0.00000000000E+00 -0.53029993369E+03  0.53029993371E+03  0.50400001928E-02 0. -1.
    10030    2    1    2    0    0  0.00000000000E+00  0.00000000000E+00  0.81967210014E+03  0.18802719676E+04  0.16922057559E+04 0.  0.
        1    1    3    3  502    0  0.66074243309E+03  0.31769685422E+03 -0.59450841720E+02  0.73555846584E+03  0.50400001928E-02 0.  1.
       -1    1    3    3    0  502 -0.66074243309E+03 -0.31769685422E+03  0.87912294186E+03  0.11447135017E+04  0.50400001928E-02 0. -1.
</event>
<event>
 5   0  0.7305460E-06  0.1460186E+04  0.7818609E-02  0.8911369E-01
       -1   -1    0    0    0  501  0.00000000000E+00  0.00000000000E+00  0.51454187989E+03  0.51454187992E+03  0.50400001928E-02 0. -1.
        1   -1    0    0  501    0  0.00000000000E+00  0.00000000000E+00 -0.10359424587E+04  0.10359424587E+04  0.50400001928E-02 0.  1.
    10030    2    1    2    0    0  0.00000000000E+00  0.00000000000E+00 -0.52140057882E+03  0.15504843386E+04  0.14601859884E+04 0.  0.
        4    1    3    3  502    0 -0.25550960653E+02 -0.70900039793E+03 -0.77706810195E+02  0.71370468480E+03  0.12699999809E+01 0. -1.
       -4    1    3    3    0  502  0.25550960653E+02  0.70900039793E+03 -0.44369376863E+03  0.83677965384E+03  0.12699999809E+01 0.  1.
</event>
<event>
 5   0  0.8234888E-06  0.2047570E+04  0.7818609E-02  0.8584697E-01
       -1   -1    0    0    0  501  0.00000000000E+00  0.00000000000E+00  0.78160332529E+03  0.78160332531E+03  0.50400001928E-02 0.  1.
        1   -1    0    0  501    0  0.00000000000E+00  0.00000000000E+00 -0.13410074536E+04  0.13410074536E+04  0.50400001928E-02 0. -1.
    10030    2    1    2    0    0  0.00000000000E+00  0.00000000000E+00 -0.55940412830E+03  0.21226107789E+04  0.20475701551E+04 0.  0.
        3    1    3    3  502    0  0.29262860243E+03  0.84908613454E+02 -0.12929140179E+04  0.13283326539E+04  0.10100000352E+00 0. -1.
       -3    1    3    3    0  502 -0.29262860243E+03 -0.84908613454E+02  0.73350988956E+03  0.79427812502E+03  0.10100000352E+00 0.  1.
</event>
<event>
 5   0  0.7971153E-06  0.2176926E+04  0.7818609E-02  0.8528094E-01
       -1   -1    0    0    0  501  0.00000000000E+00  0.00000000000E+00  0.55447276310E+03  0.55447276312E+03  0.50400001928E-02 0. -1.
        1   -1    0    0  501    0  0.00000000000E+00  0.00000000000E+00 -0.21367184596E+04  0.21367184596E+04  0.50400001928E-02 0.  1.
    10030    2    1    2    0    0  0.00000000000E+00  0.00000000000E+00 -0.15822456964E+04  0.26911912227E+04  0.21769264464E+04 0.  0.
        5    1    3    3  502    0  0.20720421665E+03 -0.10675878731E+04 -0.84713182318E+03  0.13785252519E+04  0.46999998093E+01 0.  1.
       -5    1    3    3    0  502 -0.20720421665E+03  0.10675878731E+04 -0.73511387326E+03  0.13126659708E+04  0.46999998093E+01 0. -1.
</event>
<event>
 5   0  0.7971153E-06  0.2755728E+04  0.7818609E-02  0.8317146E-01
       -1   -1    0    0    0  501  0.00000000000E+00  0.00000000000E+00  0.10112189482E+04  0.10112189482E+04  0.50400001928E-02 0. -1.
        1   -1    0    0  501    0  0.00000000000E+00  0.00000000000E+00 -0.18774463871E+04  0.18774463871E+04  0.50400001928E-02 0.  1.
    10030    2    1    2    0    0  0.00000000000E+00  0.00000000000E+00 -0.86622743892E+03  0.28886653352E+04  0.27557281149E+04 0.  0.
        5    1    3    3  502    0  0.36023113228E+01  0.94492600778E+03 -0.14842793407E+04  0.17595469269E+04  0.46999998093E+01 0.  1.
       -5    1    3    3    0  502 -0.36023113228E+01 -0.94492600778E+03  0.61805190174E+03  0.11291184083E+04  0.46999998093E+01 0. -1.
</event>
<event>
 5   0  0.1829810E-05  0.2934363E+04  0.7818609E-02  0.8262726E-01
        2   -1    0    0  501    0  0.00000000000E+00  0.00000000000E+00  0.20955456027E+04  0.20955456027E+04  0.25500000920E-02 0. -1.
       -2   -1    0    0    0  501  0.00000000000E+00  0.00000000000E+00 -0.10272369486E+04  0.10272369486E+04  0.25500000920E-02 0.  1.
    10030    2    1    2    0    0  0.00000000000E+00  0.00000000000E+00  0.10683086541E+04  0.31227825512E+04  0.29343632158E+04 0.  0.
        4    1    3    3  502    0 -0.69199084725E+03  0.53647586691E+03 -0.71870879185E+03  0.11327848996E+04  0.12699999809E+01 0.  1.
       -4    1    3    3    0  502  0.69199084725E+03 -0.53647586691E+03  0.17870174459E+04  0.19899976516E+04  0.12699999809E+01 0. -1.
</event>
<event>
 5   0  0.1918901E-05  0.2878266E+04  0.7818609E-02  0.8279374E-01
       -2   -1    0    0    0  501  0.00000000000E+00  0.00000000000E+00  0.14971911134E+04  0.14971911134E+04  0.25500000920E-02 0.  1.
        2   -1    0    0  501    0  0.00000000000E+00  0.00000000000E+00 -0.13833261409E+04  0.13833261409E+04  0.25500000920E-02 0. -1.
    10030    2    1    2    0    0  0.00000000000E+00  0.00000000000E+00  0.11386497250E+03  0.28805172543E+04  0.28782658704E+04 0.  0.
        1    1    3    3  502    0 -0.78657356371E+03  0.58764537132E+03  0.11099335052E+04  0.14818830722E+04  0.50400001928E-02 0.  1.
       -1    1    3    3    0  502  0.78657356371E+03 -0.58764537132E+03 -0.99606853274E+03  0.13986341822E+04  0.50400001928E-02 0. -1.
</event>
<event>
 5   0  0.8055928E-06  0.2770330E+04  0.7818609E-02  0.8312539E-01
       -1   -1    0    0    0  501  0.00000000000E+00  0.00000000000E+00  0.14291249374E+04  0.14291249374E+04  0.50400001928E-02 0. -1.
        1   -1    0    0  501    0  0.00000000000E+00  0.00000000000E+00 -0.13425571774E+04  0.13425571774E+04  0.50400001928E-02 0.  1.
    10030    2    1    2    0    0  0.00000000000E+00  0.00000000000E+00  0.86567759971E+02  0.27716821149E+04  0.27703299025E+04 0.  0.
        2    1    3    3  502    0  0.97335943315E+03 -0.54773913194E+03  0.86297322729E+03  0.14114423594E+04  0.25500000920E-02 0. -1.
       -2    1    3    3    0  502 -0.97335943315E+03  0.54773913194E+03 -0.77640546732E+03  0.13602397555E+04  0.25500000920E-02 0.  1.
</event>
<event>
 5   0  0.1960961E-05  0.2932323E+04  0.7818609E-02  0.8263325E-01
        2   -1    0    0  501    0  0.00000000000E+00  0.00000000000E+00  0.22385606318E+04  0.22385606318E+04  0.25500000920E-02 0.  1.
       -2   -1    0    0    0  501  0.00000000000E+00  0.00000000000E+00 -0.96027336983E+03  0.96027336983E+03  0.25500000920E-02 0. -1.
    10030    2    1    2    0    0  0.00000000000E+00  0.00000000000E+00  0.12782872620E+04  0.31988340016E+04  0.29323234211E+04 0.  0.
        5    1    3    3  502    0 -0.11375291622E+03 -0.70825401652E+03  0.20340486452E+04  0.21568355197E+04  0.46999998093E+01 0.  1.
       -5    1    3    3    0  502  0.11375291622E+03  0.70825401652E+03 -0.75576138327E+03  0.10419984819E+04  0.46999998093E+01 0. -1.
</event>
<event>
 5   0  0.8055928E-06  0.1812588E+04  0.7818609E-02  0.8699634E-01
       -1   -1    0    0    0  501  0.00000000000E+00  0.00000000000E+00  0.97182105361E+03  0.97182105362E+03  0.50400001928E-02 0. -1.
        1   -1    0    0  501    0  0.00000000000E+00  0.00000000000E+00 -0.84518482575E+03  0.84518482576E+03  0.50400001928E-02 0.  1.
    10030    2    1    2    0    0  0.00000000000E+00  0.00000000000E+00  0.12663622786E+03  0.18170058794E+04  0.18125875514E+04 0.  0.
        2    1    3    3  502    0 -0.24222341513E+03  0.33757611946E+03 -0.74408831921E+03  0.85223074696E+03  0.25500000920E-02 0.  1.
       -2    1    3    3    0  502  0.24222341513E+03 -0.33757611946E+03  0.87072454707E+03  0.96477513243E+03  0.25500000920E-02 0. -1.
</event>
<event>
 5   0  0.1976233E-05  0.2920657E+04  0.7818609E-02  0.8266758E-01
       -2   -1    0    0    0  501  0.00000000000E+00  0.00000000000E+00  0.11337910828E+04  0.11337910828E+04  0.25500000920E-02 0.  1.
        2   -1    0    0  501    0  0.00000000000E+00  0.00000000000E+00 -0.18809102159E+04  0.18809102159E+04  0.25500000920E-02 0. -1.
    10030    2    1    2    0    0  0.00000000000E+00  0.00000000000E+00 -0.74711913310E+03  0.30147012987E+04  0.29206569332E+04 0.  0.
        2    1    3    3  502    0  0.13538698746E+04  0.25938305189E+03  0.12395216474E+03  0.13840546752E+04  0.25500000920E-02 0.  1.
       -2    1    3    3    0  502 -0.13538698746E+04 -0.25938305189E+03 -0.87107129784E+03  0.16306466235E+04  0.25500000920E-02 0. -1.
</event>
<event>
 5   0  0.1937947E-05  0.2958582E+04  0.7818609E-02  0.8255658E-01
       -2   -1    0    0    0  501  0.00000000000E+00  0.00000000000E+00  0.24115526418E+04  0.24115526418E+04  0.25500000920E-02 0. -1.
        2   -1    0    0  501    0  0.00000000000E+00  0.00000000000E+00 -0.90742461803E+03  0.90742461803E+03  0.25500000920E-02 0.  1.
    10030    2    1    2    0    0  0.00000000000E+00  0.00000000000E+00  0.15041280237E+04  0.33189772598E+04  0.29585822516E+04 0.  0.
        3    1    3    3  502    0  0.76575760860E+03  0.22162480019E+03 -0.64584332558E+03  0.10259707006E+04  0.10100000352E+00 0.  1.
       -3    1    3    3    0  502 -0.76575760860E+03 -0.22162480019E+03  0.21499713493E+04  0.22930065591E+04  0.10100000352E+00 0. -1.
</event>
<event>
 5   0  0.1918901E-05  0.2932277E+04  0.7818609E-02  0.8263338E-01
        2   -1    0    0  501    0  0.00000000000E+00  0.00000000000E+00  0.16027038053E+04  0.16027038053E+04  0.25500000920E-02 0.  1.
       -2   -1    0    0    0  501  0.00000000000E+00  0.00000000000E+00 -0.13412100392E+04  0.13412100392E+04  0.25500000920E-02 0. -1.
    10030    2    1    2    0    0  0.00000000000E+00  0.00000000000E+00  0.26149376602E+03  0.29439138445E+04  0.29322772267E+04 0.  0.
        1    1    3    3  502    0 -0.15698249299E+03 -0.50414911007E+03 -0.12424355782E+04  0.13499837015E+04  0.50400001928E-02 0. -1.
       -1    1    3    3    0  502  0.15698249299E+03  0.50414911007E+03  0.15039293442E+04  0.15939301430E+04  0.50400001928E-02 0.  1.
</event>
<event>
 5   0  0.1829810E-05  0.2949267E+04  0.7818609E-02  0.8258368E-01
        2   -1    0    0  501    0  0.00000000000E+00  0.00000000000E+00  0.14589670117E+04  0.14589670117E+04  0.25500000920E-02 0.  1.
       -2   -1    0    0    0  501  0.00000000000E+00  0.00000000000E+00 -0.14904685646E+04  0.14904685646E+04  0.25500000920E-02 0. -1.
    10030    2    1    2    0    0  0.00000000000E+00  0.00000000000E+00 -0.31501552845E+02  0.29494355763E+04  0.29492673448E+04 0.  0.
        4    1    3    3  502    0 -0.11824693609E+03  0.30966994432E+03 -0.14527269745E+04  0.14900654642E+04  0.12699999809E+01 0. -1.
       -4    1    3    3    0  502  0.11824693609E+03 -0.30966994432E+03  0.14212254216E+04  0.14593701122E+04  0.12699999809E+01 0.  1.
</event>
<event>
 5   0  0.7971153E-06  0.2633267E+04  0.7818609E-02  0.8356988E-01
        1   -1    0    0  501    0  0.00000000000E+00  0.00000000000E+00  0.15048699202E+04  0.15048699202E+04  0.50400001928E-02 0. -1.
       -1   -1    0    0    0  501  0.00000000000E+00  0.00000000000E+00 -0.11519427260E+04  0.11519427260E+04  0.50400001928E-02 0.  1.
    10030    2    1    2    0    0  0.00000000000E+00  0.00000000000E+00  0.35292719428E+03  0.26568126462E+04  0.26332671404E+04 0.  0.
        5    1    3    3  502    0  0.42521102174E+03  0.11917696090E+04  0.54356120287E+03  0.13771710443E+04  0.46999998093E+01 0. -1.
       -5    1    3    3    0  502 -0.42521102174E+03 -0.11917696090E+04 -0.19063400859E+03  0.12796416019E+04  0.46999998093E+01 0.  1.
</event>
<event>
 5   0  0.7305460E-06  0.2516848E+04  0.7818609E-02  0.8397008E-01
       -1   -1    0    0    0  501  0.00000000000E+00  0.00000000000E+00  0.14698061560E+04  0.14698061560E+04  0.50400001928E-02 0. -1.
        1   -1    0    0  501    0  0.00000000000E+00  0.00000000000E+00 -0.10774419514E+04  0.10774419514E+04  0.50400001928E-02 0.  1.
    10030    2    1    2    0    0  0.00000000000E+00  0.00000000000E+00  0.39236420456E+03  0.25472481074E+04  0.25168478801E+04 0.  0.
        4    1    3    3  502    0  0.84746334972E+03 -0.58915581542E+03 -0.53246570384E+03  0.11613871201E+04  0.12699999809E+01 0.  1.
       -4    1    3    3    0  502 -0.84746334972E+03  0.58915581542E+03  0.92482990841E+03  0.13858609874E+04  0.12699999809E+01 0. -1.
</event>
<event>
 5   0  0.6578125E-06  0.2699684E+04  0.7818609E-02  0.8335108E-01
       -3   -1    0    0    0  501  0.00000000000E+00  0.00000000000E+00  0.10279232086E+04  0.10279232136E+04  0.10100000352E+00 0. -1.
        3   -1    0    0  501    0  0.00000000000E+00  0.00000000000E+00 -0.17725767863E+04  0.17725767892E+04  0.10100000352E+00 0.  1.
    10030    2    1    2    0    0  0.00000000000E+00  0.00000000000E+00 -0.74465357769E+03  0.28005000028E+04  0.26996835583E+04 0.  0.
        4    1    3    3  502    0 -0.11517254261E+04 -0.57447184803E+03  0.49786560598E+02  0.12880099673E+04  0.12699999809E+01 0. -1.
       -4    1    3    3    0  502  0.11517254261E+04  0.57447184803E+03 -0.79444013829E+03  0.15124900355E+04  0.12699999809E+01 0.  1.
</event>
<event>
 5   0  0.1937947E-05  0.2962545E+04  0.7818609E-02  0.8254508E-01
       -2   -1    0    0    0  501  0.00000000000E+00  0.00000000000E+00  0.11478031426E+04  0.11478031426E+04  0.25500000920E-02 0. -1.
        2   -1    0    0  501    0  0.00000000000E+00  0.00000000000E+00 -0.19116240160E+04  0.19116240160E+04  0.25500000920E-02 0.  1.
    10030    2    1    2    0    0  0.00000000000E+00  0.00000000000E+00 -0.76382087340E+03  0.30594271587E+04  0.29625448878E+04 0.  0.
        3    1    3    3  502    0 -0.12600526625E+04  0.57948522987E+03  0.15532532159E+03  0.13955865468E+04  0.10100000352E+00 0. -1.
       -3    1    3    3    0  502  0.12600526625E+04 -0.57948522987E+03 -0.91914619499E+03  0.16638406119E+04  0.10100000352E+00 0.  1.
</event>
<event>
 5   0  0.1976233E-05  0.2931747E+04  0.7818609E-02  0.8263494E-01
        2   -1    0    0  501    0  0.00000000000E+00  0.00000000000E+00  0.22138420347E+04  0.22138420347E+04  0.25500000920E-02 0.  1.
       -2   -1    0    0    0  501  0.00000000000E+00  0.00000000000E+00 -0.97061340570E+03  0.97061340570E+03  0.25500000920E-02 0. -1.
    10030    2    1    2    0    0  0.00000000000E+00  0.00000000000E+00  0.12432286290E+04  0.31844554404E+04  0.29317467537E+04 0.  0.
        2    1    3    3  502    0 -0.59783238116E+03  0.34146278737E+03  0.20272998383E+04  0.21410149522E+04  0.25500000920E-02 0.  1.
       -2    1    3    3    0  502  0.59783238116E+03 -0.34146278737E+03 -0.78407120932E+03  0.10434404882E+04  0.25500000920E-02 0. -1.
</event>
<event>
 5   0  0.1960961E-05  0.2893872E+04  0.7818609E-02  0.8274703E-01
       -2   -1    0    0    0  501  0.00000000000E+00  0.00000000000E+00  0.99963848196E+03  0.99963848197E+03  0.25500000920E-02 0. -1.
        2   -1    0    0  501    0  0.00000000000E+00  0.00000000000E+00 -0.20943805257E+04  0.20943805257E+04  0.25500000920E-02 0.  1.
    10030    2    1    2    0    0  0.00000000000E+00  0.00000000000E+00 -0.10947420437E+04  0.30940190076E+04  0.28938717106E+04 0.  0.
        5    1    3    3  502    0 -0.70163261755E+03 -0.84760524273E+03  0.45723117793E+03  0.11915558810E+04  0.46999998093E+01 0. -1.
       -5    1    3    3    0  502  0.70163261755E+03  0.84760524273E+03 -0.15519732216E+04  0.19024631266E+04  0.46999998093E+01 0.  1.
</event>
<event>
 5   0  0.7305460E-06  0.2895205E+04  0.7818609E-02  0.8274306E-01
       -1   -1    0    0    0  501  0.00000000000E+00  0.00000000000E+00  0.90987706168E+03  0.90987706170E+03  0.50400001928E-02 0. -1.
        1   -1    0    0  501    0  0.00000000000E+00  0.00000000000E+00 -0.23031166576E+04  0.23031166576E+04  0.50400001928E-02 0.  1.
    10030    2    1    2    0    0  0.00000000000E+00  0.00000000000E+00 -0.13932395959E+04  0.32129937193E+04  0.28952050132E+04 0.  0.
        4    1    3    3  502    0  0.12943370990E+04  0.34749854914E+03 -0.13039431829E+04  0.18698484443E+04  0.12699999809E+01 0.  1.
       -4    1    3    3    0  502 -0.12943370990E+04 -0.34749854914E+03 -0.89296412968E+02  0.13431452750E+04  0.12699999809E+01 0. -1.
</event>
<event>
 5   0  0.8122088E-06  0.2829030E+04  0.7818609E-02  0.8294312E-01
       -1   -1    0    0    0  501  0.00000000000E+00  0.00000000000E+00  0.12947187783E+04  0.12947187783E+04  0.50400001928E-02 0. -1.
        1   -1    0    0  501    0  0.00000000000E+00  0.00000000000E+00 -0.15453960264E+04  0.15453960265E+04  0.50400001928E-02 0.  1.
    10030    2    1    2    0    0  0.00000000000E+00  0.00000000000E+00 -0.25067724813E+03  0.28401148048E+04  0.28290304031E+04 0.  0.
        1    1    3    3  502    0  0.77497800390E+02 -0.40808045483E+03  0.12321122186E+04  0.13002446254E+04  0.50400001928E-02 0. -1.
       -1    1    3    3    0  502 -0.77497800390E+02  0.40808045483E+03 -0.14827894667E+04  0.15398701794E+04  0.50400001928E-02 0.  1.
</event>
<event>
 5   0  0.1976233E-05  0.2947780E+04  0.7818609E-02  0.8258802E-01
        2   -1    0    0  501    0  0.00000000000E+00  0.00000000000E+00  0.67789581694E+03  0.67789581694E+03  0.25500000920E-02 0.  1.
       -2   -1    0    0    0  501  0.00000000000E+00  0.00000000000E+00 -0.32045509053E+04  0.32045509053E+04  0.25500000920E-02 0. -1.
    10030    2    1    2    0    0  0.00000000000E+00  0.00000000000E+00 -0.25266550884E+04  0.38824467223E+04  0.29477799469E+04 0.  0.
        2    1    3    3  502    0 -0.10545218439E+04 -0.21853456893E+03  0.62004453525E+02  0.10787113744E+04  0.25500000920E-02 0.  1.
       -2    1    3    3    0  502  0.10545218439E+04  0.21853456893E+03 -0.25886595419E+04  0.28037353479E+04  0.25500000920E-02 0. -1.
</event>
<event>
 5   0  0.7305460E-06  0.2746715E+04  0.7818609E-02  0.8320005E-01
        1   -1    0    0  501    0  0.00000000000E+00  0.00000000000E+00  0.73075639949E+03  0.73075639951E+03  0.50400001928E-02 0. -1.
       -1   -1    0    0    0  501  0.00000000000E+00  0.00000000000E+00 -0.25810394543E+04  0.25810394543E+04  0.50400001928E-02 0.  1.
    10030    2    1    2    0    0  0.00000000000E+00  0.00000000000E+00 -0.18502830548E+04  0.33117958538E+04  0.27467152008E+04 0.  0.
        4    1    3    3  502    0  0.16853811510E+03 -0.10893202442E+04  0.62590077218E+02  0.11040574357E+04  0.12699999809E+01 0. -1.
       -4    1    3    3    0  502 -0.16853811510E+03  0.10893202442E+04 -0.19128731320E+04  0.22077384181E+04  0.12699999809E+01 0.  1.
</event>
<event>
 5   0  0.1829810E-05  0.2917464E+04  0.7818609E-02  0.8267700E-01
       -2   -1    0    0    0  501  0.00000000000E+00  0.00000000000E+00  0.82739166317E+03  0.82739166318E+03  0.25500000920E-02 0. -1.
        2   -1    0    0  501    0  0.00000000000E+00  0.00000000000E+00 -0.25718158865E+04  0.25718158865E+04  0.25500000920E-02 0.  1.
    10030    2    1    2    0    0  0.00000000000E+00  0.00000000000E+00 -0.17444242233E+04  0.33992075497E+04  0.29174639835E+04 0.  0.
        4    1    3    3  502    0  0.61174005275E+03  0.34510099558E+03 -0.23618298920E+04  0.24640541067E+04  0.12699999809E+01 0.  1.
       -4    1    3    3    0  502 -0.61174005275E+03 -0.34510099558E+03  0.61740566865E+03  0.93515344296E+03  0.12699999809E+01 0. -1.
</event>
<event>
 5   0  0.7971153E-06  0.3075793E+04  0.7818609E-02  0.8222413E-01
        1   -1    0    0  501    0  0.00000000000E+00  0.00000000000E+00  0.21599351222E+04  0.21599351222E+04  0.50400001928E-02 0. -1.
       -1   -1    0    0    0  501  0.00000000000E+00  0.00000000000E+00 -0.10949984373E+04  0.10949984373E+04  0.50400001928E-02 0.  1.
    10030    2    1    2    0    0  0.00000000000E+00  0.00000000000E+00  0.10649366850E+04  0.32549335595E+04  0.30757929602E+04 0.  0.
        5    1    3    3  502    0 -0.51059943132E+03 -0.70718958216E+03  0.18728373719E+04  0.20660035808E+04  0.46999998093E+01 0. -1.
       -5    1    3    3    0  502  0.51059943132E+03  0.70718958216E+03 -0.80790068690E+03  0.11889299787E+04  0.46999998093E+01 0.  1.
</event>
<event>
 5   0  0.1937947E-05  0.1555137E+04  0.7818609E-02  0.8848593E-01
       -2   -1    0    0    0  501  0.00000000000E+00  0.00000000000E+00  0.60879528184E+03  0.60879528185E+03  0.25500000920E-02 0.  1.
        2   -1    0    0  501    0  0.00000000000E+00  0.00000000000E+00 -0.99312950126E+03  0.99312950126E+03  0.25500000920E-02 0. -1.
    10030    2    1    2    0    0  0.00000000000E+00  0.00000000000E+00 -0.38433421942E+03  0.16019247831E+04  0.15551367202E+04 0.  0.
        3    1    3    3  502    0 -0.37086997024E+03  0.24112970788E+03 -0.85087838260E+03  0.95900057509E+03  0.10100000352E+00 0. -1.
       -3    1    3    3    0  502  0.37086997024E+03 -0.24112970788E+03  0.46654416319E+03  0.64292420801E+03  0.10100000352E+00 0.  1.
</event>
<event>
 5   0  0.1918901E-05  0.2903930E+04  0.7818609E-02  0.8271709E-01
       -2   -1    0    0    0  501  0.00000000000E+00  0.00000000000E+00  0.12858440048E+04  0.12858440048E+04  0.25500000920E-02 0. -1.
        2   -1    0    0  501    0  0.00000000000E+00  0.00000000000E+00 -0.16395475301E+04  0.16395475301E+04  0.25500000920E-02 0.  1.
    10030    2    1    2    0    0  0.00000000000E+00  0.00000000000E+00 -0.35370352527E+03  0.29253915349E+04  0.29039300007E+04 0.  0.
        1    1    3    3  502    0  0.80411032671E+03 -0.44727131875E+03 -0.13083434025E+04  0.15995022691E+04  0.50400001928E-02 0.  1.
       -1    1    3    3    0  502 -0.80411032671E+03  0.44727131875E+03  0.95463987719E+03  0.13258892658E+04  0.50400001928E-02 0. -1.
</event>
<event>
 5   0  0.8234888E-06  0.2884190E+04  0.7818609E-02  0.8277597E-01
       -1   -1    0    0    0  501  0.00000000000E+00  0.00000000000E+00  0.19379083900E+04  0.19379083900E+04  0.50400001928E-02 0. -1.
        1   -1    0    0  501    0  0.00000000000E+00  0.00000000000E+00 -0.10731350203E+04  0.10731350203E+04  0.50400001928E-02 0.  1.
    10030    2    1    2    0    0  0.00000000000E+00  0.00000000000E+00  0.86477336971E+03  0.30110434103E+04  0.28841895634E+04 0.  0.
        3    1    3    3  502    0 -0.98939222102E+03  0.87528944692E+02 -0.65910141307E+03  0.11920457064E+04  0.10100000352E+00 0.  1.
       -3    1    3    3    0  502  0.98939222102E+03 -0.87528944692E+02  0.15238747828E+04  0.18189977039E+04  0.10100000352E+00 0. -1.
</event>
<event>
 5   0  0.7305460E-06  0.2900682E+04  0.7818609E-02  0.8272675E-01
       -1   -1    0    0    0  501  0.00000000000E+00  0.00000000000E+00  0.13054177185E+04  0.13054177185E+04  0.50400001928E-02 0.  1.
        1   -1    0    0  501    0  0.00000000000E+00  0.00000000000E+00 -0.16113527445E+04  0.16113527445E+04  0.50400001928E-02 0. -1.
    10030    2    1    2    0    0  0.00000000000E+00  0.00000000000E+00 -0.30593502595E+03  0.29167704630E+04  0.29006815913E+04 0.  0.
        4    1    3    3  502    0 -0.10698138487E+04 -0.32518275344E+03 -0.10818015746E+04  0.15558090351E+04  0.12699999809E+01 0. -1.
       -4    1    3    3    0  502  0.10698138487E+04  0.32518275344E+03  0.77586654868E+03  0.13609614279E+04  0.12699999809E+01 0.  1.
</event>
<event>
 5   0  0.7305460E-06  0.2465561E+04  0.7818609E-02  0.8415358E-01
       -1   -1    0    0    0  501  0.00000000000E+00  0.00000000000E+00  0.54417589827E+03  0.54417589829E+03  0.50400001928E-02 0. -1.
        1   -1    0    0  501    0  0.00000000000E+00  0.00000000000E+00 -0.27927520620E+04  0.27927520620E+04  0.50400001928E-02 0.  1.
    10030    2    1    2    0    0  0.00000000000E+00  0.00000000000E+00 -0.22485761637E+04  0.33369279602E+04  0.24655614874E+04 0.  0.
        4    1    3    3  502    0 -0.60337214224E+03  0.96501239844E+03 -0.48310654933E+03  0.12364062528E+04  0.12699999809E+01 0. -1.
       -4    1    3    3    0  502  0.60337214224E+03 -0.96501239844E+03 -0.17654696143E+04  0.21005217074E+04  0.12699999809E+01 0.  1.
</event>
<event>
 5   0  0.7305460E-06  0.2725744E+04  0.7818609E-02  0.8326700E-01
       -1   -1    0    0    0  501  0.00000000000E+00  0.00000000000E+00  0.86915424484E+03  0.86915424485E+03  0.50400001928E-02 0.  1.
        1   -1    0    0  501    0  0.00000000000E+00  0.00000000000E+00 -0.21370430362E+04  0.21370430362E+04  0.50400001928E-02 0. -1.
    10030    2    1    2    0    0  0.00000000000E+00  0.00000000000E+00 -0.12678887913E+04  0.30061972810E+04  0.27257439545E+04 0.  0.
        4    1    3    3  502    0 -0.26896209743E+03  0.82309260318E+02 -0.21046823476E+04  0.21233946457E+04  0.12699999809E+01 0. -1.
       -4    1    3    3    0  502  0.26896209743E+03 -0.82309260318E+02  0.83679355628E+03  0.88280263531E+03  0.12699999809E+01 0.  1.
</event>
<event>
 5   0  0.8234888E-06  0.2959746E+04  0.7818609E-02  0.8255320E-01
        1   -1    0    0  501    0  0.00000000000E+00  0.00000000000E+00  0.24260161929E+04  0.24260161929E+04  0.50400001928E-02 0. -1.
       -1   -1    0    0    0  501  0.00000000000E+00  0.00000000000E+00 -0.90272428716E+03  0.90272428717E+03  0.50400001928E-02 0.  1.
    10030    2    1    2    0    0  0.00000000000E+00  0.00000000000E+00  0.15232919058E+04  0.33287404801E+04  0.29597457583E+04 0.  0.
        3    1    3    3  502    0 -0.16362708055E+02 -0.90144468600E+03  0.20814720171E+04  0.22683465406E+04  0.10100000352E+00 0. -1.
       -3    1    3    3    0  502  0.16362708055E+02  0.90144468600E+03 -0.55818011130E+03  0.10603939395E+04  0.10100000352E+00 0.  1.
</event>
<event>
 5   0  0.1960961E-05  0.2893701E+04  0.7818609E-02  0.8274754E-01
        2   -1    0    0  501    0  0.00000000000E+00  0.00000000000E+00  0.15820749798E+04  0.15820749798E+04  0.25500000920E-02 0. -1.
       -2   -1    0    0    0  501  0.00000000000E+00  0.00000000000E+00 -0.13231843994E+04  0.13231843994E+04  0.25500000920E-02 0.  1.
    10030    2    1    2    0    0  0.00000000000E+00  0.00000000000E+00  0.25889058035E+03  0.29052593792E+04  0.28937013889E+04 0.  0.
        5    1    3    3  502    0 -0.75915662927E+03  0.98630322481E+03 -0.61122892729E+03  0.13866274664E+04  0.46999998093E+01 0.  1.
       -5    1    3    3    0  502  0.75915662927E+03 -0.98630322481E+03  0.87011950764E+03  0.15186319128E+04  0.46999998093E+01 0. -1.
</event>
<event>
 5   0  0.1976233E-05  0.2872588E+04  0.7818609E-02  0.8281080E-01
        2   -1    0    0  501    0  0.00000000000E+00  0.00000000000E+00  0.15067352819E+04  0.15067352819E+04  0.25500000920E-02 0. -1.
       -2   -1    0    0    0  501  0.00000000000E+00  0.00000000000E+00 -0.13691457080E+04  0.13691457080E+04  0.25500000920E-02 0.  1.
    10030    2    1    2    0    0  0.00000000000E+00  0.00000000000E+00  0.13758957386E+03  0.28758809898E+04  0.28725877840E+04 0.  0.
        2    1    3    3  502    0  0.79299746394E+03  0.45685325741E+02 -0.11292424739E+04  0.13806232983E+04  0.25500000920E-02 0.  1.
       -2    1    3    3    0  502 -0.79299746394E+03 -0.45685325741E+02  0.12668320478E+04  0.14952576916E+04  0.25500000920E-02 0. -1.
</event>
<event>
 5   0  0.8055928E-06  0.1694536E+04  0.7818609E-02  0.8764487E-01
       -1   -1    0    0    0  501  0.00000000000E+00  0.00000000000E+00  0.91176950654E+03  0.91176950655E+03  0.50400001928E-02 0. -1.
        1   -1    0    0  501    0  0.00000000000E+00  0.00000000000E+00 -0.78732965735E+03  0.78732965736E+03  0.50400001928E-02 0.  1.
    10030    2    1    2    0    0  0.00000000000E+00  0.00000000000E+00  0.12443984919E+03  0.16990991639E+04  0.16945361291E+04 0.  0.
        2    1    3    3  502    0 -0.14409984401E+03  0.42721855989E+03 -0.65705594102E+03  0.79687073769E+03  0.25500000920E-02 0.  1.
       -2    1    3    3    0  502  0.14409984401E+03 -0.42721855989E+03  0.78149579021E+03  0.90222842622E+03  0.25500000920E-02 0. -1.
</event>
<event>
 5   0  0.8122088E-06  0.2922250E+04  0.7818609E-02  0.8266288E-01
       -1   -1    0    0    0  501  0.00000000000E+00  0.00000000000E+00  0.10558207704E+04  0.10558207704E+04  0.50400001928E-02 0.  1.
        1   -1    0    0  501    0  0.00000000000E+00  0.00000000000E+00 -0.20220159798E+04  0.20220159798E+04  0.50400001928E-02 0. -1.
    10030    2    1    2    0    0  0.00000000000E+00  0.00000000000E+00 -0.96619520946E+03  0.30778367502E+04  0.29222501395E+04 0.  0.
        1    1    3    3  502    0 -0.11420920823E+04  0.57028392600E+03  0.26558518890E+03  0.13038917030E+04  0.50400001928E-02 0.  1.
       -1    1    3    3    0  502  0.11420920823E+04 -0.57028392600E+03 -0.12317803984E+04  0.17739450472E+04  0.50400001928E-02 0. -1.
</event>
<event>
 5   0  0.8234888E-06  0.2911670E+04  0.7818609E-02  0.8269414E-01
       -1   -1    0    0    0  501  0.00000000000E+00  0.00000000000E+00  0.94041986710E+03  0.94041986712E+03  0.50400001928E-02 0. -1.
        1   -1    0    0  501    0  0.00000000000E+00  0.00000000000E+00 -0.22537339887E+04  0.22537339887E+04  0.50400001928E-02 0.  1.
    10030    2    1    2    0    0  0.00000000000E+00  0.00000000000E+00 -0.13133141216E+04  0.31941538558E+04  0.29116704609E+04 0.  0.
        3    1    3    3  502    0  0.26602930959E+03  0.12973334111E+04  0.66628303641E+01  0.13243451124E+04  0.10100000352E+00 0. -1.
       -3    1    3    3    0  502 -0.26602930959E+03 -0.12973334111E+04 -0.13199769520E+04  0.18698087435E+04  0.10100000352E+00 0.  1.
</event>
<event>
 5   0  0.8122088E-06  0.2912382E+04  0.7818609E-02  0.8269203E-01
       -1   -1    0    0    0  501  0.00000000000E+00  0.00000000000E+00  0.13333990031E+04  0.13333990031E+04  0.50400001928E-02 0.  1.
        1   -1    0    0  501    0  0.00000000000E+00  0.00000000000E+00 -0.15902906206E+04  0.15902906206E+04  0.50400001928E-02 0. -1.
    10030    2    1    2    0    0  0.00000000000E+00  0.00000000000E+00 -0.25689161750E+03  0.29236896237E+04  0.29123817938E+04 0.  0.
        1    1    3    3  502    0 -0.52909805349E+03  0.75760283403E+03 -0.12582421146E+04  0.15611149937E+04  0.50400001928E-02 0. -1.
       -1    1    3    3    0  502  0.52909805349E+03 -0.75760283403E+03  0.10013504971E+04  0.13625746301E+04  0.50400001928E-02 0.  1.
</event>
<event>
 5   0  0.7305460E-06  0.2897734E+04  0.7818609E-02  0.8273552E-01
        1   -1    0    0  501    0  0.00000000000E+00  0.00000000000E+00  0.16778672169E+04  0.16778672169E+04  0.50400001928E-02 0. -1.
       -1   -1    0    0    0  501  0.00000000000E+00  0.00000000000E+00 -0.12511217292E+04  0.12511217293E+04  0.50400001928E-02 0.  1.
    10030    2    1    2    0    0  0.00000000000E+00  0.00000000000E+00  0.42674548770E+03  0.29289889462E+04  0.28977343798E+04 0.  0.
        4    1    3    3  502    0 -0.28702614967E+03 -0.14195632599E+04  0.17205815947E+03  0.14584750538E+04  0.12699999809E+01 0. -1.
       -4    1    3    3    0  502  0.28702614967E+03  0.14195632599E+04  0.25468732823E+03  0.14705138924E+04  0.12699999809E+01 0.  1.
</event>
<event>
 5   0  0.7305460E-06  0.2912450E+04  0.7818609E-02  0.8269183E-01
        1   -1    0    0  501    0  0.00000000000E+00  0.00000000000E+00  0.10678295609E+04  0.10678295609E+04  0.50400001928E-02 0. -1.
       -1   -1    0    0    0  501  0.00000000000E+00  0.00000000000E+00 -0.19858898211E+04  0.19858898211E+04  0.50400001928E-02 0.  1.
    10030    2    1    2    0    0  0.00000000000E+00  0.00000000000E+00 -0.91806026022E+03  0.30537193820E+04  0.29124504155E+04 0.  0.
        4    1    3    3  502    0  0.15308323473E+03  0.11075067958E+04 -0.14373391135E+04  0.18209753210E+04  0.12699999809E+01 0.  1.
       -4    1    3    3    0  502 -0.15308323473E+03 -0.11075067958E+04  0.51927885328E+03  0.12327440610E+04  0.12699999809E+01 0. -1.
</event>
<event>
 5   0  0.8234888E-06  0.2845602E+04  0.7818609E-02  0.8289249E-01
        1   -1    0    0  501    0  0.00000000000E+00  0.00000000000E+00  0.19130770828E+04  0.19130770828E+04  0.50400001928E-02 0. -1.
       -1   -1    0    0    0  501  0.00000000000E+00  0.00000000000E+00 -0.10581708174E+04  0.10581708174E+04  0.50400001928E-02 0.  1.
    10030    2    1    2    0    0  0.00000000000E+00  0.00000000000E+00  0.85490626535E+03  0.29712479002E+04  0.28456017575E+04 0.  0.
        3    1    3    3  502    0 -0.27335274746E+03 -0.58659909564E+03  0.17505011836E+04  0.18662997153E+04  0.10100000352E+00 0. -1.
       -3    1    3    3    0  502  0.27335274746E+03  0.58659909564E+03 -0.89559491822E+03  0.11049481849E+04  0.10100000352E+00 0.  1.
</event>
<event>
 5   0  0.1976233E-05  0.3207395E+04  0.7818609E-02  0.8186867E-01
       -2   -1    0    0    0  501  0.00000000000E+00  0.00000000000E+00  0.24473164995E+04  0.24473164995E+04  0.25500000920E-02 0.  1.
        2   -1    0    0  501    0  0.00000000000E+00  0.00000000000E+00 -0.10508838288E+04  0.10508838288E+04  0.25500000920E-02 0. -1.
    10030    2    1    2    0    0  0.00000000000E+00  0.00000000000E+00  0.13964326707E+04  0.34982003284E+04  0.32073947892E+04 0.  0.
        2    1    3    3  502    0  0.68702638036E+03  0.12623281315E+04 -0.77897251736E+02  0.14392864693E+04  0.25500000920E-02 0. -1.
       -2    1    3    3    0  502 -0.68702638036E+03 -0.12623281315E+04  0.14743299224E+04  0.20589138591E+04  0.25500000920E-02 0.  1.
</event>
<event>
 5   0  0.6578125E-06  0.2875286E+04  0.7818609E-02  0.8280269E-01
       -3   -1    0    0    0  501  0.00000000000E+00  0.00000000000E+00  0.19648950725E+04  0.19648950751E+04  0.10100000352E+00 0. -1.
        3   -1    0    0  501    0  0.00000000000E+00  0.00000000000E+00 -0.10518719470E+04  0.10518719518E+04  0.10100000352E+00 0.  1.
    10030    2    1    2    0    0  0.00000000000E+00  0.00000000000E+00  0.91302312554E+03  0.30167670270E+04  0.28752864322E+04 0.  0.
        2    1    3    3  502    0 -0.14368971897E+04  0.46304616198E+02  0.45714598523E+03  0.15085755211E+04  0.25500000920E-02 0. -1.
       -2    1    3    3    0  502  0.14368971897E+04 -0.46304616198E+02  0.45587714032E+03  0.15081915058E+04  0.25500000920E-02 0.  1.
</event>
<event>
 5   0  0.1918901E-05  0.2787172E+04  0.7818609E-02  0.8307262E-01
        2   -1    0    0  501    0  0.00000000000E+00  0.00000000000E+00  0.14150786806E+04  0.14150786806E+04  0.25500000920E-02 0. -1.
       -2   -1    0    0    0  501  0.00000000000E+00  0.00000000000E+00 -0.13724194837E+04  0.13724194837E+04  0.25500000920E-02 0.  1.
    10030    2    1    2    0    0  0.00000000000E+00  0.00000000000E+00  0.42659196919E+02  0.27874981643E+04  0.27871717222E+04 0.  0.
        1    1    3    3  502    0 -0.30749835071E+03  0.25672133476E+03 -0.13136003004E+04  0.13733196382E+04  0.50400001928E-02 0.  1.
       -1    1    3    3    0  502  0.30749835071E+03 -0.25672133476E+03  0.13562594973E+04  0.14141785261E+04  0.50400001928E-02 0. -1.
</event>
<event>
 5   0  0.8234888E-06  0.2580964E+04  0.7818609E-02  0.8374696E-01
       -1   -1    0    0    0  501  0.00000000000E+00  0.00000000000E+00  0.17593036319E+04  0.17593036320E+04  0.50400001928E-02 0. -1.
        1   -1    0    0  501    0  0.00000000000E+00  0.00000000000E+00 -0.94659254187E+03  0.94659254188E+03  0.50400001928E-02 0.  1.
    10030    2    1    2    0    0  0.00000000000E+00  0.00000000000E+00  0.81271109007E+03  0.27058961738E+04  0.25809639261E+04 0.  0.
        3    1    3    3  502    0 -0.93236730545E+03 -0.68538448199E+02  0.13389869449E+04  0.16330622646E+04  0.10100000352E+00 0. -1.
       -3    1    3    3    0  502  0.93236730545E+03  0.68538448199E+02 -0.52627585487E+03  0.10728339092E+04  0.10100000352E+00 0.  1.
</event>
<event>
 5   0  0.1918901E-05  0.2895621E+04  0.7818609E-02  0.8274182E-01
       -2   -1    0    0    0  501  0.00000000000E+00  0.00000000000E+00  0.10977440587E+04  0.10977440587E+04  0.25500000920E-02 0. -1.
        2   -1    0    0  501    0  0.00000000000E+00  0.00000000000E+00 -0.19095112200E+04  0.19095112200E+04  0.25500000920E-02 0.  1.
    10030    2    1    2    0    0  0.00000000000E+00  0.00000000000E+00 -0.81176716134E+03  0.30072552786E+04  0.28956205530E+04 0.  0.
        1    1    3    3  502    0  0.63777364284E+03  0.44044598665E+03 -0.16758969940E+04  0.18464502759E+04  0.50400001928E-02 0.  1.
       -1    1    3    3    0  502 -0.63777364284E+03 -0.44044598665E+03  0.86412983270E+03  0.11608050028E+04  0.50400001928E-02 0. -1.
</event>
<event>
 5   0  0.8122088E-06  0.2989797E+04  0.7818609E-02  0.8246650E-01
        1   -1    0    0  501    0  0.00000000000E+00  0.00000000000E+00  0.17515174732E+04  0.17515174732E+04  0.50400001928E-02 0.  1.
       -1   -1    0    0    0  501  0.00000000000E+00  0.00000000000E+00 -0.12758772992E+04  0.12758772992E+04  0.50400001928E-02 0. -1.
    10030    2    1    2    0    0  0.00000000000E+00  0.00000000000E+00  0.47564017398E+03  0.30273947724E+04  0.29897969049E+04 0.  0.
        1    1    3    3  502    0 -0.37145108080E+03  0.12010212016E+04 -0.58123608732E+03  0.13850137983E+04  0.50400001928E-02 0.  1.
       -1    1    3    3    0  502  0.37145108080E+03 -0.12010212016E+04  0.10568762613E+04  0.16423809741E+04  0.50400001928E-02 0. -1.
</event>
<event>
 5   0  0.1960961E-05  0.2553266E+04  0.7818609E-02  0.8384251E-01
       -2   -1    0    0    0  501  0.00000000000E+00  0.00000000000E+00  0.10916759095E+04  0.10916759095E+04  0.25500000920E-02 0. -1.
        2   -1    0    0  501    0  0.00000000000E+00  0.00000000000E+00 -0.14929270128E+04  0.14929270128E+04  0.25500000920E-02 0.  1.
    10030    2    1    2    0    0  0.00000000000E+00  0.00000000000E+00 -0.40125110321E+03  0.25846029223E+04  0.25532664996E+04 0.  0.
        5    1    3    3  502    0  0.56943828648E+03  0.92517186532E+03 -0.87935251141E+03  0.13976715894E+04  0.46999998093E+01 0.  1.
       -5    1    3    3    0  502 -0.56943828648E+03 -0.92517186532E+03  0.47810140820E+03  0.11869313329E+04  0.46999998093E+01 0. -1.
</event>
<event>
 5   0  0.8055928E-06  0.2886653E+04  0.7818609E-02  0.8276860E-01
       -1   -1    0    0    0  501  0.00000000000E+00  0.00000000000E+00  0.13526858033E+04  0.13526858033E+04  0.50400001928E-02 0. -1.
        1   -1    0    0  501    0  0.00000000000E+00  0.00000000000E+00 -0.15400411117E+04  0.15400411117E+04  0.50400001928E-02 0.  1.
    10030    2    1    2    0    0  0.00000000000E+00  0.00000000000E+00 -0.18735530834E+03  0.28927269150E+04  0.28866532513E+04 0.  0.
        2    1    3    3  502    0 -0.11888759051E+04 -0.31381543540E+03  0.66374710108E+03  0.13973067879E+04  0.25500000920E-02 0. -1.
       -2    1    3    3    0  502  0.11888759051E+04  0.31381543540E+03 -0.85110240943E+03  0.14954201271E+04  0.25500000920E-02 0.  1.
</event>
<event>
 5   0  0.1937947E-05  0.2963017E+04  0.7818609E-02  0.8254371E-01
        2   -1    0    0  501    0  0.00000000000E+00  0.00000000000E+00  0.13677769527E+04  0.13677769527E+04  0.25500000920E-02 0.  1.
       -2   -1    0    0    0  501  0.00000000000E+00  0.00000000000E+00 -0.16046967027E+04  0.16046967028E+04  0.25500000920E-02 0. -1.
    10030    2    1    2    0    0  0.00000000000E+00  0.00000000000E+00 -0.23691975009E+03  0.29724736554E+04  0.29630168181E+04 0.  0.
        3    1    3    3  502    0 -0.36754827428E+03 -0.44935052089E+03 -0.14858433753E+04  0.15952235488E+04  0.10100000352E+00 0. -1.
       -3    1    3    3    0  502  0.36754827428E+03  0.44935052089E+03  0.12489236252E+04  0.13772501066E+04  0.10100000352E+00 0.  1.
</event>
<event>
 5   0  0.1976233E-05  0.2897136E+04  0.7818609E-02  0.8273730E-01
       -2   -1    0    0    0  501  0.00000000000E+00  0.00000000000E+00  0.15733128666E+04  0.15733128666E+04  0.25500000920E-02 0. -1.
        2   -1    0    0  501    0  0.00000000000E+00  0.00000000000E+00 -0.13337135782E+04  0.13337135782E+04  0.25500000920E-02 0.  1.
    10030    2    1    2    0    0  0.00000000000E+00  0.00000000000E+00  0.23959928833E+03  0.29070264448E+04  0.28971356426E+04 0.  0.
        2    1    3    3  502    0  0.93626650853E+03  0.24627395134E+03  0.12010232229E+04  0.15426284764E+04  0.25500000920E-02 0. -1.
       -2    1    3    3    0  502 -0.93626650853E+03 -0.24627395134E+03 -0.96142393462E+03  0.13643979684E+04  0.25500000920E-02 0.  1.
</event>
<event>
 5   0  0.8055928E-06  0.2979396E+04  0.7818609E-02  0.8249639E-01
       -1   -1    0    0    0  501  0.00000000000E+00  0.00000000000E+00  0.10559472962E+04  0.10559472962E+04  0.50400001928E-02 0.  1.
        1   -1    0    0  501    0  0.00000000000E+00  0.00000000000E+00 -0.21016200207E+04  0.21016200208E+04  0.50400001928E-02 0. -1.
    10030    2    1    2    0    0  0.00000000000E+00  0.00000000000E+00 -0.10456727245E+04  0.31575673170E+04  0.29793958976E+04 0.  0.
        2    1    3    3  502    0 -0.14118400738E+04 -0.44482861252E+03 -0.70028610777E+03  0.16375486317E+04  0.25500000920E-02 0.  1.
       -2    1    3    3    0  502  0.14118400738E+04  0.44482861252E+03 -0.34538661676E+03  0.15200186853E+04  0.25500000920E-02 0. -1.
</event>
<event>
 5   0  0.1960961E-05  0.2906274E+04  0.7818609E-02  0.8271013E-01
        2   -1    0    0  501    0  0.00000000000E+00  0.00000000000E+00  0.18409240760E+04  0.18409240760E+04  0.25500000920E-02 0. -1.
       -2   -1    0    0    0  501  0.00000000000E+00  0.00000000000E+00 -0.11470366427E+04  0.11470366427E+04  0.25500000920E-02 0.  1.
    10030    2    1    2    0    0  0.00000000000E+00  0.00000000000E+00  0.69388743328E+03  0.29879607187E+04  0.29062741588E+04 0.  0.
        5    1    3    3  502    0 -0.10508425729E+04 -0.85122428835E+03 -0.19972733571E+03  0.13670281638E+04  0.46999998093E+01 0. -1.
       -5    1    3    3    0  502  0.10508425729E+04  0.85122428835E+03  0.89361476899E+03  0.16209325549E+04  0.46999998093E+01 0.  1.
</event>
<event>
 5   0  0.1960961E-05  0.2913641E+04  0.7818609E-02  0.8268830E-01
       -2   -1    0    0    0  501  0.00000000000E+00  0.00000000000E+00  0.91118636282E+03  0.91118636282E+03  0.25500000920E-02 0.  1.
        2   -1    0    0  501    0  0.00000000000E+00  0.00000000000E+00 -0.23291893966E+04  0.23291893966E+04  0.25500000920E-02 0. -1.
    10030    2    1    2    0    0  0.00000000000E+00  0.00000000000E+00 -0.14180030338E+04  0.32403757595E+04  0.29136407566E+04 0.  0.
        5    1    3    3  502    0  0.78351791109E+03  0.91632270554E+03  0.20047855341E+03  0.12221953027E+04  0.46999998093E+01 0.  1.
       -5    1    3    3    0  502 -0.78351791109E+03 -0.91632270554E+03 -0.16184815872E+04  0.20181804567E+04  0.46999998093E+01 0. -1.
</event>
<event>
 5   0  0.1937947E-05  0.2929875E+04  0.7818609E-02  0.8264044E-01
       -2   -1    0    0    0  501  0.00000000000E+00  0.00000000000E+00  0.13989109292E+04  0.13989109292E+04  0.25500000920E-02 0. -1.
        2   -1    0    0  501    0  0.00000000000E+00  0.00000000000E+00 -0.15340801050E+04  0.15340801050E+04  0.25500000920E-02 0.  1.
    10030    2    1    2    0    0  0.00000000000E+00  0.00000000000E+00 -0.13516917582E+03  0.29329910343E+04  0.29298746903E+04 0.  0.
        3    1    3    3  502    0  0.45641856548E+02 -0.99684154634E+03 -0.11412295080E+04  0.15159752794E+04  0.10100000352E+00 0.  1.
       -3    1    3    3    0  502 -0.45641856548E+02  0.99684154634E+03  0.10060603321E+04  0.14170157549E+04  0.10100000352E+00 0. -1.
</event>
<event>
 5   0  0.1918901E-05  0.2749886E+04  0.7818609E-02  0.8318998E-01
        2   -1    0    0  501    0  0.00000000000E+00  0.00000000000E+00  0.17654487901E+04  0.17654487901E+04  0.25500000920E-02 0.  1.
       -2   -1    0    0    0  501  0.00000000000E+00  0.00000000000E+00 -0.10708147902E+04  0.10708147902E+04  0.25500000920E-02 0. -1.
    10030    2    1    2    0    0  0.00000000000E+00  0.00000000000E+00  0.69463399987E+03  0.28362635803E+04  0.27498863073E+04 0.  0.
        1    1    3    3  502    0 -0.67167203303E+03  0.41459364647E+03  0.15084851633E+04  0.17025154037E+04  0.50400001928E-02 0.  1.
       -1    1    3    3    0  502  0.67167203303E+03 -0.41459364647E+03 -0.81385116346E+03  0.11337481766E+04  0.50400001928E-02 0. -1.
</event>
<event>
 5   0  0.7971153E-06  0.2880769E+04  0.7818609E-02  0.8278622E-01
       -1   -1    0    0    0  501  0.00000000000E+00  0.00000000000E+00  0.12316998393E+04  0.12316998393E+04  0.50400001928E-02 0.  1.
        1   -1    0    0  501    0  0.00000000000E+00  0.00000000000E+00 -0.16844263896E+04  0.16844263896E+04  0.50400001928E-02 0. -1.
    10030    2    1    2    0    0  0.00000000000E+00  0.00000000000E+00 -0.45272655028E+03  0.29161262289E+04  0.28807691427E+04 0.  0.
        5    1    3    3  502    0 -0.90644323838E+03 -0.43792051228E+03 -0.12691877037E+04  0.16199608751E+04  0.46999998093E+01 0. -1.
       -5    1    3    3    0  502  0.90644323838E+03  0.43792051228E+03  0.81646115345E+03  0.12961653539E+04  0.46999998093E+01 0.  1.
</event>
<event>
 5   0  0.8122088E-06  0.2879092E+04  0.7818609E-02  0.8279126E-01
        1   -1    0    0  501    0  0.00000000000E+00  0.00000000000E+00  0.18884121885E+04  0.18884121885E+04  0.50400001928E-02 0. -1.
       -1   -1    0    0    0  501  0.00000000000E+00  0.00000000000E+00 -0.10973729528E+04  0.10973729528E+04  0.50400001928E-02 0.  1.
    10030    2    1    2    0    0  0.00000000000E+00  0.00000000000E+00  0.79103923572E+03  0.29857851413E+04  0.28790918425E+04 0.  0.
        1    1    3    3  502    0 -0.97565294086E+02 -0.11120019212E+04  0.13381734814E+04  0.17426346507E+04  0.50400001928E-02 0. -1.
       -1    1    3    3    0  502  0.97565294086E+02  0.11120019212E+04 -0.54713424570E+03  0.12431504906E+04  0.50400001928E-02 0.  1.
</event>
<event>
 5   0  0.1976233E-05  0.2691996E+04  0.7818609E-02  0.8337607E-01
        2   -1    0    0  501    0  0.00000000000E+00  0.00000000000E+00  0.17513161746E+04  0.17513161746E+04  0.25500000920E-02 0. -1.
       -2   -1    0    0    0  501  0.00000000000E+00  0.00000000000E+00 -0.10344851732E+04  0.10344851732E+04  0.25500000920E-02 0.  1.
    10030    2    1    2    0    0  0.00000000000E+00  0.00000000000E+00  0.71683100141E+03  0.27858013478E+04  0.26919960002E+04 0.  0.
        2    1    3    3  502    0  0.50986036413E+03 -0.74266342673E+03  0.13933671011E+04  0.16592101840E+04  0.25500000920E-02 0. -1.
       -2    1    3    3    0  502 -0.50986036413E+03  0.74266342673E+03 -0.67653609965E+03  0.11265911638E+04  0.25500000920E-02 0.  1.
</event>
<event>
 5   0  0.8055928E-06  0.3073574E+04  0.7818609E-02  0.8223028E-01
        1   -1    0    0  501    0  0.00000000000E+00  0.00000000000E+00  0.26031119723E+04  0.26031119723E+04  0.50400001928E-02 0.  1.
       -1   -1    0    0    0  501  0.00000000000E+00  0.00000000000E+00 -0.90726563725E+03  0.90726563726E+03  0.50400001928E-02 0. -1.
    10030    2    1    2    0    0  0.00000000000E+00  0.00000000000E+00  0.16958463350E+04  0.35103776096E+04  0.30735738432E+04 0.  0.
        2    1    3    3  502    0 -0.51747231802E+03 -0.14403912386E+04  0.10062186299E+04  0.18316605721E+04  0.25500000920E-02 0.  1.
       -2    1    3    3    0  502  0.51747231802E+03  0.14403912386E+04  0.68962770519E+03  0.16787170375E+04  0.25500000920E-02 0. -1.
</event>
<event>
 5   0  0.1918901E-05  0.3167068E+04  0.7818609E-02  0.8197569E-01
        2   -1    0    0  501    0  0.00000000000E+00  0.00000000000E+00  0.12277992853E+04  0.12277992853E+04  0.25500000920E-02 0. -1.
       -2   -1    0    0    0  501  0.00000000000E+00  0.00000000000E+00 -0.20423364389E+04  0.20423364389E+04  0.25500000920E-02 0.  1.
    10030    2    1    2    0    0  0.00000000000E+00  0.00000000000E+00 -0.81453715357E+03  0.32701357242E+04  0.31670675522E+04 0.  0.
        1    1    3    3  502    0  0.58132806516E+03  0.80408464457E+03  0.86702792578E+03  0.13176615116E+04  0.50400001928E-02 0. -1.
       -1    1    3    3    0  502 -0.58132806516E+03 -0.80408464457E+03 -0.16815650794E+04  0.19524742127E+04  0.50400001928E-02 0.  1.
</event>
<event>
 5   0  0.1960961E-05  0.2769458E+04  0.7818609E-02  0.8312814E-01
        2   -1    0    0  501    0  0.00000000000E+00  0.00000000000E+00  0.17042420410E+04  0.17042420410E+04  0.25500000920E-02 0.  1.
       -2   -1    0    0    0  501  0.00000000000E+00  0.00000000000E+00 -0.11251183367E+04  0.11251183367E+04  0.25500000920E-02 0. -1.
    10030    2    1    2    0    0  0.00000000000E+00  0.00000000000E+00  0.57912370430E+03  0.28293603776E+04  0.27694576873E+04 0.  0.
        5    1    3    3  502    0  0.12450687331E+04  0.51721678580E+02  0.90642710788E+03  0.15409423980E+04  0.46999998093E+01 0.  1.
       -5    1    3    3    0  502 -0.12450687331E+04 -0.51721678580E+02 -0.32730340358E+03  0.12884179796E+04  0.46999998093E+01 0. -1.
</event>
<event>
 5   0  0.7971153E-06  0.2789196E+04  0.7818609E-02  0.8306631E-01
        1   -1    0    0  501    0  0.00000000000E+00  0.00000000000E+00  0.11322472823E+04  0.11322472824E+04  0.50400001928E-02 0. -1.
       -1   -1    0    0    0  501  0.00000000000E+00  0.00000000000E+00 -0.17177370078E+04  0.17177370078E+04  0.50400001928E-02 0.  1.
    10030    2    1    2    0    0  0.00000000000E+00  0.00000000000E+00 -0.58548972548E+03  0.28499842902E+04  0.27891956252E+04 0.  0.
        5    1    3    3  502    0 -0.79853110948E+03  0.16548465433E+03 -0.14487026799E+04  0.16624676383E+04  0.46999998093E+01 0.  1.
       -5    1    3    3    0  502  0.79853110948E+03 -0.16548465433E+03  0.86321295447E+03  0.11875166518E+04  0.46999998093E+01 0. -1.
</event>
<event>
 5   0  0.7971153E-06  0.3280117E+04  0.7818609E-02  0.8167973E-01
        1   -1    0    0  501    0  0.00000000000E+00  0.00000000000E+00  0.20865240535E+04  0.20865240535E+04  0.50400001928E-02 0. -1.
       -1   -1    0    0    0  501  0.00000000000E+00  0.00000000000E+00 -0.12891254294E+04  0.12891254294E+04  0.50400001928E-02 0.  1.
    10030    2    1    2    0    0  0.00000000000E+00  0.00000000000E+00  0.79739862405E+03  0.33756494829E+04  0.32801165933E+04 0.  0.
        5    1    3    3  502    0 -0.88891405532E+03 -0.12627007458E+04 -0.16982837002E+03  0.15535266771E+04  0.46999998093E+01 0. -1.
       -5    1    3    3    0  502  0.88891405532E+03  0.12627007458E+04  0.96722699407E+03  0.18221228058E+04  0.46999998093E+01 0.  1.
</event>
<event>
 5   0  0.1918901E-05  0.2752378E+04  0.7818609E-02  0.8318208E-01
       -2   -1    0    0    0  501  0.00000000000E+00  0.00000000000E+00  0.16478487651E+04  0.16478487651E+04  0.25500000920E-02 0. -1.
        2   -1    0    0  501    0  0.00000000000E+00  0.00000000000E+00 -0.11493139267E+04  0.11493139267E+04  0.25500000920E-02 0.  1.
    10030    2    1    2    0    0  0.00000000000E+00  0.00000000000E+00  0.49853483844E+03  0.27971626918E+04  0.27523775430E+04 0.  0.
        1    1    3    3  502    0  0.50262686704E+03 -0.11724247236E+03 -0.10472320721E+04  0.11675078491E+04  0.50400001928E-02 0.  1.
       -1    1    3    3    0  502 -0.50262686704E+03  0.11724247236E+03  0.15457669105E+04  0.16296548428E+04  0.50400001928E-02 0. -1.
</event>
<event>
 5   0  0.1829810E-05  0.2805708E+04  0.7818609E-02  0.8301498E-01
       -2   -1    0    0    0  501  0.00000000000E+00  0.00000000000E+00  0.12854015571E+04  0.12854015571E+04  0.25500000920E-02 0.  1.
        2   -1    0    0  501    0  0.00000000000E+00  0.00000000000E+00 -0.15310388893E+04  0.15310388893E+04  0.25500000920E-02 0. -1.
    10030    2    1    2    0    0  0.00000000000E+00  0.00000000000E+00 -0.24563733227E+03  0.28164404464E+04  0.28057083043E+04 0.  0.
        4    1    3    3  502    0  0.13530550779E+04  0.37044149146E+03 -0.12646806880E+03  0.14085385078E+04  0.12699999809E+01 0.  1.
       -4    1    3    3    0  502 -0.13530550779E+04 -0.37044149146E+03 -0.11916926347E+03  0.14079019386E+04  0.12699999809E+01 0. -1.
</event>
<event>
 5   0  0.6578125E-06  0.2968402E+04  0.7818609E-02  0.8252812E-01
       -4   -1    0    0    0  501  0.00000000000E+00  0.00000000000E+00  0.16367305611E+04  0.16367310538E+04  0.12699999809E+01 0. -1.
        4   -1    0    0  501    0  0.00000000000E+00  0.00000000000E+00 -0.13458852949E+04  0.13458858941E+04  0.12699999809E+01 0.  1.
    10030    2    1    2    0    0  0.00000000000E+00  0.00000000000E+00  0.29084526622E+03  0.29826169479E+04  0.29684024136E+04 0.  0.
        4    1    3    3  502    0  0.80360255796E+03 -0.21592245341E+03 -0.10894670837E+04  0.13708901183E+04  0.12699999809E+01 0.  1.
       -4    1    3    3    0  502 -0.80360255796E+03  0.21592245341E+03  0.13803123499E+04  0.16117268296E+04  0.12699999809E+01 0. -1.
</event>
<event>
 5   0  0.7305460E-06  0.2913095E+04  0.7818609E-02  0.8268992E-01
       -1   -1    0    0    0  501  0.00000000000E+00  0.00000000000E+00  0.13147650957E+04  0.13147650957E+04  0.50400001928E-02 0. -1.
        1   -1    0    0  501    0  0.00000000000E+00  0.00000000000E+00 -0.16136198166E+04  0.16136198166E+04  0.50400001928E-02 0.  1.
    10030    2    1    2    0    0  0.00000000000E+00  0.00000000000E+00 -0.29885472093E+03  0.29283849123E+04  0.29130952697E+04 0.  0.
        4    1    3    3  502    0  0.12646622236E+04  0.70461571334E+03  0.11649592546E+02  0.14477538358E+04  0.12699999809E+01 0. -1.
       -4    1    3    3    0  502 -0.12646622236E+04 -0.70461571334E+03 -0.31050431348E+03  0.14806310765E+04  0.12699999809E+01 0.  1.
</event>
<event>
 5   0  0.1937947E-05  0.2874284E+04  0.7818609E-02  0.8280570E-01
        2   -1    0    0  501    0  0.00000000000E+00  0.00000000000E+00  0.11543968329E+04  0.11543968329E+04  0.25500000920E-02 0.  1.
       -2   -1    0    0    0  501  0.00000000000E+00  0.00000000000E+00 -0.17891400599E+04  0.17891400599E+04  0.25500000920E-02 0. -1.
    10030    2    1    2    0    0  0.00000000000E+00  0.00000000000E+00 -0.63474322697E+03  0.29435368929E+04  0.28742843414E+04 0.  0.
        3    1    3    3  502    0  0.89361043784E+03  0.68954514906E+03 -0.12283924412E+04  0.16682206470E+04  0.10100000352E+00 0. -1.
       -3    1    3    3    0  502 -0.89361043784E+03 -0.68954514906E+03  0.59364921425E+03  0.12753162459E+04  0.10100000352E+00 0.  1.
</event>
<event>
 5   0  0.8122088E-06  0.2793867E+04  0.7818609E-02  0.8305175E-01
       -1   -1    0    0    0  501  0.00000000000E+00  0.00000000000E+00  0.93427830105E+03  0.93427830106E+03  0.50400001928E-02 0. -1.
        1   -1    0    0  501    0  0.00000000000E+00  0.00000000000E+00 -0.20886957011E+04  0.20886957011E+04  0.50400001928E-02 0.  1.
    10030    2    1    2    0    0  0.00000000000E+00  0.00000000000E+00 -0.11544174001E+04  0.30229740022E+04  0.27938669052E+04 0.  0.
        1    1    3    3  502    0 -0.49654882231E+02 -0.10452734987E+04 -0.15784922532E+04  0.18938585184E+04  0.50400001928E-02 0.  1.
       -1    1    3    3    0  502  0.49654882231E+02  0.10452734987E+04  0.42407485312E+03  0.11291154837E+04  0.50400001928E-02 0. -1.
</event>
<event>
 5   0  0.1937947E-05  0.3029309E+04  0.7818609E-02  0.8235411E-01
       -2   -1    0    0    0  501  0.00000000000E+00  0.00000000000E+00  0.18523355577E+04  0.18523355577E+04  0.25500000920E-02 0.  1.
        2   -1    0    0  501    0  0.00000000000E+00  0.00000000000E+00 -0.12385329631E+04  0.12385329631E+04  0.25500000920E-02 0. -1.
    10030    2    1    2    0    0  0.00000000000E+00  0.00000000000E+00  0.61380259457E+03  0.30908685209E+04  0.30293092592E+04 0.  0.
        3    1    3    3  502    0 -0.46421711303E+02 -0.13590325600E+04 -0.37377927104E+03  0.14102607660E+04  0.10100000352E+00 0. -1.
       -3    1    3    3    0  502  0.46421711303E+02  0.13590325600E+04  0.98758186562E+03  0.16806077549E+04  0.10100000352E+00 0.  1.
</event>
<event>
 5   0  0.8055928E-06  0.2462667E+04  0.7818609E-02  0.8416408E-01
        1   -1    0    0  501    0  0.00000000000E+00  0.00000000000E+00  0.14111721073E+04  0.14111721073E+04  0.50400001928E-02 0.  1.
       -1   -1    0    0    0  501  0.00000000000E+00  0.00000000000E+00 -0.10744135115E+04  0.10744135115E+04  0.50400001928E-02 0. -1.
    10030    2    1    2    0    0  0.00000000000E+00  0.00000000000E+00  0.33675859582E+03  0.24855856188E+04  0.24626671551E+04 0.  0.
        2    1    3    3  502    0  0.10962363753E+04  0.45736203230E+03  0.49584930194E+03  0.12871599549E+04  0.25500000920E-02 0.  1.
       -2    1    3    3    0  502 -0.10962363753E+04 -0.45736203230E+03 -0.15909070612E+03  0.11984256639E+04  0.25500000920E-02 0. -1.
</event>
<event>
 5   0  0.1918901E-05  0.2918780E+04  0.7818609E-02  0.8267312E-01
        2   -1    0    0  501    0  0.00000000000E+00  0.00000000000E+00  0.18819639495E+04  0.18819639495E+04  0.25500000920E-02 0. -1.
       -2   -1    0    0    0  501  0.00000000000E+00  0.00000000000E+00 -0.11317004181E+04  0.11317004181E+04  0.25500000920E-02 0.  1.
    10030    2    1    2    0    0  0.00000000000E+00  0.00000000000E+00  0.75026353140E+03  0.30136643675E+04  0.29187801482E+04 0.  0.
        1    1    3    3  502    0  0.12984510230E+04 -0.33217915233E+03 -0.22113731667E+03  0.13583886636E+04  0.50400001928E-02 0.  1.
       -1    1    3    3    0  502 -0.12984510230E+04  0.33217915233E+03  0.97140084806E+03  0.16552757040E+04  0.50400001928E-02 0. -1.
</event>
<event>
 5   0  0.1976233E-05  0.2915504E+04  0.7818609E-02  0.8268280E-01
       -2   -1    0    0    0  501  0.00000000000E+00  0.00000000000E+00  0.12834452913E+04  0.12834452913E+04  0.25500000920E-02 0. -1.
        2   -1    0    0  501    0  0.00000000000E+00  0.00000000000E+00 -0.16557310974E+04  0.16557310974E+04  0.25500000920E-02 0.  1.
    10030    2    1    2    0    0  0.00000000000E+00  0.00000000000E+00 -0.37228580612E+03  0.29391763887E+04  0.29155035796E+04 0.  0.
        2    1    3    3  502    0  0.12186339757E+04 -0.13883327815E+03  0.60809724525E+03  0.13689871093E+04  0.25500000920E-02 0. -1.
       -2    1    3    3    0  502 -0.12186339757E+04  0.13883327815E+03 -0.98038305136E+03  0.15701892794E+04  0.25500000920E-02 0.  1.
</event>
<event>
 5   0  0.6578125E-06  0.3030848E+04  0.7818609E-02  0.8234977E-01
        3   -1    0    0  501    0  0.00000000000E+00  0.00000000000E+00  0.23738932816E+04  0.23738932837E+04  0.10100000352E+00 0. -1.
       -3   -1    0    0    0  501  0.00000000000E+00  0.00000000000E+00 -0.96740202719E+03  0.96740203246E+03  0.10100000352E+00 0.  1.
    10030    2    1    2    0    0  0.00000000000E+00  0.00000000000E+00  0.14064912544E+04  0.33412953162E+04  0.30308475285E+04 0.  0.
        5    1    3    3  502    0 -0.57878051133E+03  0.40800893249E+03 -0.77377478947E+03  0.10489078530E+04  0.46999998093E+01 0.  1.
       -5    1    3    3    0  502  0.57878051133E+03 -0.40800893249E+03  0.21802660438E+04  0.22923874631E+04  0.46999998093E+01 0. -1.
</event>
<event>
 5   0  0.7305460E-06  0.2731490E+04  0.7818609E-02  0.8324859E-01
       -1   -1    0    0    0  501  0.00000000000E+00  0.00000000000E+00  0.11851614185E+04  0.11851614186E+04  0.50400001928E-02 0.  1.
        1   -1    0    0  501    0  0.00000000000E+00  0.00000000000E+00 -0.15738442420E+04  0.15738442421E+04  0.50400001928E-02 0. -1.
    10030    2    1    2    0    0  0.00000000000E+00  0.00000000000E+00 -0.38868282349E+03  0.27590056606E+04  0.27314900509E+04 0.  0.
        4    1    3    3  502    0 -0.54064470651E+03  0.26528429922E+03  0.10438065623E+04  0.12050751887E+04  0.12699999809E+01 0.  1.
       -4    1    3    3    0  502  0.54064470651E+03 -0.26528429922E+03 -0.14324893858E+04  0.15539304719E+04  0.12699999809E+01 0. -1.
</event>
<event>
 5   0  0.1829810E-05  0.2887036E+04  0.7818609E-02  0.8276745E-01
       -2   -1    0    0    0  501  0.00000000000E+00  0.00000000000E+00  0.91944864612E+03  0.91944864612E+03  0.25500000920E-02 0.  1.
        2   -1    0    0  501    0  0.00000000000E+00  0.00000000000E+00 -0.22662980315E+04  0.22662980315E+04  0.25500000920E-02 0. -1.
    10030    2    1    2    0    0  0.00000000000E+00  0.00000000000E+00 -0.13468493853E+04  0.31857466776E+04  0.28870363051E+04 0.  0.
        4    1    3    3  502    0  0.12389711110E+04  0.71817846402E+03 -0.87361583799E+03  0.16775088570E+04  0.12699999809E+01 0. -1.
       -4    1    3    3    0  502 -0.12389711110E+04 -0.71817846402E+03 -0.47323354735E+03  0.15082378206E+04  0.12699999809E+01 0.  1.
</event>
<event>
 5   0  0.1960961E-05  0.2910531E+04  0.7818609E-02  0.8269751E-01
        2   -1    0    0  501    0  0.00000000000E+00  0.00000000000E+00  0.19960292455E+04  0.19960292455E+04  0.25500000920E-02 0.  1.
       -2   -1    0    0    0  501  0.00000000000E+00  0.00000000000E+00 -0.10610052385E+04  0.10610052385E+04  0.25500000920E-02 0. -1.
    10030    2    1    2    0    0  0.00000000000E+00  0.00000000000E+00  0.93502400706E+03  0.30570344840E+04  0.29105308695E+04 0.  0.
        5    1    3    3  502    0 -0.18808679953E+03  0.14221861419E+04  0.72432999214E+03  0.16070675449E+04  0.46999998093E+01 0.  1.
       -5    1    3    3    0  502  0.18808679953E+03 -0.14221861419E+04  0.21069401492E+03  0.14499669391E+04  0.46999998093E+01 0. -1.
</event>
<event>
 5   0  0.8122088E-06  0.2986470E+04  0.7818609E-02  0.8247605E-01
       -1   -1    0    0    0  501  0.00000000000E+00  0.00000000000E+00  0.94708009635E+03  0.94708009636E+03  0.50400001928E-02 0.  1.
        1   -1    0    0  501    0  0.00000000000E+00  0.00000000000E+00 -0.23543429815E+04  0.23543429815E+04  0.50400001928E-02 0. -1.
    10030    2    1    2    0    0  0.00000000000E+00  0.00000000000E+00 -0.14072628852E+04  0.33014230779E+04  0.29864704103E+04 0.  0.
        1    1    3    3  502    0  0.46425007689E+03 -0.85503267801E+03  0.54858784398E+03  0.11169411967E+04  0.50400001928E-02 0.  1.
       -1    1    3    3    0  502 -0.46425007689E+03  0.85503267801E+03 -0.19558507292E+04  0.21844818812E+04  0.50400001928E-02 0. -1.
</event>
<event>
 5   0  0.1829810E-05  0.1516510E+04  0.7818609E-02  0.8873547E-01
       -2   -1    0    0    0  501  0.00000000000E+00  0.00000000000E+00  0.28989185275E+03  0.28989185276E+03  0.25500000920E-02 0. -1.
        2   -1    0    0  501    0  0.00000000000E+00  0.00000000000E+00 -0.19833292067E+04  0.19833292067E+04  0.25500000920E-02 0.  1.
    10030    2    1    2    0    0  0.00000000000E+00  0.00000000000E+00 -0.16934373540E+04  0.22732210595E+04  0.15165104396E+04 0.  0.
        4    1    3    3  502    0 -0.14239191386E+03 -0.52551241850E+03 -0.16377927224E+04  0.17259216012E+04  0.12699999809E+01 0.  1.
       -4    1    3    3    0  502  0.14239191386E+03  0.52551241850E+03 -0.55644631620E+02  0.54729945830E+03  0.12699999809E+01 0. -1.
</event>
<event>
 5   0  0.8234888E-06  0.1527689E+04  0.7818609E-02  0.8866246E-01
        1   -1    0    0  501    0  0.00000000000E+00  0.00000000000E+00  0.82157542053E+03  0.82157542055E+03  0.50400001928E-02 0. -1.
       -1   -1    0    0    0  501  0.00000000000E+00  0.00000000000E+00 -0.71017035677E+03  0.71017035678E+03  0.50400001928E-02 0.  1.
    10030    2    1    2    0    0  0.00000000000E+00  0.00000000000E+00  0.11140506377E+03  0.15317457773E+04  0.15276891170E+04 0.  0.
        3    1    3    3  502    0 -0.79357500839E+02  0.59524897486E+02 -0.70368413674E+03  0.71064210462E+03  0.10100000352E+00 0.  1.
       -3    1    3    3    0  502  0.79357500839E+02 -0.59524897486E+02  0.81508920050E+03  0.82110367271E+03  0.10100000352E+00 0. -1.
</event>
<event>
 5   0  0.8055928E-06  0.2994372E+04  0.7818609E-02  0.8245340E-01
        1   -1    0    0  501    0  0.00000000000E+00  0.00000000000E+00  0.17181996991E+04  0.17181996991E+04  0.50400001928E-02 0.  1.
       -1   -1    0    0    0  501  0.00000000000E+00  0.00000000000E+00 -0.13046017804E+04  0.13046017804E+04  0.50400001928E-02 0. -1.
    10030    2    1    2    0    0  0.00000000000E+00  0.00000000000E+00  0.41359791873E+03  0.30228014795E+04  0.29943723125E+04 0.  0.
        2    1    3    3  502    0 -0.47022767078E+03 -0.71303885950E+03 -0.10345209796E+04  0.13415558635E+04  0.25500000920E-02 0. -1.
       -2    1    3    3    0  502  0.47022767078E+03  0.71303885950E+03  0.14481188983E+04  0.16812456160E+04  0.25500000920E-02 0.  1.
</event>
<event>
 5   0  0.8055928E-06  0.2015909E+04  0.7818609E-02  0.8599219E-01
        1   -1    0    0  501    0  0.00000000000E+00  0.00000000000E+00  0.12988785518E+04  0.12988785518E+04  0.50400001928E-02 0.  1.
       -1   -1    0    0    0  501  0.00000000000E+00  0.00000000000E+00 -0.78219185260E+03  0.78219185261E+03  0.50400001928E-02 0. -1.
    10030    2    1    2    0    0  0.00000000000E+00  0.00000000000E+00  0.51668669922E+03  0.20810704044E+04  0.20159089471E+04 0.  0.
        2    1    3    3  502    0  0.26871577281E+03  0.42491502232E+03 -0.64351483365E+03  0.81662248554E+03  0.25500000920E-02 0. -1.
       -2    1    3    3    0  502 -0.26871577281E+03 -0.42491502232E+03  0.11602015329E+04  0.12644479189E+04  0.25500000920E-02 0.  1.
</event>
<event>
 5   0  0.8122088E-06  0.2920366E+04  0.7818609E-02  0.8266844E-01
        1   -1    0    0  501    0  0.00000000000E+00  0.00000000000E+00  0.20092925104E+04  0.20092925104E+04  0.50400001928E-02 0.  1.
       -1   -1    0    0    0  501  0.00000000000E+00  0.00000000000E+00 -0.10611365921E+04  0.10611365921E+04  0.50400001928E-02 0. -1.
    10030    2    1    2    0    0  0.00000000000E+00  0.00000000000E+00  0.94815591827E+03  0.30704291024E+04  0.29203655983E+04 0.  0.
        1    1    3    3  502    0  0.70358419713E+03 -0.43492660712E+03  0.17392145665E+04  0.19258917894E+04  0.50400001928E-02 0.  1.
       -1    1    3    3    0  502 -0.70358419713E+03  0.43492660712E+03 -0.79105864823E+03  0.11445373131E+04  0.50400001928E-02 0. -1.
</event>
<event>
 5   0  0.7971153E-06  0.2569250E+04  0.7818609E-02  0.8378722E-01
       -1   -1    0    0    0  501  0.00000000000E+00  0.00000000000E+00  0.18895354432E+04  0.18895354432E+04  0.50400001928E-02 0. -1.
        1   -1    0    0  501    0  0.00000000000E+00  0.00000000000E+00 -0.87336856327E+03  0.87336856328E+03  0.50400001928E-02 0.  1.
    10030    2    1    2    0    0  0.00000000000E+00  0.00000000000E+00  0.10161668799E+04  0.27629040065E+04  0.25692495833E+04 0.  0.
        5    1    3    3  502    0  0.90016674468E+03 -0.89353537143E+03  0.28892567174E+03  0.13008480934E+04  0.46999998093E+01 0.  1.
       -5    1    3    3    0  502 -0.90016674468E+03  0.89353537143E+03  0.72724120819E+03  0.14620559131E+04  0.46999998093E+01 0. -1.
</event>
<event>
 5   0  0.8055928E-06  0.2922735E+04  0.7818609E-02  0.8266145E-01
        1   -1    0    0  501    0  0.00000000000E+00  0.00000000000E+00  0.22726624542E+04  0.22726624542E+04  0.50400001928E-02 0. -1.
       -1   -1    0    0    0  501  0.00000000000E+00  0.00000000000E+00 -0.93968843091E+03  0.93968843092E+03  0.50400001928E-02 0.  1.
    10030    2    1    2    0    0  0.00000000000E+00  0.00000000000E+00  0.13329740233E+04  0.32123508852E+04  0.29227347575E+04 0.  0.
        2    1    3    3  502    0 -0.58029782959E+03 -0.90308401544E+03  0.17563552844E+04  0.20584193438E+04  0.25500000920E-02 0. -1.
       -2    1    3    3    0  502  0.58029782959E+03  0.90308401544E+03 -0.42338126104E+03  0.11539315414E+04  0.25500000920E-02 0.  1.
</event>
<event>
 5   0  0.1829810E-05  0.2928415E+04  0.7818609E-02  0.8264473E-01
       -2   -1    0    0    0  501  0.00000000000E+00  0.00000000000E+00  0.14864720757E+04  0.14864720757E+04  0.25500000920E-02 0.  1.
        2   -1    0    0  501    0  0.00000000000E+00  0.00000000000E+00 -0.14422762884E+04  0.14422762884E+04  0.25500000920E-02 0. -1.
    10030    2    1    2    0    0  0.00000000000E+00  0.00000000000E+00  0.44195787293E+02  0.29287483642E+04  0.29284148806E+04 0.  0.
        4    1    3    3  502    0 -0.14163393370E+04  0.10648253049E+02 -0.34911995693E+03  0.14587723812E+04  0.12699999809E+01 0.  1.
       -4    1    3    3    0  502  0.14163393370E+04 -0.10648253049E+02  0.39331574422E+03  0.14699759830E+04  0.12699999809E+01 0. -1.
</event>
<event>
 5   0  0.1829810E-05  0.2290571E+04  0.7818609E-02  0.8481648E-01
        2   -1    0    0  501    0  0.00000000000E+00  0.00000000000E+00  0.66464279799E+03  0.66464279800E+03  0.25500000920E-02 0. -1.
       -2   -1    0    0    0  501  0.00000000000E+00  0.00000000000E+00 -0.19735093421E+04  0.19735093421E+04  0.25500000920E-02 0.  1.
    10030    2    1    2    0    0  0.00000000000E+00  0.00000000000E+00 -0.13088665441E+04  0.26381521401E+04  0.22905709079E+04 0.  0.
        4    1    3    3  502    0 -0.62344584179E+02 -0.66319457287E+03  0.41858414233E+03  0.78671989029E+03  0.12699999809E+01 0. -1.
       -4    1    3    3    0  502  0.62344584179E+02  0.66319457287E+03 -0.17274506864E+04  0.18514322498E+04  0.12699999809E+01 0.  1.
</event>
<event>
 5   0  0.1829810E-05  0.2882939E+04  0.7818609E-02  0.8277972E-01
        2   -1    0    0  501    0  0.00000000000E+00  0.00000000000E+00  0.20515636812E+04  0.20515636812E+04  0.25500000920E-02 0.  1.
       -2   -1    0    0    0  501  0.00000000000E+00  0.00000000000E+00 -0.10128053627E+04  0.10128053627E+04  0.25500000920E-02 0. -1.
    10030    2    1    2    0    0  0.00000000000E+00  0.00000000000E+00  0.10387583185E+04  0.30643690439E+04  0.28829392628E+04 0.  0.
        4    1    3    3  502    0 -0.79383235352E+03 -0.10290954098E+04 -0.14325138919E+03  0.13075663430E+04  0.12699999809E+01 0. -1.
       -4    1    3    3    0  502  0.79383235352E+03  0.10290954098E+04  0.11820097077E+04  0.17568027009E+04  0.12699999809E+01 0.  1.
</event>
<event>
 5   0  0.7305460E-06  0.2820980E+04  0.7818609E-02  0.8296784E-01
       -1   -1    0    0    0  501  0.00000000000E+00  0.00000000000E+00  0.11752405300E+04  0.11752405300E+04  0.50400001928E-02 0.  1.
        1   -1    0    0  501    0  0.00000000000E+00  0.00000000000E+00 -0.16928301014E+04  0.16928301014E+04  0.50400001928E-02 0. -1.
    10030    2    1    2    0    0  0.00000000000E+00  0.00000000000E+00 -0.51758957140E+03  0.28680706315E+04  0.28209803584E+04 0.  0.
        4    1    3    3  502    0  0.68575998446E+03 -0.79143637929E+03  0.70188187571E+03  0.12606657285E+04  0.12699999809E+01 0.  1.
       -4    1    3    3    0  502 -0.68575998446E+03  0.79143637929E+03 -0.12194714471E+04  0.16074049029E+04  0.12699999809E+01 0. -1.
</event>
<event>
 5   0  0.7305460E-06  0.2894541E+04  0.7818609E-02  0.8274503E-01
       -1   -1    0    0    0  501  0.00000000000E+00  0.00000000000E+00  0.12409898313E+04  0.12409898313E+04  0.50400001928E-02 0.  1.
        1   -1    0    0  501    0  0.00000000000E+00  0.00000000000E+00 -0.16878400722E+04  0.16878400722E+04  0.50400001928E-02 0. -1.
    10030    2    1    2    0    0  0.00000000000E+00  0.00000000000E+00 -0.44685024093E+03  0.29288299035E+04  0.28945413222E+04 0.  0.
        4    1    3    3  502    0 -0.10367607774E+04 -0.49266072051E+03  0.66849470239E+03  0.13283351517E+04  0.12699999809E+01 0.  1.
       -4    1    3    3    0  502  0.10367607774E+04  0.49266072051E+03 -0.11153449433E+04  0.16004947518E+04  0.12699999809E+01 0. -1.
</event>
<event>
 5   0  0.1960961E-05  0.1499853E+04  0.7818609E-02  0.8884550E-01
        2   -1    0    0  501    0  0.00000000000E+00  0.00000000000E+00  0.20022820397E+04  0.20022820397E+04  0.25500000920E-02 0. -1.
       -2   -1    0    0    0  501  0.00000000000E+00  0.00000000000E+00 -0.28087450142E+03  0.28087450143E+03  0.25500000920E-02 0.  1.
    10030    2    1    2    0    0  0.00000000000E+00  0.00000000000E+00  0.17214075382E+04  0.22831565411E+04  0.14998532856E+04 0.  0.
        5    1    3    3  502    0  0.47291999232E+03 -0.58188144913E+03  0.84344517504E+03  0.11285659898E+04  0.46999998093E+01 0. -1.
       -5    1    3    3    0  502 -0.47291999232E+03  0.58188144913E+03  0.87796236319E+03  0.11545905513E+04  0.46999998093E+01 0.  1.
</event>
<event>
 5   0  0.7971153E-06  0.2885804E+04  0.7818609E-02  0.8277114E-01
        1   -1    0    0  501    0  0.00000000000E+00  0.00000000000E+00  0.17136988762E+04  0.17136988762E+04  0.50400001928E-02 0. -1.
       -1   -1    0    0    0  501  0.00000000000E+00  0.00000000000E+00 -0.12148957848E+04  0.12148957849E+04  0.50400001928E-02 0.  1.
    10030    2    1    2    0    0  0.00000000000E+00  0.00000000000E+00  0.49880309134E+03  0.29285946610E+04  0.28858035562E+04 0.  0.
        5    1    3    3  502    0  0.74843198499E+03 -0.10442585861E+03  0.14968099756E+04  0.16767579995E+04  0.46999998093E+01 0. -1.
       -5    1    3    3    0  502 -0.74843198499E+03  0.10442585861E+03 -0.99800688422E+03  0.12518366615E+04  0.46999998093E+01 0.  1.
</event>
<event>
 5   0  0.6578125E-06  0.2889275E+04  0.7818609E-02  0.8276076E-01
        3   -1    0    0  501    0  0.00000000000E+00  0.00000000000E+00  0.11516385600E+04  0.11516385644E+04  0.10100000352E+00 0. -1.
       -3   -1    0    0    0  501  0.00000000000E+00  0.00000000000E+00 -0.18121814886E+04  0.18121814914E+04  0.10100000352E+00 0.  1.
    10030    2    1    2    0    0  0.00000000000E+00  0.00000000000E+00 -0.66054292864E+03  0.29638200558E+04  0.28892754045E+04 0.  0.
        4    1    3    3  502    0  0.12554707614E+04  0.66208879710E+03 -0.60630152286E+03  0.15434285074E+04  0.12699999809E+01 0.  1.
       -4    1    3    3    0  502 -0.12554707614E+04 -0.66208879710E+03 -0.54241405780E+02  0.14203915484E+04  0.12699999809E+01 0. -1.
</event>
<event>
 5   0  0.1976233E-05  0.2863548E+04  0.7818609E-02  0.8283806E-01
        2   -1    0    0  501    0  0.00000000000E+00  0.00000000000E+00  0.15273811030E+04  0.15273811030E+04  0.25500000920E-02 0.  1.
       -2   -1    0    0    0  501  0.00000000000E+00  0.00000000000E+00 -0.13421511929E+04  0.13421511929E+04  0.25500000920E-02 0. -1.
    10030    2    1    2    0    0  0.00000000000E+00  0.00000000000E+00  0.18522991009E+03  0.28695322959E+04  0.28635477082E+04 0.  0.
        2    1    3    3  502    0 -0.51987080150E+03 -0.95270005274E+03  0.10284152894E+04  0.14951725814E+04  0.25500000920E-02 0.  1.
       -2    1    3    3    0  502  0.51987080150E+03  0.95270005274E+03 -0.84318537933E+03  0.13743597144E+04  0.25500000920E-02 0. -1.
</event>
<event>
 5   0  0.8234888E-06  0.2922747E+04  0.7818609E-02  0.8266141E-01
        1   -1    0    0  501    0  0.00000000000E+00  0.00000000000E+00  0.12506080067E+04  0.12506080067E+04  0.50400001928E-02 0.  1.
       -1   -1    0    0    0  501  0.00000000000E+00  0.00000000000E+00 -0.17076598538E+04  0.17076598539E+04  0.50400001928E-02 0. -1.
    10030    2    1    2    0    0  0.00000000000E+00  0.00000000000E+00 -0.45705184716E+03  0.29582678606E+04  0.29227473965E+04 0.  0.
        3    1    3    3  502    0  0.11120948007E+04 -0.93687992915E+03 -0.81452629666E+02  0.14564111331E+04  0.10100000352E+00 0. -1.
       -3    1    3    3    0  502 -0.11120948007E+04  0.93687992915E+03 -0.37559921750E+03  0.15018567275E+04  0.10100000352E+00 0.  1.
</event>
<event>
 5   0  0.1937947E-05  0.2715856E+04  0.7818609E-02  0.8329878E-01
        2   -1    0    0  501    0  0.00000000000E+00  0.00000000000E+00  0.13417886016E+04  0.13417886016E+04  0.25500000920E-02 0. -1.
       -2   -1    0    0    0  501  0.00000000000E+00  0.00000000000E+00 -0.13742618274E+04  0.13742618274E+04  0.25500000920E-02 0.  1.
    10030    2    1    2    0    0  0.00000000000E+00  0.00000000000E+00 -0.32473225863E+02  0.27160504290E+04  0.27158562963E+04 0.  0.
        3    1    3    3  502    0  0.79137936807E+03 -0.25944064842E+03  0.10563968556E+04  0.13452007586E+04  0.10100000352E+00 0. -1.
       -3    1    3    3    0  502 -0.79137936807E+03  0.25944064842E+03 -0.10888700815E+04  0.13708496704E+04  0.10100000352E+00 0.  1.
</event>
<event>
 5   0  0.1829810E-05  0.2927523E+04  0.7818609E-02  0.8264735E-01
       -2   -1    0    0    0  501  0.00000000000E+00  0.00000000000E+00  0.11179583645E+04  0.11179583645E+04  0.25500000920E-02 0.  1.
        2   -1    0    0  501    0  0.00000000000E+00  0.00000000000E+00 -0.19165271290E+04  0.19165271290E+04  0.25500000920E-02 0. -1.
    10030    2    1    2    0    0  0.00000000000E+00  0.00000000000E+00 -0.79856876446E+03  0.30344854935E+04  0.29275228673E+04 0.  0.
        4    1    3    3  502    0  0.34772051010E+03 -0.44114511869E+02 -0.18723854109E+04  0.19049105972E+04  0.12699999809E+01 0. -1.
       -4    1    3    3    0  502 -0.34772051010E+03  0.44114511869E+02  0.10738166465E+04  0.11295748963E+04  0.12699999809E+01 0.  1.
</event>
<event>
 5   0  0.1829810E-05  0.2878374E+04  0.7818609E-02  0.8279341E-01
        2   -1    0    0  501    0  0.00000000000E+00  0.00000000000E+00  0.13010956864E+04  0.13010956864E+04  0.25500000920E-02 0. -1.
       -2   -1    0    0    0  501  0.00000000000E+00  0.00000000000E+00 -0.15919351229E+04  0.15919351229E+04  0.25500000920E-02 0.  1.
    10030    2    1    2    0    0  0.00000000000E+00  0.00000000000E+00 -0.29083943655E+03  0.28930308093E+04  0.28783744867E+04 0.  0.
        4    1    3    3  502    0 -0.64814886578E+03 -0.79419851415E+03 -0.11607167850E+04  0.15485842889E+04  0.12699999809E+01 0.  1.
       -4    1    3    3    0  502  0.64814886578E+03  0.79419851415E+03  0.86987734841E+03  0.13444465204E+04  0.12699999809E+01 0. -1.
</event>
<event>
 5   0  0.8055928E-06  0.2914360E+04  0.7818609E-02  0.8268618E-01
       -1   -1    0    0    0  501  0.00000000000E+00  0.00000000000E+00  0.72689615720E+03  0.72689615721E+03  0.50400001928E-02 0. -1.
        1   -1    0    0  501    0  0.00000000000E+00  0.00000000000E+00 -0.29211503632E+04  0.29211503632E+04  0.50400001928E-02 0.  1.
    10030    2    1    2    0    0  0.00000000000E+00  0.00000000000E+00 -0.21942542060E+04  0.36480465204E+04  0.29143596028E+04 0.  0.
        2    1    3    3  502    0 -0.41385568040E+03 -0.24056604281E+03 -0.28199194985E+04  0.28602612684E+04  0.25500000920E-02 0.  1.
       -2    1    3    3    0  502  0.41385568040E+03  0.24056604281E+03  0.62566529249E+03  0.78778525208E+03  0.25500000920E-02 0. -1.
</event>
<event>
 5   0  0.1918901E-05  0.2696580E+04  0.7818609E-02  0.8336116E-01
       -2   -1    0    0    0  501  0.00000000000E+00  0.00000000000E+00  0.99439532755E+03  0.99439532756E+03  0.25500000920E-02 0.  1.
        2   -1    0    0  501    0  0.00000000000E+00  0.00000000000E+00 -0.18281317326E+04  0.18281317326E+04  0.25500000920E-02 0. -1.
    10030    2    1    2    0    0  0.00000000000E+00  0.00000000000E+00 -0.83373640502E+03  0.28225270601E+04  0.26965797990E+04 0.  0.
        1    1    3    3  502    0 -0.47393313170E+03 -0.94315758306E+03 -0.12949336484E+04  0.16706322137E+04  0.50400001928E-02 0.  1.
       -1    1    3    3    0  502  0.47393313170E+03  0.94315758306E+03  0.46119724338E+03  0.11518948464E+04  0.50400001928E-02 0. -1.
</event>
<event>
 5   0  0.8122088E-06  0.2914323E+04  0.7818609E-02  0.8268629E-01
       -1   -1    0    0    0  501  0.00000000000E+00  0.00000000000E+00  0.19236180601E+04  0.19236180601E+04  0.50400001928E-02 0. -1.
        1   -1    0    0  501    0  0.00000000000E+00  0.00000000000E+00 -0.11038157689E+04  0.11038157689E+04  0.50400001928E-02 0.  1.
    10030    2    1    2    0    0  0.00000000000E+00  0.00000000000E+00  0.81980229117E+03  0.30274338290E+04  0.29143232135E+04 0.  0.
        1    1    3    3  502    0  0.19469228061E+03  0.90714243981E+03 -0.75732207838E+03  0.11976431942E+04  0.50400001928E-02 0.  1.
       -1    1    3    3    0  502 -0.19469228061E+03 -0.90714243981E+03  0.15771243696E+04  0.18297906348E+04  0.50400001928E-02 0. -1.
</event>
<event>
 5   0  0.7971153E-06  0.2746107E+04  0.7818609E-02  0.8320198E-01
        1   -1    0    0  501    0  0.00000000000E+00  0.00000000000E+00  0.17335068161E+04  0.17335068161E+04  0.50400001928E-02 0. -1.
       -1   -1    0    0    0  501  0.00000000000E+00  0.00000000000E+00 -0.10875506913E+04  0.10875506913E+04  0.50400001928E-02 0.  1.
    10030    2    1    2    0    0  0.00000000000E+00  0.00000000000E+00  0.64595612481E+03  0.28210575075E+04  0.27461074533E+04 0.  0.
        5    1    3    3  502    0 -0.82185889444E+03  0.75918936579E+03  0.11405859401E+04  0.15977418165E+04  0.46999998093E+01 0. -1.
       -5    1    3    3    0  502  0.82185889444E+03 -0.75918936579E+03 -0.49462981531E+03  0.12233156909E+04  0.46999998093E+01 0.  1.
</event>
<event>
 5   0  0.1918901E-05  0.2783457E+04  0.7818609E-02  0.8308423E-01
       -2   -1    0    0    0  501  0.00000000000E+00  0.00000000000E+00  0.15387676648E+04  0.15387676648E+04  0.25500000920E-02 0.  1.
        2   -1    0    0  501    0  0.00000000000E+00  0.00000000000E+00 -0.12587400843E+04  0.12587400844E+04  0.25500000920E-02 0. -1.
    10030    2    1    2    0    0  0.00000000000E+00  0.00000000000E+00  0.28002758041E+03  0.27975077491E+04  0.27834572317E+04 0.  0.
        1    1    3    3  502    0 -0.13495507373E+04 -0.13247155671E+03  0.45476011375E+03  0.14302596502E+04  0.50400001928E-02 0. -1.
       -1    1    3    3    0  502  0.13495507373E+04  0.13247155671E+03 -0.17473253334E+03  0.13672480989E+04  0.50400001928E-02 0.  1.
</event>
<event>
 5   0  0.7971153E-06  0.2887087E+04  0.7818609E-02  0.8276730E-01
       -1   -1    0    0    0  501  0.00000000000E+00  0.00000000000E+00  0.86216439501E+03  0.86216439503E+03  0.50400001928E-02 0.  1.
        1   -1    0    0  501    0  0.00000000000E+00  0.00000000000E+00 -0.24169617967E+04  0.24169617967E+04  0.50400001928E-02 0. -1.
    10030    2    1    2    0    0  0.00000000000E+00  0.00000000000E+00 -0.15547974017E+04  0.32791261918E+04  0.28870873941E+04 0.  0.
        5    1    3    3  502    0 -0.51790158763E+03 -0.48215289097E+03  0.65166887321E+03  0.96197082858E+03  0.46999998093E+01 0.  1.
       -5    1    3    3    0  502  0.51790158763E+03  0.48215289097E+03 -0.22064662749E+04  0.23171553632E+04  0.46999998093E+01 0. -1.
</event>
<event>
 5   0  0.8234888E-06  0.2898420E+04  0.7818609E-02  0.8273348E-01
       -1   -1    0    0    0  501  0.00000000000E+00  0.00000000000E+00  0.16999130967E+04  0.16999130967E+04  0.50400001928E-02 0. -1.
        1   -1    0    0  501    0  0.00000000000E+00  0.00000000000E+00 -0.12354809838E+04  0.12354809838E+04  0.50400001928E-02 0.  1.
    10030    2    1    2    0    0  0.00000000000E+00  0.00000000000E+00  0.46443211287E+03  0.29353940805E+04  0.28984204699E+04 0.  0.
        3    1    3    3  502    0  0.75883612369E+02  0.43522086780E+02  0.16972367436E+04  0.16994896495E+04  0.10100000352E+00 0. -1.
       -3    1    3    3    0  502 -0.75883612369E+02 -0.43522086780E+02 -0.12328046308E+04  0.12359044310E+04  0.10100000352E+00 0.  1.
</event>
<event>
 5   0  0.7305460E-06  0.2896781E+04  0.7818609E-02  0.8273836E-01
       -1   -1    0    0    0  501  0.00000000000E+00  0.00000000000E+00  0.97128175332E+03  0.97128175333E+03  0.50400001928E-02 0.  1.
        1   -1    0    0  501    0  0.00000000000E+00  0.00000000000E+00 -0.21598630649E+04  0.21598630649E+04  0.50400001928E-02 0. -1.
    10030    2    1    2    0    0  0.00000000000E+00  0.00000000000E+00 -0.11885813116E+04  0.31311448182E+04  0.28967813757E+04 0.  0.
        4    1    3    3  502    0 -0.42171577438E+03 -0.10838729392E+04  0.33880581622E+03  0.12113693642E+04  0.12699999809E+01 0.  1.
       -4    1    3    3    0  502  0.42171577438E+03  0.10838729392E+04 -0.15273871278E+04  0.19197754540E+04  0.12699999809E+01 0. -1.
</event>
<event>
 5   0  0.1960961E-05  0.2616256E+04  0.7818609E-02  0.8362700E-01
       -2   -1    0    0    0  501  0.00000000000E+00  0.00000000000E+00  0.10890682606E+04  0.10890682606E+04  0.25500000920E-02 0. -1.
        2   -1    0    0  501    0  0.00000000000E+00  0.00000000000E+00 -0.15712498454E+04  0.15712498454E+04  0.25500000920E-02 0.  1.
    10030    2    1    2    0    0  0.00000000000E+00  0.00000000000E+00 -0.48218158481E+03  0.26603181060E+04  0.26162555962E+04 0.  0.
        5    1    3    3  502    0  0.61438951258E+03 -0.58423489969E+03 -0.12540466259E+04  0.15137568897E+04  0.46999998093E+01 0.  1.
       -5    1    3    3    0  502 -0.61438951258E+03  0.58423489969E+03  0.77186504108E+03  0.11465612163E+04  0.46999998093E+01 0. -1.
</event>
<event>
 5   0  0.1918901E-05  0.2892500E+04  0.7818609E-02  0.8275112E-01
        2   -1    0    0  501    0  0.00000000000E+00  0.00000000000E+00  0.16006056386E+04  0.16006056386E+04  0.25500000920E-02 0.  1.
       -2   -1    0    0    0  501  0.00000000000E+00  0.00000000000E+00 -0.13067798865E+04  0.13067798865E+04  0.25500000920E-02 0. -1.
    10030    2    1    2    0    0  0.00000000000E+00  0.00000000000E+00  0.29382575210E+03  0.29073855251E+04  0.28925001329E+04 0.  0.
        1    1    3    3  502    0 -0.69031990290E+03 -0.12704912415E+04  0.11593721715E+03  0.14505623052E+04  0.50400001928E-02 0. -1.
       -1    1    3    3    0  502  0.69031990290E+03  0.12704912415E+04  0.17788853496E+03  0.14568232198E+04  0.50400001928E-02 0.  1.
</event>
<event>
 5   0  0.8055928E-06  0.2887834E+04  0.7818609E-02  0.8276507E-01
        1   -1    0    0  501    0  0.00000000000E+00  0.00000000000E+00  0.19178360592E+04  0.19178360592E+04  0.50400001928E-02 0. -1.
       -1   -1    0    0    0  501  0.00000000000E+00  0.00000000000E+00 -0.10871083861E+04  0.10871083861E+04  0.50400001928E-02 0.  1.
    10030    2    1    2    0    0  0.00000000000E+00  0.00000000000E+00  0.83072767305E+03  0.30049444453E+04  0.28878335569E+04 0.  0.
        2    1    3    3  502    0 -0.13940799319E+03 -0.65234957767E+03  0.17478819388E+04  0.18708516328E+04  0.25500000920E-02 0. -1.
       -2    1    3    3    0  502  0.13940799319E+03  0.65234957767E+03 -0.91715426576E+03  0.11340928125E+04  0.25500000920E-02 0.  1.
</event>
<event>
 5   0  0.7971153E-06  0.1936097E+04  0.7818609E-02  0.8637094E-01
       -1   -1    0    0    0  501  0.00000000000E+00  0.00000000000E+00  0.82618439204E+03  0.82618439206E+03  0.50400001928E-02 0. -1.
        1   -1    0    0  501    0  0.00000000000E+00  0.00000000000E+00 -0.11342726082E+04  0.11342726083E+04  0.50400001928E-02 0.  1.
    10030    2    1    2    0    0  0.00000000000E+00  0.00000000000E+00 -0.30808821621E+03  0.19604570003E+04  0.19360974410E+04 0.  0.
        5    1    3    3  502    0  0.72988349271E+03  0.62410002072E+03 -0.30585984052E+02  0.96082690491E+03  0.46999998093E+01 0. -1.
       -5    1    3    3    0  502 -0.72988349271E+03 -0.62410002072E+03 -0.27750223216E+03  0.99963009540E+03  0.46999998093E+01 0.  1.
</event>
<event>
 5   0  0.1937947E-05  0.1984970E+04  0.7818609E-02  0.8613680E-01
       -2   -1    0    0    0  501  0.00000000000E+00  0.00000000000E+00  0.34719232375E+03  0.34719232376E+03  0.25500000920E-02 0.  1.
        2   -1    0    0  501    0  0.00000000000E+00  0.00000000000E+00 -0.28371192136E+04  0.28371192136E+04  0.25500000920E-02 0. -1.
    10030    2    1    2    0    0  0.00000000000E+00  0.00000000000E+00 -0.24899268899E+04  0.31843115374E+04  0.19849695338E+04 0.  0.
        3    1    3    3  502    0  0.18566874442E+03  0.97462358994E+03 -0.12036887987E+04  0.15598816490E+04  0.10100000352E+00 0. -1.
       -3    1    3    3    0  502 -0.18566874442E+03 -0.97462358994E+03 -0.12862380912E+04  0.16244298883E+04  0.10100000352E+00 0.  1.
</event>
<event>
 5   0  0.1918901E-05  0.2891961E+04  0.7818609E-02  0.8275273E-01
       -2   -1    0    0    0  501  0.00000000000E+00  0.00000000000E+00  0.84195128480E+03  0.84195128480E+03  0.25500000920E-02 0.  1.
        2   -1    0    0  501    0  0.00000000000E+00  0.00000000000E+00 -0.24833499134E+04  0.24833499134E+04  0.25500000920E-02 0. -1.
    10030    2    1    2    0    0  0.00000000000E+00  0.00000000000E+00 -0.16413986286E+04  0.33253011982E+04  0.28919610303E+04 0.  0.
        1    1    3    3  502    0  0.23491402129E+03  0.66278215745E+03  0.63211032724E+03  0.94553067188E+03  0.50400001928E-02 0.  1.
       -1    1    3    3    0  502 -0.23491402129E+03 -0.66278215745E+03 -0.22735089558E+04  0.23797705263E+04  0.50400001928E-02 0. -1.
</event>
<event>
 5   0  0.6578125E-06  0.2918290E+04  0.7818609E-02  0.8267456E-01
        3   -1    0    0  501    0  0.00000000000E+00  0.00000000000E+00  0.11373905098E+04  0.11373905143E+04  0.10100000352E+00 0. -1.
       -3   -1    0    0    0  501  0.00000000000E+00  0.00000000000E+00 -0.18719197299E+04  0.18719197326E+04  0.10100000352E+00 0.  1.
    10030    2    1    2    0    0  0.00000000000E+00  0.00000000000E+00 -0.73452922006E+03  0.30093102469E+04  0.29182897366E+04 0.  0.
        1    1    3    3  502    0 -0.13703019712E+04  0.18581895477E+03  0.11292840281E+03  0.13874469361E+04  0.50400001928E-02 0. -1.
       -1    1    3    3    0  502  0.13703019712E+04 -0.18581895477E+03 -0.84745762287E+03  0.16218633108E+04  0.50400001928E-02 0.  1.
</event>
<event>
 5   0  0.8055928E-06  0.2909951E+04  0.7818609E-02  0.8269923E-01
        1   -1    0    0  501    0  0.00000000000E+00  0.00000000000E+00  0.16412167821E+04  0.16412167821E+04  0.50400001928E-02 0.  1.
       -1   -1    0    0    0  501  0.00000000000E+00  0.00000000000E+00 -0.12898687971E+04  0.12898687971E+04  0.50400001928E-02 0. -1.
    10030    2    1    2    0    0  0.00000000000E+00  0.00000000000E+00  0.35134798501E+03  0.29310855792E+04  0.29099514198E+04 0.  0.
        2    1    3    3  502    0 -0.23785314390E+03 -0.53210386668E+03 -0.11671419627E+04  0.13045800107E+04  0.25500000920E-02 0. -1.
       -2    1    3    3    0  502  0.23785314390E+03  0.53210386668E+03  0.15184899478E+04  0.16265055685E+04  0.25500000920E-02 0.  1.
</event>
<event>
 5   0  0.7971153E-06  0.3006674E+04  0.7818609E-02  0.8241828E-01
        1   -1    0    0  501    0  0.00000000000E+00  0.00000000000E+00  0.13339611121E+04  0.13339611121E+04  0.50400001928E-02 0.  1.
       -1   -1    0    0    0  501  0.00000000000E+00  0.00000000000E+00 -0.16942188849E+04  0.16942188849E+04  0.50400001928E-02 0. -1.
    10030    2    1    2    0    0  0.00000000000E+00  0.00000000000E+00 -0.36025777275E+03  0.30281799970E+04  0.30066739816E+04 0.  0.
        5    1    3    3  502    0  0.39418498429E+03 -0.14021171474E+04  0.19494015755E+03  0.14694686291E+04  0.46999998093E+01 0.  1.
       -5    1    3    3    0  502 -0.39418498429E+03  0.14021171474E+04 -0.55519793030E+03  0.15587113679E+04  0.46999998093E+01 0. -1.
</event>
<event>
 5   0  0.8055928E-06  0.2896521E+04  0.7818609E-02  0.8273913E-01
        1   -1    0    0  501    0  0.00000000000E+00  0.00000000000E+00  0.14343739360E+04  0.14343739360E+04  0.50400001928E-02 0. -1.
       -1   -1    0    0    0  501  0.00000000000E+00  0.00000000000E+00 -0.14622810172E+04  0.14622810172E+04  0.50400001928E-02 0.  1.
    10030    2    1    2    0    0  0.00000000000E+00  0.00000000000E+00 -0.27907081236E+02  0.28966549532E+04  0.28965205182E+04 0.  0.
        2    1    3    3  502    0 -0.46114059548E+03  0.10648064883E+04 -0.88059301853E+03  0.14566768930E+04  0.25500000920E-02 0.  1.
       -2    1    3    3    0  502  0.46114059548E+03 -0.10648064883E+04  0.85268593730E+03  0.14399780602E+04  0.25500000920E-02 0. -1.
</event>
<event>
 5   0  0.7971153E-06  0.1880012E+04  0.7818609E-02  0.8664870E-01
       -1   -1    0    0    0  501  0.00000000000E+00  0.00000000000E+00  0.80006487639E+03  0.80006487640E+03  0.50400001928E-02 0. -1.
        1   -1    0    0  501    0  0.00000000000E+00  0.00000000000E+00 -0.11044245860E+04  0.11044245861E+04  0.50400001928E-02 0.  1.
    10030    2    1    2    0    0  0.00000000000E+00  0.00000000000E+00 -0.30435970965E+03  0.19044894625E+04  0.18800120424E+04 0.  0.
        5    1    3    3  502    0  0.27217008358E+03 -0.31078860094E+03 -0.10075208602E+04  0.10889382363E+04  0.46999998093E+01 0.  1.
       -5    1    3    3    0  502 -0.27217008358E+03  0.31078860094E+03  0.70316115050E+03  0.81555122613E+03  0.46999998093E+01 0. -1.
</event>
<event>
 5   0  0.8055928E-06  0.2848675E+04  0.7818609E-02  0.8288314E-01
       -1   -1    0    0    0  501  0.00000000000E+00  0.00000000000E+00  0.13695603364E+04  0.13695603364E+04  0.50400001928E-02 0. -1.
        1   -1    0    0  501    0  0.00000000000E+00  0.00000000000E+00 -0.14813052284E+04  0.14813052284E+04  0.50400001928E-02 0.  1.
    10030    2    1    2    0    0  0.00000000000E+00  0.00000000000E+00 -0.11174489203E+03  0.28508655648E+04  0.28486747002E+04 0.  0.
        2    1    3    3  502    0 -0.37561372109E+03  0.12931806962E+04 -0.52027125539E+03  0.14436357434E+04  0.25500000920E-02 0.  1.
       -2    1    3    3    0  502  0.37561372109E+03 -0.12931806962E+04  0.40852636335E+03  0.14072298214E+04  0.25500000920E-02 0. -1.
</event>
<event>
 5   0  0.1937947E-05  0.2777210E+04  0.7818609E-02  0.8310379E-01
       -2   -1    0    0    0  501  0.00000000000E+00  0.00000000000E+00  0.81966788666E+03  0.81966788666E+03  0.25500000920E-02 0.  1.
        2   -1    0    0  501    0  0.00000000000E+00  0.00000000000E+00 -0.23524459712E+04  0.23524459712E+04  0.25500000920E-02 0. -1.
    10030    2    1    2    0    0  0.00000000000E+00  0.00000000000E+00 -0.15327780846E+04  0.31721138579E+04  0.27772104117E+04 0.  0.
        3    1    3    3  502    0 -0.21668617400E+03  0.11570771777E+04 -0.16076241773E+04  0.19925451058E+04  0.10100000352E+00 0. -1.
       -3    1    3    3    0  502  0.21668617400E+03 -0.11570771777E+04  0.74846092721E+02  0.11795687521E+04  0.10100000352E+00 0.  1.
</event>
<event>
 5   0  0.1976233E-05  0.2103011E+04  0.7818609E-02  0.8559918E-01
        2   -1    0    0  501    0  0.00000000000E+00  0.00000000000E+00  0.80656219134E+03  0.80656219134E+03  0.25500000920E-02 0.  1.
       -2   -1    0    0    0  501  0.00000000000E+00  0.00000000000E+00 -0.13708348450E+04  0.13708348450E+04  0.25500000920E-02 0. -1.
    10030    2    1    2    0    0  0.00000000000E+00  0.00000000000E+00 -0.56427265363E+03  0.21773970363E+04  0.21030107527E+04 0.  0.
        2    1    3    3  502    0 -0.10502768378E+03 -0.74019919418E+03 -0.10477077649E+04  0.12870964308E+04  0.25500000920E-02 0. -1.
       -2    1    3    3    0  502  0.10502768378E+03  0.74019919418E+03  0.48343511128E+03  0.89030060555E+03  0.25500000920E-02 0.  1.
</event>
<event>
 5   0  0.1918901E-05  0.2717962E+04  0.7818609E-02  0.8329200E-01
       -2   -1    0    0    0  501  0.00000000000E+00  0.00000000000E+00  0.11675323077E+04  0.11675323077E+04  0.25500000920E-02 0.  1.
        2   -1    0    0  501    0  0.00000000000E+00  0.00000000000E+00 -0.15818224597E+04  0.15818224597E+04  0.25500000920E-02 0. -1.
    10030    2    1    2    0    0  0.00000000000E+00  0.00000000000E+00 -0.41429015198E+03  0.27493547675E+04  0.27179616089E+04 0.  0.
        1    1    3    3  502    0  0.75775701820E+03 -0.96629305605E+03  0.38173953704E+03  0.12859405286E+04  0.50400001928E-02 0.  1.
       -1    1    3    3    0  502 -0.75775701820E+03  0.96629305605E+03 -0.79602968901E+03  0.14634142389E+04  0.50400001928E-02 0. -1.
</event>
<event>
 5   0  0.8055928E-06  0.2690979E+04  0.7818609E-02  0.8337938E-01
        1   -1    0    0  501    0  0.00000000000E+00  0.00000000000E+00  0.17129778035E+04  0.17129778035E+04  0.50400001928E-02 0.  1.
       -1   -1    0    0    0  501  0.00000000000E+00  0.00000000000E+00 -0.10568390119E+04  0.10568390119E+04  0.50400001928E-02 0. -1.
    10030    2    1    2    0    0  0.00000000000E+00  0.00000000000E+00  0.65613879159E+03  0.27698168154E+04  0.26909788325E+04 0.  0.
        2    1    3    3  502    0 -0.76156942260E+03  0.93609848170E+03  0.94054307047E+03  0.15299966079E+04  0.25500000920E-02 0. -1.
       -2    1    3    3    0  502  0.76156942260E+03 -0.93609848170E+03 -0.28440427888E+03  0.12398202074E+04  0.25500000920E-02 0.  1.
</event>
<event>
 5   0  0.1829810E-05  0.2876926E+04  0.7818609E-02  0.8279776E-01
       -2   -1    0    0    0  501  0.00000000000E+00  0.00000000000E+00  0.11721766221E+04  0.11721766221E+04  0.25500000920E-02 0.  1.
        2   -1    0    0  501    0  0.00000000000E+00  0.00000000000E+00 -0.17652425915E+04  0.17652425915E+04  0.25500000920E-02 0. -1.
    10030    2    1    2    0    0  0.00000000000E+00  0.00000000000E+00 -0.59306596938E+03  0.29374192136E+04  0.28769262055E+04 0.  0.
        4    1    3    3  502    0 -0.38602250076E+03  0.12217604576E+04 -0.96408670232E+03  0.16034889365E+04  0.12699999809E+01 0. -1.
       -4    1    3    3    0  502  0.38602250076E+03 -0.12217604576E+04  0.37102073295E+03  0.13339302771E+04  0.12699999809E+01 0.  1.
</event>
<event>
 5   0  0.8122088E-06  0.2950415E+04  0.7818609E-02  0.8258034E-01
        1   -1    0    0  501    0  0.00000000000E+00  0.00000000000E+00  0.20947255723E+04  0.20947255723E+04  0.50400001928E-02 0.  1.
       -1   -1    0    0    0  501  0.00000000000E+00  0.00000000000E+00 -0.10389128996E+04  0.10389128997E+04  0.50400001928E-02 0. -1.
    10030    2    1    2    0    0  0.00000000000E+00  0.00000000000E+00  0.10558126727E+04  0.31336384720E+04  0.29504151697E+04 0.  0.
        1    1    3    3  502    0  0.60330102392E+03 -0.10952687274E+04  0.13592346696E+04  0.18469175936E+04  0.50400001928E-02 0. -1.
       -1    1    3    3    0  502 -0.60330102392E+03  0.10952687274E+04 -0.30342199692E+03  0.12867208784E+04  0.50400001928E-02 0.  1.
</event>
<event>
 5   0  0.7305460E-06  0.2893626E+04  0.7818609E-02  0.8274776E-01
       -1   -1    0    0    0  501  0.00000000000E+00  0.00000000000E+00  0.13150700754E+04  0.13150700754E+04  0.50400001928E-02 0. -1.
        1   -1    0    0  501    0  0.00000000000E+00  0.00000000000E+00 -0.15917537196E+04  0.15917537196E+04  0.50400001928E-02 0.  1.
    10030    2    1    2    0    0  0.00000000000E+00  0.00000000000E+00 -0.27668364416E+03  0.29068237950E+04  0.28936258805E+04 0.  0.
        4    1    3    3  502    0 -0.12605954975E+04 -0.30922321400E+03 -0.78043320774E+03  0.15145288406E+04  0.12699999809E+01 0.  1.
       -4    1    3    3    0  502  0.12605954975E+04  0.30922321400E+03  0.50374956357E+03  0.13922949544E+04  0.12699999809E+01 0. -1.
</event>
<event>
 5   0  0.1937947E-05  0.1676653E+04  0.7818609E-02  0.8774793E-01
       -2   -1    0    0    0  501  0.00000000000E+00  0.00000000000E+00  0.63784027214E+03  0.63784027215E+03  0.25500000920E-02 0. -1.
        2   -1    0    0  501    0  0.00000000000E+00  0.00000000000E+00 -0.11018292106E+04  0.11018292106E+04  0.25500000920E-02 0.  1.
    10030    2    1    2    0    0  0.00000000000E+00  0.00000000000E+00 -0.46398893843E+03  0.17396694827E+04  0.16766526695E+04 0.  0.
        3    1    3    3  502    0  0.48270217587E+03 -0.54814639874E+03 -0.65895172494E+03  0.98370892597E+03  0.10100000352E+00 0.  1.
       -3    1    3    3    0  502 -0.48270217587E+03  0.54814639874E+03  0.19496278651E+03  0.75596055675E+03  0.10100000352E+00 0. -1.
</event>
<event>
 5   0  0.7971153E-06  0.2119293E+04  0.7818609E-02  0.8552792E-01
        1   -1    0    0  501    0  0.00000000000E+00  0.00000000000E+00  0.66384672190E+03  0.66384672192E+03  0.50400001928E-02 0. -1.
       -1   -1    0    0    0  501  0.00000000000E+00  0.00000000000E+00 -0.16914313239E+04  0.16914313239E+04  0.50400001928E-02 0.  1.
    10030    2    1    2    0    0  0.00000000000E+00  0.00000000000E+00 -0.10275846020E+04  0.23552780459E+04  0.21192934103E+04 0.  0.
        5    1    3    3  502    0 -0.11328296538E+03  0.61575473013E+03  0.43629362345E+03  0.76312589642E+03  0.46999998093E+01 0. -1.
       -5    1    3    3    0  502  0.11328296538E+03 -0.61575473013E+03 -0.14638782255E+04  0.15921521494E+04  0.46999998093E+01 0.  1.
</event>
<event>
 5   0  0.1937947E-05  0.2364135E+04  0.7818609E-02  0.8453054E-01
        2   -1    0    0  501    0  0.00000000000E+00  0.00000000000E+00  0.16137118094E+04  0.16137118094E+04  0.25500000920E-02 0.  1.
       -2   -1    0    0    0  501  0.00000000000E+00  0.00000000000E+00 -0.86588161229E+03  0.86588161230E+03  0.25500000920E-02 0. -1.
    10030    2    1    2    0    0  0.00000000000E+00  0.00000000000E+00  0.74783019708E+03  0.24795934217E+04  0.23641348382E+04 0.  0.
        3    1    3    3  502    0 -0.99401215120E+03  0.51144965792E+03 -0.29093093773E+02  0.11182519071E+04  0.10100000352E+00 0. -1.
       -3    1    3    3    0  502  0.99401215120E+03 -0.51144965792E+03  0.77692329085E+03  0.13613415146E+04  0.10100000352E+00 0.  1.
</event>
<event>
 5   0  0.7305460E-06  0.2906775E+04  0.7818609E-02  0.8270865E-01
       -1   -1    0    0    0  501  0.00000000000E+00  0.00000000000E+00  0.10221563716E+04  0.10221563716E+04  0.50400001928E-02 0. -1.
        1   -1    0    0  501    0  0.00000000000E+00  0.00000000000E+00 -0.20665479382E+04  0.20665479382E+04  0.50400001928E-02 0.  1.
    10030    2    1    2    0    0  0.00000000000E+00  0.00000000000E+00 -0.10443915666E+04  0.30887043098E+04  0.29067749429E+04 0.  0.
        4    1    3    3  502    0  0.69151197413E+03  0.95847004853E+03  0.37660541033E+03  0.12404381856E+04  0.12699999809E+01 0. -1.
       -4    1    3    3    0  502 -0.69151197413E+03 -0.95847004853E+03 -0.14209969770E+04  0.18482661242E+04  0.12699999809E+01 0.  1.
</event>
<event>
 5   0  0.7971153E-06  0.2912470E+04  0.7818609E-02  0.8269177E-01
       -1   -1    0    0    0  501  0.00000000000E+00  0.00000000000E+00  0.10401713730E+04  0.10401713730E+04  0.50400001928E-02 0. -1.
        1   -1    0    0  501    0  0.00000000000E+00  0.00000000000E+00 -0.20387217120E+04  0.20387217121E+04  0.50400001928E-02 0.  1.
    10030    2    1    2    0    0  0.00000000000E+00  0.00000000000E+00 -0.99855033907E+03  0.30788930850E+04  0.29124697165E+04 0.  0.
        5    1    3    3  502    0 -0.11221445465E+04  0.92289464378E+03 -0.60314957613E+03  0.15731352160E+04  0.46999998093E+01 0.  1.
       -5    1    3    3    0  502  0.11221445465E+04 -0.92289464378E+03 -0.39540076294E+03  0.15057578690E+04  0.46999998093E+01 0. -1.
</event>
<event>
 5   0  0.1937947E-05  0.2818369E+04  0.7818609E-02  0.8297588E-01
        2   -1    0    0  501    0  0.00000000000E+00  0.00000000000E+00  0.30997742254E+04  0.30997742254E+04  0.25500000920E-02 0. -1.
       -2   -1    0    0    0  501  0.00000000000E+00  0.00000000000E+00 -0.64062761330E+03  0.64062761330E+03  0.25500000920E-02 0.  1.
    10030    2    1    2    0    0  0.00000000000E+00  0.00000000000E+00  0.24591466121E+04  0.37404018387E+04  0.28183690062E+04 0.  0.
        3    1    3    3  502    0  0.65216207269E+03 -0.10308488452E+04  0.29316843790E+03  0.12545566762E+04  0.10100000352E+00 0.  1.
       -3    1    3    3    0  502 -0.65216207269E+03  0.10308488452E+04  0.21659781742E+04  0.24858451625E+04  0.10100000352E+00 0. -1.
</event>
<event>
 5   0  0.8122088E-06  0.2948227E+04  0.7818609E-02  0.8258671E-01
        1   -1    0    0  501    0  0.00000000000E+00  0.00000000000E+00  0.23428855759E+04  0.23428855759E+04  0.50400001928E-02 0. -1.
       -1   -1    0    0    0  501  0.00000000000E+00  0.00000000000E+00 -0.92749316063E+03  0.92749316064E+03  0.50400001928E-02 0.  1.
    10030    2    1    2    0    0  0.00000000000E+00  0.00000000000E+00  0.14153924152E+04  0.32703787365E+04  0.29482268215E+04 0.  0.
        1    1    3    3  502    0 -0.13502115562E+03  0.11988483876E+04  0.16473348638E+04  0.20418570768E+04  0.50400001928E-02 0. -1.
       -1    1    3    3    0  502  0.13502115562E+03 -0.11988483876E+04 -0.23194244854E+03  0.12285216597E+04  0.50400001928E-02 0.  1.
</event>
<event>
 5   0  0.1960961E-05  0.2872933E+04  0.7818609E-02  0.8280977E-01
        2   -1    0    0  501    0  0.00000000000E+00  0.00000000000E+00  0.93400201801E+03  0.93400201801E+03  0.25500000920E-02 0. -1.
       -2   -1    0    0    0  501  0.00000000000E+00  0.00000000000E+00 -0.22092411039E+04  0.22092411039E+04  0.25500000920E-02 0.  1.
    10030    2    1    2    0    0  0.00000000000E+00  0.00000000000E+00 -0.12752390859E+04  0.31432431219E+04  0.28729327520E+04 0.  0.
        5    1    3    3  502    0  0.17948731054E+03  0.87665926032E+03 -0.18670297840E+04  0.20704032113E+04  0.46999998093E+01 0.  1.
       -5    1    3    3    0  502 -0.17948731054E+03 -0.87665926032E+03  0.59179069809E+03  0.10728399106E+04  0.46999998093E+01 0. -1.
</event>
<event>
 5   0  0.8055928E-06  0.2974331E+04  0.7818609E-02  0.8251099E-01
        1   -1    0    0  501    0  0.00000000000E+00  0.00000000000E+00  0.22312606065E+04  0.22312606065E+04  0.50400001928E-02 0. -1.
       -1   -1    0    0    0  501  0.00000000000E+00  0.00000000000E+00 -0.99121577166E+03  0.99121577167E+03  0.50400001928E-02 0.  1.
    10030    2    1    2    0    0  0.00000000000E+00  0.00000000000E+00  0.12400448349E+04  0.32224763782E+04  0.29743306500E+04 0.  0.
        2    1    3    3  502    0 -0.13612780324E+04 -0.53468734510E+02 -0.26162815390E+02  0.13625789078E+04  0.25500000920E-02 0.  1.
       -2    1    3    3    0  502  0.13612780324E+04  0.53468734510E+02  0.12662076503E+04  0.18598974705E+04  0.25500000920E-02 0. -1.
</event>
<event>
 5   0  0.8234888E-06  0.2776528E+04  0.7818609E-02  0.8310593E-01
       -1   -1    0    0    0  501  0.00000000000E+00  0.00000000000E+00  0.96030945463E+03  0.96030945465E+03  0.50400001928E-02 0.  1.
        1   -1    0    0  501    0  0.00000000000E+00  0.00000000000E+00 -0.20069328946E+04  0.20069328946E+04  0.50400001928E-02 0. -1.
    10030    2    1    2    0    0  0.00000000000E+00  0.00000000000E+00 -0.10466234400E+04  0.29672423493E+04  0.27765277838E+04 0.  0.
        3    1    3    3  502    0  0.32398574279E+02 -0.11464694509E+04 -0.13592381682E+04  0.17784741431E+04  0.10100000352E+00 0. -1.
       -3    1    3    3    0  502 -0.32398574279E+02  0.11464694509E+04  0.31261472822E+03  0.11887682062E+04  0.10100000352E+00 0.  1.
</event>
<event>
 5   0  0.7971153E-06  0.2946240E+04  0.7818609E-02  0.8259251E-01
       -1   -1    0    0    0  501  0.00000000000E+00  0.00000000000E+00  0.99251780226E+03  0.99251780227E+03  0.50400001928E-02 0.  1.
        1   -1    0    0  501    0  0.00000000000E+00  0.00000000000E+00 -0.21864417737E+04  0.21864417737E+04  0.50400001928E-02 0. -1.
    10030    2    1    2    0    0  0.00000000000E+00  0.00000000000E+00 -0.11939239715E+04  0.31789595760E+04  0.29462398979E+04 0.  0.
        5    1    3    3  502    0 -0.10931802819E+04 -0.88057706460E+03 -0.10790190721E+04  0.17705262899E+04  0.46999998093E+01 0. -1.
       -5    1    3    3    0  502  0.10931802819E+04  0.88057706460E+03 -0.11490489940E+03  0.14084332861E+04  0.46999998093E+01 0.  1.
</event>
<event>
 5   0  0.1976233E-05  0.2891687E+04  0.7818609E-02  0.8275355E-01
        2   -1    0    0  501    0  0.00000000000E+00  0.00000000000E+00  0.33289590425E+04  0.33289590425E+04  0.25500000920E-02 0.  1.
       -2   -1    0    0    0  501  0.00000000000E+00  0.00000000000E+00 -0.62796290469E+03  0.62796290469E+03  0.25500000920E-02 0. -1.
    10030    2    1    2    0    0  0.00000000000E+00  0.00000000000E+00  0.27009961378E+04  0.39569219472E+04  0.28916865597E+04 0.  0.
        2    1    3    3  502    0 -0.14959670063E+03 -0.93308986422E+03  0.28478737531E+04  0.30005700760E+04  0.25500000920E-02 0.  1.
       -2    1    3    3    0  502  0.14959670063E+03  0.93308986422E+03 -0.14687761531E+03  0.95635187114E+03  0.25500000920E-02 0. -1.
</event>
<event>
 5   0  0.1918901E-05  0.2392289E+04  0.7818609E-02  0.8442396E-01
        2   -1    0    0  501    0  0.00000000000E+00  0.00000000000E+00  0.10974591582E+04  0.10974591582E+04  0.25500000920E-02 0. -1.
       -2   -1    0    0    0  501  0.00000000000E+00  0.00000000000E+00 -0.13037041439E+04  0.13037041439E+04  0.25500000920E-02 0.  1.
    10030    2    1    2    0    0  0.00000000000E+00  0.00000000000E+00 -0.20624498565E+03  0.24011633021E+04  0.23922893239E+04 0.  0.
        1    1    3    3  502    0 -0.98789466132E+03  0.79138476983E+02  0.56911055676E+03  0.11428410153E+04  0.50400001928E-02 0. -1.
       -1    1    3    3    0  502  0.98789466132E+03 -0.79138476983E+02 -0.77535554241E+03  0.12583222868E+04  0.50400001928E-02 0.  1.
</event>
<event>
 5   0  0.8122088E-06  0.2832164E+04  0.7818609E-02  0.8293352E-01
        1   -1    0    0  501    0  0.00000000000E+00  0.00000000000E+00  0.16490901737E+04  0.16490901737E+04  0.50400001928E-02 0. -1.
       -1   -1    0    0    0  501  0.00000000000E+00  0.00000000000E+00 -0.12159964499E+04  0.12159964499E+04  0.50400001928E-02 0.  1.
    10030    2    1    2    0    0  0.00000000000E+00  0.00000000000E+00  0.43309372376E+03  0.28650866236E+04  0.28321636936E+04 0.  0.
        1    1    3    3  502    0  0.68575382189E+03 -0.68272305679E+02  0.14680080882E+04  0.16217173487E+04  0.50400001928E-02 0. -1.
       -1    1    3    3    0  502 -0.68575382189E+03  0.68272305679E+02 -0.10349143645E+04  0.12433692749E+04  0.50400001928E-02 0.  1.
</event>
<event>
 5   0  0.8234888E-06  0.2685079E+04  0.7818609E-02  0.8339863E-01
       -1   -1    0    0    0  501  0.00000000000E+00  0.00000000000E+00  0.11767358118E+04  0.11767358118E+04  0.50400001928E-02 0.  1.
        1   -1    0    0  501    0  0.00000000000E+00  0.00000000000E+00 -0.15317049230E+04  0.15317049230E+04  0.50400001928E-02 0. -1.
    10030    2    1    2    0    0  0.00000000000E+00  0.00000000000E+00 -0.35496911117E+03  0.27084407348E+04  0.26850787966E+04 0.  0.
        3    1    3    3  502    0 -0.22877193921E+03  0.55988518377E+02  0.11557341085E+04  0.11794883018E+04  0.10100000352E+00 0.  1.
       -3    1    3    3    0  502  0.22877193921E+03 -0.55988518377E+02 -0.15107032196E+04  0.15289524330E+04  0.10100000352E+00 0. -1.
</event>
<event>
 5   0  0.8234888E-06  0.2939301E+04  0.7818609E-02  0.8261279E-01
        1   -1    0    0  501    0  0.00000000000E+00  0.00000000000E+00  0.95280441608E+03  0.95280441609E+03  0.50400001928E-02 0. -1.
       -1   -1    0    0    0  501  0.00000000000E+00  0.00000000000E+00 -0.22668587029E+04  0.22668587029E+04  0.50400001928E-02 0.  1.
    10030    2    1    2    0    0  0.00000000000E+00  0.00000000000E+00 -0.13140542868E+04  0.32196631189E+04  0.29393012658E+04 0.  0.
        3    1    3    3  502    0  0.86197552032E+03 -0.47399823369E+03  0.53899801744E+03  0.11216929153E+04  0.10100000352E+00 0. -1.
       -3    1    3    3    0  502 -0.86197552032E+03  0.47399823369E+03 -0.18530523042E+04  0.20979702037E+04  0.10100000352E+00 0.  1.
</event>
<event>
 5   0  0.8055928E-06  0.2899600E+04  0.7818609E-02  0.8272996E-01
       -1   -1    0    0    0  501  0.00000000000E+00  0.00000000000E+00  0.16156809542E+04  0.16156809542E+04  0.50400001928E-02 0.  1.
        1   -1    0    0  501    0  0.00000000000E+00  0.00000000000E+00 -0.13009499954E+04  0.13009499954E+04  0.50400001928E-02 0. -1.
    10030    2    1    2    0    0  0.00000000000E+00  0.00000000000E+00  0.31473095879E+03  0.29166309495E+04  0.28996000620E+04 0.  0.
        2    1    3    3  502    0 -0.61789808857E+03 -0.50132168921E+03 -0.10616929206E+04  0.13267680059E+04  0.25500000920E-02 0. -1.
       -2    1    3    3    0  502  0.61789808857E+03  0.50132168921E+03  0.13764238793E+04  0.15898629436E+04  0.25500000920E-02 0.  1.
</event>
<event>
 5   0  0.1918901E-05  0.2931107E+04  0.7818609E-02  0.8263682E-01
       -2   -1    0    0    0  501  0.00000000000E+00  0.00000000000E+00  0.12512372791E+04  0.12512372791E+04  0.25500000920E-02 0. -1.
        2   -1    0    0  501    0  0.00000000000E+00  0.00000000000E+00 -0.17165790640E+04  0.17165790640E+04  0.25500000920E-02 0.  1.
    10030    2    1    2    0    0  0.00000000000E+00  0.00000000000E+00 -0.46534178492E+03  0.29678163431E+04  0.29311074476E+04 0.  0.
        1    1    3    3  502    0 -0.13147433514E+04  0.30692495286E+03 -0.80998242723E+03  0.15744283214E+04  0.50400001928E-02 0.  1.
       -1    1    3    3    0  502  0.13147433514E+04 -0.30692495286E+03  0.34464064231E+03  0.13933880217E+04  0.50400001928E-02 0. -1.
</event>
<event>
 5   0  0.1937947E-05  0.2096073E+04  0.7818609E-02  0.8562975E-01
        2   -1    0    0  501    0  0.00000000000E+00  0.00000000000E+00  0.13194854004E+04  0.13194854004E+04  0.25500000920E-02 0. -1.
       -2   -1    0    0    0  501  0.00000000000E+00  0.00000000000E+00 -0.83243125044E+03  0.83243125044E+03  0.25500000920E-02 0.  1.
    10030    2    1    2    0    0  0.00000000000E+00  0.00000000000E+00  0.48705414997E+03  0.21519166509E+04  0.20960733592E+04 0.  0.
        3    1    3    3  502    0 -0.53205962354E+03 -0.29630012421E+03  0.11191867826E+04  0.12741508039E+04  0.10100000352E+00 0. -1.
       -3    1    3    3    0  502  0.53205962354E+03  0.29630012421E+03 -0.63213263262E+03  0.87776584693E+03  0.10100000352E+00 0.  1.
</event>
<event>
 5   0  0.8234888E-06  0.2856641E+04  0.7818609E-02  0.8285896E-01
       -1   -1    0    0    0  501  0.00000000000E+00  0.00000000000E+00  0.13545103361E+04  0.13545103361E+04  0.50400001928E-02 0.  1.
        1   -1    0    0  501    0  0.00000000000E+00  0.00000000000E+00 -0.15061526447E+04  0.15061526447E+04  0.50400001928E-02 0. -1.
    10030    2    1    2    0    0  0.00000000000E+00  0.00000000000E+00 -0.15164230861E+03  0.28606629808E+04  0.28566409120E+04 0.  0.
        3    1    3    3  502    0 -0.51694701058E+03 -0.16033430068E+03 -0.13994832622E+04  0.15004981543E+04  0.10100000352E+00 0. -1.
       -3    1    3    3    0  502  0.51694701058E+03  0.16033430068E+03  0.12478409536E+04  0.13601648265E+04  0.10100000352E+00 0.  1.
</event>
<event>
 5   0  0.1829810E-05  0.2689094E+04  0.7818609E-02  0.8338552E-01
       -2   -1    0    0    0  501  0.00000000000E+00  0.00000000000E+00  0.20607973181E+04  0.20607973181E+04  0.25500000920E-02 0. -1.
        2   -1    0    0  501    0  0.00000000000E+00  0.00000000000E+00 -0.87723668694E+03  0.87723668694E+03  0.25500000920E-02 0.  1.
    10030    2    1    2    0    0  0.00000000000E+00  0.00000000000E+00  0.11835606312E+04  0.29380340051E+04  0.26890942801E+04 0.  0.
        4    1    3    3  502    0  0.19276443466E+03 -0.82698446756E+03 -0.54719524950E+03  0.10101909180E+04  0.12699999809E+01 0.  1.
       -4    1    3    3    0  502 -0.19276443466E+03  0.82698446756E+03  0.17307558807E+04  0.19278430870E+04  0.12699999809E+01 0. -1.
</event>
<event>
 5   0  0.8234888E-06  0.2806571E+04  0.7818609E-02  0.8301231E-01
       -1   -1    0    0    0  501  0.00000000000E+00  0.00000000000E+00  0.23050198025E+04  0.23050198025E+04  0.50400001928E-02 0. -1.
        1   -1    0    0  501    0  0.00000000000E+00  0.00000000000E+00 -0.85431351521E+03  0.85431351522E+03  0.50400001928E-02 0.  1.
    10030    2    1    2    0    0  0.00000000000E+00  0.00000000000E+00  0.14507062873E+04  0.31593333177E+04  0.28065705551E+04 0.  0.
        3    1    3    3  502    0  0.12794522044E+04 -0.15704023573E+03  0.10107614281E+03  0.12930104314E+04  0.10100000352E+00 0.  1.
       -3    1    3    3    0  502 -0.12794522044E+04  0.15704023573E+03  0.13496301445E+04  0.18663228863E+04  0.10100000352E+00 0. -1.
</event>
<event>
 5   0  0.8234888E-06  0.2943021E+04  0.7818609E-02  0.8260191E-01
        1   -1    0    0  501    0  0.00000000000E+00  0.00000000000E+00  0.13522023038E+04  0.13522023038E+04  0.50400001928E-02 0. -1.
       -1   -1    0    0    0  501  0.00000000000E+00  0.00000000000E+00 -0.16013459568E+04  0.16013459568E+04  0.50400001928E-02 0.  1.
    10030    2    1    2    0    0  0.00000000000E+00  0.00000000000E+00 -0.24914365305E+03  0.29535482607E+04  0.29430213673E+04 0.  0.
        3    1    3    3  502    0  0.12175038888E+03 -0.84022947281E+03 -0.13307589405E+04  0.15785208557E+04  0.10100000352E+00 0.  1.
       -3    1    3    3    0  502 -0.12175038888E+03  0.84022947281E+03  0.10816152874E+04  0.13750274049E+04  0.10100000352E+00 0. -1.
</event>
<event>
 5   0  0.1937947E-05  0.2899523E+04  0.7818609E-02  0.8273019E-01
       -2   -1    0    0    0  501  0.00000000000E+00  0.00000000000E+00  0.15716044799E+04  0.15716044799E+04  0.25500000920E-02 0. -1.
        2   -1    0    0  501    0  0.00000000000E+00  0.00000000000E+00 -0.13373646272E+04  0.13373646272E+04  0.25500000920E-02 0.  1.
    10030    2    1    2    0    0  0.00000000000E+00  0.00000000000E+00  0.23423985274E+03  0.29089691071E+04  0.28995228845E+04 0.  0.
        3    1    3    3  502    0 -0.39945559473E+03 -0.34507331479E+02  0.15148754972E+04  0.15670364739E+04  0.10100000352E+00 0. -1.
       -3    1    3    3    0  502  0.39945559473E+03  0.34507331479E+02 -0.12806356445E+04  0.13419326333E+04  0.10100000352E+00 0.  1.
</event>
<event>
 5   0  0.7305460E-06  0.2910122E+04  0.7818609E-02  0.8269872E-01
       -1   -1    0    0    0  501  0.00000000000E+00  0.00000000000E+00  0.16151600452E+04  0.16151600452E+04  0.50400001928E-02 0. -1.
        1   -1    0    0  501    0  0.00000000000E+00  0.00000000000E+00 -0.13108317166E+04  0.13108317166E+04  0.50400001928E-02 0.  1.
    10030    2    1    2    0    0  0.00000000000E+00  0.00000000000E+00  0.30432832866E+03  0.29259917618E+04  0.29101223443E+04 0.  0.
        4    1    3    3  502    0 -0.30865424626E+02 -0.60080274168E+03  0.14842605399E+04  0.16015453700E+04  0.12699999809E+01 0. -1.
       -4    1    3    3    0  502  0.30865424626E+02  0.60080274168E+03 -0.11799322112E+04  0.13244463918E+04  0.12699999809E+01 0.  1.
</event>
<event>
 5   0  0.8234888E-06  0.2841553E+04  0.7818609E-02  0.8290483E-01
       -1   -1    0    0    0  501  0.00000000000E+00  0.00000000000E+00  0.10468389487E+04  0.10468389487E+04  0.50400001928E-02 0.  1.
        1   -1    0    0  501    0  0.00000000000E+00  0.00000000000E+00 -0.19282865365E+04  0.19282865365E+04  0.50400001928E-02 0. -1.
    10030    2    1    2    0    0  0.00000000000E+00  0.00000000000E+00 -0.88144758786E+03  0.29751254852E+04  0.28415527098E+04 0.  0.
        3    1    3    3  502    0  0.10855412313E+04  0.83351210637E+03 -0.41399064360E+02  0.13692538439E+04  0.10100000352E+00 0.  1.
       -3    1    3    3    0  502 -0.10855412313E+04 -0.83351210637E+03 -0.84004852350E+03  0.16058716413E+04  0.10100000352E+00 0. -1.
</event>
<event>
 5   0  0.1976233E-05  0.2855673E+04  0.7818609E-02  0.8286189E-01
        2   -1    0    0  501    0  0.00000000000E+00  0.00000000000E+00  0.13878607931E+04  0.13878607931E+04  0.25500000920E-02 0. -1.
       -2   -1    0    0    0  501  0.00000000000E+00  0.00000000000E+00 -0.14689640234E+04  0.14689640234E+04  0.25500000920E-02 0.  1.
    10030    2    1    2    0    0  0.00000000000E+00  0.00000000000E+00 -0.81103230242E+02  0.28568248165E+04  0.28556733529E+04 0.  0.
        2    1    3    3  502    0  0.15424504152E+03  0.17025044194E+03  0.13692507442E+04  0.13883891192E+04  0.25500000920E-02 0. -1.
       -2    1    3    3    0  502 -0.15424504152E+03 -0.17025044194E+03 -0.14503539745E+04  0.14684356973E+04  0.25500000920E-02 0.  1.
</event>
<event>
 5   0  0.7305460E-06  0.2849117E+04  0.7818609E-02  0.8288180E-01
        1   -1    0    0  501    0  0.00000000000E+00  0.00000000000E+00  0.18388165408E+04  0.18388165408E+04  0.50400001928E-02 0.  1.
       -1   -1    0    0    0  501  0.00000000000E+00  0.00000000000E+00 -0.11036264223E+04  0.11036264224E+04  0.50400001928E-02 0. -1.
    10030    2    1    2    0    0  0.00000000000E+00  0.00000000000E+00  0.73519011845E+03  0.29424429632E+04  0.28491167195E+04 0.  0.
        4    1    3    3  502    0 -0.56583137910E+03  0.65326414083E+03  0.15371410597E+04  0.17634407951E+04  0.12699999809E+01 0.  1.
       -4    1    3    3    0  502  0.56583137910E+03 -0.65326414083E+03 -0.80195094128E+03  0.11790021681E+04  0.12699999809E+01 0. -1.
</event>
<event>
 5   0  0.1918901E-05  0.2924710E+04  0.7818609E-02  0.8265563E-01
       -2   -1    0    0    0  501  0.00000000000E+00  0.00000000000E+00  0.13077822077E+04  0.13077822077E+04  0.25500000920E-02 0. -1.
        2   -1    0    0  501    0  0.00000000000E+00  0.00000000000E+00 -0.16351975451E+04  0.16351975451E+04  0.25500000920E-02 0.  1.
    10030    2    1    2    0    0  0.00000000000E+00  0.00000000000E+00 -0.32741533747E+03  0.29429797528E+04  0.29247100749E+04 0.  0.
        1    1    3    3  502    0  0.32279456649E+03  0.73361759167E+03 -0.13944963124E+04  0.16084188100E+04  0.50400001928E-02 0.  1.
       -1    1    3    3    0  502 -0.32279456649E+03 -0.73361759167E+03  0.10670809750E+04  0.13345609428E+04  0.50400001928E-02 0. -1.
</event>
<event>
 5   0  0.8055928E-06  0.2092226E+04  0.7818609E-02  0.8564675E-01
        1   -1    0    0  501    0  0.00000000000E+00  0.00000000000E+00  0.11999152246E+04  0.11999152246E+04  0.50400001928E-02 0.  1.
       -1   -1    0    0    0  501  0.00000000000E+00  0.00000000000E+00 -0.91202511190E+03  0.91202511191E+03  0.50400001928E-02 0. -1.
    10030    2    1    2    0    0  0.00000000000E+00  0.00000000000E+00  0.28789011271E+03  0.21119403365E+04  0.20922263902E+04 0.  0.
        2    1    3    3  502    0 -0.67876622421E+03 -0.72338714280E+03 -0.19135991567E+03  0.10102629177E+04  0.25500000920E-02 0.  1.
       -2    1    3    3    0  502  0.67876622421E+03  0.72338714280E+03  0.47925002838E+03  0.11016774189E+04  0.25500000920E-02 0. -1.
</event>
<event>
 5   0  0.7305460E-06  0.2822670E+04  0.7818609E-02  0.8296265E-01
       -1   -1    0    0    0  501  0.00000000000E+00  0.00000000000E+00  0.14072010430E+04  0.14072010430E+04  0.50400001928E-02 0.  1.
        1   -1    0    0  501    0  0.00000000000E+00  0.00000000000E+00 -0.14154812691E+04  0.14154812691E+04  0.50400001928E-02 0. -1.
    10030    2    1    2    0    0  0.00000000000E+00  0.00000000000E+00 -0.82802261008E+01  0.28226823122E+04  0.28226701673E+04 0.  0.
        4    1    3    3  502    0 -0.11937171682E+04 -0.62909138305E+03  0.40956259697E+03  0.14101275757E+04  0.12699999809E+01 0. -1.
       -4    1    3    3    0  502  0.11937171682E+04  0.62909138305E+03 -0.41784282307E+03  0.14125547365E+04  0.12699999809E+01 0.  1.
</event>
<event>
 5   0  0.1937947E-05  0.2471073E+04  0.7818609E-02  0.8413364E-01
       -2   -1    0    0    0  501  0.00000000000E+00  0.00000000000E+00  0.17413841510E+04  0.17413841510E+04  0.25500000920E-02 0. -1.
        2   -1    0    0  501    0  0.00000000000E+00  0.00000000000E+00 -0.87663084127E+03  0.87663084127E+03  0.25500000920E-02 0.  1.
    10030    2    1    2    0    0  0.00000000000E+00  0.00000000000E+00  0.86475330971E+03  0.26180149922E+04  0.24710734940E+04 0.  0.
        3    1    3    3  502    0 -0.83606819381E+03  0.70616546670E+03 -0.17519777610E+03  0.11083203337E+04  0.10100000352E+00 0.  1.
       -3    1    3    3    0  502  0.83606819381E+03 -0.70616546670E+03  0.10399510858E+04  0.15096946586E+04  0.10100000352E+00 0. -1.
</event>
<event>
 5   0  0.8234888E-06  0.1668836E+04  0.7818609E-02  0.8779340E-01
        1   -1    0    0  501    0  0.00000000000E+00  0.00000000000E+00  0.82167790306E+03  0.82167790308E+03  0.50400001928E-02 0. -1.
       -1   -1    0    0    0  501  0.00000000000E+00  0.00000000000E+00 -0.84735608535E+03  0.84735608536E+03  0.50400001928E-02 0.  1.
    10030    2    1    2    0    0  0.00000000000E+00  0.00000000000E+00 -0.25678182284E+02  0.16690339884E+04  0.16688364466E+04 0.  0.
        3    1    3    3  502    0  0.39747910793E+03 -0.47263318891E+03 -0.57404897958E+03  0.84315124009E+03  0.10100000352E+00 0.  1.
       -3    1    3    3    0  502 -0.39747910793E+03  0.47263318891E+03  0.54837079730E+03  0.82588274836E+03  0.10100000352E+00 0. -1.
</event>
<event>
 5   0  0.1976233E-05  0.2900977E+04  0.7818609E-02  0.8272587E-01
       -2   -1    0    0    0  501  0.00000000000E+00  0.00000000000E+00  0.83793527436E+03  0.83793527437E+03  0.25500000920E-02 0. -1.
        2   -1    0    0  501    0  0.00000000000E+00  0.00000000000E+00 -0.25108343665E+04  0.25108343665E+04  0.25500000920E-02 0.  1.
    10030    2    1    2    0    0  0.00000000000E+00  0.00000000000E+00 -0.16728990922E+04  0.33487696409E+04  0.29009768588E+04 0.  0.
        2    1    3    3  502    0  0.21724379700E+03  0.95250358151E+03 -0.20740706418E+04  0.22926462805E+04  0.25500000920E-02 0.  1.
       -2    1    3    3    0  502 -0.21724379700E+03 -0.95250358151E+03  0.40117154967E+03  0.10561233604E+04  0.25500000920E-02 0. -1.
</event>
<event>
 5   0  0.1937947E-05  0.2955709E+04  0.7818609E-02  0.8256493E-01
        2   -1    0    0  501    0  0.00000000000E+00  0.00000000000E+00  0.14438476041E+04  0.14438476041E+04  0.25500000920E-02 0.  1.
       -2   -1    0    0    0  501  0.00000000000E+00  0.00000000000E+00 -0.15126618965E+04  0.15126618965E+04  0.25500000920E-02 0. -1.
    10030    2    1    2    0    0  0.00000000000E+00  0.00000000000E+00 -0.68814292382E+02  0.29565095007E+04  0.29557085480E+04 0.  0.
        3    1    3    3  502    0  0.10023790709E+04 -0.18654883902E+03 -0.11045049626E+04  0.15031618321E+04  0.10100000352E+00 0. -1.
       -3    1    3    3    0  502 -0.10023790709E+04  0.18654883902E+03  0.10356906702E+04  0.14533476685E+04  0.10100000352E+00 0.  1.
</event>
<event>
 5   0  0.1976233E-05  0.2909519E+04  0.7818609E-02  0.8270051E-01
       -2   -1    0    0    0  501  0.00000000000E+00  0.00000000000E+00  0.12316485661E+04  0.12316485661E+04  0.25500000920E-02 0. -1.
        2   -1    0    0  501    0  0.00000000000E+00  0.00000000000E+00 -0.17182867473E+04  0.17182867473E+04  0.25500000920E-02 0.  1.
    10030    2    1    2    0    0  0.00000000000E+00  0.00000000000E+00 -0.48663818121E+03  0.29499353134E+04  0.29095191413E+04 0.  0.
        2    1    3    3  502    0 -0.81045228082E+03 -0.46595672121E+03  0.88678370176E+03  0.12885394442E+04  0.25500000920E-02 0. -1.
       -2    1    3    3    0  502  0.81045228082E+03  0.46595672121E+03 -0.13734218830E+04  0.16613958692E+04  0.25500000920E-02 0.  1.
</event>
<event>
 5   0  0.1976233E-05  0.2901250E+04  0.7818609E-02  0.8272506E-01
        2   -1    0    0  501    0  0.00000000000E+00  0.00000000000E+00  0.17358247976E+04  0.17358247976E+04  0.25500000920E-02 0. -1.
       -2   -1    0    0    0  501  0.00000000000E+00  0.00000000000E+00 -0.12122839422E+04  0.12122839422E+04  0.25500000920E-02 0.  1.
    10030    2    1    2    0    0  0.00000000000E+00  0.00000000000E+00  0.52354085545E+03  0.29481087398E+04  0.29012497504E+04 0.  0.
        2    1    3    3  502    0 -0.23210157796E+03 -0.10238930681E+04 -0.75543935104E+03  0.12934128384E+04  0.25500000920E-02 0.  1.
       -2    1    3    3    0  502  0.23210157796E+03  0.10238930681E+04  0.12789802065E+04  0.16546959014E+04  0.25500000920E-02 0. -1.
</event>
<event>
 5   0  0.7971153E-06  0.2491361E+04  0.7818609E-02  0.8406070E-01
        1   -1    0    0  501    0  0.00000000000E+00  0.00000000000E+00  0.16103189937E+04  0.16103189937E+04  0.50400001928E-02 0. -1.
       -1   -1    0    0    0  501  0.00000000000E+00  0.00000000000E+00 -0.96361054034E+03  0.96361054036E+03  0.50400001928E-02 0.  1.
    10030    2    1    2    0    0  0.00000000000E+00  0.00000000000E+00  0.64670845338E+03  0.25739295341E+04  0.24913613593E+04 0.  0.
        5    1    3    3  502    0 -0.73104934302E+03 -0.90872448339E+03 -0.12873820528E+03  0.11733750228E+04  0.46999998093E+01 0.  1.
       -5    1    3    3    0  502  0.73104934302E+03  0.90872448339E+03  0.77544665866E+03  0.14005545113E+04  0.46999998093E+01 0. -1.
</event>
<event>
 5   0  0.7305460E-06  0.2789536E+04  0.7818609E-02  0.8306524E-01
        1   -1    0    0  501    0  0.00000000000E+00  0.00000000000E+00  0.21903931520E+04  0.21903931520E+04  0.50400001928E-02 0.  1.
       -1   -1    0    0    0  501  0.00000000000E+00  0.00000000000E+00 -0.88814091508E+03  0.88814091509E+03  0.50400001928E-02 0. -1.
    10030    2    1    2    0    0  0.00000000000E+00  0.00000000000E+00  0.13022522369E+04  0.30785340671E+04  0.27895360033E+04 0.  0.
        4    1    3    3  502    0 -0.22367225153E+03  0.25715336676E+03  0.21437309699E+04  0.21706545590E+04  0.12699999809E+01 0.  1.
       -4    1    3    3    0  502  0.22367225153E+03 -0.25715336676E+03 -0.84147873304E+03  0.90787950808E+03  0.12699999809E+01 0. -1.
</event>
<event>
 5   0  0.1976233E-05  0.2848859E+04  0.7818609E-02  0.8288258E-01
       -2   -1    0    0    0  501  0.00000000000E+00  0.00000000000E+00  0.75337540030E+03  0.75337540030E+03  0.25500000920E-02 0. -1.
        2   -1    0    0  501    0  0.00000000000E+00  0.00000000000E+00 -0.26932121249E+04  0.26932121249E+04  0.25500000920E-02 0.  1.
    10030    2    1    2    0    0  0.00000000000E+00  0.00000000000E+00 -0.19398367246E+04  0.34465875252E+04  0.28488592543E+04 0.  0.
        2    1    3    3  502    0  0.42454465745E+03  0.48305781355E+03 -0.25075793935E+04  0.25887327850E+04  0.25500000920E-02 0.  1.
       -2    1    3    3    0  502 -0.42454465745E+03 -0.48305781355E+03  0.56774266882E+03  0.85785474028E+03  0.25500000920E-02 0. -1.
</event>
<event>
 5   0  0.1976233E-05  0.2920031E+04  0.7818609E-02  0.8266943E-01
       -2   -1    0    0    0  501  0.00000000000E+00  0.00000000000E+00  0.15836193807E+04  0.15836193807E+04  0.25500000920E-02 0.  1.
        2   -1    0    0  501    0  0.00000000000E+00  0.00000000000E+00 -0.13460590676E+04  0.13460590676E+04  0.25500000920E-02 0. -1.
    10030    2    1    2    0    0  0.00000000000E+00  0.00000000000E+00  0.23756031309E+03  0.29296784483E+04  0.29200309773E+04 0.  0.
        2    1    3    3  502    0  0.14171903043E+04 -0.29978425947E+03 -0.64432766902E+02  0.14499829455E+04  0.25500000920E-02 0. -1.
       -2    1    3    3    0  502 -0.14171903043E+04  0.29978425947E+03  0.30199307999E+03  0.14796955028E+04  0.25500000920E-02 0.  1.
</event>
<event>
 5   0  0.1937947E-05  0.2484562E+04  0.7818609E-02  0.8408506E-01
        2   -1    0    0  501    0  0.00000000000E+00  0.00000000000E+00  0.26009540338E+04  0.26009540338E+04  0.25500000920E-02 0.  1.
       -2   -1    0    0    0  501  0.00000000000E+00  0.00000000000E+00 -0.59334463986E+03  0.59334463986E+03  0.25500000920E-02 0. -1.
    10030    2    1    2    0    0  0.00000000000E+00  0.00000000000E+00  0.20076093940E+04  0.31942986737E+04  0.24845620415E+04 0.  0.
        3    1    3    3  502    0 -0.16089983485E+03  0.73384940518E+03 -0.26817792652E+03  0.79771117380E+03  0.10100000352E+00 0. -1.
       -3    1    3    3    0  502  0.16089983485E+03 -0.73384940518E+03  0.22757873205E+04  0.23965874999E+04  0.10100000352E+00 0.  1.
</event>
<event>
 5   0  0.6578125E-06  0.2890582E+04  0.7818609E-02  0.8275685E-01
       -4   -1    0    0    0  501  0.00000000000E+00  0.00000000000E+00  0.15248490118E+04  0.15248495406E+04  0.12699999809E+01 0.  1.
        4   -1    0    0  501    0  0.00000000000E+00  0.00000000000E+00 -0.13698829776E+04  0.13698835663E+04  0.12699999809E+01 0. -1.
    10030    2    1    2    0    0  0.00000000000E+00  0.00000000000E+00  0.15496603421E+03  0.28947331069E+04  0.28905821712E+04 0.  0.
        1    1    3    3  502    0 -0.32320264173E+03 -0.13192466531E+04 -0.41718445563E+03  0.14208851289E+04  0.50400001928E-02 0. -1.
       -1    1    3    3    0  502  0.32320264173E+03  0.13192466531E+04  0.57215048984E+03  0.14738479780E+04  0.50400001928E-02 0.  1.
</event>
<event>
 5   0  0.8122088E-06  0.2911339E+04  0.7818609E-02  0.8269512E-01
        1   -1    0    0  501    0  0.00000000000E+00  0.00000000000E+00  0.13105938002E+04  0.13105938002E+04  0.50400001928E-02 0.  1.
       -1   -1    0    0    0  501  0.00000000000E+00  0.00000000000E+00 -0.16168039914E+04  0.16168039914E+04  0.50400001928E-02 0. -1.
    10030    2    1    2    0    0  0.00000000000E+00  0.00000000000E+00 -0.30621019120E+03  0.29273977917E+04  0.29113387212E+04 0.  0.
        1    1    3    3  502    0 -0.27251205565E+03 -0.11986315571E+04  0.63093494564E+03  0.13816871338E+04  0.50400001928E-02 0.  1.
       -1    1    3    3    0  502  0.27251205565E+03  0.11986315571E+04 -0.93714513683E+03  0.15457106578E+04  0.50400001928E-02 0. -1.
</event>
<event>
 5   0  0.1976233E-05  0.2376286E+04  0.7818609E-02  0.8448436E-01
        2   -1    0    0  501    0  0.00000000000E+00  0.00000000000E+00  0.24183326701E+04  0.24183326701E+04  0.25500000920E-02 0.  1.
       -2   -1    0    0    0  501  0.00000000000E+00  0.00000000000E+00 -0.58374239552E+03  0.58374239553E+03  0.25500000920E-02 0. -1.
    10030    2    1    2    0    0  0.00000000000E+00  0.00000000000E+00  0.18345902746E+04  0.30020750656E+04  0.23762855940E+04 0.  0.
        2    1    3    3  502    0  0.31452654855E+02  0.11307042435E+04  0.13766431516E+04  0.17817485015E+04  0.25500000920E-02 0.  1.
       -2    1    3    3    0  502 -0.31452654855E+02 -0.11307042435E+04  0.45794712294E+03  0.12203265641E+04  0.25500000920E-02 0. -1.
</event>
<event>
 5   0  0.1937947E-05  0.2756042E+04  0.7818609E-02  0.8317047E-01
        2   -1    0    0  501    0  0.00000000000E+00  0.00000000000E+00  0.27305067087E+04  0.27305067087E+04  0.25500000920E-02 0.  1.
       -2   -1    0    0    0  501  0.00000000000E+00  0.00000000000E+00 -0.69545378984E+03  0.69545378984E+03  0.25500000920E-02 0. -1.
    10030    2    1    2    0    0  0.00000000000E+00  0.00000000000E+00  0.20350529189E+04  0.34259604986E+04  0.27560415373E+04 0.  0.
        3    1    3    3  502    0  0.16406044280E+03 -0.27595027871E+03 -0.64831960756E+03  0.72345193963E+03  0.10100000352E+00 0. -1.
       -3    1    3    3    0  502 -0.16406044280E+03  0.27595027871E+03  0.26833725265E+04  0.27025085589E+04  0.10100000352E+00 0.  1.
</event>
<event>
 5   0  0.6578125E-06  0.2876883E+04  0.7818609E-02  0.8279789E-01
        4   -1    0    0  501    0  0.00000000000E+00  0.00000000000E+00  0.15384918334E+04  0.15384923576E+04  0.12699999809E+01 0. -1.
       -4   -1    0    0    0  501  0.00000000000E+00  0.00000000000E+00 -0.13448969236E+04  0.13448975232E+04  0.12699999809E+01 0.  1.
    10030    2    1    2    0    0  0.00000000000E+00  0.00000000000E+00  0.19359490988E+03  0.28833898808E+04  0.28768834206E+04 0.  0.
        4    1    3    3  502    0 -0.10085068732E+04  0.86477129133E+03 -0.45599089933E+03  0.14045799417E+04  0.12699999809E+01 0.  1.
       -4    1    3    3    0  502  0.10085068732E+04 -0.86477129133E+03  0.64958580920E+03  0.14788099391E+04  0.12699999809E+01 0. -1.
</event>
<event>
 5   0  0.7971153E-06  0.2511648E+04  0.7818609E-02  0.8398848E-01
       -1   -1    0    0    0  501  0.00000000000E+00  0.00000000000E+00  0.12826789312E+04  0.12826789312E+04  0.50400001928E-02 0.  1.
        1   -1    0    0  501    0  0.00000000000E+00  0.00000000000E+00 -0.12295311180E+04  0.12295311180E+04  0.50400001928E-02 0. -1.
    10030    2    1    2    0    0  0.00000000000E+00  0.00000000000E+00  0.53147813165E+02  0.25122100492E+04  0.25116477941E+04 0.  0.
        5    1    3    3  502    0  0.10747690781E+04 -0.64141846738E+03 -0.76042182172E+02  0.12539340992E+04  0.46999998093E+01 0.  1.
       -5    1    3    3    0  502 -0.10747690781E+04  0.64141846738E+03  0.12918999534E+03  0.12582759501E+04  0.46999998093E+01 0. -1.
</event>
<event>
 5   0  0.1829810E-05  0.2675550E+04  0.7818609E-02  0.8342982E-01
       -2   -1    0    0    0  501  0.00000000000E+00  0.00000000000E+00  0.27005976821E+04  0.27005976821E+04  0.25500000920E-02 0. -1.
        2   -1    0    0  501    0  0.00000000000E+00  0.00000000000E+00 -0.66268377656E+03  0.66268377657E+03  0.25500000920E-02 0.  1.
    10030    2    1    2    0    0  0.00000000000E+00  0.00000000000E+00  0.20379139056E+04  0.33632814587E+04  0.26755502395E+04 0.  0.
        4    1    3    3  502    0  0.46932354374E+03 -0.51617555646E+03  0.24538255207E+04  0.25510709698E+04  0.12699999809E+01 0. -1.
       -4    1    3    3    0  502 -0.46932354374E+03  0.51617555646E+03 -0.41591161515E+03  0.81221048892E+03  0.12699999809E+01 0.  1.
</event>
<event>
 5   0  0.8234888E-06  0.1926676E+04  0.7818609E-02  0.8641691E-01
       -1   -1    0    0    0  501  0.00000000000E+00  0.00000000000E+00  0.31585844793E+03  0.31585844797E+03  0.50400001928E-02 0.  1.
        1   -1    0    0  501    0  0.00000000000E+00  0.00000000000E+00 -0.29380872145E+04  0.29380872145E+04  0.50400001928E-02 0. -1.
    10030    2    1    2    0    0  0.00000000000E+00  0.00000000000E+00 -0.26222287665E+04  0.32539456624E+04  0.19266755487E+04 0.  0.
        3    1    3    3  502    0 -0.40872639672E+03  0.84875195755E+03 -0.97088553631E+03  0.13527955824E+04  0.10100000352E+00 0.  1.
       -3    1    3    3    0  502  0.40872639672E+03 -0.84875195755E+03 -0.16513432302E+04  0.19011500801E+04  0.10100000352E+00 0. -1.
</event>
<event>
 5   0  0.8055928E-06  0.1451978E+04  0.7818609E-02  0.8917030E-01
        1   -1    0    0  501    0  0.00000000000E+00  0.00000000000E+00  0.93826222948E+03  0.93826222950E+03  0.50400001928E-02 0.  1.
       -1   -1    0    0    0  501  0.00000000000E+00  0.00000000000E+00 -0.56174051733E+03  0.56174051736E+03  0.50400001928E-02 0. -1.
    10030    2    1    2    0    0  0.00000000000E+00  0.00000000000E+00  0.37652171215E+03  0.15000027469E+04  0.14519778376E+04 0.  0.
        2    1    3    3  502    0 -0.54837348725E+03 -0.25632989030E+03 -0.22579680894E+03  0.64606709645E+03  0.25500000920E-02 0. -1.
       -2    1    3    3    0  502  0.54837348725E+03  0.25632989030E+03  0.60231852109E+03  0.85393565040E+03  0.25500000920E-02 0.  1.
</event>
<event>
 5   0  0.1976233E-05  0.2637835E+04  0.7818609E-02  0.8355462E-01
       -2   -1    0    0    0  501  0.00000000000E+00  0.00000000000E+00  0.77997654657E+03  0.77997654657E+03  0.25500000920E-02 0. -1.
        2   -1    0    0  501    0  0.00000000000E+00  0.00000000000E+00 -0.22302513352E+04  0.22302513352E+04  0.25500000920E-02 0.  1.
    10030    2    1    2    0    0  0.00000000000E+00  0.00000000000E+00 -0.14502747886E+04  0.30102278817E+04  0.26378352749E+04 0.  0.
        2    1    3    3  502    0  0.68695756755E+03  0.33846519224E+03 -0.19505443969E+04  0.20954934574E+04  0.25500000920E-02 0.  1.
       -2    1    3    3    0  502 -0.68695756755E+03 -0.33846519224E+03  0.50026960830E+03  0.91473442428E+03  0.25500000920E-02 0. -1.
</event>
<event>
 5   0  0.1937947E-05  0.2993091E+04  0.7818609E-02  0.8245707E-01
        2   -1    0    0  501    0  0.00000000000E+00  0.00000000000E+00  0.29390086599E+04  0.29390086599E+04  0.25500000920E-02 0.  1.
       -2   -1    0    0    0  501  0.00000000000E+00  0.00000000000E+00 -0.76204199584E+03  0.76204199585E+03  0.25500000920E-02 0. -1.
    10030    2    1    2    0    0  0.00000000000E+00  0.00000000000E+00  0.21769666640E+04  0.37010506557E+04  0.29930907270E+04 0.  0.
        3    1    3    3  502    0  0.14090183099E+04 -0.39572859892E+03  0.70195245234E+03  0.16231669591E+04  0.10100000352E+00 0. -1.
       -3    1    3    3    0  502 -0.14090183099E+04  0.39572859892E+03  0.14750142117E+04  0.20778836966E+04  0.10100000352E+00 0.  1.
</event>
<event>
 5   0  0.7305460E-06  0.2099186E+04  0.7818609E-02  0.8561602E-01
       -1   -1    0    0    0  501  0.00000000000E+00  0.00000000000E+00  0.12023436898E+04  0.12023436898E+04  0.50400001928E-02 0.  1.
        1   -1    0    0  501    0  0.00000000000E+00  0.00000000000E+00 -0.91624877315E+03  0.91624877316E+03  0.50400001928E-02 0. -1.
    10030    2    1    2    0    0  0.00000000000E+00  0.00000000000E+00  0.28609491669E+03  0.21185924630E+04  0.20991864431E+04 0.  0.
        4    1    3    3  502    0  0.10022515638E+04  0.29192702410E+03  0.25321117372E+03  0.10741727495E+04  0.12699999809E+01 0.  1.
       -4    1    3    3    0  502 -0.10022515638E+04 -0.29192702410E+03  0.32883742967E+02  0.10444197135E+04  0.12699999809E+01 0. -1.
</event>
<event>
 5   0  0.1937947E-05  0.2987644E+04  0.7818609E-02  0.8247268E-01
        2   -1    0    0  501    0  0.00000000000E+00  0.00000000000E+00  0.14974588285E+04  0.14974588285E+04  0.25500000920E-02 0. -1.
       -2   -1    0    0    0  501  0.00000000000E+00  0.00000000000E+00 -0.14901937225E+04  0.14901937225E+04  0.25500000920E-02 0.  1.
    10030    2    1    2    0    0  0.00000000000E+00  0.00000000000E+00  0.72651059916E+01  0.29876525510E+04  0.29876437177E+04 0.  0.
        3    1    3    3  502    0  0.97597514712E+03  0.59835291696E+03  0.96329680704E+03  0.14961599011E+04  0.10100000352E+00 0. -1.
       -3    1    3    3    0  502 -0.97597514712E+03 -0.59835291696E+03 -0.95603170105E+03  0.14914926499E+04  0.10100000352E+00 0.  1.
</event>
<event>
 5   0  0.8234888E-06  0.2701411E+04  0.7818609E-02  0.8334547E-01
        1   -1    0    0  501    0  0.00000000000E+00  0.00000000000E+00  0.10971149993E+04  0.10971149993E+04  0.50400001928E-02 0.  1.
       -1   -1    0    0    0  501  0.00000000000E+00  0.00000000000E+00 -0.16629118772E+04  0.16629118773E+04  0.50400001928E-02 0. -1.
    10030    2    1    2    0    0  0.00000000000E+00  0.00000000000E+00 -0.56579687793E+03  0.27600268766E+04  0.27014111594E+04 0.  0.
        3    1    3    3  502    0 -0.33009966568E+03 -0.20632435685E+02  0.10551026434E+04  0.11057274009E+04  0.10100000352E+00 0.  1.
       -3    1    3    3    0  502  0.33009966568E+03  0.20632435685E+02 -0.16208995214E+04  0.16542994757E+04  0.10100000352E+00 0. -1.
</event>
<event>
 5   0  0.1976233E-05  0.1957848E+04  0.7818609E-02  0.8626586E-01
        2   -1    0    0  501    0  0.00000000000E+00  0.00000000000E+00  0.87467706881E+03  0.87467706882E+03  0.25500000920E-02 0.  1.
       -2   -1    0    0    0  501  0.00000000000E+00  0.00000000000E+00 -0.10955955943E+04  0.10955955943E+04  0.25500000920E-02 0. -1.
    10030    2    1    2    0    0  0.00000000000E+00  0.00000000000E+00 -0.22091852547E+03  0.19702726631E+04  0.19578481484E+04 0.  0.
        2    1    3    3  502    0  0.10059251625E+03 -0.40054947206E+03 -0.10036352005E+04  0.10852844556E+04  0.25500000920E-02 0. -1.
       -2    1    3    3    0  502 -0.10059251625E+03  0.40054947206E+03  0.78271667507E+03  0.88498820746E+03  0.25500000920E-02 0.  1.
</event>
<event>
 5   0  0.1937947E-05  0.2978494E+04  0.7818609E-02  0.8249899E-01
        2   -1    0    0  501    0  0.00000000000E+00  0.00000000000E+00  0.15492097980E+04  0.15492097980E+04  0.25500000920E-02 0.  1.
       -2   -1    0    0    0  501  0.00000000000E+00  0.00000000000E+00 -0.14316048055E+04  0.14316048055E+04  0.25500000920E-02 0. -1.
    10030    2    1    2    0    0  0.00000000000E+00  0.00000000000E+00  0.11760499247E+03  0.29808146036E+04  0.29784937077E+04 0.  0.
        3    1    3    3  502    0  0.20517899981E+03 -0.55462434486E+03  0.14266702243E+04  0.15443751244E+04  0.10100000352E+00 0.  1.
       -3    1    3    3    0  502 -0.20517899981E+03  0.55462434486E+03 -0.13090652318E+04  0.14364394791E+04  0.10100000352E+00 0. -1.
</event>
<event>
 5   0  0.1918901E-05  0.2528570E+04  0.7818609E-02  0.8392877E-01
       -2   -1    0    0    0  501  0.00000000000E+00  0.00000000000E+00  0.69235351579E+03  0.69235351580E+03  0.25500000920E-02 0.  1.
        2   -1    0    0  501    0  0.00000000000E+00  0.00000000000E+00 -0.23086719420E+04  0.23086719420E+04  0.25500000920E-02 0. -1.
    10030    2    1    2    0    0  0.00000000000E+00  0.00000000000E+00 -0.16163184262E+04  0.30010254578E+04  0.25285704545E+04 0.  0.
        1    1    3    3  502    0  0.11940365942E+04 -0.22097638474E+03 -0.12258604314E+04  0.17254818887E+04  0.50400001928E-02 0. -1.
       -1    1    3    3    0  502 -0.11940365942E+04  0.22097638474E+03 -0.39045799486E+03  0.12755435691E+04  0.50400001928E-02 0.  1.
</event>
<event>
 5   0  0.8122088E-06  0.2858688E+04  0.7818609E-02  0.8285276E-01
        1   -1    0    0  501    0  0.00000000000E+00  0.00000000000E+00  0.13136570454E+04  0.13136570454E+04  0.50400001928E-02 0. -1.
       -1   -1    0    0    0  501  0.00000000000E+00  0.00000000000E+00 -0.15552193534E+04  0.15552193534E+04  0.50400001928E-02 0.  1.
    10030    2    1    2    0    0  0.00000000000E+00  0.00000000000E+00 -0.24156230799E+03  0.28688763989E+04  0.28586884131E+04 0.  0.
        1    1    3    3  502    0 -0.51711207375E+03 -0.80457796313E+03 -0.11867692565E+04  0.15241954809E+04  0.50400001928E-02 0.  1.
       -1    1    3    3    0  502  0.51711207375E+03  0.80457796313E+03  0.94520694855E+03  0.13446809180E+04  0.50400001928E-02 0. -1.
</event>
<event>
 5   0  0.1937947E-05  0.2927909E+04  0.7818609E-02  0.8264622E-01
       -2   -1    0    0    0  501  0.00000000000E+00  0.00000000000E+00  0.13306614654E+04  0.13306614654E+04  0.25500000920E-02 0. -1.
        2   -1    0    0  501    0  0.00000000000E+00  0.00000000000E+00 -0.16105992003E+04  0.16105992003E+04  0.25500000920E-02 0.  1.
    10030    2    1    2    0    0  0.00000000000E+00  0.00000000000E+00 -0.27993773497E+03  0.29412606657E+04  0.29279086680E+04 0.  0.
        3    1    3    3  502    0  0.11489353276E+04  0.67408807815E+03  0.47001940514E+03  0.14125740248E+04  0.10100000352E+00 0.  1.
       -3    1    3    3    0  502 -0.11489353276E+04 -0.67408807815E+03 -0.74995714011E+03  0.15286866410E+04  0.10100000352E+00 0. -1.
</event>
<event>
 5   0  0.7305460E-06  0.3049637E+04  0.7818609E-02  0.8229697E-01
        1   -1    0    0  501    0  0.00000000000E+00  0.00000000000E+00  0.10519560877E+04  0.10519560877E+04  0.50400001928E-02 0.  1.
       -1   -1    0    0    0  501  0.00000000000E+00  0.00000000000E+00 -0.22102357496E+04  0.22102357496E+04  0.50400001928E-02 0. -1.
    10030    2    1    2    0    0  0.00000000000E+00  0.00000000000E+00 -0.11582796619E+04  0.32621918373E+04  0.30496366682E+04 0.  0.
        4    1    3    3  502    0 -0.45435918044E+03 -0.81640209523E+03 -0.18681663607E+04  0.20887799812E+04  0.12699999809E+01 0. -1.
       -4    1    3    3    0  502  0.45435918044E+03  0.81640209523E+03  0.70988669879E+03  0.11734118561E+04  0.12699999809E+01 0.  1.
</event>
<event>
 5   0  0.1960961E-05  0.2482522E+04  0.7818609E-02  0.8409239E-01
        2   -1    0    0  501    0  0.00000000000E+00  0.00000000000E+00  0.16624344137E+04  0.16624344137E+04  0.25500000920E-02 0.  1.
       -2   -1    0    0    0  501  0.00000000000E+00  0.00000000000E+00 -0.92679083576E+03  0.92679083576E+03  0.25500000920E-02 0. -1.
    10030    2    1    2    0    0  0.00000000000E+00  0.00000000000E+00  0.73564357790E+03  0.25892252494E+04  0.24825220882E+04 0.  0.
        5    1    3    3  502    0 -0.85121972994E+02  0.48606904981E+03  0.15557217017E+04  0.16321154905E+04  0.46999998093E+01 0.  1.
       -5    1    3    3    0  502  0.85121972994E+02 -0.48606904981E+03 -0.82007812376E+03  0.95710975888E+03  0.46999998093E+01 0. -1.
</event>
<event>
 5   0  0.7305460E-06  0.2928625E+04  0.7818609E-02  0.8264411E-01
        1   -1    0    0  501    0  0.00000000000E+00  0.00000000000E+00  0.17150579976E+04  0.17150579976E+04  0.50400001928E-02 0. -1.
       -1   -1    0    0    0  501  0.00000000000E+00  0.00000000000E+00 -0.12502262107E+04  0.12502262107E+04  0.50400001928E-02 0.  1.
    10030    2    1    2    0    0  0.00000000000E+00  0.00000000000E+00  0.46483178693E+03  0.29652842084E+04  0.29286245656E+04 0.  0.
        4    1    3    3  502    0  0.95997313206E+03  0.91877545470E+03  0.85535056891E+03  0.15802920487E+04  0.12699999809E+01 0. -1.
       -4    1    3    3    0  502 -0.95997313206E+03 -0.91877545470E+03 -0.39051878197E+03  0.13849921597E+04  0.12699999809E+01 0.  1.
</event>
<event>
 5   0  0.8234888E-06  0.2871870E+04  0.7818609E-02  0.8281297E-01
        1   -1    0    0  501    0  0.00000000000E+00  0.00000000000E+00  0.13946109755E+04  0.13946109755E+04  0.50400001928E-02 0.  1.
       -1   -1    0    0    0  501  0.00000000000E+00  0.00000000000E+00 -0.14784833865E+04  0.14784833865E+04  0.50400001928E-02 0. -1.
    10030    2    1    2    0    0  0.00000000000E+00  0.00000000000E+00 -0.83872411013E+02  0.28730943620E+04  0.28718698842E+04 0.  0.
        3    1    3    3  502    0  0.11071756203E+03  0.12486840195E+04  0.65867587998E+03  0.14160946593E+04  0.10100000352E+00 0.  1.
       -3    1    3    3    0  502 -0.11071756203E+03 -0.12486840195E+04 -0.74254829099E+03  0.14569997027E+04  0.10100000352E+00 0. -1.
</event>
<event>
 5   0  0.1918901E-05  0.1949074E+04  0.7818609E-02  0.8630808E-01
        2   -1    0    0  501    0  0.00000000000E+00  0.00000000000E+00  0.23010602802E+04  0.23010602802E+04  0.25500000920E-02 0.  1.
       -2   -1    0    0    0  501  0.00000000000E+00  0.00000000000E+00 -0.41273236453E+03  0.41273236454E+03  0.25500000920E-02 0. -1.
    10030    2    1    2    0    0  0.00000000000E+00  0.00000000000E+00  0.18883279156E+04  0.27137926447E+04  0.19490736778E+04 0.  0.
        1    1    3    3  502    0  0.28064340243E+03  0.54154028381E+03  0.20024373548E+04  0.20932706367E+04  0.50400001928E-02 0.  1.
       -1    1    3    3    0  502 -0.28064340243E+03 -0.54154028381E+03 -0.11410943919E+03  0.62052200804E+03  0.50400001928E-02 0. -1.
</event>
<event>
 5   0  0.1829810E-05  0.2863181E+04  0.7818609E-02  0.8283917E-01
       -2   -1    0    0    0  501  0.00000000000E+00  0.00000000000E+00  0.12225118320E+04  0.12225118320E+04  0.25500000920E-02 0. -1.
        2   -1    0    0  501    0  0.00000000000E+00  0.00000000000E+00 -0.16764270407E+04  0.16764270407E+04  0.25500000920E-02 0.  1.
    10030    2    1    2    0    0  0.00000000000E+00  0.00000000000E+00 -0.45391520873E+03  0.28989388726E+04  0.28631813723E+04 0.  0.
        4    1    3    3  502    0  0.54140751647E+03 -0.13600633043E+03  0.11077738660E+04  0.12404774773E+04  0.12699999809E+01 0. -1.
       -4    1    3    3    0  502 -0.54140751647E+03  0.13600633043E+03 -0.15616890747E+04  0.16584613953E+04  0.12699999809E+01 0.  1.
</event>
<event>
 5   0  0.1937947E-05  0.2672530E+04  0.7818609E-02  0.8343973E-01
        2   -1    0    0  501    0  0.00000000000E+00  0.00000000000E+00  0.13927442919E+04  0.13927442919E+04  0.25500000920E-02 0.  1.
       -2   -1    0    0    0  501  0.00000000000E+00  0.00000000000E+00 -0.12820759589E+04  0.12820759589E+04  0.25500000920E-02 0. -1.
    10030    2    1    2    0    0  0.00000000000E+00  0.00000000000E+00  0.11066833298E+03  0.26748202509E+04  0.26725298679E+04 0.  0.
        3    1    3    3  502    0  0.89474343363E+03 -0.69203846364E+03 -0.65669728555E+03  0.13079504510E+04  0.10100000352E+00 0. -1.
       -3    1    3    3    0  502 -0.89474343363E+03  0.69203846364E+03  0.76736561853E+03  0.13668697999E+04  0.10100000352E+00 0.  1.
</event>
<event>
 5   0  0.7305460E-06  0.2738228E+04  0.7818609E-02  0.8322707E-01
        1   -1    0    0  501    0  0.00000000000E+00  0.00000000000E+00  0.15471982898E+04  0.15471982898E+04  0.50400001928E-02 0.  1.
       -1   -1    0    0    0  501  0.00000000000E+00  0.00000000000E+00 -0.12115274260E+04  0.12115274261E+04  0.50400001928E-02 0. -1.
    10030    2    1    2    0    0  0.00000000000E+00  0.00000000000E+00  0.33567086375E+03  0.27587257159E+04  0.27382280122E+04 0.  0.
        4    1    3    3  502    0 -0.13065433867E+04  0.29630560997E+03 -0.11644504545E+03  0.13447727307E+04  0.12699999809E+01 0. -1.
       -4    1    3    3    0  502  0.13065433867E+04 -0.29630560997E+03  0.45211590919E+03  0.14139529851E+04  0.12699999809E+01 0.  1.
</event>
<event>
 5   0  0.8055928E-06  0.2898055E+04  0.7818609E-02  0.8273456E-01
        1   -1    0    0  501    0  0.00000000000E+00  0.00000000000E+00  0.18981782145E+04  0.18981782145E+04  0.50400001928E-02 0.  1.
       -1   -1    0    0    0  501  0.00000000000E+00  0.00000000000E+00 -0.11061556098E+04  0.11061556098E+04  0.50400001928E-02 0. -1.
    10030    2    1    2    0    0  0.00000000000E+00  0.00000000000E+00  0.79202260473E+03  0.30043338243E+04  0.28980548513E+04 0.  0.
        2    1    3    3  502    0 -0.75671464961E+03  0.88518259770E+02  0.16737823847E+04  0.18390214829E+04  0.25500000920E-02 0.  1.
       -2    1    3    3    0  502  0.75671464961E+03 -0.88518259770E+02 -0.88175977999E+03  0.11653123413E+04  0.25500000920E-02 0. -1.
</event>
<event>
 5   0  0.1960961E-05  0.2831617E+04  0.7818609E-02  0.8293519E-01
       -2   -1    0    0    0  501  0.00000000000E+00  0.00000000000E+00  0.16526577346E+04  0.16526577346E+04  0.25500000920E-02 0. -1.
        2   -1    0    0  501    0  0.00000000000E+00  0.00000000000E+00 -0.12129032318E+04  0.12129032318E+04  0.25500000920E-02 0.  1.
    10030    2    1    2    0    0  0.00000000000E+00  0.00000000000E+00  0.43975450281E+03  0.28655609665E+04  0.28316171404E+04 0.  0.
        5    1    3    3  502    0 -0.11743551978E+02 -0.93748739334E+03 -0.85372232483E+03  0.12680238253E+04  0.46999998093E+01 0.  1.
       -5    1    3    3    0  502  0.11743551978E+02  0.93748739334E+03  0.12934768276E+04  0.15975371411E+04  0.46999998093E+01 0. -1.
</event>
<event>
 5   0  0.8122088E-06  0.3013127E+04  0.7818609E-02  0.8239992E-01
       -1   -1    0    0    0  501  0.00000000000E+00  0.00000000000E+00  0.82067822437E+03  0.82067822438E+03  0.50400001928E-02 0. -1.
        1   -1    0    0  501    0  0.00000000000E+00  0.00000000000E+00 -0.27656794137E+04  0.27656794138E+04  0.50400001928E-02 0.  1.
    10030    2    1    2    0    0  0.00000000000E+00  0.00000000000E+00 -0.19450011894E+04  0.35863576381E+04  0.30131265294E+04 0.  0.
        1    1    3    3  502    0 -0.20179286357E+03 -0.12933493030E+04 -0.84782283889E+02  0.13117396140E+04  0.50400001928E-02 0. -1.
       -1    1    3    3    0  502  0.20179286357E+03  0.12933493030E+04 -0.18602189055E+04  0.22746180241E+04  0.50400001928E-02 0.  1.
</event>
<event>
 5   0  0.1918901E-05  0.2878896E+04  0.7818609E-02  0.8279184E-01
       -2   -1    0    0    0  501  0.00000000000E+00  0.00000000000E+00  0.11482851324E+04  0.11482851324E+04  0.25500000920E-02 0.  1.
        2   -1    0    0  501    0  0.00000000000E+00  0.00000000000E+00 -0.18044394893E+04  0.18044394893E+04  0.25500000920E-02 0. -1.
    10030    2    1    2    0    0  0.00000000000E+00  0.00000000000E+00 -0.65615435687E+03  0.29527246217E+04  0.28788963426E+04 0.  0.
        1    1    3    3  502    0  0.94783651600E+03  0.84334330323E+03  0.36935292293E+03  0.13213794193E+04  0.50400001928E-02 0.  1.
       -1    1    3    3    0  502 -0.94783651600E+03 -0.84334330323E+03 -0.10255072798E+04  0.16313452023E+04  0.50400001928E-02 0. -1.
</event>
<event>
 5   0  0.8055928E-06  0.2905765E+04  0.7818609E-02  0.8271164E-01
        1   -1    0    0  501    0  0.00000000000E+00  0.00000000000E+00  0.77450268003E+03  0.77450268005E+03  0.50400001928E-02 0. -1.
       -1   -1    0    0    0  501  0.00000000000E+00  0.00000000000E+00 -0.27254492664E+04  0.27254492664E+04  0.50400001928E-02 0.  1.
    10030    2    1    2    0    0  0.00000000000E+00  0.00000000000E+00 -0.19509465864E+04  0.34999519465E+04  0.29057651393E+04 0.  0.
        2    1    3    3  502    0  0.15902347850E+03 -0.11313484106E+04 -0.20565821017E+04  0.23526086870E+04  0.25500000920E-02 0.  1.
       -2    1    3    3    0  502 -0.15902347850E+03  0.11313484106E+04  0.10563551534E+03  0.11473432595E+04  0.25500000920E-02 0. -1.
</event>
<event>
 5   0  0.7305460E-06  0.3016645E+04  0.7818609E-02  0.8238994E-01
        1   -1    0    0  501    0  0.00000000000E+00  0.00000000000E+00  0.21076652650E+04  0.21076652650E+04  0.50400001928E-02 0.  1.
       -1   -1    0    0    0  501  0.00000000000E+00  0.00000000000E+00 -0.10794111388E+04  0.10794111388E+04  0.50400001928E-02 0. -1.
    10030    2    1    2    0    0  0.00000000000E+00  0.00000000000E+00  0.10282541262E+04  0.31870764038E+04  0.30166453977E+04 0.  0.
        4    1    3    3  502    0 -0.13152132852E+03  0.14811366847E+04  0.24691059528E+03  0.15073255101E+04  0.12699999809E+01 0. -1.
       -4    1    3    3    0  502  0.13152132852E+03 -0.14811366847E+04  0.78134353097E+03  0.16797508937E+04  0.12699999809E+01 0.  1.
</event>
<event>
 5   0  0.6578125E-06  0.1548673E+04  0.7818609E-02  0.8852716E-01
        3   -1    0    0  501    0  0.00000000000E+00  0.00000000000E+00  0.88357042077E+03  0.88357042654E+03  0.10100000352E+00 0. -1.
       -3   -1    0    0    0  501  0.00000000000E+00  0.00000000000E+00 -0.67860723814E+03  0.67860724565E+03  0.10100000352E+00 0.  1.
    10030    2    1    2    0    0  0.00000000000E+00  0.00000000000E+00  0.20496318263E+03  0.15621776722E+04  0.15486733591E+04 0.  0.
        3    1    3    3  502    0 -0.23850503307E+03 -0.80828942747E+02  0.84110935206E+03  0.87799938559E+03  0.10100000352E+00 0. -1.
       -3    1    3    3    0  502  0.23850503307E+03  0.80828942747E+02 -0.63614616942E+03  0.68417828660E+03  0.10100000352E+00 0.  1.
</event>
<event>
 5   0  0.1829810E-05  0.1615301E+04  0.7818609E-02  0.8811203E-01
        2   -1    0    0  501    0  0.00000000000E+00  0.00000000000E+00  0.10275785342E+04  0.10275785342E+04  0.25500000920E-02 0. -1.
       -2   -1    0    0    0  501  0.00000000000E+00  0.00000000000E+00 -0.63479248957E+03  0.63479248957E+03  0.25500000920E-02 0.  1.
    10030    2    1    2    0    0  0.00000000000E+00  0.00000000000E+00  0.39278604465E+03  0.16623710238E+04  0.16153007596E+04 0.  0.
        4    1    3    3  502    0 -0.19143077518E+03 -0.19201472260E+03 -0.58655353522E+03  0.64619041928E+03  0.12699999809E+01 0.  1.
       -4    1    3    3    0  502  0.19143077518E+03  0.19201472260E+03  0.97933957987E+03  0.10161806045E+04  0.12699999809E+01 0. -1.
</event>
<event>
 5   0  0.7971153E-06  0.2916829E+04  0.7818609E-02  0.8267888E-01
       -1   -1    0    0    0  501  0.00000000000E+00  0.00000000000E+00  0.23342449217E+04  0.23342449217E+04  0.50400001928E-02 0. -1.
        1   -1    0    0  501    0  0.00000000000E+00  0.00000000000E+00 -0.91120361805E+03  0.91120361806E+03  0.50400001928E-02 0.  1.
    10030    2    1    2    0    0  0.00000000000E+00  0.00000000000E+00  0.14230413037E+04  0.32454485398E+04  0.29168287013E+04 0.  0.
        5    1    3    3  502    0 -0.24547461874E+03  0.11923483961E+04 -0.18207888156E+03  0.12309050716E+04  0.46999998093E+01 0.  1.
       -5    1    3    3    0  502  0.24547461874E+03 -0.11923483961E+04  0.16051201852E+04  0.20145434682E+04  0.46999998093E+01 0. -1.
</event>
<event>
 5   0  0.1976233E-05  0.2857145E+04  0.7818609E-02  0.8285743E-01
       -2   -1    0    0    0  501  0.00000000000E+00  0.00000000000E+00  0.20030908751E+04  0.20030908751E+04  0.25500000920E-02 0.  1.
        2   -1    0    0  501    0  0.00000000000E+00  0.00000000000E+00 -0.10188354264E+04  0.10188354264E+04  0.25500000920E-02 0. -1.
    10030    2    1    2    0    0  0.00000000000E+00  0.00000000000E+00  0.98425544866E+03  0.30219263015E+04  0.28571453907E+04 0.  0.
        2    1    3    3  502    0  0.40334635170E+03  0.13260996373E+04  0.85789221114E+03  0.16300943450E+04  0.25500000920E-02 0. -1.
       -2    1    3    3    0  502 -0.40334635170E+03 -0.13260996373E+04  0.12636323752E+03  0.13918319566E+04  0.25500000920E-02 0.  1.
</event>
<event>
 5   0  0.7305460E-06  0.2894657E+04  0.7818609E-02  0.8274469E-01
        1   -1    0    0  501    0  0.00000000000E+00  0.00000000000E+00  0.18002115753E+04  0.18002115753E+04  0.50400001928E-02 0. -1.
       -1   -1    0    0    0  501  0.00000000000E+00  0.00000000000E+00 -0.11636184770E+04  0.11636184770E+04  0.50400001928E-02 0.  1.
    10030    2    1    2    0    0  0.00000000000E+00  0.00000000000E+00  0.63659309824E+03  0.29638300523E+04  0.28946567683E+04 0.  0.
        4    1    3    3  502    0  0.14000659188E+04 -0.32044681107E+03  0.13545968929E+03  0.14426439880E+04  0.12699999809E+01 0.  1.
       -4    1    3    3    0  502 -0.14000659188E+04  0.32044681107E+03  0.50113340895E+03  0.15211860643E+04  0.12699999809E+01 0. -1.
</event>
<event>
 5   0  0.8122088E-06  0.2920022E+04  0.7818609E-02  0.8266945E-01
        1   -1    0    0  501    0  0.00000000000E+00  0.00000000000E+00  0.19691921524E+04  0.19691921524E+04  0.50400001928E-02 0.  1.
       -1   -1    0    0    0  501  0.00000000000E+00  0.00000000000E+00 -0.10824904222E+04  0.10824904222E+04  0.50400001928E-02 0. -1.
    10030    2    1    2    0    0  0.00000000000E+00  0.00000000000E+00  0.88670173017E+03  0.30516825746E+04  0.29200216742E+04 0.  0.
        1    1    3    3  502    0  0.68635710030E+03 -0.44388752023E+03 -0.82095178281E+03  0.11584835042E+04  0.50400001928E-02 0. -1.
       -1    1    3    3    0  502 -0.68635710030E+03  0.44388752023E+03  0.17076535130E+04  0.18931990704E+04  0.50400001928E-02 0.  1.
</event>
<event>
 5   0  0.1976233E-05  0.2879955E+04  0.7818609E-02  0.8278867E-01
        2   -1    0    0  501    0  0.00000000000E+00  0.00000000000E+00  0.22651107503E+04  0.22651107503E+04  0.25500000920E-02 0. -1.
       -2   -1    0    0    0  501  0.00000000000E+00  0.00000000000E+00 -0.91542323444E+03  0.91542323444E+03  0.25500000920E-02 0.  1.
    10030    2    1    2    0    0  0.00000000000E+00  0.00000000000E+00  0.13496875159E+04  0.31805339847E+04  0.28799548673E+04 0.  0.
        2    1    3    3  502    0 -0.49636959483E+03  0.12171113581E+04  0.13242581969E+04  0.18658517102E+04  0.25500000920E-02 0. -1.
       -2    1    3    3    0  502  0.49636959483E+03 -0.12171113581E+04  0.25429319003E+02  0.13146822745E+04  0.25500000920E-02 0.  1.
</event>
<event>
 5   0  0.1829810E-05  0.2794397E+04  0.7818609E-02  0.8305010E-01
       -2   -1    0    0    0  501  0.00000000000E+00  0.00000000000E+00  0.96586152692E+03  0.96586152693E+03  0.25500000920E-02 0.  1.
        2   -1    0    0  501    0  0.00000000000E+00  0.00000000000E+00 -0.20211632354E+04  0.20211632354E+04  0.25500000920E-02 0. -1.
    10030    2    1    2    0    0  0.00000000000E+00  0.00000000000E+00 -0.10553017084E+04  0.29870247623E+04  0.27943971147E+04 0.  0.
        4    1    3    3  502    0 -0.91687613233E+03  0.82160137511E+03  0.17855068735E+03  0.12440147195E+04  0.12699999809E+01 0.  1.
       -4    1    3    3    0  502  0.91687613233E+03 -0.82160137511E+03 -0.12338523958E+04  0.17430100427E+04  0.12699999809E+01 0. -1.
</event>
<event>
 5   0  0.8055928E-06  0.2304364E+04  0.7818609E-02  0.8476203E-01
        1   -1    0    0  501    0  0.00000000000E+00  0.00000000000E+00  0.14404052766E+04  0.14404052766E+04  0.50400001928E-02 0.  1.
       -1   -1    0    0    0  501  0.00000000000E+00  0.00000000000E+00 -0.92163154210E+03  0.92163154211E+03  0.50400001928E-02 0. -1.
    10030    2    1    2    0    0  0.00000000000E+00  0.00000000000E+00  0.51877373445E+03  0.23620368187E+04  0.23043636313E+04 0.  0.
        2    1    3    3  502    0 -0.87358693551E+03  0.65877773890E+03 -0.11073291110E+03  0.10997290670E+04  0.25500000920E-02 0. -1.
       -2    1    3    3    0  502  0.87358693551E+03 -0.65877773890E+03  0.62950664555E+03  0.12623077517E+04  0.25500000920E-02 0.  1.
</event>
<event>
 5   0  0.8122088E-06  0.2755677E+04  0.7818609E-02  0.8317163E-01
       -1   -1    0    0    0  501  0.00000000000E+00  0.00000000000E+00  0.79687526001E+03  0.79687526002E+03  0.50400001928E-02 0. -1.
        1   -1    0    0  501    0  0.00000000000E+00  0.00000000000E+00 -0.23823535312E+04  0.23823535312E+04  0.50400001928E-02 0.  1.
    10030    2    1    2    0    0  0.00000000000E+00  0.00000000000E+00 -0.15854782712E+04  0.31792287912E+04  0.27556767515E+04 0.  0.
        1    1    3    3  502    0 -0.93772828842E+03  0.73267441323E+03 -0.15939535290E+04  0.19891792256E+04  0.50400001928E-02 0.  1.
       -1    1    3    3    0  502  0.93772828842E+03 -0.73267441323E+03  0.84752578367E+01  0.11900495657E+04  0.50400001928E-02 0. -1.
</event>
<event>
 5   0  0.7305460E-06  0.2924489E+04  0.7818609E-02  0.8265628E-01
        1   -1    0    0  501    0  0.00000000000E+00  0.00000000000E+00  0.95475796821E+03  0.95475796822E+03  0.50400001928E-02 0.  1.
       -1   -1    0    0    0  501  0.00000000000E+00  0.00000000000E+00 -0.22394768534E+04  0.22394768534E+04  0.50400001928E-02 0. -1.
    10030    2    1    2    0    0  0.00000000000E+00  0.00000000000E+00 -0.12847188852E+04  0.31942348216E+04  0.29244885846E+04 0.  0.
        4    1    3    3  502    0 -0.55347039376E+03 -0.10192093960E+03  0.83173148387E+03  0.10042391293E+04  0.12699999809E+01 0.  1.
       -4    1    3    3    0  502  0.55347039376E+03  0.10192093960E+03 -0.21164503690E+04  0.21899956923E+04  0.12699999809E+01 0. -1.
</event>
<event>
 5   0  0.1829810E-05  0.2834696E+04  0.7818609E-02  0.8292577E-01
       -2   -1    0    0    0  501  0.00000000000E+00  0.00000000000E+00  0.12569473164E+04  0.12569473164E+04  0.25500000920E-02 0.  1.
        2   -1    0    0  501    0  0.00000000000E+00  0.00000000000E+00 -0.15982178117E+04  0.15982178117E+04  0.25500000920E-02 0. -1.
    10030    2    1    2    0    0  0.00000000000E+00  0.00000000000E+00 -0.34127049535E+03  0.28551651281E+04  0.28346961668E+04 0.  0.
        4    1    3    3  502    0 -0.74816884677E+03  0.23856884590E+03  0.10178009777E+04  0.12855318591E+04  0.12699999809E+01 0.  1.
       -4    1    3    3    0  502  0.74816884677E+03 -0.23856884590E+03 -0.13590714731E+04  0.15696332691E+04  0.12699999809E+01 0. -1.
</event>
<event>
 5   0  0.8234888E-06  0.2875228E+04  0.7818609E-02  0.8280286E-01
        1   -1    0    0  501    0  0.00000000000E+00  0.00000000000E+00  0.98506932582E+03  0.98506932584E+03  0.50400001928E-02 0. -1.
       -1   -1    0    0    0  501  0.00000000000E+00  0.00000000000E+00 -0.20980589758E+04  0.20980589758E+04  0.50400001928E-02 0.  1.
    10030    2    1    2    0    0  0.00000000000E+00  0.00000000000E+00 -0.11129896500E+04  0.30831283016E+04  0.28752276716E+04 0.  0.
        3    1    3    3  502    0  0.42911980782E+03  0.12692173283E+04  0.24203104268E+01  0.13397993522E+04  0.10100000352E+00 0. -1.
       -3    1    3    3    0  502 -0.42911980782E+03 -0.12692173283E+04 -0.11154099604E+04  0.17433289494E+04  0.10100000352E+00 0.  1.
</event>
<event>
 5   0  0.8122088E-06  0.2861263E+04  0.7818609E-02  0.8284497E-01
        1   -1    0    0  501    0  0.00000000000E+00  0.00000000000E+00  0.13251925001E+04  0.13251925001E+04  0.50400001928E-02 0.  1.
       -1   -1    0    0    0  501  0.00000000000E+00  0.00000000000E+00 -0.15444598735E+04  0.15444598735E+04  0.50400001928E-02 0. -1.
    10030    2    1    2    0    0  0.00000000000E+00  0.00000000000E+00 -0.21926737341E+03  0.28696523737E+04  0.28612631065E+04 0.  0.
        1    1    3    3  502    0 -0.13825417828E+04  0.30264713342E+03  0.99999672492E+02  0.14188083038E+04  0.50400001928E-02 0.  1.
       -1    1    3    3    0  502  0.13825417828E+04 -0.30264713342E+03 -0.31926704591E+03  0.14508440699E+04  0.50400001928E-02 0. -1.
</event>
<event>
 5   0  0.8122088E-06  0.2801283E+04  0.7818609E-02  0.8302870E-01
       -1   -1    0    0    0  501  0.00000000000E+00  0.00000000000E+00  0.10359776654E+04  0.10359776654E+04  0.50400001928E-02 0.  1.
        1   -1    0    0  501    0  0.00000000000E+00  0.00000000000E+00 -0.18936664143E+04  0.18936664143E+04  0.50400001928E-02 0. -1.
    10030    2    1    2    0    0  0.00000000000E+00  0.00000000000E+00 -0.85768874891E+03  0.29296440797E+04  0.28012826425E+04 0.  0.
        1    1    3    3  502    0 -0.63772726600E+03  0.36171912527E+03  0.81926448540E+03  0.10994230707E+04  0.50400001928E-02 0.  1.
       -1    1    3    3    0  502  0.63772726600E+03 -0.36171912527E+03 -0.16769532343E+04  0.18302210089E+04  0.50400001928E-02 0. -1.
</event>
<event>
 5   0  0.1829810E-05  0.2738169E+04  0.7818609E-02  0.8322726E-01
       -2   -1    0    0    0  501  0.00000000000E+00  0.00000000000E+00  0.13895886802E+04  0.13895886802E+04  0.25500000920E-02 0. -1.
        2   -1    0    0  501    0  0.00000000000E+00  0.00000000000E+00 -0.13488828297E+04  0.13488828297E+04  0.25500000920E-02 0.  1.
    10030    2    1    2    0    0  0.00000000000E+00  0.00000000000E+00  0.40705850423E+02  0.27384715099E+04  0.27381689583E+04 0.  0.
        4    1    3    3  502    0  0.10258477000E+04 -0.30020183561E+03 -0.83525668434E+03  0.13565175957E+04  0.12699999809E+01 0.  1.
       -4    1    3    3    0  502 -0.10258477000E+04  0.30020183561E+03  0.87596253477E+03  0.13819539142E+04  0.12699999809E+01 0. -1.
</event>
<event>
 5   0  0.1937947E-05  0.3029047E+04  0.7818609E-02  0.8235485E-01
        2   -1    0    0  501    0  0.00000000000E+00  0.00000000000E+00  0.15532889678E+04  0.15532889678E+04  0.25500000920E-02 0.  1.
       -2   -1    0    0    0  501  0.00000000000E+00  0.00000000000E+00 -0.14767259296E+04  0.14767259296E+04  0.25500000920E-02 0. -1.
    10030    2    1    2    0    0  0.00000000000E+00  0.00000000000E+00  0.76563038175E+02  0.30300148975E+04  0.30290474377E+04 0.  0.
        3    1    3    3  502    0  0.79589567729E+03  0.93110625816E+03 -0.85271801517E+03  0.14924934897E+04  0.10100000352E+00 0. -1.
       -3    1    3    3    0  502 -0.79589567729E+03 -0.93110625816E+03  0.92928105335E+03  0.15375214078E+04  0.10100000352E+00 0.  1.
</event>
<event>
 5   0  0.1960961E-05  0.2888072E+04  0.7818609E-02  0.8276435E-01
       -2   -1    0    0    0  501  0.00000000000E+00  0.00000000000E+00  0.72401507088E+03  0.72401507089E+03  0.25500000920E-02 0.  1.
        2   -1    0    0  501    0  0.00000000000E+00  0.00000000000E+00 -0.28801060464E+04  0.28801060464E+04  0.25500000920E-02 0. -1.
    10030    2    1    2    0    0  0.00000000000E+00  0.00000000000E+00 -0.21560909755E+04  0.36041211173E+04  0.28880721482E+04 0.  0.
        5    1    3    3  502    0 -0.14085883089E+04 -0.28481514121E+03 -0.12544301728E+04  0.19075790513E+04  0.46999998093E+01 0. -1.
       -5    1    3    3    0  502  0.14085883089E+04  0.28481514121E+03 -0.90166080269E+03  0.16965420660E+04  0.46999998093E+01 0.  1.
</event>
<event>
 5   0  0.1937947E-05  0.2927777E+04  0.7818609E-02  0.8264661E-01
        2   -1    0    0  501    0  0.00000000000E+00  0.00000000000E+00  0.22428547276E+04  0.22428547276E+04  0.25500000920E-02 0. -1.
       -2   -1    0    0    0  501  0.00000000000E+00  0.00000000000E+00 -0.95546483976E+03  0.95546483976E+03  0.25500000920E-02 0.  1.
    10030    2    1    2    0    0  0.00000000000E+00  0.00000000000E+00  0.12873898879E+04  0.31983195674E+04  0.29277765167E+04 0.  0.
        3    1    3    3  502    0  0.10291868089E+04  0.97203521326E+03  0.10508134046E+04  0.17630333987E+04  0.10100000352E+00 0. -1.
       -3    1    3    3    0  502 -0.10291868089E+04 -0.97203521326E+03  0.23657648323E+03  0.14352861687E+04  0.10100000352E+00 0.  1.
</event>
<event>
 5   0  0.7971153E-06  0.1717288E+04  0.7818609E-02  0.8751565E-01
        1   -1    0    0  501    0  0.00000000000E+00  0.00000000000E+00  0.20612556494E+04  0.20612556494E+04  0.50400001928E-02 0. -1.
       -1   -1    0    0    0  501  0.00000000000E+00  0.00000000000E+00 -0.35767987094E+03  0.35767987098E+03  0.50400001928E-02 0.  1.
    10030    2    1    2    0    0  0.00000000000E+00  0.00000000000E+00  0.17035757785E+04  0.24189355204E+04  0.17172881584E+04 0.  0.
        5    1    3    3  502    0 -0.18414286915E+03  0.68082085199E+03  0.16198411084E+03  0.72366191756E+03  0.46999998093E+01 0.  1.
       -5    1    3    3    0  502  0.18414286915E+03 -0.68082085199E+03  0.15415916677E+04  0.16952736029E+04  0.46999998093E+01 0. -1.
</event>
<event>
 5   0  0.1960961E-05  0.2921586E+04  0.7818609E-02  0.8266484E-01
       -2   -1    0    0    0  501  0.00000000000E+00  0.00000000000E+00  0.14353520769E+04  0.14353520769E+04  0.25500000920E-02 0.  1.
        2   -1    0    0  501    0  0.00000000000E+00  0.00000000000E+00 -0.14866845579E+04  0.14866845579E+04  0.25500000920E-02 0. -1.
    10030    2    1    2    0    0  0.00000000000E+00  0.00000000000E+00 -0.51332481013E+02  0.29220366347E+04  0.29215857117E+04 0.  0.
        5    1    3    3  502    0 -0.22071824224E+03 -0.12776825724E+04  0.64727070507E+03  0.14491965891E+04  0.46999998093E+01 0.  1.
       -5    1    3    3    0  502  0.22071824224E+03  0.12776825724E+04 -0.69860318608E+03  0.14728400456E+04  0.46999998093E+01 0. -1.
</event>
<event>
 5   0  0.1976233E-05  0.2651975E+04  0.7818609E-02  0.8350758E-01
        2   -1    0    0  501    0  0.00000000000E+00  0.00000000000E+00  0.10940317964E+04  0.10940317964E+04  0.25500000920E-02 0.  1.
       -2   -1    0    0    0  501  0.00000000000E+00  0.00000000000E+00 -0.16071224426E+04  0.16071224426E+04  0.25500000920E-02 0. -1.
    10030    2    1    2    0    0  0.00000000000E+00  0.00000000000E+00 -0.51309064623E+03  0.27011542391E+04  0.26519751530E+04 0.  0.
        2    1    3    3  502    0 -0.31763866208E+03 -0.15924257040E+03  0.10446387867E+04  0.11034141156E+04  0.25500000920E-02 0.  1.
       -2    1    3    3    0  502  0.31763866208E+03  0.15924257040E+03 -0.15577294329E+04  0.15977401234E+04  0.25500000920E-02 0. -1.
</event>
<event>
 5   0  0.1960961E-05  0.3003588E+04  0.7818609E-02  0.8242707E-01
        2   -1    0    0  501    0  0.00000000000E+00  0.00000000000E+00  0.16925685062E+04  0.16925685062E+04  0.25500000920E-02 0. -1.
       -2   -1    0    0    0  501  0.00000000000E+00  0.00000000000E+00 -0.13325222940E+04  0.13325222940E+04  0.25500000920E-02 0.  1.
    10030    2    1    2    0    0  0.00000000000E+00  0.00000000000E+00  0.36004621228E+03  0.30250908002E+04  0.30035880334E+04 0.  0.
        5    1    3    3  502    0  0.47685684744E+01 -0.14378354168E+04  0.61668172373E+03  0.15645164951E+04  0.46999998093E+01 0. -1.
       -5    1    3    3    0  502 -0.47685684744E+01  0.14378354168E+04 -0.25663551145E+03  0.14605743051E+04  0.46999998093E+01 0.  1.
</event>
<event>
 5   0  0.8122088E-06  0.2842925E+04  0.7818609E-02  0.8290065E-01
       -1   -1    0    0    0  501  0.00000000000E+00  0.00000000000E+00  0.12129388532E+04  0.12129388533E+04  0.50400001928E-02 0.  1.
        1   -1    0    0  501    0  0.00000000000E+00  0.00000000000E+00 -0.16658343327E+04  0.16658343327E+04  0.50400001928E-02 0. -1.
    10030    2    1    2    0    0  0.00000000000E+00  0.00000000000E+00 -0.45289547948E+03  0.28787731860E+04  0.28429246809E+04 0.  0.
        1    1    3    3  502    0 -0.84920349853E+03 -0.92355124149E+02 -0.13769431368E+04  0.16203852792E+04  0.50400001928E-02 0. -1.
       -1    1    3    3    0  502  0.84920349853E+03  0.92355124149E+02  0.92404765737E+03  0.12583879068E+04  0.50400001928E-02 0.  1.
</event>
<event>
 5   0  0.1976233E-05  0.2781549E+04  0.7818609E-02  0.8309020E-01
        2   -1    0    0  501    0  0.00000000000E+00  0.00000000000E+00  0.16218517830E+04  0.16218517830E+04  0.25500000920E-02 0.  1.
       -2   -1    0    0    0  501  0.00000000000E+00  0.00000000000E+00 -0.11926204720E+04  0.11926204720E+04  0.25500000920E-02 0. -1.
    10030    2    1    2    0    0  0.00000000000E+00  0.00000000000E+00  0.42923131107E+03  0.28144722550E+04  0.27815489490E+04 0.  0.
        2    1    3    3  502    0  0.61940369331E+01  0.25681209885E+03 -0.11684068591E+04  0.11963132569E+04  0.25500000920E-02 0. -1.
       -2    1    3    3    0  502 -0.61940369331E+01 -0.25681209885E+03  0.15976381702E+04  0.16181589981E+04  0.25500000920E-02 0.  1.
</event>
<event>
 5   0  0.7971153E-06  0.2894491E+04  0.7818609E-02  0.8274519E-01
       -1   -1    0    0    0  501  0.00000000000E+00  0.00000000000E+00  0.98956529253E+03  0.98956529254E+03  0.50400001928E-02 0. -1.
        1   -1    0    0  501    0  0.00000000000E+00  0.00000000000E+00 -0.21166051202E+04  0.21166051202E+04  0.50400001928E-02 0.  1.
    10030    2    1    2    0    0  0.00000000000E+00  0.00000000000E+00 -0.11270398277E+04  0.31061704127E+04  0.28944906046E+04 0.  0.
        5    1    3    3  502    0  0.54000022050E+03 -0.97572295601E+02 -0.20006260559E+04  0.20745233902E+04  0.46999998093E+01 0.  1.
       -5    1    3    3    0  502 -0.54000022050E+03  0.97572295601E+02  0.87358622822E+03  0.10316470225E+04  0.46999998093E+01 0. -1.
</event>
<event>
 5   0  0.8234888E-06  0.2019319E+04  0.7818609E-02  0.8597641E-01
        1   -1    0    0  501    0  0.00000000000E+00  0.00000000000E+00  0.21348204876E+04  0.21348204876E+04  0.50400001928E-02 0.  1.
       -1   -1    0    0    0  501  0.00000000000E+00  0.00000000000E+00 -0.47751647977E+03  0.47751647980E+03  0.50400001928E-02 0. -1.
    10030    2    1    2    0    0  0.00000000000E+00  0.00000000000E+00  0.16573040079E+04  0.26123369674E+04  0.20193186616E+04 0.  0.
        3    1    3    3  502    0 -0.98483391063E+03 -0.79942684583E+02  0.56000606526E+03  0.11357356504E+04  0.10100000352E+00 0. -1.
       -3    1    3    3    0  502  0.98483391063E+03  0.79942684583E+02  0.10972979426E+04  0.14766013170E+04  0.10100000352E+00 0.  1.
</event>
<event>
 5   0  0.1829810E-05  0.3097732E+04  0.7818609E-02  0.8216361E-01
        2   -1    0    0  501    0  0.00000000000E+00  0.00000000000E+00  0.13521231804E+04  0.13521231804E+04  0.25500000920E-02 0. -1.
       -2   -1    0    0    0  501  0.00000000000E+00  0.00000000000E+00 -0.17742361016E+04  0.17742361016E+04  0.25500000920E-02 0.  1.
    10030    2    1    2    0    0  0.00000000000E+00  0.00000000000E+00 -0.42211292129E+03  0.31263592820E+04  0.30977319190E+04 0.  0.
        4    1    3    3  502    0  0.43427936800E+02 -0.37262227685E+03  0.13055787745E+04  0.13584074853E+04  0.12699999809E+01 0. -1.
       -4    1    3    3    0  502 -0.43427936800E+02  0.37262227685E+03 -0.17276916958E+04  0.17679517967E+04  0.12699999809E+01 0.  1.
</event>
<event>
 5   0  0.7971153E-06  0.2827244E+04  0.7818609E-02  0.8294860E-01
       -1   -1    0    0    0  501  0.00000000000E+00  0.00000000000E+00  0.10586476608E+04  0.10586476608E+04  0.50400001928E-02 0. -1.
        1   -1    0    0  501    0  0.00000000000E+00  0.00000000000E+00 -0.18876221248E+04  0.18876221248E+04  0.50400001928E-02 0.  1.
    10030    2    1    2    0    0  0.00000000000E+00  0.00000000000E+00 -0.82897446402E+03  0.29462697857E+04  0.28272437086E+04 0.  0.
        5    1    3    3  502    0  0.51893428621E+03 -0.12550902648E+04 -0.58561839634E+01  0.13581607972E+04  0.46999998093E+01 0. -1.
       -5    1    3    3    0  502 -0.51893428621E+03  0.12550902648E+04 -0.82311828006E+03  0.15881089884E+04  0.46999998093E+01 0.  1.
</event>
<event>
 5   0  0.7305460E-06  0.2948410E+04  0.7818609E-02  0.8258618E-01
        1   -1    0    0  501    0  0.00000000000E+00  0.00000000000E+00  0.14424616555E+04  0.14424616555E+04  0.50400001928E-02 0.  1.
       -1   -1    0    0    0  501  0.00000000000E+00  0.00000000000E+00 -0.15066473911E+04  0.15066473911E+04  0.50400001928E-02 0. -1.
    10030    2    1    2    0    0  0.00000000000E+00  0.00000000000E+00 -0.64185735611E+02  0.29491090466E+04  0.29484104803E+04 0.  0.
        4    1    3    3  502    0 -0.95784687710E+03 -0.10672975561E+04 -0.37376531717E+03  0.14819908362E+04  0.12699999809E+01 0. -1.
       -4    1    3    3    0  502  0.95784687710E+03  0.10672975561E+04  0.30957958156E+03  0.14671182105E+04  0.12699999809E+01 0.  1.
</event>
<event>
 5   0  0.7971153E-06  0.2797409E+04  0.7818609E-02  0.8304073E-01
        1   -1    0    0  501    0  0.00000000000E+00  0.00000000000E+00  0.15212012207E+04  0.15212012207E+04  0.50400001928E-02 0.  1.
       -1   -1    0    0    0  501  0.00000000000E+00  0.00000000000E+00 -0.12860722838E+04  0.12860722839E+04  0.50400001928E-02 0. -1.
    10030    2    1    2    0    0  0.00000000000E+00  0.00000000000E+00  0.23512893689E+03  0.28072735046E+04  0.27974093216E+04 0.  0.
        5    1    3    3  502    0 -0.89235735950E+03  0.25987631398E+03  0.11664847176E+04  0.14914912142E+04  0.46999998093E+01 0.  1.
       -5    1    3    3    0  502  0.89235735950E+03 -0.25987631398E+03 -0.93135578068E+03  0.13157822904E+04  0.46999998093E+01 0. -1.
</event>
<event>
 5   0  0.1937947E-05  0.2880854E+04  0.7818609E-02  0.8278597E-01
       -2   -1    0    0    0  501  0.00000000000E+00  0.00000000000E+00  0.12154216689E+04  0.12154216689E+04  0.25500000920E-02 0.  1.
        2   -1    0    0  501    0  0.00000000000E+00  0.00000000000E+00 -0.17070868281E+04  0.17070868281E+04  0.25500000920E-02 0. -1.
    10030    2    1    2    0    0  0.00000000000E+00  0.00000000000E+00 -0.49166515914E+03  0.29225084970E+04  0.28808542633E+04 0.  0.
        3    1    3    3  502    0  0.58503860118E+03 -0.83633391125E+02 -0.15784338754E+04  0.16854430332E+04  0.10100000352E+00 0. -1.
       -3    1    3    3    0  502 -0.58503860118E+03  0.83633391125E+02  0.10867687162E+04  0.12370654638E+04  0.10100000352E+00 0.  1.
</event>
<event>
 5   0  0.7305460E-06  0.1673388E+04  0.7818609E-02  0.8776689E-01
        1   -1    0    0  501    0  0.00000000000E+00  0.00000000000E+00  0.11548532592E+04  0.11548532592E+04  0.50400001928E-02 0. -1.
       -1   -1    0    0    0  501  0.00000000000E+00  0.00000000000E+00 -0.60618699994E+03  0.60618699997E+03  0.50400001928E-02 0.  1.
    10030    2    1    2    0    0  0.00000000000E+00  0.00000000000E+00  0.54866625923E+03  0.17610402592E+04  0.16733882187E+04 0.  0.
        4    1    3    3  502    0  0.71423221573E+03  0.43040795503E+03  0.20236423401E+03  0.85809764120E+03  0.12699999809E+01 0.  1.
       -4    1    3    3    0  502 -0.71423221573E+03 -0.43040795503E+03  0.34630202522E+03  0.90294261795E+03  0.12699999809E+01 0. -1.
</event>
<event>
 5   0  0.6578125E-06  0.2876881E+04  0.7818609E-02  0.8279789E-01
        3   -1    0    0  501    0  0.00000000000E+00  0.00000000000E+00  0.18044787350E+04  0.18044787378E+04  0.10100000352E+00 0.  1.
       -3   -1    0    0    0  501  0.00000000000E+00  0.00000000000E+00 -0.11466530516E+04  0.11466530560E+04  0.10100000352E+00 0. -1.
    10030    2    1    2    0    0  0.00000000000E+00  0.00000000000E+00  0.65782568337E+03  0.29511317939E+04  0.28768809908E+04 0.  0.
        4    1    3    3  502    0 -0.11309550671E+04 -0.12726319385E+03 -0.57348130486E+03  0.12744166133E+04  0.12699999809E+01 0. -1.
       -4    1    3    3    0  502  0.11309550671E+04  0.12726319385E+03  0.12313069882E+04  0.16767151805E+04  0.12699999809E+01 0.  1.
</event>
<event>
 5   0  0.1960961E-05  0.3015857E+04  0.7818609E-02  0.8239217E-01
        2   -1    0    0  501    0  0.00000000000E+00  0.00000000000E+00  0.14200657586E+04  0.14200657586E+04  0.25500000920E-02 0. -1.
       -2   -1    0    0    0  501  0.00000000000E+00  0.00000000000E+00 -0.16012279537E+04  0.16012279537E+04  0.25500000920E-02 0.  1.
    10030    2    1    2    0    0  0.00000000000E+00  0.00000000000E+00 -0.18116219502E+03  0.30212937123E+04  0.30158574162E+04 0.  0.
        5    1    3    3  502    0  0.10616220827E+04 -0.10698563597E+04 -0.43669112425E+02  0.15078339293E+04  0.46999998093E+01 0. -1.
       -5    1    3    3    0  502 -0.10616220827E+04  0.10698563597E+04 -0.13749308260E+03  0.15134597830E+04  0.46999998093E+01 0.  1.
</event>
<event>
 5   0  0.7971153E-06  0.2954267E+04  0.7818609E-02  0.8256912E-01
        1   -1    0    0  501    0  0.00000000000E+00  0.00000000000E+00  0.15681458760E+04  0.15681458760E+04  0.50400001928E-02 0.  1.
       -1   -1    0    0    0  501  0.00000000000E+00  0.00000000000E+00 -0.13914028908E+04  0.13914028908E+04  0.50400001928E-02 0. -1.
    10030    2    1    2    0    0  0.00000000000E+00  0.00000000000E+00  0.17674298523E+03  0.29595487668E+04  0.29542665452E+04 0.  0.
        5    1    3    3  502    0  0.32796885726E+03  0.13318599663E+04 -0.46077472769E+03  0.14469796062E+04  0.46999998093E+01 0.  1.
       -5    1    3    3    0  502 -0.32796885726E+03 -0.13318599663E+04  0.63751771292E+03  0.15125691605E+04  0.46999998093E+01 0. -1.
</event>
<event>
 5   0  0.1829810E-05  0.2815530E+04  0.7818609E-02  0.8298463E-01
       -2   -1    0    0    0  501  0.00000000000E+00  0.00000000000E+00  0.16230278631E+04  0.16230278631E+04  0.25500000920E-02 0. -1.
        2   -1    0    0  501    0  0.00000000000E+00  0.00000000000E+00 -0.12210521109E+04  0.12210521109E+04  0.25500000920E-02 0.  1.
    10030    2    1    2    0    0  0.00000000000E+00  0.00000000000E+00  0.40197575214E+03  0.28440799740E+04  0.28155295049E+04 0.  0.
        4    1    3    3  502    0  0.34450746245E+03  0.11429529508E+04  0.95472665837E+03  0.15285717008E+04  0.12699999809E+01 0. -1.
       -4    1    3    3    0  502 -0.34450746245E+03 -0.11429529508E+04 -0.55275090623E+03  0.13155082731E+04  0.12699999809E+01 0.  1.
</event>
<event>
 5   0  0.7305460E-06  0.2789122E+04  0.7818609E-02  0.8306653E-01
        1   -1    0    0  501    0  0.00000000000E+00  0.00000000000E+00  0.10265574815E+04  0.10265574815E+04  0.50400001928E-02 0. -1.
       -1   -1    0    0    0  501  0.00000000000E+00  0.00000000000E+00 -0.18944882366E+04  0.18944882366E+04  0.50400001928E-02 0.  1.
    10030    2    1    2    0    0  0.00000000000E+00  0.00000000000E+00 -0.86793075510E+03  0.29210457180E+04  0.27891224948E+04 0.  0.
        4    1    3    3  502    0  0.10979673448E+04 -0.19831681614E+03 -0.13101596927E+04  0.17208666081E+04  0.12699999809E+01 0.  1.
       -4    1    3    3    0  502 -0.10979673448E+04  0.19831681614E+03  0.44222893758E+03  0.12001791099E+04  0.12699999809E+01 0. -1.
</event>
<event>
 5   0  0.8055928E-06  0.2873532E+04  0.7818609E-02  0.8280796E-01
       -1   -1    0    0    0  501  0.00000000000E+00  0.00000000000E+00  0.13266180964E+04  0.13266180964E+04  0.50400001928E-02 0. -1.
        1   -1    0    0  501    0  0.00000000000E+00  0.00000000000E+00 -0.15560588485E+04  0.15560588485E+04  0.50400001928E-02 0.  1.
    10030    2    1    2    0    0  0.00000000000E+00  0.00000000000E+00 -0.22944075209E+03  0.28826769449E+04  0.28735315049E+04 0.  0.
        2    1    3    3  502    0  0.68137101149E+03 -0.11507453617E+04  0.41213151908E+03  0.13994047777E+04  0.25500000920E-02 0. -1.
       -2    1    3    3    0  502 -0.68137101149E+03  0.11507453617E+04 -0.64157227117E+03  0.14832721672E+04  0.25500000920E-02 0.  1.
</event>
<event>
 5   0  0.8234888E-06  0.1479079E+04  0.7818609E-02  0.8898486E-01
        1   -1    0    0  501    0  0.00000000000E+00  0.00000000000E+00  0.16270416589E+04  0.16270416589E+04  0.50400001928E-02 0.  1.
       -1   -1    0    0    0  501  0.00000000000E+00  0.00000000000E+00 -0.33614288327E+03  0.33614288331E+03  0.50400001928E-02 0. -1.
    10030    2    1    2    0    0  0.00000000000E+00  0.00000000000E+00  0.12908987757E+04  0.19631845422E+04  0.14790787328E+04 0.  0.
        3    1    3    3  502    0 -0.42381728444E+01 -0.34902911074E+03 -0.21992642272E+03  0.41256141830E+03  0.10100000352E+00 0. -1.
       -3    1    3    3    0  502  0.42381728444E+01  0.34902911074E+03  0.15108251984E+04  0.15506231239E+04  0.10100000352E+00 0.  1.
</event>
<event>
 5   0  0.1918901E-05  0.1760374E+04  0.7818609E-02  0.8727661E-01
        2   -1    0    0  501    0  0.00000000000E+00  0.00000000000E+00  0.16173284209E+04  0.16173284209E+04  0.25500000920E-02 0.  1.
       -2   -1    0    0    0  501  0.00000000000E+00  0.00000000000E+00 -0.47901781261E+03  0.47901781262E+03  0.25500000920E-02 0. -1.
    10030    2    1    2    0    0  0.00000000000E+00  0.00000000000E+00  0.11383106082E+04  0.20963462335E+04  0.17603739630E+04 0.  0.
        1    1    3    3  502    0  0.50940130174E+03  0.70386348693E+03  0.40152134741E+03  0.95714830978E+03  0.50400001928E-02 0. -1.
       -1    1    3    3    0  502 -0.50940130174E+03 -0.70386348693E+03  0.73678926083E+03  0.11391979237E+04  0.50400001928E-02 0.  1.
</event>
<event>
 5   0  0.8055928E-06  0.2910718E+04  0.7818609E-02  0.8269696E-01
        1   -1    0    0  501    0  0.00000000000E+00  0.00000000000E+00  0.17421112813E+04  0.17421112813E+04  0.50400001928E-02 0. -1.
       -1   -1    0    0    0  501  0.00000000000E+00  0.00000000000E+00 -0.12158061274E+04  0.12158061274E+04  0.50400001928E-02 0.  1.
    10030    2    1    2    0    0  0.00000000000E+00  0.00000000000E+00  0.52630515390E+03  0.29579174086E+04  0.29107178292E+04 0.  0.
        2    1    3    3  502    0  0.37758456424E+03  0.22482513350E+03 -0.11467724405E+04  0.12280893592E+04  0.25500000920E-02 0.  1.
       -2    1    3    3    0  502 -0.37758456424E+03 -0.22482513350E+03  0.16730775944E+04  0.17298280495E+04  0.25500000920E-02 0. -1.
</event>
<event>
 5   0  0.8055928E-06  0.1780598E+04  0.7818609E-02  0.8716686E-01
        1   -1    0    0  501    0  0.00000000000E+00  0.00000000000E+00  0.13035381022E+04  0.13035381022E+04  0.50400001928E-02 0. -1.
       -1   -1    0    0    0  501  0.00000000000E+00  0.00000000000E+00 -0.60806221156E+03  0.60806221158E+03  0.50400001928E-02 0.  1.
    10030    2    1    2    0    0  0.00000000000E+00  0.00000000000E+00  0.69547589060E+03  0.19116003137E+04  0.17805979459E+04 0.  0.
        2    1    3    3  502    0  0.75737022970E+03 -0.46782628161E+03  0.36136709762E+03  0.96075869699E+03  0.25500000920E-02 0. -1.
       -2    1    3    3    0  502 -0.75737022970E+03  0.46782628161E+03  0.33410879298E+03  0.95084161675E+03  0.25500000920E-02 0.  1.
</event>
<event>
 5   0  0.1960961E-05  0.1536129E+04  0.7818609E-02  0.8860777E-01
       -2   -1    0    0    0  501  0.00000000000E+00  0.00000000000E+00  0.38182443423E+03  0.38182443424E+03  0.25500000920E-02 0.  1.
        2   -1    0    0  501    0  0.00000000000E+00  0.00000000000E+00 -0.15450108677E+04  0.15450108677E+04  0.25500000920E-02 0. -1.
    10030    2    1    2    0    0  0.00000000000E+00  0.00000000000E+00 -0.11631864335E+04  0.19268353020E+04  0.15361287712E+04 0.  0.
        5    1    3    3  502    0  0.62522257021E+02 -0.21000800724E+03  0.34176858447E+03  0.40600523526E+03  0.46999998093E+01 0.  1.
       -5    1    3    3    0  502 -0.62522257021E+02  0.21000800724E+03 -0.15049550179E+04  0.15208300667E+04  0.46999998093E+01 0. -1.
</event>
<event>
 5   0  0.1829810E-05  0.2875932E+04  0.7818609E-02  0.8280075E-01
        2   -1    0    0  501    0  0.00000000000E+00  0.00000000000E+00  0.21465946875E+04  0.21465946875E+04  0.25500000920E-02 0. -1.
       -2   -1    0    0    0  501  0.00000000000E+00  0.00000000000E+00 -0.96326783398E+03  0.96326783399E+03  0.25500000920E-02 0.  1.
    10030    2    1    2    0    0  0.00000000000E+00  0.00000000000E+00  0.11833268535E+04  0.31098625215E+04  0.28759315813E+04 0.  0.
        4    1    3    3  502    0 -0.87328149454E+03 -0.11065379614E+03  0.18212004482E+04  0.20227796511E+04  0.12699999809E+01 0. -1.
       -4    1    3    3    0  502  0.87328149454E+03  0.11065379614E+03 -0.63787359474E+03  0.10870828704E+04  0.12699999809E+01 0.  1.
</event>
<event>
 5   0  0.8055928E-06  0.2270310E+04  0.7818609E-02  0.8489720E-01
       -1   -1    0    0    0  501  0.00000000000E+00  0.00000000000E+00  0.76374324666E+03  0.76374324667E+03  0.50400001928E-02 0.  1.
        1   -1    0    0  501    0  0.00000000000E+00  0.00000000000E+00 -0.16871861584E+04  0.16871861584E+04  0.50400001928E-02 0. -1.
    10030    2    1    2    0    0  0.00000000000E+00  0.00000000000E+00 -0.92344291176E+03  0.24509294051E+04  0.22703101413E+04 0.  0.
        2    1    3    3  502    0  0.62193688082E+02 -0.95471475334E+03  0.19780639591E+03  0.97697271474E+03  0.25500000920E-02 0.  1.
       -2    1    3    3    0  502 -0.62193688082E+02  0.95471475334E+03 -0.11212493077E+04  0.14739566904E+04  0.25500000920E-02 0. -1.
</event>
<event>
 5   0  0.8234888E-06  0.1758672E+04  0.7818609E-02  0.8728591E-01
        1   -1    0    0  501    0  0.00000000000E+00  0.00000000000E+00  0.18382936057E+04  0.18382936057E+04  0.50400001928E-02 0. -1.
       -1   -1    0    0    0  501  0.00000000000E+00  0.00000000000E+00 -0.42062487598E+03  0.42062487601E+03  0.50400001928E-02 0.  1.
    10030    2    1    2    0    0  0.00000000000E+00  0.00000000000E+00  0.14176687297E+04  0.22589184817E+04  0.17586722491E+04 0.  0.
        3    1    3    3  502    0 -0.14141195472E+03  0.62556174128E+03 -0.63871565931E+02  0.64451875087E+03  0.10100000352E+00 0.  1.
       -3    1    3    3    0  502  0.14141195472E+03 -0.62556174128E+03  0.14815402956E+04  0.16143997308E+04  0.10100000352E+00 0. -1.
</event>
<event>
 5   0  0.8234888E-06  0.2938969E+04  0.7818609E-02  0.8261376E-01
        1   -1    0    0  501    0  0.00000000000E+00  0.00000000000E+00  0.13792885951E+04  0.13792885951E+04  0.50400001928E-02 0. -1.
       -1   -1    0    0    0  501  0.00000000000E+00  0.00000000000E+00 -0.15655790294E+04  0.15655790294E+04  0.50400001928E-02 0.  1.
    10030    2    1    2    0    0  0.00000000000E+00  0.00000000000E+00 -0.18629043427E+03  0.29448676245E+04  0.29389694112E+04 0.  0.
        3    1    3    3  502    0  0.11342749042E+04 -0.17504470712E+03 -0.10126824668E+04  0.15306031480E+04  0.10100000352E+00 0.  1.
       -3    1    3    3    0  502 -0.11342749042E+04  0.17504470712E+03  0.82639203257E+03  0.14142644765E+04  0.10100000352E+00 0. -1.
</event>
<event>
 5   0  0.1976233E-05  0.1547416E+04  0.7818609E-02  0.8853520E-01
       -2   -1    0    0    0  501  0.00000000000E+00  0.00000000000E+00  0.35465125276E+03  0.35465125277E+03  0.25500000920E-02 0.  1.
        2   -1    0    0  501    0  0.00000000000E+00  0.00000000000E+00 -0.16879232585E+04  0.16879232585E+04  0.25500000920E-02 0. -1.
    10030    2    1    2    0    0  0.00000000000E+00  0.00000000000E+00 -0.13332720058E+04  0.20425745113E+04  0.15474160374E+04 0.  0.
        2    1    3    3  502    0 -0.34622560596E+03  0.68679575582E+03 -0.77757425925E+03  0.10937011973E+04  0.25500000920E-02 0.  1.
       -2    1    3    3    0  502  0.34622560596E+03 -0.68679575582E+03 -0.55569774652E+03  0.94887331395E+03  0.25500000920E-02 0. -1.
</event>
<event>
 5   0  0.8122088E-06  0.2794731E+04  0.7818609E-02  0.8304906E-01
        1   -1    0    0  501    0  0.00000000000E+00  0.00000000000E+00  0.19883235031E+04  0.19883235031E+04  0.50400001928E-02 0.  1.
       -1   -1    0    0    0  501  0.00000000000E+00  0.00000000000E+00 -0.98204893638E+03  0.98204893639E+03  0.50400001928E-02 0. -1.
    10030    2    1    2    0    0  0.00000000000E+00  0.00000000000E+00  0.10062745667E+04  0.29703724395E+04  0.27947314586E+04 0.  0.
        1    1    3    3  502    0 -0.91056366757E+03 -0.33263686091E+03 -0.56652085270E+03  0.11228175945E+04  0.50400001928E-02 0. -1.
       -1    1    3    3    0  502  0.91056366757E+03  0.33263686091E+03  0.15727954194E+04  0.18475548450E+04  0.50400001928E-02 0.  1.
</event>
<event>
 5   0  0.1960961E-05  0.2938286E+04  0.7818609E-02  0.8261577E-01
       -2   -1    0    0    0  501  0.00000000000E+00  0.00000000000E+00  0.11115425684E+04  0.11115425684E+04  0.25500000920E-02 0. -1.
        2   -1    0    0  501    0  0.00000000000E+00  0.00000000000E+00 -0.19417888632E+04  0.19417888632E+04  0.25500000920E-02 0.  1.
    10030    2    1    2    0    0  0.00000000000E+00  0.00000000000E+00 -0.83024629480E+03  0.30533314316E+04  0.29382858815E+04 0.  0.
        5    1    3    3  502    0 -0.57863356699E+02  0.61908261397E+02  0.11089930657E+04  0.11122358161E+04  0.46999998093E+01 0. -1.
       -5    1    3    3    0  502  0.57863356699E+02 -0.61908261397E+02 -0.19392393605E+04  0.19410956155E+04  0.46999998093E+01 0.  1.
</event>
<event>
 5   0  0.8234888E-06  0.2883979E+04  0.7818609E-02  0.8277660E-01
       -1   -1    0    0    0  501  0.00000000000E+00  0.00000000000E+00  0.74840442853E+03  0.74840442855E+03  0.50400001928E-02 0. -1.
        1   -1    0    0  501    0  0.00000000000E+00  0.00000000000E+00 -0.27783561199E+04  0.27783561199E+04  0.50400001928E-02 0.  1.
    10030    2    1    2    0    0  0.00000000000E+00  0.00000000000E+00 -0.20299516914E+04  0.35267605485E+04  0.28839792123E+04 0.  0.
        3    1    3    3  502    0 -0.94902720658E+02  0.10808630396E+04  0.14647860189E+03  0.10948641139E+04  0.10100000352E+00 0. -1.
       -3    1    3    3    0  502  0.94902720658E+02 -0.10808630396E+04 -0.21764302933E+04  0.24318964346E+04  0.10100000352E+00 0.  1.
</event>
<event>
 5   0  0.1976233E-05  0.2938091E+04  0.7818609E-02  0.8261634E-01
       -2   -1    0    0    0  501  0.00000000000E+00  0.00000000000E+00  0.11073857550E+04  0.11073857550E+04  0.25500000920E-02 0.  1.
        2   -1    0    0  501    0  0.00000000000E+00  0.00000000000E+00 -0.19488187162E+04  0.19488187162E+04  0.25500000920E-02 0. -1.
    10030    2    1    2    0    0  0.00000000000E+00  0.00000000000E+00 -0.84143296115E+03  0.30562044712E+04  0.29380905945E+04 0.  0.
        2    1    3    3  502    0  0.33326752753E+03  0.89004767484E+03 -0.15859467101E+04  0.18489129443E+04  0.25500000920E-02 0. -1.
       -2    1    3    3    0  502 -0.33326752753E+03 -0.89004767484E+03  0.74451374895E+03  0.12072915268E+04  0.25500000920E-02 0.  1.
</event>
<event>
 5   0  0.1937947E-05  0.2878658E+04  0.7818609E-02  0.8279256E-01
       -2   -1    0    0    0  501  0.00000000000E+00  0.00000000000E+00  0.10282074549E+04  0.10282074549E+04  0.25500000920E-02 0.  1.
        2   -1    0    0  501    0  0.00000000000E+00  0.00000000000E+00 -0.20148348439E+04  0.20148348439E+04  0.25500000920E-02 0. -1.
    10030    2    1    2    0    0  0.00000000000E+00  0.00000000000E+00 -0.98662738903E+03  0.30430422989E+04  0.28786581645E+04 0.  0.
        3    1    3    3  502    0 -0.13276247579E+04 -0.55310579820E+03 -0.55268754411E+03  0.15407715773E+04  0.10100000352E+00 0. -1.
       -3    1    3    3    0  502  0.13276247579E+04  0.55310579820E+03 -0.43393984491E+03  0.15022707216E+04  0.10100000352E+00 0.  1.
</event>
<event>
 5   0  0.8122088E-06  0.1486665E+04  0.7818609E-02  0.8893369E-01
        1   -1    0    0  501    0  0.00000000000E+00  0.00000000000E+00  0.44164147995E+03  0.44164147998E+03  0.50400001928E-02 0. -1.
       -1   -1    0    0    0  501  0.00000000000E+00  0.00000000000E+00 -0.12511120782E+04  0.12511120782E+04  0.50400001928E-02 0.  1.
    10030    2    1    2    0    0  0.00000000000E+00  0.00000000000E+00 -0.80947059820E+03  0.16927535581E+04  0.14866647098E+04 0.  0.
        1    1    3    3  502    0 -0.49769156033E+03 -0.31938361670E+03  0.10807616382E+03  0.60115159573E+03  0.50400001928E-02 0. -1.
       -1    1    3    3    0  502  0.49769156033E+03  0.31938361670E+03 -0.91754676202E+03  0.10916019624E+04  0.50400001928E-02 0.  1.
</event>
<event>
 5   0  0.7305460E-06  0.2885341E+04  0.7818609E-02  0.8277252E-01
       -1   -1    0    0    0  501  0.00000000000E+00  0.00000000000E+00  0.22864359548E+04  0.22864359548E+04  0.50400001928E-02 0. -1.
        1   -1    0    0  501    0  0.00000000000E+00  0.00000000000E+00 -0.91028083043E+03  0.91028083044E+03  0.50400001928E-02 0.  1.
    10030    2    1    2    0    0  0.00000000000E+00  0.00000000000E+00  0.13761551244E+04  0.31967167853E+04  0.28853414493E+04 0.  0.
        4    1    3    3  502    0  0.38159835466E+03 -0.62137725570E+03 -0.69107584257E+03  0.10046464210E+04  0.12699999809E+01 0.  1.
       -4    1    3    3    0  502 -0.38159835466E+03  0.62137725570E+03  0.20672309670E+04  0.21920703643E+04  0.12699999809E+01 0. -1.
</event>
<event>
 5   0  0.1937947E-05  0.2641382E+04  0.7818609E-02  0.8354279E-01
       -2   -1    0    0    0  501  0.00000000000E+00  0.00000000000E+00  0.12382436853E+04  0.12382436853E+04  0.25500000920E-02 0.  1.
        2   -1    0    0  501    0  0.00000000000E+00  0.00000000000E+00 -0.14086281586E+04  0.14086281586E+04  0.25500000920E-02 0. -1.
    10030    2    1    2    0    0  0.00000000000E+00  0.00000000000E+00 -0.17038447328E+03  0.26468718438E+04  0.26413821550E+04 0.  0.
        3    1    3    3  502    0 -0.19054788519E+02  0.31095105180E+03 -0.13712813267E+04  0.14062240677E+04  0.10100000352E+00 0. -1.
       -3    1    3    3    0  502  0.19054788519E+02 -0.31095105180E+03  0.12008968534E+04  0.12406477761E+04  0.10100000352E+00 0.  1.
</event>
<event>
 5   0  0.7971153E-06  0.2822548E+04  0.7818609E-02  0.8296302E-01
        1   -1    0    0  501    0  0.00000000000E+00  0.00000000000E+00  0.20550321637E+04  0.20550321637E+04  0.50400001928E-02 0.  1.
       -1   -1    0    0    0  501  0.00000000000E+00  0.00000000000E+00 -0.96917908612E+03  0.96917908613E+03  0.50400001928E-02 0. -1.
    10030    2    1    2    0    0  0.00000000000E+00  0.00000000000E+00  0.10858530776E+04  0.30242112498E+04  0.28225479230E+04 0.  0.
        5    1    3    3  502    0 -0.38886451535E+03  0.20236348378E+03 -0.89437334690E+03  0.99603833486E+03  0.46999998093E+01 0. -1.
       -5    1    3    3    0  502  0.38886451535E+03 -0.20236348378E+03  0.19802264245E+04  0.20281729150E+04  0.46999998093E+01 0.  1.
</event>
<event>
 5   0  0.1918901E-05  0.2938155E+04  0.7818609E-02  0.8261615E-01
       -2   -1    0    0    0  501  0.00000000000E+00  0.00000000000E+00  0.93333141700E+03  0.93333141700E+03  0.25500000920E-02 0. -1.
        2   -1    0    0  501    0  0.00000000000E+00  0.00000000000E+00 -0.23123500814E+04  0.23123500814E+04  0.25500000920E-02 0.  1.
    10030    2    1    2    0    0  0.00000000000E+00  0.00000000000E+00 -0.13790186644E+04  0.32456814984E+04  0.29381551886E+04 0.  0.
        1    1    3    3  502    0 -0.10544349831E+04 -0.16898699734E+03 -0.18039635445E+04  0.20963478263E+04  0.50400001928E-02 0.  1.
       -1    1    3    3    0  502  0.10544349831E+04  0.16898699734E+03  0.42494488001E+03  0.11493336722E+04  0.50400001928E-02 0. -1.
</event>
<event>
 5   0  0.8122088E-06  0.2594683E+04  0.7818609E-02  0.8370010E-01
        1   -1    0    0  501    0  0.00000000000E+00  0.00000000000E+00  0.16769186746E+04  0.16769186746E+04  0.50400001928E-02 0.  1.
       -1   -1    0    0    0  501  0.00000000000E+00  0.00000000000E+00 -0.10036828993E+04  0.10036828993E+04  0.50400001928E-02 0. -1.
    10030    2    1    2    0    0  0.00000000000E+00  0.00000000000E+00  0.67323577524E+03  0.26806015739E+04  0.25946827145E+04 0.  0.
        1    1    3    3  502    0 -0.74224171417E+03  0.42490761460E+03  0.13444333374E+04  0.15934146485E+04  0.50400001928E-02 0.  1.
       -1    1    3    3    0  502  0.74224171417E+03 -0.42490761460E+03 -0.67119756221E+03  0.10871869254E+04  0.50400001928E-02 0. -1.
</event>
<event>
 5   0  0.1976233E-05  0.2865497E+04  0.7818609E-02  0.8283218E-01
        2   -1    0    0  501    0  0.00000000000E+00  0.00000000000E+00  0.22093326193E+04  0.22093326193E+04  0.25500000920E-02 0. -1.
       -2   -1    0    0    0  501  0.00000000000E+00  0.00000000000E+00 -0.92913499859E+03  0.92913499859E+03  0.25500000920E-02 0.  1.
    10030    2    1    2    0    0  0.00000000000E+00  0.00000000000E+00  0.12801976207E+04  0.31384676179E+04  0.28654969971E+04 0.  0.
        2    1    3    3  502    0  0.78311666121E+03  0.10639331125E+04  0.32704753791E+02  0.13214745453E+04  0.25500000920E-02 0.  1.
       -2    1    3    3    0  502 -0.78311666121E+03 -0.10639331125E+04  0.12474928669E+04  0.18169930726E+04  0.25500000920E-02 0. -1.
</event>
<event>
 5   0  0.8234888E-06  0.2975626E+04  0.7818609E-02  0.8250725E-01
       -1   -1    0    0    0  501  0.00000000000E+00  0.00000000000E+00  0.85313122561E+03  0.85313122562E+03  0.50400001928E-02 0.  1.
        1   -1    0    0  501    0  0.00000000000E+00  0.00000000000E+00 -0.25946627459E+04  0.25946627459E+04  0.50400001928E-02 0. -1.
    10030    2    1    2    0    0  0.00000000000E+00  0.00000000000E+00 -0.17415315203E+04  0.34477939716E+04  0.29756261919E+04 0.  0.
        3    1    3    3  502    0  0.97575721574E+03  0.66666574135E+03  0.17656833543E+03  0.11948731071E+04  0.10100000352E+00 0.  1.
       -3    1    3    3    0  502 -0.97575721574E+03 -0.66666574135E+03 -0.19180998558E+04  0.22529208645E+04  0.10100000352E+00 0. -1.
</event>
<event>
 5   0  0.1829810E-05  0.2967596E+04  0.7818609E-02  0.8253045E-01
       -2   -1    0    0    0  501  0.00000000000E+00  0.00000000000E+00  0.20734529601E+04  0.20734529601E+04  0.25500000920E-02 0.  1.
        2   -1    0    0  501    0  0.00000000000E+00  0.00000000000E+00 -0.10618310610E+04  0.10618310610E+04  0.25500000920E-02 0. -1.
    10030    2    1    2    0    0  0.00000000000E+00  0.00000000000E+00  0.10116218991E+04  0.31352840211E+04  0.29675961696E+04 0.  0.
        4    1    3    3  502    0  0.49126353162E+03 -0.12755898918E+04  0.11156500598E+04  0.17644109778E+04  0.12699999809E+01 0.  1.
       -4    1    3    3    0  502 -0.49126353162E+03  0.12755898918E+04 -0.10402816068E+03  0.13708730433E+04  0.12699999809E+01 0. -1.
</event>
<event>
 5   0  0.1918901E-05  0.2935404E+04  0.7818609E-02  0.8262421E-01
       -2   -1    0    0    0  501  0.00000000000E+00  0.00000000000E+00  0.29734529211E+04  0.29734529211E+04  0.25500000920E-02 0. -1.
        2   -1    0    0  501    0  0.00000000000E+00  0.00000000000E+00 -0.72446038448E+03  0.72446038448E+03  0.25500000920E-02 0.  1.
    10030    2    1    2    0    0  0.00000000000E+00  0.00000000000E+00  0.22489925367E+04  0.36979133056E+04  0.29354037858E+04 0.  0.
        1    1    3    3  502    0  0.11918083530E+03 -0.14098941405E+04  0.63311876047E+03  0.15501112618E+04  0.50400001928E-02 0.  1.
       -1    1    3    3    0  502 -0.11918083530E+03  0.14098941405E+04  0.16158737762E+04  0.21478020439E+04  0.50400001928E-02 0. -1.
</event>
<event>
 5   0  0.8234888E-06  0.1594546E+04  0.7818609E-02  0.8823906E-01
        1   -1    0    0  501    0  0.00000000000E+00  0.00000000000E+00  0.19893532362E+04  0.19893532362E+04  0.50400001928E-02 0.  1.
       -1   -1    0    0    0  501  0.00000000000E+00  0.00000000000E+00 -0.31952300462E+03  0.31952300466E+03  0.50400001928E-02 0. -1.
    10030    2    1    2    0    0  0.00000000000E+00  0.00000000000E+00  0.16698302316E+04  0.23088762408E+04  0.15945458580E+04 0.  0.
        3    1    3    3  502    0  0.36240840463E+03  0.24791033952E+03 -0.12866843782E+03  0.45755323764E+03  0.10100000352E+00 0. -1.
       -3    1    3    3    0  502 -0.36240840463E+03 -0.24791033952E+03  0.17984986694E+04  0.18513230032E+04  0.10100000352E+00 0.  1.
</event>
<event>
 5   0  0.7971153E-06  0.1791428E+04  0.7818609E-02  0.8710871E-01
       -1   -1    0    0    0  501  0.00000000000E+00  0.00000000000E+00  0.11438393139E+04  0.11438393140E+04  0.50400001928E-02 0.  1.
        1   -1    0    0  501    0  0.00000000000E+00  0.00000000000E+00 -0.70141278589E+03  0.70141278591E+03  0.50400001928E-02 0. -1.
    10030    2    1    2    0    0  0.00000000000E+00  0.00000000000E+00  0.44242652805E+03  0.18452520999E+04  0.17914279442E+04 0.  0.
        5    1    3    3  502    0 -0.19140324793E+03 -0.35434989958E+03 -0.60287607960E+03  0.72503842105E+03  0.46999998093E+01 0. -1.
       -5    1    3    3    0  502  0.19140324793E+03  0.35434989958E+03  0.10453026077E+04  0.11202136788E+04  0.46999998093E+01 0.  1.
</event>
<event>
 5   0  0.8234888E-06  0.2549980E+04  0.7818609E-02  0.8385393E-01
       -1   -1    0    0    0  501  0.00000000000E+00  0.00000000000E+00  0.14561135347E+04  0.14561135347E+04  0.50400001928E-02 0. -1.
        1   -1    0    0  501    0  0.00000000000E+00  0.00000000000E+00 -0.11163961840E+04  0.11163961841E+04  0.50400001928E-02 0.  1.
    10030    2    1    2    0    0  0.00000000000E+00  0.00000000000E+00  0.33971735065E+03  0.25725097188E+04  0.25499800734E+04 0.  0.
        3    1    3    3  502    0 -0.32109459422E+03 -0.12238021529E+04  0.32874985644E+03  0.13072375172E+04  0.10100000352E+00 0.  1.
       -3    1    3    3    0  502  0.32109459422E+03  0.12238021529E+04  0.10967494203E+02  0.12652722016E+04  0.10100000352E+00 0. -1.
</event>
<event>
 5   0  0.6578125E-06  0.2636513E+04  0.7818609E-02  0.8355903E-01
       -3   -1    0    0    0  501  0.00000000000E+00  0.00000000000E+00  0.18216408624E+04  0.18216408652E+04  0.10100000352E+00 0. -1.
        3   -1    0    0  501    0  0.00000000000E+00  0.00000000000E+00 -0.95397512988E+03  0.95397513522E+03  0.10100000352E+00 0.  1.
    10030    2    1    2    0    0  0.00000000000E+00  0.00000000000E+00  0.86766573256E+03  0.27756160005E+04  0.26365129164E+04 0.  0.
        4    1    3    3  502    0  0.74431009111E+03 -0.19358267953E+03 -0.69332224616E+03  0.10354559940E+04  0.12699999809E+01 0.  1.
       -4    1    3    3    0  502 -0.74431009111E+03  0.19358267953E+03  0.15609879787E+04  0.17401600065E+04  0.12699999809E+01 0. -1.
</event>
<event>
 5   0  0.1976233E-05  0.2827215E+04  0.7818609E-02  0.8294869E-01
        2   -1    0    0  501    0  0.00000000000E+00  0.00000000000E+00  0.12369325779E+04  0.12369325779E+04  0.25500000920E-02 0. -1.
       -2   -1    0    0    0  501  0.00000000000E+00  0.00000000000E+00 -0.16155178089E+04  0.16155178089E+04  0.25500000920E-02 0.  1.
    10030    2    1    2    0    0  0.00000000000E+00  0.00000000000E+00 -0.37858523101E+03  0.28524503868E+04  0.28272153141E+04 0.  0.
        2    1    3    3  502    0 -0.58620846685E+03  0.12454350600E+04  0.13535228253E+03  0.13831374103E+04  0.25500000920E-02 0. -1.
       -2    1    3    3    0  502  0.58620846685E+03 -0.12454350600E+04 -0.51393751354E+03  0.14693129766E+04  0.25500000920E-02 0.  1.
</event>
<event>
 5   0  0.8234888E-06  0.2925152E+04  0.7818609E-02  0.8265433E-01
        1   -1    0    0  501    0  0.00000000000E+00  0.00000000000E+00  0.97285885027E+03  0.97285885028E+03  0.50400001928E-02 0.  1.
       -1   -1    0    0    0  501  0.00000000000E+00  0.00000000000E+00 -0.21988073124E+04  0.21988073124E+04  0.50400001928E-02 0. -1.
    10030    2    1    2    0    0  0.00000000000E+00  0.00000000000E+00 -0.12259484621E+04  0.31716661627E+04  0.29251524090E+04 0.  0.
        3    1    3    3  502    0 -0.11700604974E+04 -0.76309199974E+03 -0.10828267160E+04  0.17674458053E+04  0.10100000352E+00 0.  1.
       -3    1    3    3    0  502  0.11700604974E+04  0.76309199974E+03 -0.14312174613E+03  0.14042203574E+04  0.10100000352E+00 0. -1.
</event>
<event>
 5   0  0.1918901E-05  0.1662518E+04  0.7818609E-02  0.8783035E-01
       -2   -1    0    0    0  501  0.00000000000E+00  0.00000000000E+00  0.53381375210E+03  0.53381375210E+03  0.25500000920E-02 0.  1.
        2   -1    0    0  501    0  0.00000000000E+00  0.00000000000E+00 -0.12944438164E+04  0.12944438164E+04  0.25500000920E-02 0. -1.
    10030    2    1    2    0    0  0.00000000000E+00  0.00000000000E+00 -0.76063006433E+03  0.18282575685E+04  0.16625184637E+04 0.  0.
        1    1    3    3  502    0 -0.19277975981E+03  0.25891085535E+03  0.46207531391E+03  0.56365988199E+03  0.50400001928E-02 0.  1.
       -1    1    3    3    0  502  0.19277975981E+03 -0.25891085535E+03 -0.12227053782E+04  0.12645976865E+04  0.50400001928E-02 0. -1.
</event>
<event>
 5   0  0.1829810E-05  0.2868072E+04  0.7818609E-02  0.8282441E-01
       -2   -1    0    0    0  501  0.00000000000E+00  0.00000000000E+00  0.12270083278E+04  0.12270083278E+04  0.25500000920E-02 0. -1.
        2   -1    0    0  501    0  0.00000000000E+00  0.00000000000E+00 -0.16759942937E+04  0.16759942937E+04  0.25500000920E-02 0.  1.
    10030    2    1    2    0    0  0.00000000000E+00  0.00000000000E+00 -0.44898596586E+03  0.29030026215E+04  0.28680717952E+04 0.  0.
        4    1    3    3  502    0  0.54823984599E+03 -0.62036099397E+02  0.11152751940E+04  0.12442892660E+04  0.12699999809E+01 0. -1.
       -4    1    3    3    0  502 -0.54823984599E+03  0.62036099397E+02 -0.15642611598E+04  0.16587133554E+04  0.12699999809E+01 0.  1.
</event>
<event>
 5   0  0.7971153E-06  0.2744390E+04  0.7818609E-02  0.8320744E-01
       -1   -1    0    0    0  501  0.00000000000E+00  0.00000000000E+00  0.16456336644E+04  0.16456336644E+04  0.50400001928E-02 0. -1.
        1   -1    0    0  501    0  0.00000000000E+00  0.00000000000E+00 -0.11441908169E+04  0.11441908169E+04  0.50400001928E-02 0.  1.
    10030    2    1    2    0    0  0.00000000000E+00  0.00000000000E+00  0.50144284753E+03  0.27898244813E+04  0.27443898606E+04 0.  0.
        5    1    3    3  502    0  0.79915705061E+03 -0.10051392689E+04  0.74240219097E+03  0.14832869057E+04  0.46999998093E+01 0. -1.
       -5    1    3    3    0  502 -0.79915705061E+03  0.10051392689E+04 -0.24095934344E+03  0.13065375756E+04  0.46999998093E+01 0.  1.
</event>
<event>
 5   0  0.1937947E-05  0.2020134E+04  0.7818609E-02  0.8597265E-01
       -2   -1    0    0    0  501  0.00000000000E+00  0.00000000000E+00  0.38578205692E+03  0.38578205692E+03  0.25500000920E-02 0. -1.
        2   -1    0    0  501    0  0.00000000000E+00  0.00000000000E+00 -0.26445909024E+04  0.26445909024E+04  0.25500000920E-02 0.  1.
    10030    2    1    2    0    0  0.00000000000E+00  0.00000000000E+00 -0.22588088455E+04  0.30303729594E+04  0.20201343698E+04 0.  0.
        3    1    3    3  502    0 -0.51936459316E+03  0.16044219479E+02 -0.24287227334E+04  0.24836849888E+04  0.10100000352E+00 0.  1.
       -3    1    3    3    0  502  0.51936459316E+03 -0.16044219479E+02  0.16991388792E+03  0.54668797053E+03  0.10100000352E+00 0. -1.
</event>
<event>
 5   0  0.1918901E-05  0.2844408E+04  0.7818609E-02  0.8289612E-01
       -2   -1    0    0    0  501  0.00000000000E+00  0.00000000000E+00  0.15954913089E+04  0.15954913089E+04  0.25500000920E-02 0.  1.
        2   -1    0    0  501    0  0.00000000000E+00  0.00000000000E+00 -0.12677377803E+04  0.12677377803E+04  0.25500000920E-02 0. -1.
    10030    2    1    2    0    0  0.00000000000E+00  0.00000000000E+00  0.32775352858E+03  0.28632290892E+04  0.28444082762E+04 0.  0.
        1    1    3    3  502    0  0.43344247756E+03 -0.20356974460E+03 -0.11841449404E+04  0.12773066438E+04  0.50400001928E-02 0. -1.
       -1    1    3    3    0  502 -0.43344247756E+03  0.20356974460E+03  0.15118984690E+04  0.15859224454E+04  0.50400001928E-02 0.  1.
</event>
<event>
 5   0  0.8055928E-06  0.1983470E+04  0.7818609E-02  0.8614388E-01
        1   -1    0    0  501    0  0.00000000000E+00  0.00000000000E+00  0.19078221416E+04  0.19078221416E+04  0.50400001928E-02 0. -1.
       -1   -1    0    0    0  501  0.00000000000E+00  0.00000000000E+00 -0.51552913577E+03  0.51552913579E+03  0.50400001928E-02 0.  1.
    10030    2    1    2    0    0  0.00000000000E+00  0.00000000000E+00  0.13922930059E+04  0.24233512774E+04  0.19834695863E+04 0.  0.
        2    1    3    3  502    0 -0.23367208552E+03 -0.55035926721E+03 -0.27055377768E+03  0.65627533336E+03  0.25500000920E-02 0.  1.
       -2    1    3    3    0  502  0.23367208552E+03  0.55035926721E+03  0.16628467835E+04  0.17670759441E+04  0.25500000920E-02 0. -1.
</event>
<event>
 5   0  0.7971153E-06  0.2448809E+04  0.7818609E-02  0.8421453E-01
       -1   -1    0    0    0  501  0.00000000000E+00  0.00000000000E+00  0.97221422276E+03  0.97221422277E+03  0.50400001928E-02 0. -1.
        1   -1    0    0  501    0  0.00000000000E+00  0.00000000000E+00 -0.15420120679E+04  0.15420120679E+04  0.50400001928E-02 0.  1.
    10030    2    1    2    0    0  0.00000000000E+00  0.00000000000E+00 -0.56979784514E+03  0.25142262907E+04  0.24488087423E+04 0.  0.
        5    1    3    3  502    0  0.52723702732E+03 -0.10276425955E+02 -0.14194339462E+04  0.15142322496E+04  0.46999998093E+01 0.  1.
       -5    1    3    3    0  502 -0.52723702732E+03  0.10276425955E+02  0.84963610111E+03  0.99999404109E+03  0.46999998093E+01 0. -1.
</event>
<event>
 5   0  0.8122088E-06  0.2137053E+04  0.7818609E-02  0.8545095E-01
        1   -1    0    0  501    0  0.00000000000E+00  0.00000000000E+00  0.16022758545E+04  0.16022758545E+04  0.50400001928E-02 0.  1.
       -1   -1    0    0    0  501  0.00000000000E+00  0.00000000000E+00 -0.71257936021E+03  0.71257936022E+03  0.50400001928E-02 0. -1.
    10030    2    1    2    0    0  0.00000000000E+00  0.00000000000E+00  0.88969649432E+03  0.23148552148E+04  0.21370528335E+04 0.  0.
        1    1    3    3  502    0  0.38306232523E+03 -0.77625188022E+03 -0.23372691763E+03  0.89662255080E+03  0.50400001928E-02 0.  1.
       -1    1    3    3    0  502 -0.38306232523E+03  0.77625188022E+03  0.11234234120E+04  0.14182326640E+04  0.50400001928E-02 0. -1.
</event>
<event>
 5   0  0.1960961E-05  0.2906556E+04  0.7818609E-02  0.8270929E-01
       -2   -1    0    0    0  501  0.00000000000E+00  0.00000000000E+00  0.11888415024E+04  0.11888415024E+04  0.25500000920E-02 0. -1.
        2   -1    0    0  501    0  0.00000000000E+00  0.00000000000E+00 -0.17765338906E+04  0.17765338906E+04  0.25500000920E-02 0.  1.
    10030    2    1    2    0    0  0.00000000000E+00  0.00000000000E+00 -0.58769238820E+03  0.29653753930E+04  0.29065561887E+04 0.  0.
        5    1    3    3  502    0  0.29675234835E+03  0.69478355622E+03  0.97273117023E+03  0.12316712897E+04  0.46999998093E+01 0. -1.
       -5    1    3    3    0  502 -0.29675234835E+03 -0.69478355622E+03 -0.15604235584E+04  0.17337041033E+04  0.46999998093E+01 0.  1.
</event>
<event>
 5   0  0.1937947E-05  0.2901042E+04  0.7818609E-02  0.8272568E-01
        2   -1    0    0  501    0  0.00000000000E+00  0.00000000000E+00  0.13360567518E+04  0.13360567518E+04  0.25500000920E-02 0.  1.
       -2   -1    0    0    0  501  0.00000000000E+00  0.00000000000E+00 -0.15747913359E+04  0.15747913359E+04  0.25500000920E-02 0. -1.
    10030    2    1    2    0    0  0.00000000000E+00  0.00000000000E+00 -0.23873458415E+03  0.29108480877E+04  0.29010416040E+04 0.  0.
        3    1    3    3  502    0  0.81129372122E+03 -0.12010190612E+04 -0.17758323615E+03  0.14601986521E+04  0.10100000352E+00 0. -1.
       -3    1    3    3    0  502 -0.81129372122E+03  0.12010190612E+04 -0.61151348003E+02  0.14506494356E+04  0.10100000352E+00 0.  1.
</event>
<event>
 5   0  0.1829810E-05  0.2887614E+04  0.7818609E-02  0.8276572E-01
       -2   -1    0    0    0  501  0.00000000000E+00  0.00000000000E+00  0.17148112404E+04  0.17148112404E+04  0.25500000920E-02 0.  1.
        2   -1    0    0  501    0  0.00000000000E+00  0.00000000000E+00 -0.12156312416E+04  0.12156312416E+04  0.25500000920E-02 0. -1.
    10030    2    1    2    0    0  0.00000000000E+00  0.00000000000E+00  0.49917999872E+03  0.29304424820E+04  0.28876136288E+04 0.  0.
        4    1    3    3  502    0  0.88979594209E+02  0.11763788038E+04 -0.59509652381E+03  0.13213349098E+04  0.12699999809E+01 0. -1.
       -4    1    3    3    0  502 -0.88979594209E+02 -0.11763788038E+04  0.10942765225E+04  0.16091075722E+04  0.12699999809E+01 0.  1.
</event>
<event>
 5   0  0.1937947E-05  0.1550552E+04  0.7818609E-02  0.8851515E-01
       -2   -1    0    0    0  501  0.00000000000E+00  0.00000000000E+00  0.50091491041E+03  0.50091491042E+03  0.25500000920E-02 0. -1.
        2   -1    0    0  501    0  0.00000000000E+00  0.00000000000E+00 -0.11999097181E+04  0.11999097181E+04  0.25500000920E-02 0.  1.
    10030    2    1    2    0    0  0.00000000000E+00  0.00000000000E+00 -0.69899480768E+03  0.17008246285E+04  0.15505517327E+04 0.  0.
        3    1    3    3  502    0  0.35375057995E+03 -0.68982507385E+03 -0.35759925449E+03  0.85374196473E+03  0.10100000352E+00 0.  1.
       -3    1    3    3    0  502 -0.35375057995E+03  0.68982507385E+03 -0.34139555320E+03  0.84708266378E+03  0.10100000352E+00 0. -1.
</event>
<event>
 5   0  0.7971153E-06  0.2934356E+04  0.7818609E-02  0.8262728E-01
       -1   -1    0    0    0  501  0.00000000000E+00  0.00000000000E+00  0.91149794884E+03  0.91149794885E+03  0.50400001928E-02 0.  1.
        1   -1    0    0  501    0  0.00000000000E+00  0.00000000000E+00 -0.23616195843E+04  0.23616195843E+04  0.50400001928E-02 0. -1.
    10030    2    1    2    0    0  0.00000000000E+00  0.00000000000E+00 -0.14501216355E+04  0.32731175332E+04  0.29343560841E+04 0.  0.
        5    1    3    3  502    0 -0.13894838744E+04 -0.12824879312E+03 -0.12306869038E+04  0.18605712927E+04  0.46999998093E+01 0. -1.
       -5    1    3    3    0  502  0.13894838744E+04  0.12824879312E+03 -0.21943473168E+03  0.14125462405E+04  0.46999998093E+01 0.  1.
</event>
<event>
 5   0  0.7305460E-06  0.2906220E+04  0.7818609E-02  0.8271029E-01
       -1   -1    0    0    0  501  0.00000000000E+00  0.00000000000E+00  0.22581208064E+04  0.22581208064E+04  0.50400001928E-02 0. -1.
        1   -1    0    0  501    0  0.00000000000E+00  0.00000000000E+00 -0.93508207758E+03  0.93508207759E+03  0.50400001928E-02 0.  1.
    10030    2    1    2    0    0  0.00000000000E+00  0.00000000000E+00  0.13230387288E+04  0.31932028840E+04  0.29062197406E+04 0.  0.
        4    1    3    3  502    0  0.26792951901E+03 -0.67557413011E+03 -0.72104437689E+03  0.10237642496E+04  0.12699999809E+01 0.  1.
       -4    1    3    3    0  502 -0.26792951901E+03  0.67557413011E+03  0.20440831057E+04  0.21694386344E+04  0.12699999809E+01 0. -1.
</event>
<event>
 5   0  0.7971153E-06  0.2953053E+04  0.7818609E-02  0.8257265E-01
        1   -1    0    0  501    0  0.00000000000E+00  0.00000000000E+00  0.60555891751E+03  0.60555891753E+03  0.50400001928E-02 0. -1.
       -1   -1    0    0    0  501  0.00000000000E+00  0.00000000000E+00 -0.36001949484E+04  0.36001949484E+04  0.50400001928E-02 0.  1.
    10030    2    1    2    0    0  0.00000000000E+00  0.00000000000E+00 -0.29946360309E+04  0.42057538659E+04  0.29530527634E+04 0.  0.
        5    1    3    3  502    0  0.92115416581E+03  0.69713774451E+03 -0.28069537585E+04  0.30353809521E+04  0.46999998093E+01 0.  1.
       -5    1    3    3    0  502 -0.92115416581E+03 -0.69713774451E+03 -0.18768227236E+03  0.11703729138E+04  0.46999998093E+01 0. -1.
</event>
<event>
 5   0  0.7305460E-06  0.2898994E+04  0.7818609E-02  0.8273177E-01
       -1   -1    0    0    0  501  0.00000000000E+00  0.00000000000E+00  0.20018690267E+04  0.20018690267E+04  0.50400001928E-02 0. -1.
        1   -1    0    0  501    0  0.00000000000E+00  0.00000000000E+00 -0.10495397326E+04  0.10495397326E+04  0.50400001928E-02 0.  1.
    10030    2    1    2    0    0  0.00000000000E+00  0.00000000000E+00  0.95232929407E+03  0.30514087593E+04  0.28989936757E+04 0.  0.
        4    1    3    3  502    0  0.10067640610E+04  0.10422661075E+04  0.44051734892E+03  0.15145790376E+04  0.12699999809E+01 0.  1.
       -4    1    3    3    0  502 -0.10067640610E+04 -0.10422661075E+04  0.51181194515E+03  0.15368297217E+04  0.12699999809E+01 0. -1.
</event>
<event>
 5   0  0.1937947E-05  0.2830722E+04  0.7818609E-02  0.8293793E-01
        2   -1    0    0  501    0  0.00000000000E+00  0.00000000000E+00  0.18093532587E+04  0.18093532587E+04  0.25500000920E-02 0. -1.
       -2   -1    0    0    0  501  0.00000000000E+00  0.00000000000E+00 -0.11071620947E+04  0.11071620947E+04  0.25500000920E-02 0.  1.
    10030    2    1    2    0    0  0.00000000000E+00  0.00000000000E+00  0.70219116399E+03  0.29165153534E+04  0.28307224124E+04 0.  0.
        3    1    3    3  502    0  0.77140214455E+03 -0.13798777128E+03  0.15654370965E+04  0.17506270896E+04  0.10100000352E+00 0. -1.
       -3    1    3    3    0  502 -0.77140214455E+03  0.13798777128E+03 -0.86324593247E+03  0.11658882638E+04  0.10100000352E+00 0.  1.
</event>
<event>
 5   0  0.8234888E-06  0.2956385E+04  0.7818609E-02  0.8256296E-01
        1   -1    0    0  501    0  0.00000000000E+00  0.00000000000E+00  0.19947586915E+04  0.19947586915E+04  0.50400001928E-02 0. -1.
       -1   -1    0    0    0  501  0.00000000000E+00  0.00000000000E+00 -0.10953975310E+04  0.10953975311E+04  0.50400001928E-02 0.  1.
    10030    2    1    2    0    0  0.00000000000E+00  0.00000000000E+00  0.89936116046E+03  0.30901562226E+04  0.29563854591E+04 0.  0.
        3    1    3    3  502    0  0.10876835382E+04 -0.70711366008E+03 -0.29088969130E+03  0.13295420377E+04  0.10100000352E+00 0.  1.
       -3    1    3    3    0  502 -0.10876835382E+04  0.70711366008E+03  0.11902508518E+04  0.17606141848E+04  0.10100000352E+00 0. -1.
</event>
<event>
 5   0  0.1960961E-05  0.2863521E+04  0.7818609E-02  0.8283814E-01
       -2   -1    0    0    0  501  0.00000000000E+00  0.00000000000E+00  0.12068769013E+04  0.12068769013E+04  0.25500000920E-02 0. -1.
        2   -1    0    0  501    0  0.00000000000E+00  0.00000000000E+00 -0.16985481038E+04  0.16985481038E+04  0.25500000920E-02 0.  1.
    10030    2    1    2    0    0  0.00000000000E+00  0.00000000000E+00 -0.49167120250E+03  0.29054250052E+04  0.28635212395E+04 0.  0.
        5    1    3    3  502    0  0.63600344829E+03 -0.12440949189E+04 -0.56288845122E+03  0.15063658427E+04  0.46999998093E+01 0. -1.
       -5    1    3    3    0  502 -0.63600344829E+03  0.12440949189E+04  0.71217248721E+02  0.13990591625E+04  0.46999998093E+01 0.  1.
</event>
<event>
 5   0  0.1937947E-05  0.2970004E+04  0.7818609E-02  0.8252349E-01
       -2   -1    0    0    0  501  0.00000000000E+00  0.00000000000E+00  0.13933523374E+04  0.13933523374E+04  0.25500000920E-02 0.  1.
        2   -1    0    0  501    0  0.00000000000E+00  0.00000000000E+00 -0.15826803624E+04  0.15826803624E+04  0.25500000920E-02 0. -1.
    10030    2    1    2    0    0  0.00000000000E+00  0.00000000000E+00 -0.18932802502E+03  0.29760326998E+04  0.29700042978E+04 0.  0.
        3    1    3    3  502    0 -0.11460310300E+04 -0.14241205836E+03  0.84080633870E+03  0.14285039816E+04  0.10100000352E+00 0. -1.
       -3    1    3    3    0  502  0.11460310300E+04  0.14241205836E+03 -0.10301343637E+04  0.15475287182E+04  0.10100000352E+00 0.  1.
</event>
<event>
 5   0  0.8234888E-06  0.2868748E+04  0.7818609E-02  0.8282237E-01
        1   -1    0    0  501    0  0.00000000000E+00  0.00000000000E+00  0.90936738390E+03  0.90936738392E+03  0.50400001928E-02 0.  1.
       -1   -1    0    0    0  501  0.00000000000E+00  0.00000000000E+00 -0.22624832833E+04  0.22624832833E+04  0.50400001928E-02 0. -1.
    10030    2    1    2    0    0  0.00000000000E+00  0.00000000000E+00 -0.13531158994E+04  0.31718506672E+04  0.28687478136E+04 0.  0.
        3    1    3    3  502    0  0.54054004245E+03 -0.11300587224E+03  0.78712235873E+03  0.96151728142E+03  0.10100000352E+00 0.  1.
       -3    1    3    3    0  502 -0.54054004245E+03  0.11300587224E+03 -0.21402382581E+04  0.22103333858E+04  0.10100000352E+00 0. -1.
</event>
<event>
 5   0  0.1829810E-05  0.2893874E+04  0.7818609E-02  0.8274702E-01
        2   -1    0    0  501    0  0.00000000000E+00  0.00000000000E+00  0.14611454645E+04  0.14611454645E+04  0.25500000920E-02 0. -1.
       -2   -1    0    0    0  501  0.00000000000E+00  0.00000000000E+00 -0.14328667614E+04  0.14328667614E+04  0.25500000920E-02 0.  1.
    10030    2    1    2    0    0  0.00000000000E+00  0.00000000000E+00  0.28278703187E+02  0.28940122259E+04  0.28938740606E+04 0.  0.
        4    1    3    3  502    0  0.16308833943E+01  0.57291700304E+03 -0.13146033557E+04  0.14340223666E+04  0.12699999809E+01 0.  1.
       -4    1    3    3    0  502 -0.16308833943E+01 -0.57291700304E+03  0.13428820589E+04  0.14599898593E+04  0.12699999809E+01 0. -1.
</event>
<event>
 5   0  0.1960961E-05  0.2889710E+04  0.7818609E-02  0.8275946E-01
       -2   -1    0    0    0  501  0.00000000000E+00  0.00000000000E+00  0.11532135700E+04  0.11532135700E+04  0.25500000920E-02 0. -1.
        2   -1    0    0  501    0  0.00000000000E+00  0.00000000000E+00 -0.18102508181E+04  0.18102508182E+04  0.25500000920E-02 0.  1.
    10030    2    1    2    0    0  0.00000000000E+00  0.00000000000E+00 -0.65703724817E+03  0.29634643881E+04  0.28897098876E+04 0.  0.
        5    1    3    3  502    0 -0.11515254948E+04 -0.17351439694E+03  0.54856781150E+03  0.12872711233E+04  0.46999998093E+01 0. -1.
       -5    1    3    3    0  502  0.11515254948E+04  0.17351439694E+03 -0.12056050597E+04  0.16761932648E+04  0.46999998093E+01 0.  1.
</event>
<event>
 5   0  0.8055928E-06  0.1502986E+04  0.7818609E-02  0.8882469E-01
        1   -1    0    0  501    0  0.00000000000E+00  0.00000000000E+00  0.20857683385E+04  0.20857683385E+04  0.50400001928E-02 0.  1.
       -1   -1    0    0    0  501  0.00000000000E+00  0.00000000000E+00 -0.27075968660E+03  0.27075968664E+03  0.50400001928E-02 0. -1.
    10030    2    1    2    0    0  0.00000000000E+00  0.00000000000E+00  0.18150086519E+04  0.23565280251E+04  0.15029863362E+04 0.  0.
        2    1    3    3  502    0 -0.45520561768E+03  0.28079398860E+03  0.17352063805E+04  0.18157639167E+04  0.25500000920E-02 0.  1.
       -2    1    3    3    0  502  0.45520561768E+03 -0.28079398860E+03  0.79802271394E+02  0.54076410840E+03  0.25500000920E-02 0. -1.
</event>
<event>
 5   0  0.7305460E-06  0.2735583E+04  0.7818609E-02  0.8323551E-01
       -1   -1    0    0    0  501  0.00000000000E+00  0.00000000000E+00  0.11509629661E+04  0.11509629661E+04  0.50400001928E-02 0.  1.
        1   -1    0    0  501    0  0.00000000000E+00  0.00000000000E+00 -0.16254680620E+04  0.16254680620E+04  0.50400001928E-02 0. -1.
    10030    2    1    2    0    0  0.00000000000E+00  0.00000000000E+00 -0.47450509592E+03  0.27764310280E+04  0.27355829667E+04 0.  0.
        4    1    3    3  502    0  0.88666870813E+03  0.74729443668E+03 -0.97349577994E+03  0.15140429385E+04  0.12699999809E+01 0. -1.
       -4    1    3    3    0  502 -0.88666870813E+03 -0.74729443668E+03  0.49899068401E+03  0.12623880896E+04  0.12699999809E+01 0.  1.
</event>
<event>
 5   0  0.8234888E-06  0.2872583E+04  0.7818609E-02  0.8281082E-01
       -1   -1    0    0    0  501  0.00000000000E+00  0.00000000000E+00  0.14459057644E+04  0.14459057644E+04  0.50400001928E-02 0.  1.
        1   -1    0    0  501    0  0.00000000000E+00  0.00000000000E+00 -0.14267411569E+04  0.14267411569E+04  0.50400001928E-02 0. -1.
    10030    2    1    2    0    0  0.00000000000E+00  0.00000000000E+00  0.19164607507E+02  0.28726469213E+04  0.28725829931E+04 0.  0.
        3    1    3    3  502    0 -0.96290815417E+02 -0.88705446011E+03 -0.11159629424E+04  0.14288144860E+04  0.10100000352E+00 0. -1.
       -3    1    3    3    0  502  0.96290815417E+02  0.88705446011E+03  0.11351275500E+04  0.14438324353E+04  0.10100000352E+00 0.  1.
</event>
<event>
 5   0  0.7971153E-06  0.1851897E+04  0.7818609E-02  0.8679178E-01
        1   -1    0    0  501    0  0.00000000000E+00  0.00000000000E+00  0.10717072599E+04  0.10717072599E+04  0.50400001928E-02 0.  1.
       -1   -1    0    0    0  501  0.00000000000E+00  0.00000000000E+00 -0.80001360211E+03  0.80001360212E+03  0.50400001928E-02 0. -1.
    10030    2    1    2    0    0  0.00000000000E+00  0.00000000000E+00  0.27169365777E+03  0.18717208620E+04  0.18518967416E+04 0.  0.
        5    1    3    3  502    0 -0.88186094998E+02 -0.32679877575E+03 -0.73522827919E+03  0.80941765468E+03  0.46999998093E+01 0. -1.
       -5    1    3    3    0  502  0.88186094998E+02  0.32679877575E+03  0.10069219370E+04  0.10623032073E+04  0.46999998093E+01 0.  1.
</event>
<event>
 5   0  0.1918901E-05  0.2550727E+04  0.7818609E-02  0.8385133E-01
       -2   -1    0    0    0  501  0.00000000000E+00  0.00000000000E+00  0.13185765848E+04  0.13185765848E+04  0.25500000920E-02 0.  1.
        2   -1    0    0  501    0  0.00000000000E+00  0.00000000000E+00 -0.12335667873E+04  0.12335667873E+04  0.25500000920E-02 0. -1.
    10030    2    1    2    0    0  0.00000000000E+00  0.00000000000E+00  0.85009797527E+02  0.25521433721E+04  0.25507271759E+04 0.  0.
        1    1    3    3  502    0  0.68655514563E+03 -0.77723548762E+03  0.78527770040E+03  0.13008128374E+04  0.50400001928E-02 0.  1.
       -1    1    3    3    0  502 -0.68655514563E+03  0.77723548762E+03 -0.70026790287E+03  0.12513305347E+04  0.50400001928E-02 0. -1.
</event>
<event>
 5   0  0.8122088E-06  0.2827968E+04  0.7818609E-02  0.8294638E-01
       -1   -1    0    0    0  501  0.00000000000E+00  0.00000000000E+00  0.89698444901E+03  0.89698444902E+03  0.50400001928E-02 0.  1.
        1   -1    0    0  501    0  0.00000000000E+00  0.00000000000E+00 -0.22289685040E+04  0.22289685040E+04  0.50400001928E-02 0. -1.
    10030    2    1    2    0    0  0.00000000000E+00  0.00000000000E+00 -0.13319840550E+04  0.31259529530E+04  0.28279675284E+04 0.  0.
        1    1    3    3  502    0 -0.11669255086E+04 -0.78054685420E+03 -0.85221192472E+03  0.16423256982E+04  0.50400001928E-02 0. -1.
       -1    1    3    3    0  502  0.11669255086E+04  0.78054685420E+03 -0.47977213027E+03  0.14836272548E+04  0.50400001928E-02 0.  1.
</event>
<event>
 5   0  0.1918901E-05  0.2749458E+04  0.7818609E-02  0.8319133E-01
        2   -1    0    0  501    0  0.00000000000E+00  0.00000000000E+00  0.21163255959E+04  0.21163255959E+04  0.25500000920E-02 0. -1.
       -2   -1    0    0    0  501  0.00000000000E+00  0.00000000000E+00 -0.89300082452E+03  0.89300082453E+03  0.25500000920E-02 0.  1.
    10030    2    1    2    0    0  0.00000000000E+00  0.00000000000E+00  0.12233247713E+04  0.30093264204E+04  0.27494584937E+04 0.  0.
        1    1    3    3  502    0 -0.22104658911E+03 -0.85620832003E+03 -0.54040411992E+03  0.10363353196E+04  0.50400001928E-02 0.  1.
       -1    1    3    3    0  502  0.22104658911E+03  0.85620832003E+03  0.17637288913E+04  0.19729911008E+04  0.50400001928E-02 0. -1.
</event>
<event>
 5   0  0.8234888E-06  0.2864398E+04  0.7818609E-02  0.8283550E-01
        1   -1    0    0  501    0  0.00000000000E+00  0.00000000000E+00  0.14521378308E+04  0.14521378308E+04  0.50400001928E-02 0.  1.
       -1   -1    0    0    0  501  0.00000000000E+00  0.00000000000E+00 -0.14125341899E+04  0.14125341899E+04  0.50400001928E-02 0. -1.
    10030    2    1    2    0    0  0.00000000000E+00  0.00000000000E+00  0.39603640885E+02  0.28646720208E+04  0.28643982506E+04 0.  0.
        3    1    3    3  502    0 -0.14690365552E+03 -0.84557010665E+03  0.11664823088E+04  0.14481886881E+04  0.10100000352E+00 0.  1.
       -3    1    3    3    0  502  0.14690365552E+03  0.84557010665E+03 -0.11268786680E+04  0.14164833327E+04  0.10100000352E+00 0. -1.
</event>
<event>
 5   0  0.8055928E-06  0.2831764E+04  0.7818609E-02  0.8293474E-01
       -1   -1    0    0    0  501  0.00000000000E+00  0.00000000000E+00  0.86701580298E+03  0.86701580299E+03  0.50400001928E-02 0. -1.
        1   -1    0    0  501    0  0.00000000000E+00  0.00000000000E+00 -0.23122094502E+04  0.23122094503E+04  0.50400001928E-02 0.  1.
    10030    2    1    2    0    0  0.00000000000E+00  0.00000000000E+00 -0.14451936473E+04  0.31792252532E+04  0.28317642085E+04 0.  0.
        2    1    3    3  502    0 -0.63639629856E+03  0.62962073223E+02  0.69563648280E+03  0.94492041342E+03  0.25500000920E-02 0. -1.
       -2    1    3    3    0  502  0.63639629856E+03 -0.62962073223E+02 -0.21408301301E+04  0.22343048398E+04  0.25500000920E-02 0.  1.
</event>
<event>
 5   0  0.7971153E-06  0.2803516E+04  0.7818609E-02  0.8302178E-01
        1   -1    0    0  501    0  0.00000000000E+00  0.00000000000E+00  0.21315243361E+04  0.21315243361E+04  0.50400001928E-02 0. -1.
       -1   -1    0    0    0  501  0.00000000000E+00  0.00000000000E+00 -0.92184027451E+03  0.92184027453E+03  0.50400001928E-02 0.  1.
    10030    2    1    2    0    0  0.00000000000E+00  0.00000000000E+00  0.12096840616E+04  0.30533646107E+04  0.28035156352E+04 0.  0.
        5    1    3    3  502    0  0.10671988795E+03 -0.56413645968E+03 -0.78789652292E+03  0.97490620085E+03  0.46999998093E+01 0.  1.
       -5    1    3    3    0  502 -0.10671988795E+03  0.56413645968E+03  0.19975805845E+04  0.20784584098E+04  0.46999998093E+01 0. -1.
</event>
<event>
 5   0  0.1960961E-05  0.2056320E+04  0.7818609E-02  0.8580732E-01
        2   -1    0    0  501    0  0.00000000000E+00  0.00000000000E+00  0.24865052428E+04  0.24865052428E+04  0.25500000920E-02 0.  1.
       -2   -1    0    0    0  501  0.00000000000E+00  0.00000000000E+00 -0.42514022310E+03  0.42514022311E+03  0.25500000920E-02 0. -1.
    10030    2    1    2    0    0  0.00000000000E+00  0.00000000000E+00  0.20613650197E+04  0.29116454659E+04  0.20563203969E+04 0.  0.
        5    1    3    3  502    0 -0.23284501142E+03  0.34287111771E+03 -0.30160007420E+03  0.51260325542E+03  0.46999998093E+01 0. -1.
       -5    1    3    3    0  502  0.23284501142E+03 -0.34287111771E+03  0.23629650939E+04  0.23990422105E+04  0.46999998093E+01 0.  1.
</event>
<event>
 5   0  0.1960961E-05  0.2809174E+04  0.7818609E-02  0.8300426E-01
        2   -1    0    0  501    0  0.00000000000E+00  0.00000000000E+00  0.12106639409E+04  0.12106639409E+04  0.25500000920E-02 0. -1.
       -2   -1    0    0    0  501  0.00000000000E+00  0.00000000000E+00 -0.16295726669E+04  0.16295726669E+04  0.25500000920E-02 0.  1.
    10030    2    1    2    0    0  0.00000000000E+00  0.00000000000E+00 -0.41890872608E+03  0.28402366078E+04  0.28091741611E+04 0.  0.
        5    1    3    3  502    0 -0.60954993029E+03 -0.85945164844E+03  0.72959683941E+03  0.12816169052E+04  0.46999998093E+01 0. -1.
       -5    1    3    3    0  502  0.60954993029E+03  0.85945164844E+03 -0.11485055655E+04  0.15586197026E+04  0.46999998093E+01 0.  1.
</event>
<event>
 5   0  0.1960961E-05  0.2972862E+04  0.7818609E-02  0.8251523E-01
        2   -1    0    0  501    0  0.00000000000E+00  0.00000000000E+00  0.21915305066E+04  0.21915305066E+04  0.25500000920E-02 0. -1.
       -2   -1    0    0    0  501  0.00000000000E+00  0.00000000000E+00 -0.10081893104E+04  0.10081893104E+04  0.25500000920E-02 0.  1.
    10030    2    1    2    0    0  0.00000000000E+00  0.00000000000E+00  0.11833411962E+04  0.31997198170E+04  0.29728623448E+04 0.  0.
        5    1    3    3  502    0  0.11421889883E+04  0.74701272393E+03 -0.42194200840E+02  0.13654399054E+04  0.46999998093E+01 0.  1.
       -5    1    3    3    0  502 -0.11421889883E+04 -0.74701272393E+03  0.12255353971E+04  0.18342799116E+04  0.46999998093E+01 0. -1.
</event>
<event>
 5   0  0.7305460E-06  0.2968869E+04  0.7818609E-02  0.8252677E-01
        1   -1    0    0  501    0  0.00000000000E+00  0.00000000000E+00  0.15219026783E+04  0.15219026784E+04  0.50400001928E-02 0.  1.
       -1   -1    0    0    0  501  0.00000000000E+00  0.00000000000E+00 -0.14478892013E+04  0.14478892013E+04  0.50400001928E-02 0. -1.
    10030    2    1    2    0    0  0.00000000000E+00  0.00000000000E+00  0.74013477004E+02  0.29697918797E+04  0.29688694505E+04 0.  0.
        4    1    3    3  502    0  0.68824139565E+03 -0.26073724693E+03  0.13265483498E+04  0.15170340365E+04  0.12699999809E+01 0.  1.
       -4    1    3    3    0  502 -0.68824139565E+03  0.26073724693E+03 -0.12525348728E+04  0.14527578432E+04  0.12699999809E+01 0. -1.
</event>
<event>
 5   0  0.1976233E-05  0.2360822E+04  0.7818609E-02  0.8454318E-01
       -2   -1    0    0    0  501  0.00000000000E+00  0.00000000000E+00  0.69257527933E+03  0.69257527934E+03  0.25500000920E-02 0. -1.
        2   -1    0    0  501    0  0.00000000000E+00  0.00000000000E+00 -0.20118686265E+04  0.20118686265E+04  0.25500000920E-02 0.  1.
    10030    2    1    2    0    0  0.00000000000E+00  0.00000000000E+00 -0.13192933471E+04  0.27044439058E+04  0.23608222940E+04 0.  0.
        2    1    3    3  502    0  0.77865558512E+03 -0.63256282838E+03  0.52929025550E+02  0.10046102398E+04  0.25500000920E-02 0. -1.
       -2    1    3    3    0  502 -0.77865558512E+03  0.63256282838E+03 -0.13722223727E+04  0.16998336660E+04  0.25500000920E-02 0.  1.
</event>
<event>
 5   0  0.1937947E-05  0.3390086E+04  0.7818609E-02  0.8140344E-01
       -2   -1    0    0    0  501  0.00000000000E+00  0.00000000000E+00  0.12811968542E+04  0.12811968542E+04  0.25500000920E-02 0.  1.
        2   -1    0    0  501    0  0.00000000000E+00  0.00000000000E+00 -0.22425677349E+04  0.22425677349E+04  0.25500000920E-02 0. -1.
    10030    2    1    2    0    0  0.00000000000E+00  0.00000000000E+00 -0.96137088070E+03  0.35237645891E+04  0.33900859737E+04 0.  0.
        3    1    3    3  502    0  0.18220026124E+03 -0.16841300823E+04 -0.41763337949E+03  0.17446801195E+04  0.10100000352E+00 0. -1.
       -3    1    3    3    0  502 -0.18220026124E+03  0.16841300823E+04 -0.54373750121E+03  0.17790844696E+04  0.10100000352E+00 0.  1.
</event>
<event>
 5   0  0.8122088E-06  0.1458623E+04  0.7818609E-02  0.8912444E-01
       -1   -1    0    0    0  501  0.00000000000E+00  0.00000000000E+00  0.27086057810E+03  0.27086057815E+03  0.50400001928E-02 0.  1.
        1   -1    0    0  501    0  0.00000000000E+00  0.00000000000E+00 -0.19637229357E+04  0.19637229357E+04  0.50400001928E-02 0. -1.
    10030    2    1    2    0    0  0.00000000000E+00  0.00000000000E+00 -0.16928623576E+04  0.22345835138E+04  0.14586228157E+04 0.  0.
        1    1    3    3  502    0 -0.49743082100E+02  0.38526131526E+03  0.99180715637E+02  0.40092077725E+03  0.50400001928E-02 0.  1.
       -1    1    3    3    0  502  0.49743082100E+02 -0.38526131526E+03 -0.17920430732E+04  0.18336627366E+04  0.50400001928E-02 0. -1.
</event>
<event>
 5   0  0.1937947E-05  0.2874644E+04  0.7818609E-02  0.8280462E-01
        2   -1    0    0  501    0  0.00000000000E+00  0.00000000000E+00  0.10018772412E+04  0.10018772412E+04  0.25500000920E-02 0.  1.
       -2   -1    0    0    0  501  0.00000000000E+00  0.00000000000E+00 -0.20620235006E+04  0.20620235006E+04  0.25500000920E-02 0. -1.
    10030    2    1    2    0    0  0.00000000000E+00  0.00000000000E+00 -0.10601462594E+04  0.30639007418E+04  0.28746439196E+04 0.  0.
        3    1    3    3  502    0  0.42289793475E+02  0.91178738377E+03 -0.17134636775E+04  0.19414176378E+04  0.10100000352E+00 0. -1.
       -3    1    3    3    0  502 -0.42289793475E+02 -0.91178738377E+03  0.65331741811E+03  0.11224831040E+04  0.10100000352E+00 0.  1.
</event>
<event>
 5   0  0.7305460E-06  0.2839797E+04  0.7818609E-02  0.8291019E-01
       -1   -1    0    0    0  501  0.00000000000E+00  0.00000000000E+00  0.12759195149E+04  0.12759195149E+04  0.50400001928E-02 0. -1.
        1   -1    0    0  501    0  0.00000000000E+00  0.00000000000E+00 -0.15801241311E+04  0.15801241311E+04  0.50400001928E-02 0.  1.
    10030    2    1    2    0    0  0.00000000000E+00  0.00000000000E+00 -0.30420461622E+03  0.28560436459E+04  0.28397966228E+04 0.  0.
        4    1    3    3  502    0  0.12720912942E+04  0.61677972691E+03 -0.28505587162E+03  0.14421830519E+04  0.12699999809E+01 0. -1.
       -4    1    3    3    0  502 -0.12720912942E+04 -0.61677972691E+03 -0.19148744602E+02  0.14138605941E+04  0.12699999809E+01 0.  1.
</event>
<event>
 5   0  0.1960961E-05  0.2262580E+04  0.7818609E-02  0.8492823E-01
       -2   -1    0    0    0  501  0.00000000000E+00  0.00000000000E+00  0.64220377114E+03  0.64220377115E+03  0.25500000920E-02 0. -1.
        2   -1    0    0  501    0  0.00000000000E+00  0.00000000000E+00 -0.19928518582E+04  0.19928518582E+04  0.25500000920E-02 0.  1.
    10030    2    1    2    0    0  0.00000000000E+00  0.00000000000E+00 -0.13506480870E+04  0.26350556293E+04  0.22625799245E+04 0.  0.
        5    1    3    3  502    0  0.39081185054E+03 -0.60217583241E+03  0.34293682165E+03  0.79559876150E+03  0.46999998093E+01 0. -1.
       -5    1    3    3    0  502 -0.39081185054E+03  0.60217583241E+03 -0.16935849087E+04  0.18394568678E+04  0.46999998093E+01 0.  1.
</event>
<event>
 5   0  0.8234888E-06  0.2829666E+04  0.7818609E-02  0.8294117E-01
       -1   -1    0    0    0  501  0.00000000000E+00  0.00000000000E+00  0.17080259349E+04  0.17080259350E+04  0.50400001928E-02 0. -1.
        1   -1    0    0  501    0  0.00000000000E+00  0.00000000000E+00 -0.11719686615E+04  0.11719686615E+04  0.50400001928E-02 0.  1.
    10030    2    1    2    0    0  0.00000000000E+00  0.00000000000E+00  0.53605727345E+03  0.28799945965E+04  0.28296663187E+04 0.  0.
        3    1    3    3  502    0 -0.12262056359E+03  0.11716096652E+04  0.10655779665E+04  0.15884462292E+04  0.10100000352E+00 0.  1.
       -3    1    3    3    0  502  0.12262056359E+03 -0.11716096652E+04 -0.52952069306E+03  0.12915483672E+04  0.10100000352E+00 0. -1.
</event>
<event>
 5   0  0.1976233E-05  0.2992851E+04  0.7818609E-02  0.8245775E-01
       -2   -1    0    0    0  501  0.00000000000E+00  0.00000000000E+00  0.15608997640E+04  0.15608997640E+04  0.25500000920E-02 0. -1.
        2   -1    0    0  501    0  0.00000000000E+00  0.00000000000E+00 -0.14346143204E+04  0.14346143204E+04  0.25500000920E-02 0.  1.
    10030    2    1    2    0    0  0.00000000000E+00  0.00000000000E+00  0.12628544361E+03  0.29955140844E+04  0.29928509179E+04 0.  0.
        2    1    3    3  502    0  0.86330921921E+03  0.12613619444E+03 -0.11537006072E+04  0.14464571333E+04  0.25500000920E-02 0.  1.
       -2    1    3    3    0  502 -0.86330921921E+03 -0.12613619444E+03  0.12799860508E+04  0.15490569511E+04  0.25500000920E-02 0. -1.
</event>
<event>
 5   0  0.7971153E-06  0.2830637E+04  0.7818609E-02  0.8293820E-01
        1   -1    0    0  501    0  0.00000000000E+00  0.00000000000E+00  0.13530666110E+04  0.13530666111E+04  0.50400001928E-02 0. -1.
       -1   -1    0    0    0  501  0.00000000000E+00  0.00000000000E+00 -0.14804342567E+04  0.14804342567E+04  0.50400001928E-02 0.  1.
    10030    2    1    2    0    0  0.00000000000E+00  0.00000000000E+00 -0.12736764564E+03  0.28335008678E+04  0.28306367924E+04 0.  0.
        5    1    3    3  502    0  0.36215684667E+03  0.13593588773E+04 -0.21905018796E+03  0.14237342497E+04  0.46999998093E+01 0.  1.
       -5    1    3    3    0  502 -0.36215684667E+03 -0.13593588773E+04  0.91682542313E+02  0.14097666181E+04  0.46999998093E+01 0. -1.
</event>
<event>
 5   0  0.8055928E-06  0.2302219E+04  0.7818609E-02  0.8477047E-01
        1   -1    0    0  501    0  0.00000000000E+00  0.00000000000E+00  0.12452969116E+04  0.12452969116E+04  0.50400001928E-02 0.  1.
       -1   -1    0    0    0  501  0.00000000000E+00  0.00000000000E+00 -0.10640460483E+04  0.10640460483E+04  0.50400001928E-02 0. -1.
    10030    2    1    2    0    0  0.00000000000E+00  0.00000000000E+00  0.18125086330E+03  0.23093429600E+04  0.23022191536E+04 0.  0.
        2    1    3    3  502    0  0.10949223012E+04  0.65027767699E+02 -0.25969698683E+03  0.11271761093E+04  0.25500000920E-02 0. -1.
       -2    1    3    3    0  502 -0.10949223012E+04 -0.65027767699E+02  0.44094785013E+03  0.11821668507E+04  0.25500000920E-02 0.  1.
</event>
<event>
 5   0  0.7971153E-06  0.2815119E+04  0.7818609E-02  0.8298590E-01
       -1   -1    0    0    0  501  0.00000000000E+00  0.00000000000E+00  0.13618620061E+04  0.13618620061E+04  0.50400001928E-02 0.  1.
        1   -1    0    0  501    0  0.00000000000E+00  0.00000000000E+00 -0.14547898984E+04  0.14547898984E+04  0.50400001928E-02 0. -1.
    10030    2    1    2    0    0  0.00000000000E+00  0.00000000000E+00 -0.92927892343E+02  0.28166519045E+04  0.28151185335E+04 0.  0.
        5    1    3    3  502    0 -0.10195411969E+04  0.96318460731E+03  0.71973498223E+02  0.14044184257E+04  0.46999998093E+01 0. -1.
       -5    1    3    3    0  502  0.10195411969E+04 -0.96318460731E+03 -0.16490139057E+03  0.14122334788E+04  0.46999998093E+01 0.  1.
</event>
<event>
 5   0  0.1937947E-05  0.2684008E+04  0.7818609E-02  0.8340213E-01
        2   -1    0    0  501    0  0.00000000000E+00  0.00000000000E+00  0.97468747016E+03  0.97468747016E+03  0.25500000920E-02 0.  1.
       -2   -1    0    0    0  501  0.00000000000E+00  0.00000000000E+00 -0.18477456263E+04  0.18477456263E+04  0.25500000920E-02 0. -1.
    10030    2    1    2    0    0  0.00000000000E+00  0.00000000000E+00 -0.87305815614E+03  0.28224330965E+04  0.26840078316E+04 0.  0.
        3    1    3    3  502    0 -0.75465020997E+03  0.83203858772E+03 -0.12086948200E+04  0.16500691891E+04  0.10100000352E+00 0. -1.
       -3    1    3    3    0  502  0.75465020997E+03 -0.83203858772E+03  0.33563666385E+03  0.11723639073E+04  0.10100000352E+00 0.  1.
</event>
<event>
 5   0  0.7971153E-06  0.2704381E+04  0.7818609E-02  0.8333585E-01
       -1   -1    0    0    0  501  0.00000000000E+00  0.00000000000E+00  0.17221306531E+04  0.17221306531E+04  0.50400001928E-02 0. -1.
        1   -1    0    0  501    0  0.00000000000E+00  0.00000000000E+00 -0.10617194902E+04  0.10617194902E+04  0.50400001928E-02 0.  1.
    10030    2    1    2    0    0  0.00000000000E+00  0.00000000000E+00  0.66041116291E+03  0.27838501433E+04  0.27043813925E+04 0.  0.
        5    1    3    3  502    0  0.21122046019E+03 -0.11784059445E+04 -0.31687002106E+03  0.12384196999E+04  0.46999998093E+01 0.  1.
       -5    1    3    3    0  502 -0.21122046019E+03  0.11784059445E+04  0.97728118396E+03  0.15454304434E+04  0.46999998093E+01 0. -1.
</event>
<event>
 5   0  0.1918901E-05  0.2035519E+04  0.7818609E-02  0.8590192E-01
       -2   -1    0    0    0  501  0.00000000000E+00  0.00000000000E+00  0.52874630195E+03  0.52874630196E+03  0.25500000920E-02 0. -1.
        2   -1    0    0  501    0  0.00000000000E+00  0.00000000000E+00 -0.19590393931E+04  0.19590393931E+04  0.25500000920E-02 0.  1.
    10030    2    1    2    0    0  0.00000000000E+00  0.00000000000E+00 -0.14302930912E+04  0.24877856951E+04  0.20355194271E+04 0.  0.
        1    1    3    3  502    0  0.95555603687E+02 -0.49374167553E+02 -0.19520737046E+04  0.19550346365E+04  0.50400001928E-02 0.  1.
       -1    1    3    3    0  502 -0.95555603687E+02  0.49374167553E+02  0.52178061343E+03  0.53275105856E+03  0.50400001928E-02 0. -1.
</event>
<event>
 5   0  0.1960961E-05  0.2852722E+04  0.7818609E-02  0.8287085E-01
        2   -1    0    0  501    0  0.00000000000E+00  0.00000000000E+00  0.28421097562E+04  0.28421097562E+04  0.25500000920E-02 0. -1.
       -2   -1    0    0    0  501  0.00000000000E+00  0.00000000000E+00 -0.71584330236E+03  0.71584330236E+03  0.25500000920E-02 0.  1.
    10030    2    1    2    0    0  0.00000000000E+00  0.00000000000E+00  0.21262664538E+04  0.35579530585E+04  0.28527216713E+04 0.  0.
        5    1    3    3  502    0 -0.88313858678E+03  0.89408660745E+03  0.19045712830E+04  0.22818278829E+04  0.46999998093E+01 0. -1.
       -5    1    3    3    0  502  0.88313858678E+03 -0.89408660745E+03  0.22169517077E+03  0.12761251756E+04  0.46999998093E+01 0.  1.
</event>
<event>
 5   0  0.1960961E-05  0.2866219E+04  0.7818609E-02  0.8283000E-01
        2   -1    0    0  501    0  0.00000000000E+00  0.00000000000E+00  0.10697772672E+04  0.10697772672E+04  0.25500000920E-02 0.  1.
       -2   -1    0    0    0  501  0.00000000000E+00  0.00000000000E+00 -0.19198409791E+04  0.19198409791E+04  0.25500000920E-02 0. -1.
    10030    2    1    2    0    0  0.00000000000E+00  0.00000000000E+00 -0.85006371185E+03  0.29896182463E+04  0.28662185793E+04 0.  0.
        5    1    3    3  502    0 -0.78384049696E+03 -0.60559592203E+03  0.65523475501E+03  0.11876476833E+04  0.46999998093E+01 0.  1.
       -5    1    3    3    0  502  0.78384049696E+03  0.60559592203E+03 -0.15052984669E+04  0.18019705630E+04  0.46999998093E+01 0. -1.
</event>
<event>
 5   0  0.7971153E-06  0.1699818E+04  0.7818609E-02  0.8761468E-01
        1   -1    0    0  501    0  0.00000000000E+00  0.00000000000E+00  0.10586845771E+04  0.10586845771E+04  0.50400001928E-02 0. -1.
       -1   -1    0    0    0  501  0.00000000000E+00  0.00000000000E+00 -0.68230446252E+03  0.68230446254E+03  0.50400001928E-02 0.  1.
    10030    2    1    2    0    0  0.00000000000E+00  0.00000000000E+00  0.37638011453E+03  0.17409890396E+04  0.16998178860E+04 0.  0.
        5    1    3    3  502    0  0.36849271678E+03 -0.32381270778E+02  0.97189489455E+03  0.10399217303E+04  0.46999998093E+01 0. -1.
       -5    1    3    3    0  502 -0.36849271678E+03  0.32381270778E+02 -0.59551478002E+03  0.70106730935E+03  0.46999998093E+01 0.  1.
</event>
<event>
 5   0  0.7971153E-06  0.2920726E+04  0.7818609E-02  0.8266737E-01
       -1   -1    0    0    0  501  0.00000000000E+00  0.00000000000E+00  0.13536542611E+04  0.13536542611E+04  0.50400001928E-02 0.  1.
        1   -1    0    0  501    0  0.00000000000E+00  0.00000000000E+00 -0.15754839144E+04  0.15754839144E+04  0.50400001928E-02 0. -1.
    10030    2    1    2    0    0  0.00000000000E+00  0.00000000000E+00 -0.22182965328E+03  0.29291381756E+04  0.29207262892E+04 0.  0.
        5    1    3    3  502    0 -0.11377605104E+04 -0.89705949113E+03  0.72433248825E+02  0.14506837612E+04  0.46999998093E+01 0.  1.
       -5    1    3    3    0  502  0.11377605104E+04  0.89705949113E+03 -0.29426290211E+03  0.14784544143E+04  0.46999998093E+01 0. -1.
</event>
<event>
 5   0  0.1960961E-05  0.2814851E+04  0.7818609E-02  0.8298672E-01
        2   -1    0    0  501    0  0.00000000000E+00  0.00000000000E+00  0.17858125652E+04  0.17858125652E+04  0.25500000920E-02 0.  1.
       -2   -1    0    0    0  501  0.00000000000E+00  0.00000000000E+00 -0.11092130611E+04  0.11092130611E+04  0.25500000920E-02 0. -1.
    10030    2    1    2    0    0  0.00000000000E+00  0.00000000000E+00  0.67659950407E+03  0.28950256262E+04  0.28148510596E+04 0.  0.
        5    1    3    3  502    0 -0.12625010147E+04 -0.23194376061E+03 -0.25530301888E+03  0.13087812811E+04  0.46999998093E+01 0. -1.
       -5    1    3    3    0  502  0.12625010147E+04  0.23194376061E+03  0.93190252295E+03  0.15862443452E+04  0.46999998093E+01 0.  1.
</event>
<event>
 5   0  0.7305460E-06  0.1561022E+04  0.7818609E-02  0.8844858E-01
        1   -1    0    0  501    0  0.00000000000E+00  0.00000000000E+00  0.16501645610E+04  0.16501645610E+04  0.50400001928E-02 0. -1.
       -1   -1    0    0    0  501  0.00000000000E+00  0.00000000000E+00 -0.36917356128E+03  0.36917356131E+03  0.50400001928E-02 0.  1.
    10030    2    1    2    0    0  0.00000000000E+00  0.00000000000E+00  0.12809909997E+04  0.20193381223E+04  0.15610216241E+04 0.  0.
        4    1    3    3  502    0  0.88202239191E+02 -0.18221632505E+03  0.16156102874E+04  0.16282446492E+04  0.12699999809E+01 0. -1.
       -4    1    3    3    0  502 -0.88202239191E+02  0.18221632505E+03 -0.33461928767E+03  0.39109347309E+03  0.12699999809E+01 0.  1.
</event>
<event>
 5   0  0.1918901E-05  0.2495879E+04  0.7818609E-02  0.8404455E-01
       -2   -1    0    0    0  501  0.00000000000E+00  0.00000000000E+00  0.90061960744E+03  0.90061960744E+03  0.25500000920E-02 0.  1.
        2   -1    0    0  501    0  0.00000000000E+00  0.00000000000E+00 -0.17292023009E+04  0.17292023009E+04  0.25500000920E-02 0. -1.
    10030    2    1    2    0    0  0.00000000000E+00  0.00000000000E+00 -0.82858269345E+03  0.26298219083E+04  0.24958794021E+04 0.  0.
        1    1    3    3  502    0  0.52413381524E+03  0.43772754081E+03 -0.15148709371E+04  0.16616725347E+04  0.50400001928E-02 0. -1.
       -1    1    3    3    0  502 -0.52413381524E+03 -0.43772754081E+03  0.68628824369E+03  0.96814937366E+03  0.50400001928E-02 0.  1.
</event>
<event>
 5   0  0.7971153E-06  0.1871086E+04  0.7818609E-02  0.8669384E-01
        1   -1    0    0  501    0  0.00000000000E+00  0.00000000000E+00  0.98940196952E+03  0.98940196953E+03  0.50400001928E-02 0.  1.
       -1   -1    0    0    0  501  0.00000000000E+00  0.00000000000E+00 -0.88461617173E+03  0.88461617174E+03  0.50400001928E-02 0. -1.
    10030    2    1    2    0    0  0.00000000000E+00  0.00000000000E+00  0.10478579779E+03  0.18740181413E+04  0.18710862969E+04 0.  0.
        5    1    3    3  502    0  0.50320912203E+02  0.61609944456E+03  0.75570983072E+03  0.97633506443E+03  0.46999998093E+01 0.  1.
       -5    1    3    3    0  502 -0.50320912203E+02 -0.61609944456E+03 -0.65092403294E+03  0.89768307684E+03  0.46999998093E+01 0. -1.
</event>
<event>
 5   0  0.8122088E-06  0.2706476E+04  0.7818609E-02  0.8332907E-01
        1   -1    0    0  501    0  0.00000000000E+00  0.00000000000E+00  0.19949351596E+04  0.19949351596E+04  0.50400001928E-02 0.  1.
       -1   -1    0    0    0  501  0.00000000000E+00  0.00000000000E+00 -0.91795116625E+03  0.91795116626E+03  0.50400001928E-02 0. -1.
    10030    2    1    2    0    0  0.00000000000E+00  0.00000000000E+00  0.10769839934E+04  0.29128863259E+04  0.27064759791E+04 0.  0.
        1    1    3    3  502    0 -0.96036469729E+03 -0.41452114355E+03 -0.38554616725E+03  0.11147977293E+04  0.50400001928E-02 0. -1.
       -1    1    3    3    0  502  0.96036469729E+03  0.41452114355E+03  0.14625301606E+04  0.17980885966E+04  0.50400001928E-02 0.  1.
</event>
<event>
 5   0  0.8122088E-06  0.2697770E+04  0.7818609E-02  0.8335729E-01
       -1   -1    0    0    0  501  0.00000000000E+00  0.00000000000E+00  0.95874838964E+03  0.95874838965E+03  0.50400001928E-02 0. -1.
        1   -1    0    0  501    0  0.00000000000E+00  0.00000000000E+00 -0.18977765941E+04  0.18977765941E+04  0.50400001928E-02 0.  1.
    10030    2    1    2    0    0  0.00000000000E+00  0.00000000000E+00 -0.93902820450E+03  0.28565249838E+04  0.26977696370E+04 0.  0.
        1    1    3    3  502    0 -0.68449877958E+03  0.79759588553E+03 -0.13647204460E+04  0.17225445340E+04  0.50400001928E-02 0.  1.
       -1    1    3    3    0  502  0.68449877958E+03 -0.79759588553E+03  0.42569224155E+03  0.11339804497E+04  0.50400001928E-02 0. -1.
</event>
<event>
 5   0  0.7305460E-06  0.2879467E+04  0.7818609E-02  0.8279013E-01
        1   -1    0    0  501    0  0.00000000000E+00  0.00000000000E+00  0.16617630929E+04  0.16617630929E+04  0.50400001928E-02 0.  1.
       -1   -1    0    0    0  501  0.00000000000E+00  0.00000000000E+00 -0.12473697886E+04  0.12473697886E+04  0.50400001928E-02 0. -1.
    10030    2    1    2    0    0  0.00000000000E+00  0.00000000000E+00  0.41439330429E+03  0.29091328815E+04  0.28794673660E+04 0.  0.
        4    1    3    3  502    0  0.19785970461E+03  0.11443744020E+04  0.10668982663E+04  0.15770271901E+04  0.12699999809E+01 0.  1.
       -4    1    3    3    0  502 -0.19785970461E+03 -0.11443744020E+04 -0.65250496200E+03  0.13321056914E+04  0.12699999809E+01 0. -1.
</event>
<event>
 5   0  0.1829810E-05  0.2657891E+04  0.7818609E-02  0.8348799E-01
        2   -1    0    0  501    0  0.00000000000E+00  0.00000000000E+00  0.13595473029E+04  0.13595473029E+04  0.25500000920E-02 0. -1.
       -2   -1    0    0    0  501  0.00000000000E+00  0.00000000000E+00 -0.12990326182E+04  0.12990326182E+04  0.25500000920E-02 0.  1.
    10030    2    1    2    0    0  0.00000000000E+00  0.00000000000E+00  0.60514684727E+02  0.26585799211E+04  0.26578911132E+04 0.  0.
        4    1    3    3  502    0 -0.13599206434E+03 -0.98733629193E+03 -0.84904264685E+03  0.13092753049E+04  0.12699999809E+01 0.  1.
       -4    1    3    3    0  502  0.13599206434E+03  0.98733629193E+03  0.90955733157E+03  0.13493046162E+04  0.12699999809E+01 0. -1.
</event>
<event>
 5   0  0.1918901E-05  0.2895013E+04  0.7818609E-02  0.8274363E-01
       -2   -1    0    0    0  501  0.00000000000E+00  0.00000000000E+00  0.73455667839E+03  0.73455667839E+03  0.25500000920E-02 0.  1.
        2   -1    0    0  501    0  0.00000000000E+00  0.00000000000E+00 -0.28524339450E+04  0.28524339450E+04  0.25500000920E-02 0. -1.
    10030    2    1    2    0    0  0.00000000000E+00  0.00000000000E+00 -0.21178772666E+04  0.35869906234E+04  0.28950125416E+04 0.  0.
        1    1    3    3  502    0 -0.13014516070E+03 -0.14407591607E+04 -0.11215023858E+04  0.18304350094E+04  0.50400001928E-02 0. -1.
       -1    1    3    3    0  502  0.13014516070E+03  0.14407591607E+04 -0.99637488081E+03  0.17565556140E+04  0.50400001928E-02 0.  1.
</event>
<event>
 5   0  0.7305460E-06  0.2930512E+04  0.7818609E-02  0.8263857E-01
       -1   -1    0    0    0  501  0.00000000000E+00  0.00000000000E+00  0.18062860632E+04  0.18062860632E+04  0.50400001928E-02 0. -1.
        1   -1    0    0  501    0  0.00000000000E+00  0.00000000000E+00 -0.11886128150E+04  0.11886128151E+04  0.50400001928E-02 0.  1.
    10030    2    1    2    0    0  0.00000000000E+00  0.00000000000E+00  0.61767324813E+03  0.29948988782E+04  0.29305117385E+04 0.  0.
        4    1    3    3  502    0  0.30901214625E+03  0.85029871156E+03 -0.86908305086E+03  0.12545131995E+04  0.12699999809E+01 0.  1.
       -4    1    3    3    0  502 -0.30901214625E+03 -0.85029871156E+03  0.14867562990E+04  0.17403856788E+04  0.12699999809E+01 0. -1.
</event>
<event>
 5   0  0.1960961E-05  0.2874651E+04  0.7818609E-02  0.8280460E-01
       -2   -1    0    0    0  501  0.00000000000E+00  0.00000000000E+00  0.14046895453E+04  0.14046895453E+04  0.25500000920E-02 0.  1.
        2   -1    0    0  501    0  0.00000000000E+00  0.00000000000E+00 -0.14707199940E+04  0.14707199940E+04  0.25500000920E-02 0. -1.
    10030    2    1    2    0    0  0.00000000000E+00  0.00000000000E+00 -0.66030448683E+02  0.28754095393E+04  0.28746512829E+04 0.  0.
        5    1    3    3  502    0  0.10642961276E+03  0.13716854775E+02  0.14006693340E+04  0.14047818648E+04  0.46999998093E+01 0.  1.
       -5    1    3    3    0  502 -0.10642961276E+03 -0.13716854775E+02 -0.14666997826E+04  0.14706276745E+04  0.46999998093E+01 0. -1.
</event>
<event>
 5   0  0.1937947E-05  0.2873146E+04  0.7818609E-02  0.8280913E-01
       -2   -1    0    0    0  501  0.00000000000E+00  0.00000000000E+00  0.14160335669E+04  0.14160335669E+04  0.25500000920E-02 0.  1.
        2   -1    0    0  501    0  0.00000000000E+00  0.00000000000E+00 -0.14574098965E+04  0.14574098965E+04  0.25500000920E-02 0. -1.
    10030    2    1    2    0    0  0.00000000000E+00  0.00000000000E+00 -0.41376329655E+02  0.28734434634E+04  0.28731455474E+04 0.  0.
        3    1    3    3  502    0  0.11521575600E+04  0.74893073679E+03  0.39813566917E+03  0.14306908516E+04  0.10100000352E+00 0.  1.
       -3    1    3    3    0  502 -0.11521575600E+04 -0.74893073679E+03 -0.43951199882E+03  0.14427526118E+04  0.10100000352E+00 0. -1.
</event>
<event>
 5   0  0.1829810E-05  0.2785283E+04  0.7818609E-02  0.8307852E-01
       -2   -1    0    0    0  501  0.00000000000E+00  0.00000000000E+00  0.88238628904E+03  0.88238628904E+03  0.25500000920E-02 0.  1.
        2   -1    0    0  501    0  0.00000000000E+00  0.00000000000E+00 -0.21979608884E+04  0.21979608884E+04  0.25500000920E-02 0. -1.
    10030    2    1    2    0    0  0.00000000000E+00  0.00000000000E+00 -0.13155745993E+04  0.30803471774E+04  0.27852831467E+04 0.  0.
        4    1    3    3  502    0 -0.59957758484E+03 -0.70555182472E+03 -0.18082552000E+04  0.20315228620E+04  0.12699999809E+01 0. -1.
       -4    1    3    3    0  502  0.59957758484E+03  0.70555182472E+03  0.49268060061E+03  0.10488243155E+04  0.12699999809E+01 0.  1.
</event>
<event>
 5   0  0.1976233E-05  0.1732651E+04  0.7818609E-02  0.8742959E-01
        2   -1    0    0  501    0  0.00000000000E+00  0.00000000000E+00  0.10570017391E+04  0.10570017391E+04  0.25500000920E-02 0. -1.
       -2   -1    0    0    0  501  0.00000000000E+00  0.00000000000E+00 -0.71004570118E+03  0.71004570119E+03  0.25500000920E-02 0.  1.
    10030    2    1    2    0    0  0.00000000000E+00  0.00000000000E+00  0.34695603796E+03  0.17670474403E+04  0.17326506180E+04 0.  0.
        2    1    3    3  502    0  0.57085942968E+03  0.52152283447E+03  0.57194272783E+03  0.96176142533E+03  0.25500000920E-02 0. -1.
       -2    1    3    3    0  502 -0.57085942968E+03 -0.52152283447E+03 -0.22498668987E+03  0.80528601500E+03  0.25500000920E-02 0.  1.
</event>
<event>
 5   0  0.1976233E-05  0.3014755E+04  0.7818609E-02  0.8239530E-01
       -2   -1    0    0    0  501  0.00000000000E+00  0.00000000000E+00  0.11506151723E+04  0.11506151723E+04  0.25500000920E-02 0. -1.
        2   -1    0    0  501    0  0.00000000000E+00  0.00000000000E+00 -0.19747587822E+04  0.19747587822E+04  0.25500000920E-02 0.  1.
    10030    2    1    2    0    0  0.00000000000E+00  0.00000000000E+00 -0.82414360991E+03  0.31253739545E+04  0.30147553244E+04 0.  0.
        2    1    3    3  502    0 -0.81540785368E+03  0.64973726394E+03 -0.15406575256E+04  0.18602887118E+04  0.25500000920E-02 0.  1.
       -2    1    3    3    0  502  0.81540785368E+03 -0.64973726394E+03  0.71651391569E+03  0.12650852427E+04  0.25500000920E-02 0. -1.
</event>
<event>
 5   0  0.1976233E-05  0.2209067E+04  0.7818609E-02  0.8514664E-01
       -2   -1    0    0    0  501  0.00000000000E+00  0.00000000000E+00  0.11974461461E+04  0.11974461461E+04  0.25500000920E-02 0. -1.
        2   -1    0    0  501    0  0.00000000000E+00  0.00000000000E+00 -0.10188302238E+04  0.10188302238E+04  0.25500000920E-02 0.  1.
    10030    2    1    2    0    0  0.00000000000E+00  0.00000000000E+00  0.17861592235E+03  0.22162763699E+04  0.22090670656E+04 0.  0.
        2    1    3    3  502    0 -0.16942687129E+03  0.77963163445E+03  0.85564852638E+03  0.11698997183E+04  0.25500000920E-02 0. -1.
       -2    1    3    3    0  502  0.16942687129E+03 -0.77963163445E+03 -0.67703260403E+03  0.10463766516E+04  0.25500000920E-02 0.  1.
</event>
<event>
 5   0  0.1937947E-05  0.2901910E+04  0.7818609E-02  0.8272309E-01
        2   -1    0    0  501    0  0.00000000000E+00  0.00000000000E+00  0.14047159901E+04  0.14047159901E+04  0.25500000920E-02 0.  1.
       -2   -1    0    0    0  501  0.00000000000E+00  0.00000000000E+00 -0.14987161515E+04  0.14987161515E+04  0.25500000920E-02 0. -1.
    10030    2    1    2    0    0  0.00000000000E+00  0.00000000000E+00 -0.94000161356E+02  0.29034321416E+04  0.29019100900E+04 0.  0.
        3    1    3    3  502    0  0.11698970237E+04  0.84219356306E+03  0.11837874667E+03  0.14463618432E+04  0.10100000352E+00 0.  1.
       -3    1    3    3    0  502 -0.11698970237E+04 -0.84219356306E+03 -0.21237890802E+03  0.14570702984E+04  0.10100000352E+00 0. -1.
</event>
<event>
 5   0  0.1829810E-05  0.2835951E+04  0.7818609E-02  0.8292193E-01
       -2   -1    0    0    0  501  0.00000000000E+00  0.00000000000E+00  0.14135032591E+04  0.14135032591E+04  0.25500000920E-02 0.  1.
        2   -1    0    0  501    0  0.00000000000E+00  0.00000000000E+00 -0.14224622206E+04  0.14224622206E+04  0.25500000920E-02 0. -1.
    10030    2    1    2    0    0  0.00000000000E+00  0.00000000000E+00 -0.89589614404E+01  0.28359654797E+04  0.28359513288E+04 0.  0.
        4    1    3    3  502    0 -0.13749446029E+04  0.11131824304E+03 -0.33279340853E+03  0.14190199005E+04  0.12699999809E+01 0. -1.
       -4    1    3    3    0  502  0.13749446029E+04 -0.11131824304E+03  0.32383444709E+03  0.14169455792E+04  0.12699999809E+01 0.  1.
</event>
<event>
 5   0  0.1918901E-05  0.2873534E+04  0.7818609E-02  0.8280796E-01
        2   -1    0    0  501    0  0.00000000000E+00  0.00000000000E+00  0.20379525729E+04  0.20379525729E+04  0.25500000920E-02 0. -1.
       -2   -1    0    0    0  501  0.00000000000E+00  0.00000000000E+00 -0.10129280954E+04  0.10129280955E+04  0.25500000920E-02 0.  1.
    10030    2    1    2    0    0  0.00000000000E+00  0.00000000000E+00  0.10250244775E+04  0.30508806684E+04  0.28735340042E+04 0.  0.
        1    1    3    3  502    0 -0.67745645513E+03 -0.12622061652E+04  0.39530054576E+03  0.14860599495E+04  0.50400001928E-02 0.  1.
       -1    1    3    3    0  502  0.67745645513E+03  0.12622061652E+04  0.62972393171E+03  0.15648207189E+04  0.50400001928E-02 0. -1.
</event>
<event>
 5   0  0.8122088E-06  0.2866695E+04  0.7818609E-02  0.8282856E-01
       -1   -1    0    0    0  501  0.00000000000E+00  0.00000000000E+00  0.96738229078E+03  0.96738229079E+03  0.50400001928E-02 0.  1.
        1   -1    0    0  501    0  0.00000000000E+00  0.00000000000E+00 -0.21237568344E+04  0.21237568344E+04  0.50400001928E-02 0. -1.
    10030    2    1    2    0    0  0.00000000000E+00  0.00000000000E+00 -0.11563745437E+04  0.30911391252E+04  0.28666947878E+04 0.  0.
        1    1    3    3  502    0 -0.11634524263E+03  0.12047777753E+04  0.24968610118E+03  0.12358676517E+04  0.50400001928E-02 0.  1.
       -1    1    3    3    0  502  0.11634524263E+03 -0.12047777753E+04 -0.14060606448E+04  0.18552714735E+04  0.50400001928E-02 0. -1.
</event>
<event>
 5   0  0.8234888E-06  0.2898332E+04  0.7818609E-02  0.8273374E-01
        1   -1    0    0  501    0  0.00000000000E+00  0.00000000000E+00  0.26236427832E+04  0.26236427832E+04  0.50400001928E-02 0. -1.
       -1   -1    0    0    0  501  0.00000000000E+00  0.00000000000E+00 -0.80044499609E+03  0.80044499610E+03  0.50400001928E-02 0.  1.
    10030    2    1    2    0    0  0.00000000000E+00  0.00000000000E+00  0.18231977871E+04  0.34240877793E+04  0.28983317528E+04 0.  0.
        3    1    3    3  502    0 -0.15224717880E+02  0.14489684078E+04  0.88979932738E+03  0.17004364417E+04  0.10100000352E+00 0.  1.
       -3    1    3    3    0  502  0.15224717880E+02 -0.14489684078E+04  0.93339845973E+03  0.17236513376E+04  0.10100000352E+00 0. -1.
</event>
<event>
 5   0  0.8122088E-06  0.1464585E+04  0.7818609E-02  0.8908351E-01
        1   -1    0    0  501    0  0.00000000000E+00  0.00000000000E+00  0.97111831239E+03  0.97111831241E+03  0.50400001928E-02 0. -1.
       -1   -1    0    0    0  501  0.00000000000E+00  0.00000000000E+00 -0.55220068748E+03  0.55220068750E+03  0.50400001928E-02 0.  1.
    10030    2    1    2    0    0  0.00000000000E+00  0.00000000000E+00  0.41891762492E+03  0.15233189999E+04  0.14645848555E+04 0.  0.
        1    1    3    3  502    0 -0.13653391570E+02  0.58778124247E+03  0.66351943143E+03  0.88652763071E+03  0.50400001928E-02 0. -1.
       -1    1    3    3    0  502  0.13653391570E+02 -0.58778124247E+03 -0.24460180651E+03  0.63679136919E+03  0.50400001928E-02 0.  1.
</event>
<event>
 5   0  0.1829810E-05  0.2860618E+04  0.7818609E-02  0.8284692E-01
       -2   -1    0    0    0  501  0.00000000000E+00  0.00000000000E+00  0.76820327015E+03  0.76820327015E+03  0.25500000920E-02 0. -1.
        2   -1    0    0  501    0  0.00000000000E+00  0.00000000000E+00 -0.26630759818E+04  0.26630759818E+04  0.25500000920E-02 0.  1.
    10030    2    1    2    0    0  0.00000000000E+00  0.00000000000E+00 -0.18948727117E+04  0.34312792520E+04  0.28606178898E+04 0.  0.
        4    1    3    3  502    0  0.44712397177E+03  0.75708301226E+03 -0.23006211488E+04  0.24629157145E+04  0.12699999809E+01 0.  1.
       -4    1    3    3    0  502 -0.44712397177E+03 -0.75708301226E+03  0.40574843711E+03  0.96836353747E+03  0.12699999809E+01 0. -1.
</event>
<event>
 5   0  0.1976233E-05  0.2905512E+04  0.7818609E-02  0.8271239E-01
       -2   -1    0    0    0  501  0.00000000000E+00  0.00000000000E+00  0.11484981349E+04  0.11484981349E+04  0.25500000920E-02 0. -1.
        2   -1    0    0  501    0  0.00000000000E+00  0.00000000000E+00 -0.18376172500E+04  0.18376172500E+04  0.25500000920E-02 0.  1.
    10030    2    1    2    0    0  0.00000000000E+00  0.00000000000E+00 -0.68911911514E+03  0.29861153850E+04  0.29055119923E+04 0.  0.
        2    1    3    3  502    0 -0.12759626756E+04 -0.60504644287E+03 -0.69510536584E+03  0.15739547062E+04  0.25500000920E-02 0. -1.
       -2    1    3    3    0  502  0.12759626756E+04  0.60504644287E+03  0.59862506979E+01  0.14121606788E+04  0.25500000920E-02 0.  1.
</event>
<event>
 5   0  0.1976233E-05  0.2709419E+04  0.7818609E-02  0.8331955E-01
        2   -1    0    0  501    0  0.00000000000E+00  0.00000000000E+00  0.16666543457E+04  0.16666543457E+04  0.25500000920E-02 0.  1.
       -2   -1    0    0    0  501  0.00000000000E+00  0.00000000000E+00 -0.11011511228E+04  0.11011511228E+04  0.25500000920E-02 0. -1.
    10030    2    1    2    0    0  0.00000000000E+00  0.00000000000E+00  0.56550322284E+03  0.27678054685E+04  0.27094193504E+04 0.  0.
        2    1    3    3  502    0 -0.54823618215E+03  0.24959429236E+03 -0.95681253709E+03  0.11306416114E+04  0.25500000920E-02 0. -1.
       -2    1    3    3    0  502  0.54823618215E+03 -0.24959429236E+03  0.15223157599E+04  0.16371638571E+04  0.25500000920E-02 0.  1.
</event>
<event>
 5   0  0.1918901E-05  0.2978124E+04  0.7818609E-02  0.8250005E-01
        2   -1    0    0  501    0  0.00000000000E+00  0.00000000000E+00  0.13899397341E+04  0.13899397341E+04  0.25500000920E-02 0.  1.
       -2   -1    0    0    0  501  0.00000000000E+00  0.00000000000E+00 -0.15952534508E+04  0.15952534509E+04  0.25500000920E-02 0. -1.
    10030    2    1    2    0    0  0.00000000000E+00  0.00000000000E+00 -0.20531371672E+03  0.29851931850E+04  0.29781243475E+04 0.  0.
        1    1    3    3  502    0 -0.64446616727E+03 -0.13207534717E+04  0.13787058110E+03  0.14760537494E+04  0.50400001928E-02 0. -1.
       -1    1    3    3    0  502  0.64446616727E+03  0.13207534717E+04 -0.34318429782E+03  0.15091394356E+04  0.50400001928E-02 0.  1.
</event>
<event>
 5   0  0.1960961E-05  0.2682243E+04  0.7818609E-02  0.8340790E-01
        2   -1    0    0  501    0  0.00000000000E+00  0.00000000000E+00  0.27355239960E+04  0.27355239960E+04  0.25500000920E-02 0.  1.
       -2   -1    0    0    0  501  0.00000000000E+00  0.00000000000E+00 -0.65749973454E+03  0.65749973455E+03  0.25500000920E-02 0. -1.
    10030    2    1    2    0    0  0.00000000000E+00  0.00000000000E+00  0.20780242614E+04  0.33930237305E+04  0.26822425701E+04 0.  0.
        5    1    3    3  502    0 -0.80327984487E+02  0.11234834646E+04  0.19598699496E+04  0.22604822471E+04  0.46999998093E+01 0.  1.
       -5    1    3    3    0  502  0.80327984487E+02 -0.11234834646E+04  0.11815431183E+03  0.11325414834E+04  0.46999998093E+01 0. -1.
</event>
<event>
 5   0  0.8055928E-06  0.1501250E+04  0.7818609E-02  0.8883622E-01
       -1   -1    0    0    0  501  0.00000000000E+00  0.00000000000E+00  0.82047646990E+03  0.82047646992E+03  0.50400001928E-02 0. -1.
        1   -1    0    0  501    0  0.00000000000E+00  0.00000000000E+00 -0.68672016741E+03  0.68672016743E+03  0.50400001928E-02 0.  1.
    10030    2    1    2    0    0  0.00000000000E+00  0.00000000000E+00  0.13375630249E+03  0.15071966373E+04  0.15012497977E+04 0.  0.
        2    1    3    3  502    0 -0.56857265563E+03 -0.20939233464E+03 -0.37795455392E+03  0.71412159985E+03  0.25500000920E-02 0.  1.
       -2    1    3    3    0  502  0.56857265563E+03  0.20939233464E+03  0.51171085641E+03  0.79307503750E+03  0.25500000920E-02 0. -1.
</event>
<event>
 5   0  0.8234888E-06  0.2940322E+04  0.7818609E-02  0.8260980E-01
        1   -1    0    0  501    0  0.00000000000E+00  0.00000000000E+00  0.17034216495E+04  0.17034216495E+04  0.50400001928E-02 0.  1.
       -1   -1    0    0    0  501  0.00000000000E+00  0.00000000000E+00 -0.12688425858E+04  0.12688425858E+04  0.50400001928E-02 0. -1.
    10030    2    1    2    0    0  0.00000000000E+00  0.00000000000E+00  0.43457906369E+03  0.29722642352E+04  0.29403223839E+04 0.  0.
        3    1    3    3  502    0  0.47647729781E+03 -0.13731680007E+04 -0.59098052712E+01  0.14534978189E+04  0.10100000352E+00 0. -1.
       -3    1    3    3    0  502 -0.47647729781E+03  0.13731680007E+04  0.44048886896E+03  0.15187664163E+04  0.10100000352E+00 0.  1.
</event>
<event>
 5   0  0.8122088E-06  0.2884182E+04  0.7818609E-02  0.8277599E-01
       -1   -1    0    0    0  501  0.00000000000E+00  0.00000000000E+00  0.21138187286E+04  0.21138187286E+04  0.50400001928E-02 0. -1.
        1   -1    0    0  501    0  0.00000000000E+00  0.00000000000E+00 -0.98382437421E+03  0.98382437422E+03  0.50400001928E-02 0.  1.
    10030    2    1    2    0    0  0.00000000000E+00  0.00000000000E+00  0.11299943544E+04  0.30976431028E+04  0.28841819553E+04 0.  0.
        1    1    3    3  502    0  0.33266578807E+03  0.85892066861E+03 -0.62672685706E+03  0.11140905685E+04  0.50400001928E-02 0.  1.
       -1    1    3    3    0  502 -0.33266578807E+03 -0.85892066861E+03  0.17567212114E+04  0.19835525343E+04  0.50400001928E-02 0. -1.
</event>
<event>
 5   0  0.8055928E-06  0.2504878E+04  0.7818609E-02  0.8401250E-01
       -1   -1    0    0    0  501  0.00000000000E+00  0.00000000000E+00  0.15969003180E+04  0.15969003180E+04  0.50400001928E-02 0.  1.
        1   -1    0    0  501    0  0.00000000000E+00  0.00000000000E+00 -0.98227980937E+03  0.98227980938E+03  0.50400001928E-02 0. -1.
    10030    2    1    2    0    0  0.00000000000E+00  0.00000000000E+00  0.61462050859E+03  0.25791801274E+04  0.25048775938E+04 0.  0.
        2    1    3    3  502    0  0.54445834653E+03  0.47296198698E+03 -0.74701402395E+03  0.10383438179E+04  0.25500000920E-02 0. -1.
       -2    1    3    3    0  502 -0.54445834653E+03 -0.47296198698E+03  0.13616345325E+04  0.15408363094E+04  0.25500000920E-02 0.  1.
</event>
<event>
 5   0  0.1937947E-05  0.2588025E+04  0.7818609E-02  0.8372280E-01
       -2   -1    0    0    0  501  0.00000000000E+00  0.00000000000E+00  0.78559874428E+03  0.78559874429E+03  0.25500000920E-02 0.  1.
        2   -1    0    0  501    0  0.00000000000E+00  0.00000000000E+00 -0.21314546491E+04  0.21314546491E+04  0.25500000920E-02 0. -1.
    10030    2    1    2    0    0  0.00000000000E+00  0.00000000000E+00 -0.13458559048E+04  0.29170533934E+04  0.25880248035E+04 0.  0.
        3    1    3    3  502    0 -0.45599450414E+03 -0.49426236413E+03 -0.19190325911E+04  0.20334483933E+04  0.10100000352E+00 0. -1.
       -3    1    3    3    0  502  0.45599450414E+03  0.49426236413E+03  0.57317668623E+03  0.88360500012E+03  0.10100000352E+00 0.  1.
</event>
<event>
 5   0  0.8055928E-06  0.1851906E+04  0.7818609E-02  0.8679173E-01
        1   -1    0    0  501    0  0.00000000000E+00  0.00000000000E+00  0.11578417412E+04  0.11578417412E+04  0.50400001928E-02 0. -1.
       -1   -1    0    0    0  501  0.00000000000E+00  0.00000000000E+00 -0.74050584608E+03  0.74050584609E+03  0.50400001928E-02 0.  1.
    10030    2    1    2    0    0  0.00000000000E+00  0.00000000000E+00  0.41733589513E+03  0.18983475873E+04  0.18519055896E+04 0.  0.
        2    1    3    3  502    0  0.49313238997E+03  0.47090052338E+03  0.85084612651E+03  0.10903513140E+04  0.25500000920E-02 0. -1.
       -2    1    3    3    0  502 -0.49313238997E+03 -0.47090052338E+03 -0.43351023138E+03  0.80799627330E+03  0.25500000920E-02 0.  1.
</event>
<event>
 5   0  0.1960961E-05  0.2922525E+04  0.7818609E-02  0.8266207E-01
       -2   -1    0    0    0  501  0.00000000000E+00  0.00000000000E+00  0.97713714608E+03  0.97713714609E+03  0.25500000920E-02 0. -1.
        2   -1    0    0  501    0  0.00000000000E+00  0.00000000000E+00 -0.21852484857E+04  0.21852484857E+04  0.25500000920E-02 0.  1.
    10030    2    1    2    0    0  0.00000000000E+00  0.00000000000E+00 -0.12081113397E+04  0.31623856318E+04  0.29225245722E+04 0.  0.
        5    1    3    3  502    0  0.69090127751E+03  0.12822568772E+04 -0.47722623340E+03  0.15327407616E+04  0.46999998093E+01 0. -1.
       -5    1    3    3    0  502 -0.69090127751E+03 -0.12822568772E+04 -0.73088510626E+03  0.16296448702E+04  0.46999998093E+01 0.  1.
</event>
<event>
 5   0  0.1829810E-05  0.2862196E+04  0.7818609E-02  0.8284215E-01
        2   -1    0    0  501    0  0.00000000000E+00  0.00000000000E+00  0.11534498668E+04  0.11534498668E+04  0.25500000920E-02 0. -1.
       -2   -1    0    0    0  501  0.00000000000E+00  0.00000000000E+00 -0.17755786355E+04  0.17755786355E+04  0.25500000920E-02 0.  1.
    10030    2    1    2    0    0  0.00000000000E+00  0.00000000000E+00 -0.62212876865E+03  0.29290285023E+04  0.28621956191E+04 0.  0.
        4    1    3    3  502    0  0.12494017181E+04 -0.61713764607E+03  0.22390479497E+02  0.13936880835E+04  0.12699999809E+01 0. -1.
       -4    1    3    3    0  502 -0.12494017181E+04  0.61713764607E+03 -0.64451924814E+03  0.15353404188E+04  0.12699999809E+01 0.  1.
</event>
<event>
 5   0  0.7971153E-06  0.2903196E+04  0.7818609E-02  0.8271927E-01
       -1   -1    0    0    0  501  0.00000000000E+00  0.00000000000E+00  0.16470059274E+04  0.16470059274E+04  0.50400001928E-02 0.  1.
        1   -1    0    0  501    0  0.00000000000E+00  0.00000000000E+00 -0.12793737349E+04  0.12793737349E+04  0.50400001928E-02 0. -1.
    10030    2    1    2    0    0  0.00000000000E+00  0.00000000000E+00  0.36763219251E+03  0.29263796624E+04  0.29031955668E+04 0.  0.
        5    1    3    3  502    0  0.12829071203E+04 -0.62752706443E+03  0.44564635530E+03  0.14960827717E+04  0.46999998093E+01 0.  1.
       -5    1    3    3    0  502 -0.12829071203E+04  0.62752706443E+03 -0.78014162799E+02  0.14302968906E+04  0.46999998093E+01 0. -1.
</event>
<event>
 5   0  0.8234888E-06  0.2983366E+04  0.7818609E-02  0.8248497E-01
       -1   -1    0    0    0  501  0.00000000000E+00  0.00000000000E+00  0.10077965266E+04  0.10077965267E+04  0.50400001928E-02 0.  1.
        1   -1    0    0  501    0  0.00000000000E+00  0.00000000000E+00 -0.22079036760E+04  0.22079036760E+04  0.50400001928E-02 0. -1.
    10030    2    1    2    0    0  0.00000000000E+00  0.00000000000E+00 -0.12001071494E+04  0.32157002027E+04  0.29833656537E+04 0.  0.
        3    1    3    3  502    0  0.96394212718E+03  0.11332079348E+04 -0.48310024359E+03  0.15642028333E+04  0.10100000352E+00 0. -1.
       -3    1    3    3    0  502 -0.96394212718E+03 -0.11332079348E+04 -0.71700690577E+03  0.16514973694E+04  0.10100000352E+00 0.  1.
</event>
<event>
 5   0  0.7305460E-06  0.2852758E+04  0.7818609E-02  0.8287074E-01
        1   -1    0    0  501    0  0.00000000000E+00  0.00000000000E+00  0.21776157340E+04  0.21776157340E+04  0.50400001928E-02 0. -1.
       -1   -1    0    0    0  501  0.00000000000E+00  0.00000000000E+00 -0.93430499275E+03  0.93430499276E+03  0.50400001928E-02 0.  1.
    10030    2    1    2    0    0  0.00000000000E+00  0.00000000000E+00  0.12433107413E+04  0.31119207268E+04  0.28527581409E+04 0.  0.
        4    1    3    3  502    0  0.11477250035E+04 -0.40176539644E+03 -0.19164172608E+03  0.12310224537E+04  0.12699999809E+01 0.  1.
       -4    1    3    3    0  502 -0.11477250035E+04  0.40176539644E+03  0.14349524673E+04  0.18808982731E+04  0.12699999809E+01 0. -1.
</event>
<event>
 5   0  0.7971153E-06  0.2900475E+04  0.7818609E-02  0.8272736E-01
        1   -1    0    0  501    0  0.00000000000E+00  0.00000000000E+00  0.16847035851E+04  0.16847035852E+04  0.50400001928E-02 0. -1.
       -1   -1    0    0    0  501  0.00000000000E+00  0.00000000000E+00 -0.12484027144E+04  0.12484027144E+04  0.50400001928E-02 0.  1.
    10030    2    1    2    0    0  0.00000000000E+00  0.00000000000E+00  0.43630087076E+03  0.29331062996E+04  0.29004748085E+04 0.  0.
        5    1    3    3  502    0 -0.32898570743E+03 -0.98671254827E+03 -0.80382963681E+03  0.13145331581E+04  0.46999998093E+01 0.  1.
       -5    1    3    3    0  502  0.32898570743E+03  0.98671254827E+03  0.12401305076E+04  0.16185731415E+04  0.46999998093E+01 0. -1.
</event>
<event>
 5   0  0.1976233E-05  0.1946925E+04  0.7818609E-02  0.8631845E-01
        2   -1    0    0  501    0  0.00000000000E+00  0.00000000000E+00  0.69315864359E+03  0.69315864359E+03  0.25500000920E-02 0. -1.
       -2   -1    0    0    0  501  0.00000000000E+00  0.00000000000E+00 -0.13671171343E+04  0.13671171343E+04  0.25500000920E-02 0.  1.
    10030    2    1    2    0    0  0.00000000000E+00  0.00000000000E+00 -0.67395849066E+03  0.20602757778E+04  0.19469248146E+04 0.  0.
        2    1    3    3  502    0 -0.63273916417E+03  0.70968877966E+03 -0.11598579639E+03  0.95784639625E+03  0.25500000920E-02 0. -1.
       -2    1    3    3    0  502  0.63273916417E+03 -0.70968877966E+03 -0.55797269427E+03  0.11024293816E+04  0.25500000920E-02 0.  1.
</event>
<event>
 5   0  0.8055928E-06  0.1494612E+04  0.7818609E-02  0.8888044E-01
       -1   -1    0    0    0  501  0.00000000000E+00  0.00000000000E+00  0.44301387436E+03  0.44301387439E+03  0.50400001928E-02 0. -1.
        1   -1    0    0  501    0  0.00000000000E+00  0.00000000000E+00 -0.12606062999E+04  0.12606062999E+04  0.50400001928E-02 0.  1.
    10030    2    1    2    0    0  0.00000000000E+00  0.00000000000E+00 -0.81759242554E+03  0.17036201743E+04  0.14946117636E+04 0.  0.
        2    1    3    3  502    0 -0.59012695785E+03 -0.44846072131E+03 -0.30006684974E+03  0.79962926364E+03  0.25500000920E-02 0. -1.
       -2    1    3    3    0  502  0.59012695785E+03  0.44846072131E+03 -0.51752557580E+03  0.90399091066E+03  0.25500000920E-02 0.  1.
</event>
<event>
 5   0  0.1937947E-05  0.2819164E+04  0.7818609E-02  0.8297343E-01
        2   -1    0    0  501    0  0.00000000000E+00  0.00000000000E+00  0.19353868999E+04  0.19353868999E+04  0.25500000920E-02 0. -1.
       -2   -1    0    0    0  501  0.00000000000E+00  0.00000000000E+00 -0.10266278467E+04  0.10266278467E+04  0.25500000920E-02 0.  1.
    10030    2    1    2    0    0  0.00000000000E+00  0.00000000000E+00  0.90875905326E+03  0.29620147466E+04  0.28191644759E+04 0.  0.
        3    1    3    3  502    0  0.12003675522E+04  0.17677969611E+03  0.12082232575E+04  0.17122899204E+04  0.10100000352E+00 0. -1.
       -3    1    3    3    0  502 -0.12003675522E+04 -0.17677969611E+03 -0.29946420427E+03  0.12497248262E+04  0.10100000352E+00 0.  1.
</event>
<event>
 5   0  0.8122088E-06  0.2866770E+04  0.7818609E-02  0.8282833E-01
       -1   -1    0    0    0  501  0.00000000000E+00  0.00000000000E+00  0.11339949543E+04  0.11339949543E+04  0.50400001928E-02 0.  1.
        1   -1    0    0  501    0  0.00000000000E+00  0.00000000000E+00 -0.18118184880E+04  0.18118184880E+04  0.50400001928E-02 0. -1.
    10030    2    1    2    0    0  0.00000000000E+00  0.00000000000E+00 -0.67782353376E+03  0.29458134423E+04  0.28667703246E+04 0.  0.
        1    1    3    3  502    0  0.10667328075E+04  0.64510666825E+03 -0.10658866085E+04  0.16401816236E+04  0.50400001928E-02 0.  1.
       -1    1    3    3    0  502 -0.10667328075E+04 -0.64510666825E+03  0.38806307475E+03  0.13056318187E+04  0.50400001928E-02 0. -1.
</event>
<event>
 5   0  0.1937947E-05  0.2138054E+04  0.7818609E-02  0.8544663E-01
       -2   -1    0    0    0  501  0.00000000000E+00  0.00000000000E+00  0.61552955792E+03  0.61552955792E+03  0.25500000920E-02 0.  1.
        2   -1    0    0  501    0  0.00000000000E+00  0.00000000000E+00 -0.18566427735E+04  0.18566427735E+04  0.25500000920E-02 0. -1.
    10030    2    1    2    0    0  0.00000000000E+00  0.00000000000E+00 -0.12411132156E+04  0.24721723315E+04  0.21380537932E+04 0.  0.
        3    1    3    3  502    0 -0.58614309184E+03  0.79628871588E+03 -0.10904913989E+04  0.14720091523E+04  0.10100000352E+00 0. -1.
       -3    1    3    3    0  502  0.58614309184E+03 -0.79628871588E+03 -0.15062181676E+03  0.10001631792E+04  0.10100000352E+00 0.  1.
</event>
<event>
 5   0  0.1960961E-05  0.2621328E+04  0.7818609E-02  0.8360992E-01
       -2   -1    0    0    0  501  0.00000000000E+00  0.00000000000E+00  0.17010532318E+04  0.17010532318E+04  0.25500000920E-02 0. -1.
        2   -1    0    0  501    0  0.00000000000E+00  0.00000000000E+00 -0.10098687932E+04  0.10098687932E+04  0.25500000920E-02 0.  1.
    10030    2    1    2    0    0  0.00000000000E+00  0.00000000000E+00  0.69118443859E+03  0.27109220250E+04  0.26213283460E+04 0.  0.
        5    1    3    3  502    0  0.10803592163E+04  0.38847301869E+02  0.11119551798E+04  0.15508551064E+04  0.46999998093E+01 0. -1.
       -5    1    3    3    0  502 -0.10803592163E+04 -0.38847301869E+02 -0.42077074121E+03  0.11600669186E+04  0.46999998093E+01 0.  1.
</event>
<event>
 5   0  0.1960961E-05  0.1583584E+04  0.7818609E-02  0.8830697E-01
       -2   -1    0    0    0  501  0.00000000000E+00  0.00000000000E+00  0.24681529569E+04  0.24681529569E+04  0.25500000920E-02 0.  1.
        2   -1    0    0  501    0  0.00000000000E+00  0.00000000000E+00 -0.25400966532E+03  0.25400966533E+03  0.25500000920E-02 0. -1.
    10030    2    1    2    0    0  0.00000000000E+00  0.00000000000E+00  0.22141432916E+04  0.27221626223E+04  0.15835841709E+04 0.  0.
        5    1    3    3  502    0  0.29228082102E+03 -0.71152256830E+03  0.14296748354E+04  0.16234791864E+04  0.46999998093E+01 0.  1.
       -5    1    3    3    0  502 -0.29228082102E+03  0.71152256830E+03  0.78446845618E+03  0.10986834359E+04  0.46999998093E+01 0. -1.
</event>
<event>
 5   0  0.1937947E-05  0.2865081E+04  0.7818609E-02  0.8283343E-01
       -2   -1    0    0    0  501  0.00000000000E+00  0.00000000000E+00  0.11019412123E+04  0.11019412123E+04  0.25500000920E-02 0.  1.
        2   -1    0    0  501    0  0.00000000000E+00  0.00000000000E+00 -0.18623247955E+04  0.18623247955E+04  0.25500000920E-02 0. -1.
    10030    2    1    2    0    0  0.00000000000E+00  0.00000000000E+00 -0.76038358318E+03  0.29642660078E+04  0.28650811108E+04 0.  0.
        3    1    3    3  502    0 -0.31283480462E+03  0.89757001251E+03 -0.14890571504E+04  0.17665754300E+04  0.10100000352E+00 0. -1.
       -3    1    3    3    0  502  0.31283480462E+03 -0.89757001251E+03  0.72867356727E+03  0.11976905778E+04  0.10100000352E+00 0.  1.
</event>
<event>
 5   0  0.8122088E-06  0.2789135E+04  0.7818609E-02  0.8306649E-01
        1   -1    0    0  501    0  0.00000000000E+00  0.00000000000E+00  0.19630408317E+04  0.19630408317E+04  0.50400001928E-02 0.  1.
       -1   -1    0    0    0  501  0.00000000000E+00  0.00000000000E+00 -0.99071754226E+03  0.99071754227E+03  0.50400001928E-02 0. -1.
    10030    2    1    2    0    0  0.00000000000E+00  0.00000000000E+00  0.97232328940E+03  0.29537583739E+04  0.27891353414E+04 0.  0.
        1    1    3    3  502    0 -0.12342257140E+04  0.33393519663E+03 -0.10347088099E+03  0.12827829325E+04  0.50400001928E-02 0. -1.
       -1    1    3    3    0  502  0.12342257140E+04 -0.33393519663E+03  0.10757941704E+04  0.16709754414E+04  0.50400001928E-02 0.  1.
</event>
<event>
 5   0  0.7305460E-06  0.2291797E+04  0.7818609E-02  0.8481163E-01
       -1   -1    0    0    0  501  0.00000000000E+00  0.00000000000E+00  0.11302434374E+04  0.11302434374E+04  0.50400001928E-02 0. -1.
        1   -1    0    0  501    0  0.00000000000E+00  0.00000000000E+00 -0.11617701629E+04  0.11617701629E+04  0.50400001928E-02 0.  1.
    10030    2    1    2    0    0  0.00000000000E+00  0.00000000000E+00 -0.31526725451E+02  0.22920136003E+04  0.22917967645E+04 0.  0.
        4    1    3    3  502    0  0.18881385773E+03  0.94212352643E+03  0.60866265252E+03  0.11374177990E+04  0.12699999809E+01 0. -1.
       -4    1    3    3    0  502 -0.18881385773E+03 -0.94212352643E+03 -0.64018937797E+03  0.11545958013E+04  0.12699999809E+01 0.  1.
</event>
<event>
 5   0  0.7971153E-06  0.2899475E+04  0.7818609E-02  0.8273034E-01
       -1   -1    0    0    0  501  0.00000000000E+00  0.00000000000E+00  0.11520396110E+04  0.11520396110E+04  0.50400001928E-02 0.  1.
        1   -1    0    0  501    0  0.00000000000E+00  0.00000000000E+00 -0.18243636051E+04  0.18243636051E+04  0.50400001928E-02 0. -1.
    10030    2    1    2    0    0  0.00000000000E+00  0.00000000000E+00 -0.67232399410E+03  0.29764032160E+04  0.28994752200E+04 0.  0.
        5    1    3    3  502    0  0.89187970777E+03  0.64699290039E+03  0.63099638944E+03  0.12697353109E+04  0.46999998093E+01 0.  1.
       -5    1    3    3    0  502 -0.89187970777E+03 -0.64699290039E+03 -0.13033203835E+04  0.17066679051E+04  0.46999998093E+01 0. -1.
</event>
<event>
 5   0  0.1976233E-05  0.2882914E+04  0.7818609E-02  0.8277979E-01
        2   -1    0    0  501    0  0.00000000000E+00  0.00000000000E+00  0.11698900583E+04  0.11698900583E+04  0.25500000920E-02 0.  1.
       -2   -1    0    0    0  501  0.00000000000E+00  0.00000000000E+00 -0.17760631389E+04  0.17760631389E+04  0.25500000920E-02 0. -1.
    10030    2    1    2    0    0  0.00000000000E+00  0.00000000000E+00 -0.60617308066E+03  0.29459531972E+04  0.28829142263E+04 0.  0.
        2    1    3    3  502    0 -0.57198107624E+03  0.14413921029E+03  0.10409145409E+04  0.11964286627E+04  0.25500000920E-02 0.  1.
       -2    1    3    3    0  502  0.57198107624E+03 -0.14413921029E+03 -0.16470876216E+04  0.17495245344E+04  0.25500000920E-02 0. -1.
</event>
<event>
 5   0  0.8234888E-06  0.2913329E+04  0.7818609E-02  0.8268923E-01
       -1   -1    0    0    0  501  0.00000000000E+00  0.00000000000E+00  0.10954006058E+04  0.10954006058E+04  0.50400001928E-02 0.  1.
        1   -1    0    0  501    0  0.00000000000E+00  0.00000000000E+00 -0.19370736590E+04  0.19370736590E+04  0.50400001928E-02 0. -1.
    10030    2    1    2    0    0  0.00000000000E+00  0.00000000000E+00 -0.84167305314E+03  0.30324742648E+04  0.29133291332E+04 0.  0.
        3    1    3    3  502    0  0.12511327069E+04  0.20786639682E+03 -0.11666083362E+04  0.17232285134E+04  0.10100000352E+00 0. -1.
       -3    1    3    3    0  502 -0.12511327069E+04 -0.20786639682E+03  0.32493528310E+03  0.13092457514E+04  0.10100000352E+00 0.  1.
</event>
<event>
 5   0  0.7305460E-06  0.2913970E+04  0.7818609E-02  0.8268733E-01
       -1   -1    0    0    0  501  0.00000000000E+00  0.00000000000E+00  0.13379071425E+04  0.13379071425E+04  0.50400001928E-02 0. -1.
        1   -1    0    0  501    0  0.00000000000E+00  0.00000000000E+00 -0.15866615795E+04  0.15866615795E+04  0.50400001928E-02 0.  1.
    10030    2    1    2    0    0  0.00000000000E+00  0.00000000000E+00 -0.24875443702E+03  0.29245687221E+04  0.29139703911E+04 0.  0.
        4    1    3    3  502    0 -0.79586357144E+02  0.96723124114E+03 -0.12150375229E+04  0.15550524290E+04  0.12699999809E+01 0.  1.
       -4    1    3    3    0  502  0.79586357144E+02 -0.96723124114E+03  0.96628308584E+03  0.13695162931E+04  0.12699999809E+01 0. -1.
</event>
<event>
 5   0  0.1829810E-05  0.2954135E+04  0.7818609E-02  0.8256950E-01
        2   -1    0    0  501    0  0.00000000000E+00  0.00000000000E+00  0.21832409105E+04  0.21832409105E+04  0.25500000920E-02 0.  1.
       -2   -1    0    0    0  501  0.00000000000E+00  0.00000000000E+00 -0.99930737182E+03  0.99930737182E+03  0.25500000920E-02 0. -1.
    10030    2    1    2    0    0  0.00000000000E+00  0.00000000000E+00  0.11839335387E+04  0.31825482823E+04  0.29541352280E+04 0.  0.
        4    1    3    3  502    0 -0.12125616786E+04 -0.84328284555E+03  0.57345248735E+03  0.15843866795E+04  0.12699999809E+01 0. -1.
       -4    1    3    3    0  502  0.12125616786E+04  0.84328284555E+03  0.61048105135E+03  0.15981616029E+04  0.12699999809E+01 0.  1.
</event>
<event>
 5   0  0.7305460E-06  0.2878258E+04  0.7818609E-02  0.8279376E-01
        1   -1    0    0  501    0  0.00000000000E+00  0.00000000000E+00  0.97038895360E+03  0.97038895361E+03  0.50400001928E-02 0.  1.
       -1   -1    0    0    0  501  0.00000000000E+00  0.00000000000E+00 -0.21342907460E+04  0.21342907460E+04  0.50400001928E-02 0. -1.
    10030    2    1    2    0    0  0.00000000000E+00  0.00000000000E+00 -0.11639017924E+04  0.31046796997E+04  0.28782579202E+04 0.  0.
        4    1    3    3  502    0  0.10447396533E+04 -0.84018237369E+03 -0.17628845567E+02  0.13407832611E+04  0.12699999809E+01 0.  1.
       -4    1    3    3    0  502 -0.10447396533E+04  0.84018237369E+03 -0.11462729469E+04  0.17638964385E+04  0.12699999809E+01 0. -1.
</event>
<event>
 5   0  0.7305460E-06  0.2899816E+04  0.7818609E-02  0.8272932E-01
       -1   -1    0    0    0  501  0.00000000000E+00  0.00000000000E+00  0.75371724787E+03  0.75371724789E+03  0.50400001928E-02 0.  1.
        1   -1    0    0  501    0  0.00000000000E+00  0.00000000000E+00 -0.27891537072E+04  0.27891537072E+04  0.50400001928E-02 0. -1.
    10030    2    1    2    0    0  0.00000000000E+00  0.00000000000E+00 -0.20354364593E+04  0.35428709551E+04  0.28998160329E+04 0.  0.
        4    1    3    3  502    0 -0.26612173394E+03 -0.76144547005E+03  0.45428957124E+03  0.92574327358E+03  0.12699999809E+01 0.  1.
       -4    1    3    3    0  502  0.26612173394E+03  0.76144547005E+03 -0.24897260306E+04  0.26171276815E+04  0.12699999809E+01 0. -1.
</event>
<event>
 5   0  0.8122088E-06  0.2963346E+04  0.7818609E-02  0.8254276E-01
        1   -1    0    0  501    0  0.00000000000E+00  0.00000000000E+00  0.17401816256E+04  0.17401816256E+04  0.50400001928E-02 0. -1.
       -1   -1    0    0    0  501  0.00000000000E+00  0.00000000000E+00 -0.12615668365E+04  0.12615668365E+04  0.50400001928E-02 0.  1.
    10030    2    1    2    0    0  0.00000000000E+00  0.00000000000E+00  0.47861478904E+03  0.30017484621E+04  0.29633463708E+04 0.  0.
        1    1    3    3  502    0  0.19930003390E+03  0.14594566285E+04  0.40144816911E+03  0.15267268212E+04  0.50400001928E-02 0. -1.
       -1    1    3    3    0  502 -0.19930003390E+03 -0.14594566285E+04  0.77166619929E+02  0.14750216409E+04  0.50400001928E-02 0.  1.
</event>
<event>
 5   0  0.1918901E-05  0.2893541E+04  0.7818609E-02  0.8274802E-01
       -2   -1    0    0    0  501  0.00000000000E+00  0.00000000000E+00  0.19414657348E+04  0.19414657348E+04  0.25500000920E-02 0.  1.
        2   -1    0    0  501    0  0.00000000000E+00  0.00000000000E+00 -0.10781263351E+04  0.10781263351E+04  0.25500000920E-02 0. -1.
    10030    2    1    2    0    0  0.00000000000E+00  0.00000000000E+00  0.86333939969E+03  0.30195920699E+04  0.28935413164E+04 0.  0.
        1    1    3    3  502    0  0.77753390381E+03 -0.13906897278E+03 -0.83325849886E+03  0.11481371332E+04  0.50400001928E-02 0. -1.
       -1    1    3    3    0  502 -0.77753390381E+03  0.13906897278E+03  0.16965978985E+04  0.18714549367E+04  0.50400001928E-02 0.  1.
</event>
<event>
 5   0  0.8234888E-06  0.2880419E+04  0.7818609E-02  0.8278727E-01
       -1   -1    0    0    0  501  0.00000000000E+00  0.00000000000E+00  0.12433499434E+04  0.12433499434E+04  0.50400001928E-02 0.  1.
        1   -1    0    0  501    0  0.00000000000E+00  0.00000000000E+00 -0.16682383369E+04  0.16682383370E+04  0.50400001928E-02 0. -1.
    10030    2    1    2    0    0  0.00000000000E+00  0.00000000000E+00 -0.42488839355E+03  0.29115882803E+04  0.28804194429E+04 0.  0.
        3    1    3    3  502    0 -0.10103322537E+04  0.72163891048E+03  0.52529586695E+03  0.13481356527E+04  0.10100000352E+00 0. -1.
       -3    1    3    3    0  502  0.10103322537E+04 -0.72163891048E+03 -0.95018426050E+03  0.15634526277E+04  0.10100000352E+00 0.  1.
</event>
<event>
 5   0  0.1976233E-05  0.2034635E+04  0.7818609E-02  0.8590597E-01
        2   -1    0    0  501    0  0.00000000000E+00  0.00000000000E+00  0.12658048914E+04  0.12658048914E+04  0.25500000920E-02 0.  1.
       -2   -1    0    0    0  501  0.00000000000E+00  0.00000000000E+00 -0.81761026548E+03  0.81761026549E+03  0.25500000920E-02 0. -1.
    10030    2    1    2    0    0  0.00000000000E+00  0.00000000000E+00  0.44819462595E+03  0.20834151569E+04  0.20346351745E+04 0.  0.
        2    1    3    3  502    0  0.91131971050E+03 -0.45029255017E+03  0.26591860343E+03  0.10507043824E+04  0.25500000920E-02 0.  1.
       -2    1    3    3    0  502 -0.91131971050E+03  0.45029255017E+03  0.18227602252E+03  0.10327107746E+04  0.25500000920E-02 0. -1.
</event>
<event>
 5   0  0.1937947E-05  0.2241708E+04  0.7818609E-02  0.8501266E-01
        2   -1    0    0  501    0  0.00000000000E+00  0.00000000000E+00  0.13952408276E+04  0.13952408276E+04  0.25500000920E-02 0.  1.
       -2   -1    0    0    0  501  0.00000000000E+00  0.00000000000E+00 -0.90042820510E+03  0.90042820510E+03  0.25500000920E-02 0. -1.
    10030    2    1    2    0    0  0.00000000000E+00  0.00000000000E+00  0.49481262248E+03  0.22956690327E+04  0.22417084503E+04 0.  0.
        3    1    3    3  502    0  0.24008993680E+03 -0.10906750665E+04  0.14972202217E+03  0.11267794694E+04  0.10100000352E+00 0. -1.
       -3    1    3    3    0  502 -0.24008993680E+03  0.10906750665E+04  0.34509060031E+03  0.11688895633E+04  0.10100000352E+00 0.  1.
</event>
<event>
 5   0  0.7971153E-06  0.2824465E+04  0.7818609E-02  0.8295713E-01
        1   -1    0    0  501    0  0.00000000000E+00  0.00000000000E+00  0.19136803029E+04  0.19136803029E+04  0.50400001928E-02 0.  1.
       -1   -1    0    0    0  501  0.00000000000E+00  0.00000000000E+00 -0.10421810458E+04  0.10421810458E+04  0.50400001928E-02 0. -1.
    10030    2    1    2    0    0  0.00000000000E+00  0.00000000000E+00  0.87149925706E+03  0.29558613487E+04  0.28244654995E+04 0.  0.
        5    1    3    3  502    0 -0.29848946700E+03  0.13593404158E+04  0.18485316840E+03  0.14039569480E+04  0.46999998093E+01 0. -1.
       -5    1    3    3    0  502  0.29848946700E+03 -0.13593404158E+04  0.68664608866E+03  0.15519044007E+04  0.46999998093E+01 0.  1.
</event>
<event>
 5   0  0.1829810E-05  0.2933318E+04  0.7818609E-02  0.8263033E-01
       -2   -1    0    0    0  501  0.00000000000E+00  0.00000000000E+00  0.16114670506E+04  0.16114670506E+04  0.25500000920E-02 0.  1.
        2   -1    0    0  501    0  0.00000000000E+00  0.00000000000E+00 -0.13348631362E+04  0.13348631362E+04  0.25500000920E-02 0. -1.
    10030    2    1    2    0    0  0.00000000000E+00  0.00000000000E+00  0.27660391434E+03  0.29463301868E+04  0.29333175492E+04 0.  0.
        4    1    3    3  502    0  0.83856388502E+02 -0.61638138774E+03 -0.11957951286E+04  0.13479189558E+04  0.12699999809E+01 0. -1.
       -4    1    3    3    0  502 -0.83856388502E+02  0.61638138774E+03  0.14723990429E+04  0.15984112310E+04  0.12699999809E+01 0.  1.
</event>
<event>
 5   0  0.1829810E-05  0.2842119E+04  0.7818609E-02  0.8290310E-01
        2   -1    0    0  501    0  0.00000000000E+00  0.00000000000E+00  0.12153930882E+04  0.12153930882E+04  0.25500000920E-02 0.  1.
       -2   -1    0    0    0  501  0.00000000000E+00  0.00000000000E+00 -0.16615280472E+04  0.16615280472E+04  0.25500000920E-02 0. -1.
    10030    2    1    2    0    0  0.00000000000E+00  0.00000000000E+00 -0.44613495892E+03  0.28769211354E+04  0.28421187199E+04 0.  0.
        4    1    3    3  502    0  0.29167417382E+03  0.54124903934E+02 -0.16298351875E+04  0.16566133165E+04  0.12699999809E+01 0. -1.
       -4    1    3    3    0  502 -0.29167417382E+03 -0.54124903934E+02  0.11837002286E+04  0.12203078189E+04  0.12699999809E+01 0.  1.
</event>
<event>
 5   0  0.1976233E-05  0.2981536E+04  0.7818609E-02  0.8249023E-01
       -2   -1    0    0    0  501  0.00000000000E+00  0.00000000000E+00  0.12583434357E+04  0.12583434357E+04  0.25500000920E-02 0.  1.
        2   -1    0    0  501    0  0.00000000000E+00  0.00000000000E+00 -0.17661232181E+04  0.17661232181E+04  0.25500000920E-02 0. -1.
    10030    2    1    2    0    0  0.00000000000E+00  0.00000000000E+00 -0.50777978241E+03  0.30244666538E+04  0.29815362202E+04 0.  0.
        2    1    3    3  502    0 -0.13879307286E+03  0.95890317615E+03 -0.14031776086E+04  0.17051880306E+04  0.25500000920E-02 0. -1.
       -2    1    3    3    0  502  0.13879307286E+03 -0.95890317615E+03  0.89539782622E+03  0.13192786232E+04  0.25500000920E-02 0.  1.
</event>
<event>
 5   0  0.7971153E-06  0.2910825E+04  0.7818609E-02  0.8269664E-01
        1   -1    0    0  501    0  0.00000000000E+00  0.00000000000E+00  0.17793224604E+04  0.17793224604E+04  0.50400001928E-02 0. -1.
       -1   -1    0    0    0  501  0.00000000000E+00  0.00000000000E+00 -0.11904678543E+04  0.11904678543E+04  0.50400001928E-02 0.  1.
    10030    2    1    2    0    0  0.00000000000E+00  0.00000000000E+00  0.58885460610E+03  0.29697903147E+04  0.29108254441E+04 0.  0.
        5    1    3    3  502    0 -0.12983632086E+04  0.25418752113E+03  0.91321620445E+03  0.16075895755E+04  0.46999998093E+01 0.  1.
       -5    1    3    3    0  502  0.12983632086E+04 -0.25418752113E+03 -0.32436159835E+03  0.13622007391E+04  0.46999998093E+01 0. -1.
</event>
<event>
 5   0  0.1937947E-05  0.3000829E+04  0.7818609E-02  0.8243494E-01
        2   -1    0    0  501    0  0.00000000000E+00  0.00000000000E+00  0.21201523925E+04  0.21201523925E+04  0.25500000920E-02 0. -1.
       -2   -1    0    0    0  501  0.00000000000E+00  0.00000000000E+00 -0.10618314116E+04  0.10618314116E+04  0.25500000920E-02 0.  1.
    10030    2    1    2    0    0  0.00000000000E+00  0.00000000000E+00  0.10583209809E+04  0.31819838042E+04  0.30008294906E+04 0.  0.
        3    1    3    3  502    0  0.32807546777E+03 -0.11533190079E+04  0.14855314689E+04  0.19090788360E+04  0.10100000352E+00 0. -1.
       -3    1    3    3    0  502 -0.32807546777E+03  0.11533190079E+04 -0.42721048808E+03  0.12729049682E+04  0.10100000352E+00 0.  1.
</event>
<event>
 5   0  0.6578125E-06  0.2316749E+04  0.7818609E-02  0.8471346E-01
        3   -1    0    0  501    0  0.00000000000E+00  0.00000000000E+00  0.54601682899E+03  0.54601683833E+03  0.10100000352E+00 0.  1.
       -3   -1    0    0    0  501  0.00000000000E+00  0.00000000000E+00 -0.24574903766E+04  0.24574903786E+04  0.10100000352E+00 0. -1.
    10030    2    1    2    0    0  0.00000000000E+00  0.00000000000E+00 -0.19114735476E+04  0.30035072170E+04  0.23167486871E+04 0.  0.
        5    1    3    3  502    0 -0.11335844245E+04 -0.14567537599E+03 -0.71121557602E+03  0.13461369352E+04  0.46999998093E+01 0.  1.
       -5    1    3    3    0  502  0.11335844245E+04  0.14567537599E+03 -0.12002579716E+04  0.16573702818E+04  0.46999998093E+01 0. -1.
</event>
<event>
 5   0  0.8234888E-06  0.2811246E+04  0.7818609E-02  0.8299785E-01
       -1   -1    0    0    0  501  0.00000000000E+00  0.00000000000E+00  0.12220729027E+04  0.12220729027E+04  0.50400001928E-02 0. -1.
        1   -1    0    0  501    0  0.00000000000E+00  0.00000000000E+00 -0.16167412702E+04  0.16167412702E+04  0.50400001928E-02 0.  1.
    10030    2    1    2    0    0  0.00000000000E+00  0.00000000000E+00 -0.39466836746E+03  0.28388141729E+04  0.28112457715E+04 0.  0.
        3    1    3    3  502    0 -0.92153387155E+02 -0.13458641277E+04 -0.59609036733E+03  0.14748444777E+04  0.10100000352E+00 0.  1.
       -3    1    3    3    0  502  0.92153387155E+02  0.13458641277E+04  0.20142199987E+03  0.13639696952E+04  0.10100000352E+00 0. -1.
</event>
<event>
 5   0  0.1829810E-05  0.2898922E+04  0.7818609E-02  0.8273198E-01
        2   -1    0    0  501    0  0.00000000000E+00  0.00000000000E+00  0.16674710988E+04  0.16674710988E+04  0.25500000920E-02 0. -1.
       -2   -1    0    0    0  501  0.00000000000E+00  0.00000000000E+00 -0.12599545548E+04  0.12599545548E+04  0.25500000920E-02 0.  1.
    10030    2    1    2    0    0  0.00000000000E+00  0.00000000000E+00  0.40751654394E+03  0.29274256536E+04  0.28989224246E+04 0.  0.
        4    1    3    3  502    0  0.13954048617E+04  0.25216886123E+03 -0.99514963818E+02  0.14214952351E+04  0.12699999809E+01 0. -1.
       -4    1    3    3    0  502 -0.13954048617E+04 -0.25216886123E+03  0.50703150776E+03  0.15059304185E+04  0.12699999809E+01 0.  1.
</event>
<event>
 5   0  0.7305460E-06  0.2699614E+04  0.7818609E-02  0.8335130E-01
       -1   -1    0    0    0  501  0.00000000000E+00  0.00000000000E+00  0.15655220970E+04  0.15655220970E+04  0.50400001928E-02 0. -1.
        1   -1    0    0  501    0  0.00000000000E+00  0.00000000000E+00 -0.11638158761E+04  0.11638158761E+04  0.50400001928E-02 0.  1.
    10030    2    1    2    0    0  0.00000000000E+00  0.00000000000E+00  0.40170622096E+03  0.27293379731E+04  0.26996143953E+04 0.  0.
        4    1    3    3  502    0  0.31173648860E+03 -0.77041860802E+02  0.15263422844E+04  0.15597555798E+04  0.12699999809E+01 0. -1.
       -4    1    3    3    0  502 -0.31173648860E+03  0.77041860802E+02 -0.11246360635E+04  0.11695823933E+04  0.12699999809E+01 0.  1.
</event>
<event>
 5   0  0.8234888E-06  0.2382388E+04  0.7818609E-02  0.8446127E-01
        1   -1    0    0  501    0  0.00000000000E+00  0.00000000000E+00  0.14032373366E+04  0.14032373366E+04  0.50400001928E-02 0. -1.
       -1   -1    0    0    0  501  0.00000000000E+00  0.00000000000E+00 -0.10111929454E+04  0.10111929454E+04  0.50400001928E-02 0.  1.
    10030    2    1    2    0    0  0.00000000000E+00  0.00000000000E+00  0.39204439118E+03  0.24144302821E+04  0.23823884617E+04 0.  0.
        3    1    3    3  502    0 -0.20275029348E+03 -0.64224459855E+03  0.11917629102E+04  0.13688990650E+04  0.10100000352E+00 0. -1.
       -3    1    3    3    0  502  0.20275029348E+03  0.64224459855E+03 -0.79971851904E+03  0.10455312170E+04  0.10100000352E+00 0.  1.
</event>
<event>
 5   0  0.1976233E-05  0.2728484E+04  0.7818609E-02  0.8325822E-01
       -2   -1    0    0    0  501  0.00000000000E+00  0.00000000000E+00  0.61890681574E+03  0.61890681574E+03  0.25500000920E-02 0. -1.
        2   -1    0    0  501    0  0.00000000000E+00  0.00000000000E+00 -0.30071676221E+04  0.30071676221E+04  0.25500000920E-02 0.  1.
    10030    2    1    2    0    0  0.00000000000E+00  0.00000000000E+00 -0.23882608063E+04  0.36260744378E+04  0.27284842220E+04 0.  0.
        2    1    3    3  502    0  0.61109147521E+02 -0.12200062764E+04 -0.38683494515E+03  0.12813238924E+04  0.25500000920E-02 0.  1.
       -2    1    3    3    0  502 -0.61109147521E+02  0.12200062764E+04 -0.20014258612E+04  0.23447505454E+04  0.25500000920E-02 0. -1.
</event>
<event>
 5   0  0.8234888E-06  0.3000149E+04  0.7818609E-02  0.8243688E-01
       -1   -1    0    0    0  501  0.00000000000E+00  0.00000000000E+00  0.10529166394E+04  0.10529166395E+04  0.50400001928E-02 0.  1.
        1   -1    0    0  501    0  0.00000000000E+00  0.00000000000E+00 -0.21371336111E+04  0.21371336111E+04  0.50400001928E-02 0. -1.
    10030    2    1    2    0    0  0.00000000000E+00  0.00000000000E+00 -0.10842169716E+04  0.31900502505E+04  0.30001490229E+04 0.  0.
        3    1    3    3  502    0  0.25668078307E+03 -0.13470728575E+04 -0.11886537492E+04  0.18147694216E+04  0.10100000352E+00 0. -1.
       -3    1    3    3    0  502 -0.25668078307E+03  0.13470728575E+04  0.10443677755E+03  0.13752808290E+04  0.10100000352E+00 0.  1.
</event>
<event>
 5   0  0.1829810E-05  0.2879634E+04  0.7818609E-02  0.8278963E-01
       -2   -1    0    0    0  501  0.00000000000E+00  0.00000000000E+00  0.14074767899E+04  0.14074767899E+04  0.25500000920E-02 0.  1.
        2   -1    0    0  501    0  0.00000000000E+00  0.00000000000E+00 -0.14729003037E+04  0.14729003037E+04  0.25500000920E-02 0. -1.
    10030    2    1    2    0    0  0.00000000000E+00  0.00000000000E+00 -0.65423513817E+02  0.28803770937E+04  0.28796339985E+04 0.  0.
        4    1    3    3  502    0  0.27590947438E+03 -0.13317719367E+04 -0.50541052440E+03  0.14509252016E+04  0.12699999809E+01 0. -1.
       -4    1    3    3    0  502 -0.27590947438E+03  0.13317719367E+04  0.43998701058E+03  0.14294518921E+04  0.12699999809E+01 0.  1.
</event>
<event>
 5   0  0.1918901E-05  0.2941165E+04  0.7818609E-02  0.8260734E-01
       -2   -1    0    0    0  501  0.00000000000E+00  0.00000000000E+00  0.13267160006E+04  0.13267160006E+04  0.25500000920E-02 0. -1.
        2   -1    0    0  501    0  0.00000000000E+00  0.00000000000E+00 -0.16300494428E+04  0.16300494428E+04  0.25500000920E-02 0.  1.
    10030    2    1    2    0    0  0.00000000000E+00  0.00000000000E+00 -0.30333344217E+03  0.29567654434E+04  0.29411648560E+04 0.  0.
        1    1    3    3  502    0  0.14324518482E+04 -0.13747588527E+03 -0.45625027778E+03  0.15096298329E+04  0.50400001928E-02 0.  1.
       -1    1    3    3    0  502 -0.14324518482E+04  0.13747588527E+03  0.15291683561E+03  0.14471356105E+04  0.50400001928E-02 0. -1.
</event>
<event>
 5   0  0.1918901E-05  0.2937155E+04  0.7818609E-02  0.8261908E-01
       -2   -1    0    0    0  501  0.00000000000E+00  0.00000000000E+00  0.13494130717E+04  0.13494130717E+04  0.25500000920E-02 0.  1.
        2   -1    0    0  501    0  0.00000000000E+00  0.00000000000E+00 -0.15982652771E+04  0.15982652771E+04  0.25500000920E-02 0. -1.
    10030    2    1    2    0    0  0.00000000000E+00  0.00000000000E+00 -0.24885220539E+03  0.29476783488E+04  0.29371551249E+04 0.  0.
        1    1    3    3  502    0 -0.80130820284E+03 -0.10889790538E+04  0.45099526279E+03  0.14252603069E+04  0.50400001928E-02 0.  1.
       -1    1    3    3    0  502  0.80130820284E+03  0.10889790538E+04 -0.69984746818E+03  0.15224180419E+04  0.50400001928E-02 0. -1.
</event>
<event>
 5   0  0.1937947E-05  0.2904079E+04  0.7818609E-02  0.8271665E-01
       -2   -1    0    0    0  501  0.00000000000E+00  0.00000000000E+00  0.18881146385E+04  0.18881146385E+04  0.25500000920E-02 0.  1.
        2   -1    0    0  501    0  0.00000000000E+00  0.00000000000E+00 -0.11166795866E+04  0.11166795866E+04  0.25500000920E-02 0. -1.
    10030    2    1    2    0    0  0.00000000000E+00  0.00000000000E+00  0.77143505191E+03  0.30047942251E+04  0.29040792510E+04 0.  0.
        3    1    3    3  502    0  0.63970344912E+03  0.47149600570E+03  0.16431375104E+04  0.18252205002E+04  0.10100000352E+00 0.  1.
       -3    1    3    3    0  502 -0.63970344912E+03 -0.47149600570E+03 -0.87170245847E+03  0.11795737249E+04  0.10100000352E+00 0. -1.
</event>
<event>
 5   0  0.1960961E-05  0.2895549E+04  0.7818609E-02  0.8274203E-01
       -2   -1    0    0    0  501  0.00000000000E+00  0.00000000000E+00  0.10833534335E+04  0.10833534335E+04  0.25500000920E-02 0.  1.
        2   -1    0    0  501    0  0.00000000000E+00  0.00000000000E+00 -0.19347802345E+04  0.19347802345E+04  0.25500000920E-02 0. -1.
    10030    2    1    2    0    0  0.00000000000E+00  0.00000000000E+00 -0.85142680107E+03  0.30181336680E+04  0.28955488669E+04 0.  0.
        5    1    3    3  502    0  0.10676231902E+04  0.96777023341E+03 -0.57175283568E+03  0.15502651051E+04  0.46999998093E+01 0.  1.
       -5    1    3    3    0  502 -0.10676231902E+04 -0.96777023341E+03 -0.27967396539E+03  0.14678685629E+04  0.46999998093E+01 0. -1.
</event>
<event>
 5   0  0.8234888E-06  0.1698450E+04  0.7818609E-02  0.8762249E-01
        1   -1    0    0  501    0  0.00000000000E+00  0.00000000000E+00  0.17779936402E+04  0.17779936402E+04  0.50400001928E-02 0. -1.
       -1   -1    0    0    0  501  0.00000000000E+00  0.00000000000E+00 -0.40561631530E+03  0.40561631533E+03  0.50400001928E-02 0.  1.
    10030    2    1    2    0    0  0.00000000000E+00  0.00000000000E+00  0.13723773249E+04  0.21836099555E+04  0.16984501512E+04 0.  0.
        3    1    3    3  502    0 -0.24938539422E+03  0.69334143665E+03  0.14336507806E+03  0.75064570766E+03  0.10100000352E+00 0.  1.
       -3    1    3    3    0  502  0.24938539422E+03 -0.69334143665E+03  0.12290122468E+04  0.14329642479E+04  0.10100000352E+00 0. -1.
</event>
<event>
 5   0  0.7305460E-06  0.1603626E+04  0.7818609E-02  0.8818324E-01
        1   -1    0    0  501    0  0.00000000000E+00  0.00000000000E+00  0.10717427292E+04  0.10717427292E+04  0.50400001928E-02 0.  1.
       -1   -1    0    0    0  501  0.00000000000E+00  0.00000000000E+00 -0.59986763314E+03  0.59986763316E+03  0.50400001928E-02 0. -1.
    10030    2    1    2    0    0  0.00000000000E+00  0.00000000000E+00  0.47187509604E+03  0.16716103624E+04  0.16036256101E+04 0.  0.
        4    1    3    3  502    0 -0.47547538397E+03  0.15801376615E+03  0.88846060109E+03  0.10200044332E+04  0.12699999809E+01 0.  1.
       -4    1    3    3    0  502  0.47547538397E+03 -0.15801376615E+03 -0.41658550505E+03  0.65160592921E+03  0.12699999809E+01 0. -1.
</event>
<event>
 5   0  0.1829810E-05  0.2878521E+04  0.7818609E-02  0.8279297E-01
       -2   -1    0    0    0  501  0.00000000000E+00  0.00000000000E+00  0.13544615036E+04  0.13544615036E+04  0.25500000920E-02 0.  1.
        2   -1    0    0  501    0  0.00000000000E+00  0.00000000000E+00 -0.15293688780E+04  0.15293688780E+04  0.25500000920E-02 0. -1.
    10030    2    1    2    0    0  0.00000000000E+00  0.00000000000E+00 -0.17490737432E+03  0.28838303816E+04  0.28785213357E+04 0.  0.
        4    1    3    3  502    0 -0.17252809377E+02  0.45235762037E+03  0.12812815363E+04  0.13588999464E+04  0.12699999809E+01 0.  1.
       -4    1    3    3    0  502  0.17252809377E+02 -0.45235762037E+03 -0.14561889106E+04  0.15249304352E+04  0.12699999809E+01 0. -1.
</event>
<event>
 5   0  0.8234888E-06  0.1928260E+04  0.7818609E-02  0.8640916E-01
        1   -1    0    0  501    0  0.00000000000E+00  0.00000000000E+00  0.12565956620E+04  0.12565956620E+04  0.50400001928E-02 0. -1.
       -1   -1    0    0    0  501  0.00000000000E+00  0.00000000000E+00 -0.73973379293E+03  0.73973379295E+03  0.50400001928E-02 0.  1.
    10030    2    1    2    0    0  0.00000000000E+00  0.00000000000E+00  0.51686186905E+03  0.19963294549E+04  0.19282596041E+04 0.  0.
        3    1    3    3  502    0 -0.59270282793E+03  0.39510699291E+03  0.93109001478E+03  0.11723202651E+04  0.10100000352E+00 0. -1.
       -3    1    3    3    0  502  0.59270282793E+03 -0.39510699291E+03 -0.41422814572E+03  0.82400918987E+03  0.10100000352E+00 0.  1.
</event>
<event>
 5   0  0.8055928E-06  0.2856023E+04  0.7818609E-02  0.8286083E-01
       -1   -1    0    0    0  501  0.00000000000E+00  0.00000000000E+00  0.12536970645E+04  0.12536970645E+04  0.50400001928E-02 0.  1.
        1   -1    0    0  501    0  0.00000000000E+00  0.00000000000E+00 -0.16265628189E+04  0.16265628189E+04  0.50400001928E-02 0. -1.
    10030    2    1    2    0    0  0.00000000000E+00  0.00000000000E+00 -0.37286575444E+03  0.28802598834E+04  0.28560231310E+04 0.  0.
        2    1    3    3  502    0  0.18257967671E+03 -0.11612998527E+04  0.63116544538E+03  0.13342872651E+04  0.25500000920E-02 0.  1.
       -2    1    3    3    0  502 -0.18257967671E+03  0.11612998527E+04 -0.10040311998E+04  0.15459726183E+04  0.25500000920E-02 0. -1.
</event>
<event>
 5   0  0.7971153E-06  0.2824092E+04  0.7818609E-02  0.8295828E-01
       -1   -1    0    0    0  501  0.00000000000E+00  0.00000000000E+00  0.88955774813E+03  0.88955774814E+03  0.50400001928E-02 0. -1.
        1   -1    0    0  501    0  0.00000000000E+00  0.00000000000E+00 -0.22414210972E+04  0.22414210972E+04  0.50400001928E-02 0.  1.
    10030    2    1    2    0    0  0.00000000000E+00  0.00000000000E+00 -0.13518633491E+04  0.31309788454E+04  0.28240917151E+04 0.  0.
        5    1    3    3  502    0 -0.10678168430E+04 -0.20688968345E+03 -0.16742344859E+04  0.19965268230E+04  0.46999998093E+01 0.  1.
       -5    1    3    3    0  502  0.10678168430E+04  0.20688968345E+03  0.32237113680E+03  0.11344520224E+04  0.46999998093E+01 0. -1.
</event>
<event>
 5   0  0.8234888E-06  0.2141879E+04  0.7818609E-02  0.8543017E-01
        1   -1    0    0  501    0  0.00000000000E+00  0.00000000000E+00  0.14718501227E+04  0.14718501227E+04  0.50400001928E-02 0.  1.
       -1   -1    0    0    0  501  0.00000000000E+00  0.00000000000E+00 -0.77923084080E+03  0.77923084082E+03  0.50400001928E-02 0. -1.
    10030    2    1    2    0    0  0.00000000000E+00  0.00000000000E+00  0.69261928188E+03  0.22510809635E+04  0.21418786228E+04 0.  0.
        3    1    3    3  502    0  0.99367565014E+03 -0.48155668766E+02 -0.70390398412E+02  0.99732897507E+03  0.10100000352E+00 0. -1.
       -3    1    3    3    0  502 -0.99367565014E+03  0.48155668766E+02  0.76300968029E+03  0.12537519884E+04  0.10100000352E+00 0.  1.
</event>
<event>
 5   0  0.7971153E-06  0.2843901E+04  0.7818609E-02  0.8289767E-01
       -1   -1    0    0    0  501  0.00000000000E+00  0.00000000000E+00  0.25882073866E+04  0.25882073866E+04  0.50400001928E-02 0.  1.
        1   -1    0    0  501    0  0.00000000000E+00  0.00000000000E+00 -0.78121390059E+03  0.78121390061E+03  0.50400001928E-02 0. -1.
    10030    2    1    2    0    0  0.00000000000E+00  0.00000000000E+00  0.18069934860E+04  0.33694212872E+04  0.28439012557E+04 0.  0.
        5    1    3    3  502    0 -0.10912463723E+04 -0.85879955835E+03  0.12659067925E+04  0.18790682329E+04  0.46999998093E+01 0.  1.
       -5    1    3    3    0  502  0.10912463723E+04  0.85879955835E+03  0.54108669345E+03  0.14903530543E+04  0.46999998093E+01 0. -1.
</event>
<event>
 5   0  0.8055928E-06  0.2904205E+04  0.7818609E-02  0.8271627E-01
       -1   -1    0    0    0  501  0.00000000000E+00  0.00000000000E+00  0.12513079779E+04  0.12513079779E+04  0.50400001928E-02 0. -1.
        1   -1    0    0  501    0  0.00000000000E+00  0.00000000000E+00 -0.16851183664E+04  0.16851183664E+04  0.50400001928E-02 0.  1.
    10030    2    1    2    0    0  0.00000000000E+00  0.00000000000E+00 -0.43381038848E+03  0.29364263443E+04  0.29042052652E+04 0.  0.
        2    1    3    3  502    0 -0.26516956165E+03  0.13812919159E+04 -0.58190867803E+03  0.15221366439E+04  0.25500000920E-02 0.  1.
       -2    1    3    3    0  502  0.26516956165E+03 -0.13812919159E+04  0.14809828956E+03  0.14142897004E+04  0.25500000920E-02 0. -1.
</event>
<event>
 5   0  0.8055928E-06  0.2918514E+04  0.7818609E-02  0.8267390E-01
        1   -1    0    0  501    0  0.00000000000E+00  0.00000000000E+00  0.20614611623E+04  0.20614611623E+04  0.50400001928E-02 0. -1.
       -1   -1    0    0    0  501  0.00000000000E+00  0.00000000000E+00 -0.10329716563E+04  0.10329716564E+04  0.50400001928E-02 0.  1.
    10030    2    1    2    0    0  0.00000000000E+00  0.00000000000E+00  0.10284895060E+04  0.30944328187E+04  0.29185139721E+04 0.  0.
        2    1    3    3  502    0  0.51662890274E+03  0.73093814980E+03 -0.70772372533E+03  0.11410735618E+04  0.25500000920E-02 0.  1.
       -2    1    3    3    0  502 -0.51662890274E+03 -0.73093814980E+03  0.17362132313E+04  0.19533592569E+04  0.25500000920E-02 0. -1.
</event>
<event>
 5   0  0.1960961E-05  0.2789795E+04  0.7818609E-02  0.8306444E-01
        2   -1    0    0  501    0  0.00000000000E+00  0.00000000000E+00  0.17476900823E+04  0.17476900823E+04  0.25500000920E-02 0. -1.
       -2   -1    0    0    0  501  0.00000000000E+00  0.00000000000E+00 -0.11133202146E+04  0.11133202146E+04  0.25500000920E-02 0.  1.
    10030    2    1    2    0    0  0.00000000000E+00  0.00000000000E+00  0.63436986774E+03  0.28610102969E+04  0.27897947576E+04 0.  0.
        5    1    3    3  502    0  0.91315444747E+03  0.19642180671E+03  0.13796251510E+04  0.16660792954E+04  0.46999998093E+01 0. -1.
       -5    1    3    3    0  502 -0.91315444747E+03 -0.19642180671E+03 -0.74525528330E+03  0.11949310015E+04  0.46999998093E+01 0.  1.
</event>
<event>
 5   0  0.8234888E-06  0.2925987E+04  0.7818609E-02  0.8265187E-01
       -1   -1    0    0    0  501  0.00000000000E+00  0.00000000000E+00  0.11824386702E+04  0.11824386702E+04  0.50400001928E-02 0.  1.
        1   -1    0    0  501    0  0.00000000000E+00  0.00000000000E+00 -0.18101145077E+04  0.18101145077E+04  0.50400001928E-02 0. -1.
    10030    2    1    2    0    0  0.00000000000E+00  0.00000000000E+00 -0.62767583748E+03  0.29925531779E+04  0.29259865969E+04 0.  0.
        3    1    3    3  502    0  0.49780733352E+03 -0.11570685453E+04  0.44722124988E+03  0.13366475289E+04  0.10100000352E+00 0.  1.
       -3    1    3    3    0  502 -0.49780733352E+03  0.11570685453E+04 -0.10748970874E+04  0.16559056490E+04  0.10100000352E+00 0. -1.
</event>
<event>
 5   0  0.1960961E-05  0.2904811E+04  0.7818609E-02  0.8271447E-01
        2   -1    0    0  501    0  0.00000000000E+00  0.00000000000E+00  0.13689195746E+04  0.13689195746E+04  0.25500000920E-02 0. -1.
       -2   -1    0    0    0  501  0.00000000000E+00  0.00000000000E+00 -0.15409831814E+04  0.15409831814E+04  0.25500000920E-02 0.  1.
    10030    2    1    2    0    0  0.00000000000E+00  0.00000000000E+00 -0.17206360680E+03  0.29099027560E+04  0.29048112098E+04 0.  0.
        5    1    3    3  502    0  0.13274924674E+04  0.54638041906E+03 -0.30708153144E+03  0.14680221287E+04  0.46999998093E+01 0.  1.
       -5    1    3    3    0  502 -0.13274924674E+04 -0.54638041906E+03  0.13501792464E+03  0.14418806273E+04  0.46999998093E+01 0. -1.
</event>
<event>
 5   0  0.8234888E-06  0.2899659E+04  0.7818609E-02  0.8272979E-01
       -1   -1    0    0    0  501  0.00000000000E+00  0.00000000000E+00  0.16361791482E+04  0.16361791482E+04  0.50400001928E-02 0.  1.
        1   -1    0    0  501    0  0.00000000000E+00  0.00000000000E+00 -0.12847036444E+04  0.12847036444E+04  0.50400001928E-02 0. -1.
    10030    2    1    2    0    0  0.00000000000E+00  0.00000000000E+00  0.35147550377E+03  0.29208827926E+04  0.28996588176E+04 0.  0.
        3    1    3    3  502    0 -0.46698759902E+03  0.10121825463E+04 -0.75809378732E+03  0.13480716321E+04  0.10100000352E+00 0. -1.
       -3    1    3    3    0  502  0.46698759902E+03 -0.10121825463E+04  0.11095692911E+04  0.15728111605E+04  0.10100000352E+00 0.  1.
</event>
<event>
 5   0  0.1829810E-05  0.3399570E+04  0.7818609E-02  0.8138012E-01
        2   -1    0    0  501    0  0.00000000000E+00  0.00000000000E+00  0.18064968356E+04  0.18064968356E+04  0.25500000920E-02 0.  1.
       -2   -1    0    0    0  501  0.00000000000E+00  0.00000000000E+00 -0.15993764840E+04  0.15993764840E+04  0.25500000920E-02 0. -1.
    10030    2    1    2    0    0  0.00000000000E+00  0.00000000000E+00  0.20712035156E+03  0.34058733196E+04  0.33995697123E+04 0.  0.
        4    1    3    3  502    0 -0.64477524422E+03 -0.59052902191E+03 -0.13568145708E+04  0.16141273288E+04  0.12699999809E+01 0. -1.
       -4    1    3    3    0  502  0.64477524422E+03  0.59052902191E+03  0.15639349223E+04  0.17917459908E+04  0.12699999809E+01 0.  1.
</event>
<event>
 5   0  0.7305460E-06  0.2197796E+04  0.7818609E-02  0.8519346E-01
        1   -1    0    0  501    0  0.00000000000E+00  0.00000000000E+00  0.14944423980E+04  0.14944423980E+04  0.50400001928E-02 0. -1.
       -1   -1    0    0    0  501  0.00000000000E+00  0.00000000000E+00 -0.80804528731E+03  0.80804528732E+03  0.50400001928E-02 0.  1.
    10030    2    1    2    0    0  0.00000000000E+00  0.00000000000E+00  0.68639711068E+03  0.23024876853E+04  0.21977962934E+04 0.  0.
        4    1    3    3  502    0  0.31861226231E+03  0.91020969748E+03 -0.20875687403E+03  0.98669980867E+03  0.12699999809E+01 0.  1.
       -4    1    3    3    0  502 -0.31861226231E+03 -0.91020969748E+03  0.89515398470E+03  0.13157878766E+04  0.12699999809E+01 0. -1.
</event>
<event>
 5   0  0.1829810E-05  0.3141012E+04  0.7818609E-02  0.8204572E-01
        2   -1    0    0  501    0  0.00000000000E+00  0.00000000000E+00  0.16562407169E+04  0.16562407169E+04  0.25500000920E-02 0.  1.
       -2   -1    0    0    0  501  0.00000000000E+00  0.00000000000E+00 -0.14892097360E+04  0.14892097360E+04  0.25500000920E-02 0. -1.
    10030    2    1    2    0    0  0.00000000000E+00  0.00000000000E+00  0.16703098088E+03  0.31454504528E+04  0.31410124487E+04 0.  0.
        4    1    3    3  502    0 -0.23285312936E+03 -0.13248994085E+03  0.16331883237E+04  0.16550165794E+04  0.12699999809E+01 0.  1.
       -4    1    3    3    0  502  0.23285312936E+03  0.13248994085E+03 -0.14661573429E+04  0.14904338735E+04  0.12699999809E+01 0. -1.
</event>
<event>
 5   0  0.1976233E-05  0.2917526E+04  0.7818609E-02  0.8267682E-01
        2   -1    0    0  501    0  0.00000000000E+00  0.00000000000E+00  0.23934663158E+04  0.23934663158E+04  0.25500000920E-02 0. -1.
       -2   -1    0    0    0  501  0.00000000000E+00  0.00000000000E+00 -0.88908284458E+03  0.88908284458E+03  0.25500000920E-02 0.  1.
    10030    2    1    2    0    0  0.00000000000E+00  0.00000000000E+00  0.15043834712E+04  0.32825491603E+04  0.29175262401E+04 0.  0.
        2    1    3    3  502    0  0.13974715182E+03 -0.37311125329E+03 -0.82667958904E+03  0.91768208913E+03  0.25500000920E-02 0.  1.
       -2    1    3    3    0  502 -0.13974715182E+03  0.37311125329E+03  0.23310630602E+04  0.23648670712E+04  0.25500000920E-02 0. -1.
</event>
<event>
 5   0  0.8122088E-06  0.2869156E+04  0.7818609E-02  0.8282114E-01
        1   -1    0    0  501    0  0.00000000000E+00  0.00000000000E+00  0.16876657264E+04  0.16876657264E+04  0.50400001928E-02 0. -1.
       -1   -1    0    0    0  501  0.00000000000E+00  0.00000000000E+00 -0.12194445306E+04  0.12194445306E+04  0.50400001928E-02 0.  1.
    10030    2    1    2    0    0  0.00000000000E+00  0.00000000000E+00  0.46822119576E+03  0.29071102570E+04  0.28691564889E+04 0.  0.
        1    1    3    3  502    0  0.26347059091E+03 -0.11545085406E+03  0.16581447367E+04  0.16829110553E+04  0.50400001928E-02 0. -1.
       -1    1    3    3    0  502 -0.26347059091E+03  0.11545085406E+03 -0.11899235410E+04  0.12241992017E+04  0.50400001928E-02 0.  1.
</event>
<event>
 5   0  0.8122088E-06  0.2461021E+04  0.7818609E-02  0.8417005E-01
       -1   -1    0    0    0  501  0.00000000000E+00  0.00000000000E+00  0.10504246204E+04  0.10504246204E+04  0.50400001928E-02 0. -1.
        1   -1    0    0  501    0  0.00000000000E+00  0.00000000000E+00 -0.14414709960E+04  0.14414709961E+04  0.50400001928E-02 0.  1.
    10030    2    1    2    0    0  0.00000000000E+00  0.00000000000E+00 -0.39104637567E+03  0.24918956164E+04  0.24610214333E+04 0.  0.
        1    1    3    3  502    0 -0.81682115143E+03  0.75023949722E+02 -0.11242713279E+04  0.13916937182E+04  0.50400001928E-02 0.  1.
       -1    1    3    3    0  502  0.81682115143E+03 -0.75023949722E+02  0.73322495220E+03  0.11002018983E+04  0.50400001928E-02 0. -1.
</event>
<event>
 5   0  0.1960961E-05  0.1444790E+04  0.7818609E-02  0.8922020E-01
       -2   -1    0    0    0  501  0.00000000000E+00  0.00000000000E+00  0.64839287147E+03  0.64839287147E+03  0.25500000920E-02 0.  1.
        2   -1    0    0  501    0  0.00000000000E+00  0.00000000000E+00 -0.80484319527E+03  0.80484319527E+03  0.25500000920E-02 0. -1.
    10030    2    1    2    0    0  0.00000000000E+00  0.00000000000E+00 -0.15645032380E+03  0.14532360667E+04  0.14447900754E+04 0.  0.
        5    1    3    3  502    0 -0.38979672156E+03  0.32937730366E+02 -0.68906939617E+03  0.79237939206E+03  0.46999998093E+01 0. -1.
       -5    1    3    3    0  502  0.38979672156E+03 -0.32937730366E+02  0.53261907237E+03  0.66085667469E+03  0.46999998093E+01 0.  1.
</event>
<event>
 5   0  0.1937947E-05  0.2868189E+04  0.7818609E-02  0.8282406E-01
       -2   -1    0    0    0  501  0.00000000000E+00  0.00000000000E+00  0.10693694455E+04  0.10693694455E+04  0.25500000920E-02 0. -1.
        2   -1    0    0  501    0  0.00000000000E+00  0.00000000000E+00 -0.19232145120E+04  0.19232145120E+04  0.25500000920E-02 0.  1.
    10030    2    1    2    0    0  0.00000000000E+00  0.00000000000E+00 -0.85384506643E+03  0.29925839575E+04  0.28681888615E+04 0.  0.
        3    1    3    3  502    0 -0.11753076978E+04 -0.39941926947E+02  0.42945740392E+03  0.12519493656E+04  0.10100000352E+00 0. -1.
       -3    1    3    3    0  502  0.11753076978E+04  0.39941926947E+02 -0.12833024704E+04  0.17406345919E+04  0.10100000352E+00 0.  1.
</event>
<event>
 5   0  0.1937947E-05  0.2758448E+04  0.7818609E-02  0.8316286E-01
       -2   -1    0    0    0  501  0.00000000000E+00  0.00000000000E+00  0.72881684977E+03  0.72881684978E+03  0.25500000920E-02 0.  1.
        2   -1    0    0  501    0  0.00000000000E+00  0.00000000000E+00 -0.26100639106E+04  0.26100639106E+04  0.25500000920E-02 0. -1.
    10030    2    1    2    0    0  0.00000000000E+00  0.00000000000E+00 -0.18812470608E+04  0.33388807604E+04  0.27584477933E+04 0.  0.
        3    1    3    3  502    0 -0.11369204556E+03  0.13610463089E+04 -0.70815475412E+03  0.15384590024E+04  0.10100000352E+00 0. -1.
       -3    1    3    3    0  502  0.11369204556E+03 -0.13610463089E+04 -0.11730923067E+04  0.18004217579E+04  0.10100000352E+00 0.  1.
</event>
<event>
 5   0  0.8055928E-06  0.2837313E+04  0.7818609E-02  0.8291777E-01
       -1   -1    0    0    0  501  0.00000000000E+00  0.00000000000E+00  0.12617761390E+04  0.12617761390E+04  0.50400001928E-02 0.  1.
        1   -1    0    0  501    0  0.00000000000E+00  0.00000000000E+00 -0.15950425462E+04  0.15950425462E+04  0.50400001928E-02 0. -1.
    10030    2    1    2    0    0  0.00000000000E+00  0.00000000000E+00 -0.33326640720E+03  0.28568186852E+04  0.28373132541E+04 0.  0.
        2    1    3    3  502    0 -0.10507290435E+04  0.95308870029E+03 -0.15323639871E+03  0.14268465185E+04  0.25500000920E-02 0. -1.
       -2    1    3    3    0  502  0.10507290435E+04 -0.95308870029E+03 -0.18003000849E+03  0.14299721667E+04  0.25500000920E-02 0.  1.
</event>
<event>
 5   0  0.1829810E-05  0.2883611E+04  0.7818609E-02  0.8277770E-01
       -2   -1    0    0    0  501  0.00000000000E+00  0.00000000000E+00  0.92230220387E+03  0.92230220387E+03  0.25500000920E-02 0. -1.
        2   -1    0    0  501    0  0.00000000000E+00  0.00000000000E+00 -0.22539284403E+04  0.22539284403E+04  0.25500000920E-02 0.  1.
    10030    2    1    2    0    0  0.00000000000E+00  0.00000000000E+00 -0.13316262364E+04  0.31762306442E+04  0.28836110472E+04 0.  0.
        4    1    3    3  502    0  0.76392417985E+03  0.16548638412E+03  0.66867302280E+03  0.10286355624E+04  0.12699999809E+01 0. -1.
       -4    1    3    3    0  502 -0.76392417985E+03 -0.16548638412E+03 -0.20002992592E+04  0.21475950818E+04  0.12699999809E+01 0.  1.
</event>
<event>
 5   0  0.8122088E-06  0.2852232E+04  0.7818609E-02  0.8287233E-01
        1   -1    0    0  501    0  0.00000000000E+00  0.00000000000E+00  0.21796419963E+04  0.21796419963E+04  0.50400001928E-02 0.  1.
       -1   -1    0    0    0  501  0.00000000000E+00  0.00000000000E+00 -0.93309207232E+03  0.93309207234E+03  0.50400001928E-02 0. -1.
    10030    2    1    2    0    0  0.00000000000E+00  0.00000000000E+00  0.12465499240E+04  0.31127340686E+04  0.28522318751E+04 0.  0.
        1    1    3    3  502    0 -0.98626248823E+03 -0.10296720614E+04  0.65543536579E+03  0.15692462421E+04  0.50400001928E-02 0.  1.
       -1    1    3    3    0  502  0.98626248823E+03  0.10296720614E+04  0.59111455820E+03  0.15434878265E+04  0.50400001928E-02 0. -1.
</event>
<event>
 5   0  0.1937947E-05  0.2609495E+04  0.7818609E-02  0.8364983E-01
       -2   -1    0    0    0  501  0.00000000000E+00  0.00000000000E+00  0.96168761954E+03  0.96168761955E+03  0.25500000920E-02 0.  1.
        2   -1    0    0  501    0  0.00000000000E+00  0.00000000000E+00 -0.17701865106E+04  0.17701865106E+04  0.25500000920E-02 0. -1.
    10030    2    1    2    0    0  0.00000000000E+00  0.00000000000E+00 -0.80849889110E+03  0.27318741302E+04  0.26094953164E+04 0.  0.
        3    1    3    3  502    0  0.81124095501E+03 -0.10099049233E+04 -0.56760102076E+03  0.14142810082E+04  0.10100000352E+00 0. -1.
       -3    1    3    3    0  502 -0.81124095501E+03  0.10099049233E+04 -0.24089787034E+03  0.13175931220E+04  0.10100000352E+00 0.  1.
</event>
<event>
 5   0  0.8122088E-06  0.2697420E+04  0.7818609E-02  0.8335843E-01
        1   -1    0    0  501    0  0.00000000000E+00  0.00000000000E+00  0.14247417956E+04  0.14247417956E+04  0.50400001928E-02 0.  1.
       -1   -1    0    0    0  501  0.00000000000E+00  0.00000000000E+00 -0.12767357964E+04  0.12767357964E+04  0.50400001928E-02 0. -1.
    10030    2    1    2    0    0  0.00000000000E+00  0.00000000000E+00  0.14800599916E+03  0.27014775920E+04  0.26974201386E+04 0.  0.
        1    1    3    3  502    0  0.20191559654E+03 -0.76203468325E+03  0.11699763133E+04  0.14107839453E+04  0.50400001928E-02 0.  1.
       -1    1    3    3    0  502 -0.20191559654E+03  0.76203468325E+03 -0.10219703141E+04  0.12906936467E+04  0.50400001928E-02 0. -1.
</event>
<event>
 5   0  0.1960961E-05  0.2624133E+04  0.7818609E-02  0.8360050E-01
        2   -1    0    0  501    0  0.00000000000E+00  0.00000000000E+00  0.13443276738E+04  0.13443276738E+04  0.25500000920E-02 0. -1.
       -2   -1    0    0    0  501  0.00000000000E+00  0.00000000000E+00 -0.12805799375E+04  0.12805799375E+04  0.25500000920E-02 0.  1.
    10030    2    1    2    0    0  0.00000000000E+00  0.00000000000E+00  0.63747736353E+02  0.26249076113E+04  0.26241334177E+04 0.  0.
        5    1    3    3  502    0 -0.12567727947E+04 -0.12122598860E+02 -0.34489644452E+03  0.13033036723E+04  0.46999998093E+01 0.  1.
       -5    1    3    3    0  502  0.12567727947E+04  0.12122598860E+02  0.40864418087E+03  0.13216039389E+04  0.46999998093E+01 0. -1.
</event>
<event>
 5   0  0.7305460E-06  0.2901045E+04  0.7818609E-02  0.8272567E-01
       -1   -1    0    0    0  501  0.00000000000E+00  0.00000000000E+00  0.10441864153E+04  0.10441864153E+04  0.50400001928E-02 0.  1.
        1   -1    0    0  501    0  0.00000000000E+00  0.00000000000E+00 -0.20149812613E+04  0.20149812613E+04  0.50400001928E-02 0. -1.
    10030    2    1    2    0    0  0.00000000000E+00  0.00000000000E+00 -0.97079484604E+03  0.30591676766E+04  0.29010453703E+04 0.  0.
        4    1    3    3  502    0  0.31496400012E+03 -0.12424673981E+04  0.23064729951E+03  0.13023545395E+04  0.12699999809E+01 0.  1.
       -4    1    3    3    0  502 -0.31496400012E+03  0.12424673981E+04 -0.12014421455E+04  0.17568131371E+04  0.12699999809E+01 0. -1.
</event>
<event>
 5   0  0.1976233E-05  0.2930128E+04  0.7818609E-02  0.8263970E-01
        2   -1    0    0  501    0  0.00000000000E+00  0.00000000000E+00  0.15772529056E+04  0.15772529056E+04  0.25500000920E-02 0.  1.
       -2   -1    0    0    0  501  0.00000000000E+00  0.00000000000E+00 -0.13608547631E+04  0.13608547631E+04  0.25500000920E-02 0. -1.
    10030    2    1    2    0    0  0.00000000000E+00  0.00000000000E+00  0.21639814251E+03  0.29381076687E+04  0.29301277305E+04 0.  0.
        2    1    3    3  502    0 -0.15017049093E+03 -0.47312053197E+03 -0.12739662813E+04  0.13672542924E+04  0.25500000920E-02 0. -1.
       -2    1    3    3    0  502  0.15017049093E+03  0.47312053197E+03  0.14903644238E+04  0.15708533763E+04  0.25500000920E-02 0.  1.
</event>
<event>
 5   0  0.1937947E-05  0.2846489E+04  0.7818609E-02  0.8288979E-01
        2   -1    0    0  501    0  0.00000000000E+00  0.00000000000E+00  0.21800739333E+04  0.21800739333E+04  0.25500000920E-02 0. -1.
       -2   -1    0    0    0  501  0.00000000000E+00  0.00000000000E+00 -0.92915452137E+03  0.92915452137E+03  0.25500000920E-02 0.  1.
    10030    2    1    2    0    0  0.00000000000E+00  0.00000000000E+00  0.12509194119E+04  0.31092284547E+04  0.28464894534E+04 0.  0.
        3    1    3    3  502    0  0.56113429662E+03 -0.71635984509E+03 -0.56989214883E+03  0.10736946484E+04  0.10100000352E+00 0.  1.
       -3    1    3    3    0  502 -0.56113429662E+03  0.71635984509E+03  0.18208115608E+04  0.20355338063E+04  0.10100000352E+00 0. -1.
</event>
<event>
 5   0  0.7971153E-06  0.2809351E+04  0.7818609E-02  0.8300371E-01
        1   -1    0    0  501    0  0.00000000000E+00  0.00000000000E+00  0.15613966481E+04  0.15613966481E+04  0.50400001928E-02 0.  1.
       -1   -1    0    0    0  501  0.00000000000E+00  0.00000000000E+00 -0.12636852057E+04  0.12636852057E+04  0.50400001928E-02 0. -1.
    10030    2    1    2    0    0  0.00000000000E+00  0.00000000000E+00  0.29771144244E+03  0.28250818538E+04  0.28093514159E+04 0.  0.
        5    1    3    3  502    0 -0.14778365929E+03 -0.11514544851E+04  0.94410888223E+03  0.14963459202E+04  0.46999998093E+01 0.  1.
       -5    1    3    3    0  502  0.14778365929E+03  0.11514544851E+04 -0.64639743979E+03  0.13287359337E+04  0.46999998093E+01 0. -1.
</event>
<event>
 5   0  0.1960961E-05  0.2964080E+04  0.7818609E-02  0.8254063E-01
       -2   -1    0    0    0  501  0.00000000000E+00  0.00000000000E+00  0.10981649683E+04  0.10981649683E+04  0.25500000920E-02 0. -1.
        2   -1    0    0  501    0  0.00000000000E+00  0.00000000000E+00 -0.20001020488E+04  0.20001020488E+04  0.25500000920E-02 0.  1.
    10030    2    1    2    0    0  0.00000000000E+00  0.00000000000E+00 -0.90193708047E+03  0.30982670171E+04  0.29640796231E+04 0.  0.
        5    1    3    3  502    0 -0.13631481957E+04  0.49497538394E+03 -0.77015520036E+03  0.16420519958E+04  0.46999998093E+01 0.  1.
       -5    1    3    3    0  502  0.13631481957E+04 -0.49497538394E+03 -0.13178188011E+03  0.14562150213E+04  0.46999998093E+01 0. -1.
</event>
<event>
 5   0  0.1829810E-05  0.2855181E+04  0.7818609E-02  0.8286339E-01
        2   -1    0    0  501    0  0.00000000000E+00  0.00000000000E+00  0.18914082647E+04  0.18914082647E+04  0.25500000920E-02 0.  1.
       -2   -1    0    0    0  501  0.00000000000E+00  0.00000000000E+00 -0.10775118225E+04  0.10775118225E+04  0.25500000920E-02 0. -1.
    10030    2    1    2    0    0  0.00000000000E+00  0.00000000000E+00  0.81389644216E+03  0.29689200872E+04  0.28551810915E+04 0.  0.
        4    1    3    3  502    0  0.85622078259E+03  0.88803788492E+03 -0.34020693415E+03  0.12796357624E+04  0.12699999809E+01 0. -1.
       -4    1    3    3    0  502 -0.85622078259E+03 -0.88803788492E+03  0.11541033763E+04  0.16892843247E+04  0.12699999809E+01 0.  1.
</event>
<event>
 5   0  0.1976233E-05  0.2469258E+04  0.7818609E-02  0.8414020E-01
       -2   -1    0    0    0  501  0.00000000000E+00  0.00000000000E+00  0.20592664262E+04  0.20592664262E+04  0.25500000920E-02 0.  1.
        2   -1    0    0  501    0  0.00000000000E+00  0.00000000000E+00 -0.74021947503E+03  0.74021947504E+03  0.25500000920E-02 0. -1.
    10030    2    1    2    0    0  0.00000000000E+00  0.00000000000E+00  0.13190469512E+04  0.27994859013E+04  0.24692582797E+04 0.  0.
        2    1    3    3  502    0  0.74897357224E+03 -0.97683658012E+03  0.76790051102E+03  0.14508074686E+04  0.25500000920E-02 0.  1.
       -2    1    3    3    0  502 -0.74897357224E+03  0.97683658012E+03  0.55114644020E+03  0.13486784327E+04  0.25500000920E-02 0. -1.
</event>
<event>
 5   0  0.8055928E-06  0.2220250E+04  0.7818609E-02  0.8510047E-01
       -1   -1    0    0    0  501  0.00000000000E+00  0.00000000000E+00  0.78127762447E+03  0.78127762448E+03  0.50400001928E-02 0. -1.
        1   -1    0    0  501    0  0.00000000000E+00  0.00000000000E+00 -0.15773875579E+04  0.15773875579E+04  0.50400001928E-02 0.  1.
    10030    2    1    2    0    0  0.00000000000E+00  0.00000000000E+00 -0.79610993346E+03  0.23586651824E+04  0.22202500797E+04 0.  0.
        2    1    3    3  502    0  0.14402514378E+03  0.40668088110E+03 -0.14846834991E+04  0.15460975628E+04  0.25500000920E-02 0.  1.
       -2    1    3    3    0  502 -0.14402514378E+03 -0.40668088110E+03  0.68857356568E+03  0.81256761961E+03  0.25500000920E-02 0. -1.
</event>
<event>
 5   0  0.1829810E-05  0.2900614E+04  0.7818609E-02  0.8272695E-01
        2   -1    0    0  501    0  0.00000000000E+00  0.00000000000E+00  0.12893190213E+04  0.12893190213E+04  0.25500000920E-02 0.  1.
       -2   -1    0    0    0  501  0.00000000000E+00  0.00000000000E+00 -0.16313968563E+04  0.16313968563E+04  0.25500000920E-02 0. -1.
    10030    2    1    2    0    0  0.00000000000E+00  0.00000000000E+00 -0.34207783501E+03  0.29207158776E+04  0.29006144164E+04 0.  0.
        4    1    3    3  502    0  0.14107118282E+04 -0.19215829923E+03 -0.44928106516E+03  0.14929460013E+04  0.12699999809E+01 0. -1.
       -4    1    3    3    0  502 -0.14107118282E+04  0.19215829923E+03  0.10720323015E+03  0.14277698763E+04  0.12699999809E+01 0.  1.
</event>
<event>
 5   0  0.1960961E-05  0.2175185E+04  0.7818609E-02  0.8528828E-01
       -2   -1    0    0    0  501  0.00000000000E+00  0.00000000000E+00  0.78804803856E+03  0.78804803856E+03  0.25500000920E-02 0. -1.
        2   -1    0    0  501    0  0.00000000000E+00  0.00000000000E+00 -0.15009967009E+04  0.15009967010E+04  0.25500000920E-02 0.  1.
    10030    2    1    2    0    0  0.00000000000E+00  0.00000000000E+00 -0.71294866239E+03  0.22890447395E+04  0.21751850552E+04 0.  0.
        5    1    3    3  502    0  0.70029820775E+03  0.40630231917E+03  0.40771661566E+03  0.90650652674E+03  0.46999998093E+01 0. -1.
       -5    1    3    3    0  502 -0.70029820775E+03 -0.40630231917E+03 -0.11206652781E+04  0.13825382128E+04  0.46999998093E+01 0.  1.
</event>
<event>
 5   0  0.1829810E-05  0.2814358E+04  0.7818609E-02  0.8298824E-01
        2   -1    0    0  501    0  0.00000000000E+00  0.00000000000E+00  0.16953512091E+04  0.16953512091E+04  0.25500000920E-02 0.  1.
       -2   -1    0    0    0  501  0.00000000000E+00  0.00000000000E+00 -0.11679900755E+04  0.11679900755E+04  0.25500000920E-02 0. -1.
    10030    2    1    2    0    0  0.00000000000E+00  0.00000000000E+00  0.52736113353E+03  0.28633412846E+04  0.28143584610E+04 0.  0.
        4    1    3    3  502    0  0.42704713624E+03 -0.71801475263E+03  0.14157480305E+04  0.16438547808E+04  0.12699999809E+01 0.  1.
       -4    1    3    3    0  502 -0.42704713624E+03  0.71801475263E+03 -0.88838689693E+03  0.12194865039E+04  0.12699999809E+01 0. -1.
</event>
<event>
 5   0  0.1976233E-05  0.2834488E+04  0.7818609E-02  0.8292640E-01
        2   -1    0    0  501    0  0.00000000000E+00  0.00000000000E+00  0.12232641692E+04  0.12232641692E+04  0.25500000920E-02 0. -1.
       -2   -1    0    0    0  501  0.00000000000E+00  0.00000000000E+00 -0.16419844148E+04  0.16419844148E+04  0.25500000920E-02 0.  1.
    10030    2    1    2    0    0  0.00000000000E+00  0.00000000000E+00 -0.41872024555E+03  0.28652485840E+04  0.28344881027E+04 0.  0.
        2    1    3    3  502    0 -0.11873194601E+04  0.37719830307E+03 -0.89239607093E+03  0.15324414533E+04  0.25500000920E-02 0.  1.
       -2    1    3    3    0  502  0.11873194601E+04 -0.37719830307E+03  0.47367582538E+03  0.13328071308E+04  0.25500000920E-02 0. -1.
</event>
<event>
 5   0  0.1960961E-05  0.2898218E+04  0.7818609E-02  0.8273408E-01
        2   -1    0    0  501    0  0.00000000000E+00  0.00000000000E+00  0.19036355601E+04  0.19036355601E+04  0.25500000920E-02 0. -1.
       -2   -1    0    0    0  501  0.00000000000E+00  0.00000000000E+00 -0.11031087358E+04  0.11031087358E+04  0.25500000920E-02 0.  1.
    10030    2    1    2    0    0  0.00000000000E+00  0.00000000000E+00  0.80052682425E+03  0.30067442959E+04  0.28982180844E+04 0.  0.
        5    1    3    3  502    0 -0.13568445121E+04 -0.16108630486E+00 -0.12757927478E+03  0.13628373408E+04  0.46999998093E+01 0.  1.
       -5    1    3    3    0  502  0.13568445121E+04  0.16108630486E+00  0.92810609903E+03  0.16439069551E+04  0.46999998093E+01 0. -1.
</event>
<event>
 5   0  0.8122088E-06  0.2906605E+04  0.7818609E-02  0.8270915E-01
        1   -1    0    0  501    0  0.00000000000E+00  0.00000000000E+00  0.18534836048E+04  0.18534836048E+04  0.50400001928E-02 0. -1.
       -1   -1    0    0    0  501  0.00000000000E+00  0.00000000000E+00 -0.11395232288E+04  0.11395232288E+04  0.50400001928E-02 0.  1.
    10030    2    1    2    0    0  0.00000000000E+00  0.00000000000E+00  0.71396037602E+03  0.29930068337E+04  0.29066046322E+04 0.  0.
        1    1    3    3  502    0 -0.36607624245E+03  0.13505790296E+04  0.76108977744E+03  0.15929008694E+04  0.50400001928E-02 0. -1.
       -1    1    3    3    0  502  0.36607624245E+03 -0.13505790296E+04 -0.47129401424E+02  0.14001059642E+04  0.50400001928E-02 0.  1.
</event>
<event>
 5   0  0.1937947E-05  0.1494507E+04  0.7818609E-02  0.8888114E-01
        2   -1    0    0  501    0  0.00000000000E+00  0.00000000000E+00  0.10986580951E+04  0.10986580951E+04  0.25500000920E-02 0. -1.
       -2   -1    0    0    0  501  0.00000000000E+00  0.00000000000E+00 -0.50824494501E+03  0.50824494502E+03  0.25500000920E-02 0.  1.
    10030    2    1    2    0    0  0.00000000000E+00  0.00000000000E+00  0.59041315011E+03  0.16069030401E+04  0.14945065047E+04 0.  0.
        3    1    3    3  502    0  0.26555441442E+03 -0.35566703760E+03  0.94155611577E+03  0.10409352132E+04  0.10100000352E+00 0. -1.
       -3    1    3    3    0  502 -0.26555441442E+03  0.35566703760E+03 -0.35114296566E+03  0.56596782699E+03  0.10100000352E+00 0.  1.
</event>
<event>
 5   0  0.8122088E-06  0.2363248E+04  0.7818609E-02  0.8453393E-01
       -1   -1    0    0    0  501  0.00000000000E+00  0.00000000000E+00  0.10365303260E+04  0.10365303260E+04  0.50400001928E-02 0. -1.
        1   -1    0    0  501    0  0.00000000000E+00  0.00000000000E+00 -0.13470277600E+04  0.13470277600E+04  0.50400001928E-02 0.  1.
    10030    2    1    2    0    0  0.00000000000E+00  0.00000000000E+00 -0.31049743396E+03  0.23835580860E+04  0.23632478695E+04 0.  0.
        1    1    3    3  502    0  0.70148328637E+03  0.26137467050E+03  0.76685110328E+03  0.10716604565E+04  0.50400001928E-02 0. -1.
       -1    1    3    3    0  502 -0.70148328637E+03 -0.26137467050E+03 -0.10773485372E+04  0.13118976294E+04  0.50400001928E-02 0.  1.
</event>
<event>
 5   0  0.1976233E-05  0.2888593E+04  0.7818609E-02  0.8276280E-01
        2   -1    0    0  501    0  0.00000000000E+00  0.00000000000E+00  0.17225605125E+04  0.17225605125E+04  0.25500000920E-02 0. -1.
       -2   -1    0    0    0  501  0.00000000000E+00  0.00000000000E+00 -0.12109832806E+04  0.12109832806E+04  0.25500000920E-02 0.  1.
    10030    2    1    2    0    0  0.00000000000E+00  0.00000000000E+00  0.51157723190E+03  0.29335437932E+04  0.28885927235E+04 0.  0.
        2    1    3    3  502    0 -0.33919787581E+03 -0.57135900388E+03  0.15581194101E+04  0.16938838232E+04  0.25500000920E-02 0. -1.
       -2    1    3    3    0  502  0.33919787581E+03  0.57135900388E+03 -0.10465421782E+04  0.12396599700E+04  0.25500000920E-02 0.  1.
</event>
<event>
 5   0  0.1960961E-05  0.3032903E+04  0.7818609E-02  0.8234397E-01
       -2   -1    0    0    0  501  0.00000000000E+00  0.00000000000E+00  0.11722469273E+04  0.11722469274E+04  0.25500000920E-02 0. -1.
        2   -1    0    0  501    0  0.00000000000E+00  0.00000000000E+00 -0.19617235900E+04  0.19617235900E+04  0.25500000920E-02 0.  1.
    10030    2    1    2    0    0  0.00000000000E+00  0.00000000000E+00 -0.78947666266E+03  0.31339705174E+04  0.30329025376E+04 0.  0.
        5    1    3    3  502    0  0.26311495782E+03 -0.92418768393E+03 -0.16069685858E+04  0.18723574664E+04  0.46999998093E+01 0.  1.
       -5    1    3    3    0  502 -0.26311495782E+03  0.92418768393E+03  0.81749192310E+03  0.12616130510E+04  0.46999998093E+01 0. -1.
</event>
<event>
 5   0  0.8122088E-06  0.2883292E+04  0.7818609E-02  0.8277866E-01
       -1   -1    0    0    0  501  0.00000000000E+00  0.00000000000E+00  0.16065993610E+04  0.16065993610E+04  0.50400001928E-02 0.  1.
        1   -1    0    0  501    0  0.00000000000E+00  0.00000000000E+00 -0.12936287676E+04  0.12936287676E+04  0.50400001928E-02 0. -1.
    10030    2    1    2    0    0  0.00000000000E+00  0.00000000000E+00  0.31297059345E+03  0.29002281286E+04  0.28832919737E+04 0.  0.
        1    1    3    3  502    0  0.10699160104E+04 -0.74826493592E+03 -0.45843402758E+03  0.13837566409E+04  0.50400001928E-02 0. -1.
       -1    1    3    3    0  502 -0.10699160104E+04  0.74826493592E+03  0.77140462103E+03  0.15164714877E+04  0.50400001928E-02 0.  1.
</event>
<event>
 5   0  0.7305460E-06  0.2631147E+04  0.7818609E-02  0.8357698E-01
       -1   -1    0    0    0  501  0.00000000000E+00  0.00000000000E+00  0.14759536269E+04  0.14759536269E+04  0.50400001928E-02 0. -1.
        1   -1    0    0  501    0  0.00000000000E+00  0.00000000000E+00 -0.11726208867E+04  0.11726208867E+04  0.50400001928E-02 0.  1.
    10030    2    1    2    0    0  0.00000000000E+00  0.00000000000E+00  0.30333274015E+03  0.26485745136E+04  0.26311473169E+04 0.  0.
        4    1    3    3  502    0 -0.76951650711E+03 -0.54990301299E+03 -0.76882096442E+03  0.12188667961E+04  0.12699999809E+01 0.  1.
       -4    1    3    3    0  502  0.76951650711E+03  0.54990301299E+03  0.10721537046E+04  0.14297077175E+04  0.12699999809E+01 0. -1.
</event>
<event>
 5   0  0.7971153E-06  0.2855082E+04  0.7818609E-02  0.8286369E-01
        1   -1    0    0  501    0  0.00000000000E+00  0.00000000000E+00  0.17724666474E+04  0.17724666474E+04  0.50400001928E-02 0. -1.
       -1   -1    0    0    0  501  0.00000000000E+00  0.00000000000E+00 -0.11497383410E+04  0.11497383410E+04  0.50400001928E-02 0.  1.
    10030    2    1    2    0    0  0.00000000000E+00  0.00000000000E+00  0.62272830642E+03  0.29222049885E+04  0.28550816890E+04 0.  0.
        5    1    3    3  502    0 -0.38395982077E+03  0.21139809385E+03  0.17018833421E+04  0.17574251899E+04  0.46999998093E+01 0. -1.
       -5    1    3    3    0  502  0.38395982077E+03 -0.21139809385E+03 -0.10791550357E+04  0.11647797985E+04  0.46999998093E+01 0.  1.
</event>
<event>
 5   0  0.6578125E-06  0.2808625E+04  0.7818609E-02  0.8300596E-01
        3   -1    0    0  501    0  0.00000000000E+00  0.00000000000E+00  0.22977549857E+04  0.22977549879E+04  0.10100000352E+00 0. -1.
       -3   -1    0    0    0  501  0.00000000000E+00  0.00000000000E+00 -0.85826945373E+03  0.85826945967E+03  0.10100000352E+00 0.  1.
    10030    2    1    2    0    0  0.00000000000E+00  0.00000000000E+00  0.14394855319E+04  0.31560244476E+04  0.28086245240E+04 0.  0.
        5    1    3    3  502    0 -0.61264528035E+03 -0.79228778339E+03 -0.38640284071E+03  0.10734912280E+04  0.46999998093E+01 0.  1.
       -5    1    3    3    0  502  0.61264528035E+03  0.79228778339E+03  0.18258883727E+04  0.20825332196E+04  0.46999998093E+01 0. -1.
</event>
<event>
 5   0  0.8234888E-06  0.2950112E+04  0.7818609E-02  0.8258122E-01
        1   -1    0    0  501    0  0.00000000000E+00  0.00000000000E+00  0.12867080705E+04  0.12867080705E+04  0.50400001928E-02 0.  1.
       -1   -1    0    0    0  501  0.00000000000E+00  0.00000000000E+00 -0.16909745082E+04  0.16909745082E+04  0.50400001928E-02 0. -1.
    10030    2    1    2    0    0  0.00000000000E+00  0.00000000000E+00 -0.40426643771E+03  0.29776825787E+04  0.29501122330E+04 0.  0.
        3    1    3    3  502    0  0.68651847317E+03  0.12028559210E+04 -0.71444001620E+03  0.15583948561E+04  0.10100000352E+00 0. -1.
       -3    1    3    3    0  502 -0.68651847317E+03 -0.12028559210E+04  0.31017357848E+03  0.14192877226E+04  0.10100000352E+00 0.  1.
</event>
<event>
 5   0  0.1960961E-05  0.2882547E+04  0.7818609E-02  0.8278089E-01
        2   -1    0    0  501    0  0.00000000000E+00  0.00000000000E+00  0.99760183758E+03  0.99760183758E+03  0.25500000920E-02 0.  1.
       -2   -1    0    0    0  501  0.00000000000E+00  0.00000000000E+00 -0.20822636278E+04  0.20822636278E+04  0.25500000920E-02 0. -1.
    10030    2    1    2    0    0  0.00000000000E+00  0.00000000000E+00 -0.10846617903E+04  0.30798654654E+04  0.28825474993E+04 0.  0.
        5    1    3    3  502    0  0.11500527013E+04 -0.12604570872E+03  0.37600348724E+03  0.12165152892E+04  0.46999998093E+01 0.  1.
       -5    1    3    3    0  502 -0.11500527013E+04  0.12604570872E+03 -0.14606652775E+04  0.18633501762E+04  0.46999998093E+01 0. -1.
</event>
<event>
 5   0  0.6578125E-06  0.2911993E+04  0.7818609E-02  0.8269318E-01
       -3   -1    0    0    0  501  0.00000000000E+00  0.00000000000E+00  0.18423845887E+04  0.18423845915E+04  0.10100000352E+00 0.  1.
        3   -1    0    0  501    0  0.00000000000E+00  0.00000000000E+00 -0.11506427126E+04  0.11506427170E+04  0.10100000352E+00 0. -1.
    10030    2    1    2    0    0  0.00000000000E+00  0.00000000000E+00  0.69174187609E+03  0.29930273085E+04  0.29119934145E+04 0.  0.
        5    1    3    3  502    0 -0.36336127705E+03 -0.11067820698E+04  0.12436219573E+04  0.17039998915E+04  0.46999998093E+01 0.  1.
       -5    1    3    3    0  502  0.36336127705E+03  0.11067820698E+04 -0.55188008118E+03  0.12890274170E+04  0.46999998093E+01 0. -1.
</event>
<event>
 5   0  0.1960961E-05  0.3146800E+04  0.7818609E-02  0.8203010E-01
       -2   -1    0    0    0  501  0.00000000000E+00  0.00000000000E+00  0.14249220713E+04  0.14249220713E+04  0.25500000920E-02 0.  1.
        2   -1    0    0  501    0  0.00000000000E+00  0.00000000000E+00 -0.17373496284E+04  0.17373496284E+04  0.25500000920E-02 0. -1.
    10030    2    1    2    0    0  0.00000000000E+00  0.00000000000E+00 -0.31242755705E+03  0.31622716997E+04  0.31468001723E+04 0.  0.
        5    1    3    3  502    0  0.15240010111E+04 -0.38352160118E+03 -0.23338876031E+03  0.15887606188E+04  0.46999998093E+01 0. -1.
       -5    1    3    3    0  502 -0.15240010111E+04  0.38352160118E+03 -0.79038796741E+02  0.15735110809E+04  0.46999998093E+01 0.  1.
</event>
<event>
 5   0  0.7305460E-06  0.2836060E+04  0.7818609E-02  0.8292160E-01
       -1   -1    0    0    0  501  0.00000000000E+00  0.00000000000E+00  0.60453006195E+03  0.60453006197E+03  0.50400001928E-02 0.  1.
        1   -1    0    0  501    0  0.00000000000E+00  0.00000000000E+00 -0.33262354384E+04  0.33262354384E+04  0.50400001928E-02 0. -1.
    10030    2    1    2    0    0  0.00000000000E+00  0.00000000000E+00 -0.27217053765E+04  0.39307655004E+04  0.28360601656E+04 0.  0.
        4    1    3    3  502    0 -0.39512281768E+03 -0.13502300819E+04 -0.16070936966E+04  0.21358827397E+04  0.12699999809E+01 0.  1.
       -4    1    3    3    0  502  0.39512281768E+03  0.13502300819E+04 -0.11146116799E+04  0.17948827607E+04  0.12699999809E+01 0. -1.
</event>
<event>
 5   0  0.7971153E-06  0.2709505E+04  0.7818609E-02  0.8331928E-01
        1   -1    0    0  501    0  0.00000000000E+00  0.00000000000E+00  0.15250198286E+04  0.15250198286E+04  0.50400001928E-02 0. -1.
       -1   -1    0    0    0  501  0.00000000000E+00  0.00000000000E+00 -0.12034951021E+04  0.12034951021E+04  0.50400001928E-02 0.  1.
    10030    2    1    2    0    0  0.00000000000E+00  0.00000000000E+00  0.32152472645E+03  0.27285149307E+04  0.27095046738E+04 0.  0.
        5    1    3    3  502    0  0.53043414843E+03 -0.84491050760E+03  0.10837615444E+04  0.14730225140E+04  0.46999998093E+01 0. -1.
       -5    1    3    3    0  502 -0.53043414843E+03  0.84491050760E+03 -0.76223681794E+03  0.12554924167E+04  0.46999998093E+01 0.  1.
</event>
<event>
 5   0  0.1937947E-05  0.3019481E+04  0.7818609E-02  0.8238190E-01
       -2   -1    0    0    0  501  0.00000000000E+00  0.00000000000E+00  0.11155724974E+04  0.11155724974E+04  0.25500000920E-02 0. -1.
        2   -1    0    0  501    0  0.00000000000E+00  0.00000000000E+00 -0.20431803550E+04  0.20431803550E+04  0.25500000920E-02 0.  1.
    10030    2    1    2    0    0  0.00000000000E+00  0.00000000000E+00 -0.92760785764E+03  0.31587528524E+04  0.30194806251E+04 0.  0.
        3    1    3    3  502    0  0.23381379442E+03  0.11144746456E+04 -0.15007836689E+04  0.18838986855E+04  0.10100000352E+00 0.  1.
       -3    1    3    3    0  502 -0.23381379442E+03 -0.11144746456E+04  0.57317581125E+03  0.12748541669E+04  0.10100000352E+00 0. -1.
</event>
<event>
 5   0  0.1960961E-05  0.1943423E+04  0.7818609E-02  0.8633539E-01
        2   -1    0    0  501    0  0.00000000000E+00  0.00000000000E+00  0.56498066233E+03  0.56498066234E+03  0.25500000920E-02 0.  1.
       -2   -1    0    0    0  501  0.00000000000E+00  0.00000000000E+00 -0.16712487424E+04  0.16712487424E+04  0.25500000920E-02 0. -1.
    10030    2    1    2    0    0  0.00000000000E+00  0.00000000000E+00 -0.11062680801E+04  0.22362294047E+04  0.19434229817E+04 0.  0.
        5    1    3    3  502    0 -0.85056130361E+03 -0.33247260585E+03 -0.93512817649E+03  0.13070881230E+04  0.46999998093E+01 0. -1.
       -5    1    3    3    0  502  0.85056130361E+03  0.33247260585E+03 -0.17113990358E+03  0.92914128174E+03  0.46999998093E+01 0.  1.
</event>
<event>
 5   0  0.1829810E-05  0.2641252E+04  0.7818609E-02  0.8354322E-01
        2   -1    0    0  501    0  0.00000000000E+00  0.00000000000E+00  0.13100401157E+04  0.13100401157E+04  0.25500000920E-02 0.  1.
       -2   -1    0    0    0  501  0.00000000000E+00  0.00000000000E+00 -0.13312976271E+04  0.13312976271E+04  0.25500000920E-02 0. -1.
    10030    2    1    2    0    0  0.00000000000E+00  0.00000000000E+00 -0.21257511378E+02  0.26413377428E+04  0.26412522011E+04 0.  0.
        4    1    3    3  502    0 -0.11793639289E+04  0.53539481312E+03  0.24726484590E+03  0.13185933412E+04  0.12699999809E+01 0.  1.
       -4    1    3    3    0  502  0.11793639289E+04 -0.53539481312E+03 -0.26852235728E+03  0.13227444016E+04  0.12699999809E+01 0. -1.
</event>
<event>
 5   0  0.8122088E-06  0.1655955E+04  0.7818609E-02  0.8786892E-01
        1   -1    0    0  501    0  0.00000000000E+00  0.00000000000E+00  0.10309265068E+04  0.10309265068E+04  0.50400001928E-02 0. -1.
       -1   -1    0    0    0  501  0.00000000000E+00  0.00000000000E+00 -0.66498089816E+03  0.66498089818E+03  0.50400001928E-02 0.  1.
    10030    2    1    2    0    0  0.00000000000E+00  0.00000000000E+00  0.36594560863E+03  0.16959074050E+04  0.16559546304E+04 0.  0.
        1    1    3    3  502    0 -0.65977744749E+03 -0.19650040490E+03 -0.28815637700E+03  0.74629269524E+03  0.50400001928E-02 0.  1.
       -1    1    3    3    0  502  0.65977744749E+03  0.19650040490E+03  0.65410198563E+03  0.94961470975E+03  0.50400001928E-02 0. -1.
</event>
<event>
 5   0  0.7305460E-06  0.2488020E+04  0.7818609E-02  0.8407266E-01
        1   -1    0    0  501    0  0.00000000000E+00  0.00000000000E+00  0.95933868656E+03  0.95933868657E+03  0.50400001928E-02 0. -1.
       -1   -1    0    0    0  501  0.00000000000E+00  0.00000000000E+00 -0.16131542059E+04  0.16131542059E+04  0.50400001928E-02 0.  1.
    10030    2    1    2    0    0  0.00000000000E+00  0.00000000000E+00 -0.65381551935E+03  0.25724928925E+04  0.24880202870E+04 0.  0.
        4    1    3    3  502    0 -0.61193084708E+02 -0.88934023875E+03 -0.12240591485E+04  0.15142632089E+04  0.12699999809E+01 0.  1.
       -4    1    3    3    0  502  0.61193084708E+02  0.88934023875E+03  0.57024362911E+03  0.10582296836E+04  0.12699999809E+01 0. -1.
</event>
<event>
 5   0  0.7305460E-06  0.2892457E+04  0.7818609E-02  0.8275125E-01
       -1   -1    0    0    0  501  0.00000000000E+00  0.00000000000E+00  0.11227984646E+04  0.11227984646E+04  0.50400001928E-02 0.  1.
        1   -1    0    0  501    0  0.00000000000E+00  0.00000000000E+00 -0.18628249451E+04  0.18628249452E+04  0.50400001928E-02 0. -1.
    10030    2    1    2    0    0  0.00000000000E+00  0.00000000000E+00 -0.74002648058E+03  0.29856234097E+04  0.28924570788E+04 0.  0.
        4    1    3    3  502    0  0.13775869240E+04  0.44021143549E+03 -0.36320268089E+03  0.14911236171E+04  0.12699999809E+01 0.  1.
       -4    1    3    3    0  502 -0.13775869240E+04 -0.44021143549E+03 -0.37682379970E+03  0.14944997926E+04  0.12699999809E+01 0. -1.
</event>
<event>
 5   0  0.7305460E-06  0.2941058E+04  0.7818609E-02  0.8260765E-01
        1   -1    0    0  501    0  0.00000000000E+00  0.00000000000E+00  0.18092408433E+04  0.18092408433E+04  0.50400001928E-02 0.  1.
       -1   -1    0    0    0  501  0.00000000000E+00  0.00000000000E+00 -0.11952279598E+04  0.11952279598E+04  0.50400001928E-02 0. -1.
    10030    2    1    2    0    0  0.00000000000E+00  0.00000000000E+00  0.61401288354E+03  0.30044688031E+04  0.29410577974E+04 0.  0.
        4    1    3    3  502    0 -0.63083943453E+02  0.66706249903E+03 -0.10302244638E+04  0.12289491528E+04  0.12699999809E+01 0. -1.
       -4    1    3    3    0  502  0.63083943453E+02 -0.66706249903E+03  0.16442373473E+04  0.17755196503E+04  0.12699999809E+01 0.  1.
</event>
<event>
 5   0  0.8122088E-06  0.1746476E+04  0.7818609E-02  0.8735293E-01
       -1   -1    0    0    0  501  0.00000000000E+00  0.00000000000E+00  0.19493112997E+04  0.19493112998E+04  0.50400001928E-02 0.  1.
        1   -1    0    0  501    0  0.00000000000E+00  0.00000000000E+00 -0.39118649942E+03  0.39118649945E+03  0.50400001928E-02 0. -1.
    10030    2    1    2    0    0  0.00000000000E+00  0.00000000000E+00  0.15581248003E+04  0.23404977992E+04  0.17464756095E+04 0.  0.
        1    1    3    3  502    0  0.66459595388E+03  0.30969219028E+03  0.14146655432E+04  0.15933849609E+04  0.50400001928E-02 0.  1.
       -1    1    3    3    0  502 -0.66459595388E+03 -0.30969219028E+03  0.14345925716E+03  0.74711283828E+03  0.50400001928E-02 0. -1.
</event>
<event>
 5   0  0.7971153E-06  0.2870977E+04  0.7818609E-02  0.8281565E-01
        1   -1    0    0  501    0  0.00000000000E+00  0.00000000000E+00  0.18270971596E+04  0.18270971597E+04  0.50400001928E-02 0.  1.
       -1   -1    0    0    0  501  0.00000000000E+00  0.00000000000E+00 -0.11278150421E+04  0.11278150421E+04  0.50400001928E-02 0. -1.
    10030    2    1    2    0    0  0.00000000000E+00  0.00000000000E+00  0.69928211758E+03  0.29549122017E+04  0.28709772970E+04 0.  0.
        5    1    3    3  502    0  0.47546375634E+03  0.11860132578E+04  0.10229156547E+04  0.16367870227E+04  0.46999998093E+01 0.  1.
       -5    1    3    3    0  502 -0.47546375634E+03 -0.11860132578E+04 -0.32363353711E+03  0.13181251790E+04  0.46999998093E+01 0. -1.
</event>
<event>
 5   0  0.1829810E-05  0.1664698E+04  0.7818609E-02  0.8781758E-01
        2   -1    0    0  501    0  0.00000000000E+00  0.00000000000E+00  0.10840152462E+04  0.10840152462E+04  0.25500000920E-02 0.  1.
       -2   -1    0    0    0  501  0.00000000000E+00  0.00000000000E+00 -0.63910992026E+03  0.63910992027E+03  0.25500000920E-02 0. -1.
    10030    2    1    2    0    0  0.00000000000E+00  0.00000000000E+00  0.44490532596E+03  0.17231251665E+04  0.16646980478E+04 0.  0.
        4    1    3    3  502    0 -0.59550488084E+01 -0.80897494892E+03  0.42509760799E+03  0.91388485041E+03  0.12699999809E+01 0.  1.
       -4    1    3    3    0  502  0.59550488084E+01  0.80897494892E+03  0.19807717978E+02  0.80924031609E+03  0.12699999809E+01 0. -1.
</event>
<event>
 5   0  0.7971153E-06  0.2799048E+04  0.7818609E-02  0.8303564E-01
        1   -1    0    0  501    0  0.00000000000E+00  0.00000000000E+00  0.16763803865E+04  0.16763803865E+04  0.50400001928E-02 0.  1.
       -1   -1    0    0    0  501  0.00000000000E+00  0.00000000000E+00 -0.11683909851E+04  0.11683909851E+04  0.50400001928E-02 0. -1.
    10030    2    1    2    0    0  0.00000000000E+00  0.00000000000E+00  0.50798940143E+03  0.28447713716E+04  0.27990482177E+04 0.  0.
        5    1    3    3  502    0  0.98234029895E+03 -0.48407040360E+03  0.11396240261E+04  0.15805320716E+04  0.46999998093E+01 0.  1.
       -5    1    3    3    0  502 -0.98234029895E+03  0.48407040360E+03 -0.63163462468E+03  0.12642393000E+04  0.46999998093E+01 0. -1.
</event>
<event>
 5   0  0.1829810E-05  0.2557219E+04  0.7818609E-02  0.8382880E-01
        2   -1    0    0  501    0  0.00000000000E+00  0.00000000000E+00  0.12113600699E+04  0.12113600699E+04  0.25500000920E-02 0.  1.
       -2   -1    0    0    0  501  0.00000000000E+00  0.00000000000E+00 -0.13495928040E+04  0.13495928040E+04  0.25500000920E-02 0. -1.
    10030    2    1    2    0    0  0.00000000000E+00  0.00000000000E+00 -0.13823273418E+03  0.25609528739E+04  0.25572194535E+04 0.  0.
        4    1    3    3  502    0  0.45235191508E+02  0.10929858173E+04  0.59379944271E+03  0.12446941835E+04  0.12699999809E+01 0.  1.
       -4    1    3    3    0  502 -0.45235191508E+02 -0.10929858173E+04 -0.73203217689E+03  0.13162586904E+04  0.12699999809E+01 0. -1.
</event>
<event>
 5   0  0.8122088E-06  0.2900914E+04  0.7818609E-02  0.8272606E-01
        1   -1    0    0  501    0  0.00000000000E+00  0.00000000000E+00  0.24700346913E+04  0.24700346913E+04  0.50400001928E-02 0.  1.
       -1   -1    0    0    0  501  0.00000000000E+00  0.00000000000E+00 -0.85173934502E+03  0.85173934504E+03  0.50400001928E-02 0. -1.
    10030    2    1    2    0    0  0.00000000000E+00  0.00000000000E+00  0.16182953462E+04  0.33217740363E+04  0.29009141526E+04 0.  0.
        1    1    3    3  502    0 -0.10013329197E+04  0.22814053613E+03  0.19820064572E+04  0.22322780554E+04  0.50400001928E-02 0.  1.
       -1    1    3    3    0  502  0.10013329197E+04 -0.22814053613E+03 -0.36371111094E+03  0.10894959809E+04  0.50400001928E-02 0. -1.
</event>
<event>
 5   0  0.1918901E-05  0.2912632E+04  0.7818609E-02  0.8269129E-01
        2   -1    0    0  501    0  0.00000000000E+00  0.00000000000E+00  0.12150027466E+04  0.12150027466E+04  0.25500000920E-02 0.  1.
       -2   -1    0    0    0  501  0.00000000000E+00  0.00000000000E+00 -0.17455569477E+04  0.17455569477E+04  0.25500000920E-02 0. -1.
    10030    2    1    2    0    0  0.00000000000E+00  0.00000000000E+00 -0.53055420100E+03  0.29605596943E+04  0.29126321332E+04 0.  0.
        1    1    3    3  502    0 -0.99030243737E+03  0.99669680085E+03  0.12411018086E+03  0.14104987654E+04  0.50400001928E-02 0.  1.
       -1    1    3    3    0  502  0.99030243737E+03 -0.99669680085E+03 -0.65466438186E+03  0.15500609289E+04  0.50400001928E-02 0. -1.
</event>
<event>
 5   0  0.8234888E-06  0.2539772E+04  0.7818609E-02  0.8388952E-01
        1   -1    0    0  501    0  0.00000000000E+00  0.00000000000E+00  0.31615126161E+04  0.31615126161E+04  0.50400001928E-02 0. -1.
       -1   -1    0    0    0  501  0.00000000000E+00  0.00000000000E+00 -0.51007557430E+03  0.51007557433E+03  0.50400001928E-02 0.  1.
    10030    2    1    2    0    0  0.00000000000E+00  0.00000000000E+00  0.26514370418E+04  0.36715881905E+04  0.25397719294E+04 0.  0.
        3    1    3    3  502    0  0.76142135423E+02  0.78197017675E+03  0.27679798674E+04  0.28773229813E+04  0.10100000352E+00 0. -1.
       -3    1    3    3    0  502 -0.76142135423E+02 -0.78197017675E+03 -0.11654282557E+03  0.79426520918E+03  0.10100000352E+00 0.  1.
</event>
<event>
 5   0  0.1976233E-05  0.2273383E+04  0.7818609E-02  0.8488490E-01
        2   -1    0    0  501    0  0.00000000000E+00  0.00000000000E+00  0.33737192537E+04  0.33737192537E+04  0.25500000920E-02 0.  1.
       -2   -1    0    0    0  501  0.00000000000E+00  0.00000000000E+00 -0.38298028784E+03  0.38298028785E+03  0.25500000920E-02 0. -1.
    10030    2    1    2    0    0  0.00000000000E+00  0.00000000000E+00  0.29907389658E+04  0.37566995415E+04  0.22733833560E+04 0.  0.
        2    1    3    3  502    0  0.14879711829E+03 -0.36550401458E+03 -0.26614746244E+03  0.47599184747E+03  0.25500000920E-02 0. -1.
       -2    1    3    3    0  502 -0.14879711829E+03  0.36550401458E+03  0.32568864283E+04  0.32807076940E+04  0.25500000920E-02 0.  1.
</event>
<event>
 5   0  0.8122088E-06  0.1564503E+04  0.7818609E-02  0.8842657E-01
       -1   -1    0    0    0  501  0.00000000000E+00  0.00000000000E+00  0.35302987722E+03  0.35302987725E+03  0.50400001928E-02 0. -1.
        1   -1    0    0  501    0  0.00000000000E+00  0.00000000000E+00 -0.17333305591E+04  0.17333305591E+04  0.50400001928E-02 0.  1.
    10030    2    1    2    0    0  0.00000000000E+00  0.00000000000E+00 -0.13803006819E+04  0.20863604363E+04  0.15645030834E+04 0.  0.
        1    1    3    3  502    0 -0.26237877209E+03 -0.25681851249E+03  0.23099109608E+03  0.43376866518E+03  0.50400001928E-02 0. -1.
       -1    1    3    3    0  502  0.26237877209E+03  0.25681851249E+03 -0.16112917779E+04  0.16525917712E+04  0.50400001928E-02 0.  1.
</event>
<event>
 5   0  0.8234888E-06  0.3014494E+04  0.7818609E-02  0.8239604E-01
       -1   -1    0    0    0  501  0.00000000000E+00  0.00000000000E+00  0.10596412111E+04  0.10596412111E+04  0.50400001928E-02 0.  1.
        1   -1    0    0  501    0  0.00000000000E+00  0.00000000000E+00 -0.21439267905E+04  0.21439267905E+04  0.50400001928E-02 0. -1.
    10030    2    1    2    0    0  0.00000000000E+00  0.00000000000E+00 -0.10842855793E+04  0.32035680016E+04  0.30144937757E+04 0.  0.
        3    1    3    3  502    0 -0.82715103144E+03 -0.47122683612E+02  0.79595586064E+03  0.11488886449E+04  0.10100000352E+00 0.  1.
       -3    1    3    3    0  502  0.82715103144E+03  0.47122683612E+02 -0.18802414400E+04  0.20546793567E+04  0.10100000352E+00 0. -1.
</event>
<event>
 5   0  0.8122088E-06  0.2881461E+04  0.7818609E-02  0.8278415E-01
       -1   -1    0    0    0  501  0.00000000000E+00  0.00000000000E+00  0.11076401039E+04  0.11076401039E+04  0.50400001928E-02 0. -1.
        1   -1    0    0  501    0  0.00000000000E+00  0.00000000000E+00 -0.18739886894E+04  0.18739886894E+04  0.50400001928E-02 0.  1.
    10030    2    1    2    0    0  0.00000000000E+00  0.00000000000E+00 -0.76634858544E+03  0.29816287933E+04  0.28814614533E+04 0.  0.
        1    1    3    3  502    0  0.38242146505E+03 -0.67520072979E+03 -0.16392768151E+04  0.18136622285E+04  0.50400001928E-02 0.  1.
       -1    1    3    3    0  502 -0.38242146505E+03  0.67520072979E+03  0.87292822965E+03  0.11679665648E+04  0.50400001928E-02 0. -1.
</event>
<event>
 5   0  0.1960961E-05  0.2238192E+04  0.7818609E-02  0.8502698E-01
       -2   -1    0    0    0  501  0.00000000000E+00  0.00000000000E+00  0.76070343437E+03  0.76070343437E+03  0.25500000920E-02 0. -1.
        2   -1    0    0  501    0  0.00000000000E+00  0.00000000000E+00 -0.16463391561E+04  0.16463391561E+04  0.25500000920E-02 0.  1.
    10030    2    1    2    0    0  0.00000000000E+00  0.00000000000E+00 -0.88563572172E+03  0.24070425905E+04  0.22381919937E+04 0.  0.
        5    1    3    3  502    0 -0.24366916866E+03 -0.16568249096E+03  0.71822397417E+03  0.77633312350E+03  0.46999998093E+01 0. -1.
       -5    1    3    3    0  502  0.24366916866E+03  0.16568249096E+03 -0.16038596959E+04  0.16307094670E+04  0.46999998093E+01 0.  1.
</event>
<event>
 5   0  0.1937947E-05  0.2935650E+04  0.7818609E-02  0.8262349E-01
       -2   -1    0    0    0  501  0.00000000000E+00  0.00000000000E+00  0.26324074030E+04  0.26324074030E+04  0.25500000920E-02 0. -1.
        2   -1    0    0  501    0  0.00000000000E+00  0.00000000000E+00 -0.81845604704E+03  0.81845604704E+03  0.25500000920E-02 0.  1.
    10030    2    1    2    0    0  0.00000000000E+00  0.00000000000E+00  0.18139513560E+04  0.34508634500E+04  0.29356496775E+04 0.  0.
        3    1    3    3  502    0  0.79492229603E+03  0.96002523032E+03  0.18182440022E+04  0.22044412356E+04  0.10100000352E+00 0. -1.
       -3    1    3    3    0  502 -0.79492229603E+03 -0.96002523032E+03 -0.42926462445E+01  0.12464222144E+04  0.10100000352E+00 0.  1.
</event>
<event>
 5   0  0.1918901E-05  0.2709292E+04  0.7818609E-02  0.8331996E-01
       -2   -1    0    0    0  501  0.00000000000E+00  0.00000000000E+00  0.69423066665E+03  0.69423066665E+03  0.25500000920E-02 0.  1.
        2   -1    0    0  501    0  0.00000000000E+00  0.00000000000E+00 -0.26433082482E+04  0.26433082482E+04  0.25500000920E-02 0. -1.
    10030    2    1    2    0    0  0.00000000000E+00  0.00000000000E+00 -0.19490775816E+04  0.33375389149E+04  0.27092918982E+04 0.  0.
        1    1    3    3  502    0 -0.36560164995E+03 -0.85216559799E+03  0.24198525680E+03  0.95833586878E+03  0.50400001928E-02 0.  1.
       -1    1    3    3    0  502  0.36560164995E+03  0.85216559799E+03 -0.21910628384E+04  0.23792030461E+04  0.50400001928E-02 0. -1.
</event>
<event>
 5   0  0.8055928E-06  0.1774537E+04  0.7818609E-02  0.8719959E-01
        1   -1    0    0  501    0  0.00000000000E+00  0.00000000000E+00  0.19381691332E+04  0.19381691332E+04  0.50400001928E-02 0. -1.
       -1   -1    0    0    0  501  0.00000000000E+00  0.00000000000E+00 -0.40617986153E+03  0.40617986156E+03  0.50400001928E-02 0.  1.
    10030    2    1    2    0    0  0.00000000000E+00  0.00000000000E+00  0.15319892717E+04  0.23443489948E+04  0.17745368637E+04 0.  0.
        2    1    3    3  502    0 -0.29476469761E+03  0.32806276204E+03 -0.25111345625E+03  0.50751292665E+03  0.25500000920E-02 0.  1.
       -2    1    3    3    0  502  0.29476469761E+03 -0.32806276204E+03  0.17831027280E+04  0.18368360682E+04  0.25500000920E-02 0. -1.
</event>
<event>
 5   0  0.8122088E-06  0.2958464E+04  0.7818609E-02  0.8255692E-01
        1   -1    0    0  501    0  0.00000000000E+00  0.00000000000E+00  0.17505632325E+04  0.17505632325E+04  0.50400001928E-02 0.  1.
       -1   -1    0    0    0  501  0.00000000000E+00  0.00000000000E+00 -0.12499561742E+04  0.12499561742E+04  0.50400001928E-02 0. -1.
    10030    2    1    2    0    0  0.00000000000E+00  0.00000000000E+00  0.50060705830E+03  0.30005194066E+04  0.29584640074E+04 0.  0.
        1    1    3    3  502    0 -0.14689948706E+03  0.21462457163E+03 -0.12265848245E+04  0.12538554533E+04  0.50400001928E-02 0. -1.
       -1    1    3    3    0  502  0.14689948706E+03 -0.21462457163E+03  0.17271918828E+04  0.17466639534E+04  0.50400001928E-02 0.  1.
</event>
<event>
 5   0  0.1960961E-05  0.3001209E+04  0.7818609E-02  0.8243386E-01
       -2   -1    0    0    0  501  0.00000000000E+00  0.00000000000E+00  0.14023964956E+04  0.14023964956E+04  0.25500000920E-02 0. -1.
        2   -1    0    0  501    0  0.00000000000E+00  0.00000000000E+00 -0.16056898713E+04  0.16056898713E+04  0.25500000920E-02 0.  1.
    10030    2    1    2    0    0  0.00000000000E+00  0.00000000000E+00 -0.20329337569E+03  0.30080863669E+04  0.30012089888E+04 0.  0.
        5    1    3    3  502    0 -0.78978199321E+02 -0.14184807459E+04  0.38264433642E+03  0.14713136853E+04  0.46999998093E+01 0. -1.
       -5    1    3    3    0  502  0.78978199321E+02  0.14184807459E+04 -0.58593771210E+03  0.15367726816E+04  0.46999998093E+01 0.  1.
</event>
<event>
 5   0  0.7971153E-06  0.2913551E+04  0.7818609E-02  0.8268857E-01
       -1   -1    0    0    0  501  0.00000000000E+00  0.00000000000E+00  0.13036533937E+04  0.13036533937E+04  0.50400001928E-02 0. -1.
        1   -1    0    0  501    0  0.00000000000E+00  0.00000000000E+00 -0.16278827583E+04  0.16278827583E+04  0.50400001928E-02 0.  1.
    10030    2    1    2    0    0  0.00000000000E+00  0.00000000000E+00 -0.32422936462E+03  0.29315361520E+04  0.29135510171E+04 0.  0.
        5    1    3    3  502    0  0.94969728897E+03  0.35344396234E+03  0.89092362545E+03  0.13493015125E+04  0.46999998093E+01 0. -1.
       -5    1    3    3    0  502 -0.94969728897E+03 -0.35344396234E+03 -0.12151529901E+04  0.15822346395E+04  0.46999998093E+01 0.  1.
</event>
<event>
 5   0  0.7305460E-06  0.2892780E+04  0.7818609E-02  0.8275029E-01
        1   -1    0    0  501    0  0.00000000000E+00  0.00000000000E+00  0.15358053659E+04  0.15358053660E+04  0.50400001928E-02 0.  1.
       -1   -1    0    0    0  501  0.00000000000E+00  0.00000000000E+00 -0.13621800905E+04  0.13621800905E+04  0.50400001928E-02 0. -1.
    10030    2    1    2    0    0  0.00000000000E+00  0.00000000000E+00  0.17362527545E+03  0.28979854565E+04  0.28927796269E+04 0.  0.
        4    1    3    3  502    0  0.46622385873E+03  0.98915342131E+03  0.10352225634E+04  0.15058142469E+04  0.12699999809E+01 0.  1.
       -4    1    3    3    0  502 -0.46622385873E+03 -0.98915342131E+03 -0.86159728797E+03  0.13921712096E+04  0.12699999809E+01 0. -1.
</event>
<event>
 5   0  0.1937947E-05  0.2785535E+04  0.7818609E-02  0.8307773E-01
        2   -1    0    0  501    0  0.00000000000E+00  0.00000000000E+00  0.23798892159E+04  0.23798892159E+04  0.25500000920E-02 0.  1.
       -2   -1    0    0    0  501  0.00000000000E+00  0.00000000000E+00 -0.81508035140E+03  0.81508035141E+03  0.25500000920E-02 0. -1.
    10030    2    1    2    0    0  0.00000000000E+00  0.00000000000E+00  0.15648088645E+04  0.31949695673E+04  0.27855347339E+04 0.  0.
        3    1    3    3  502    0  0.19721412772E+03  0.13316000970E+03  0.23564003244E+04  0.23683849982E+04  0.10100000352E+00 0.  1.
       -3    1    3    3    0  502 -0.19721412772E+03 -0.13316000970E+03 -0.79159145992E+03  0.82658456916E+03  0.10100000352E+00 0. -1.
</event>
<event>
 5   0  0.6578125E-06  0.2407062E+04  0.7818609E-02  0.8436864E-01
        3   -1    0    0  501    0  0.00000000000E+00  0.00000000000E+00  0.11706152589E+04  0.11706152633E+04  0.10100000352E+00 0.  1.
       -3   -1    0    0    0  501  0.00000000000E+00  0.00000000000E+00 -0.12373725977E+04  0.12373726018E+04  0.10100000352E+00 0. -1.
    10030    2    1    2    0    0  0.00000000000E+00  0.00000000000E+00 -0.66757338739E+02  0.24079878651E+04  0.24070623208E+04 0.  0.
        1    1    3    3  502    0  0.54002931357E+03 -0.11647454783E+03 -0.11030368671E+04  0.12336483738E+04  0.50400001928E-02 0. -1.
       -1    1    3    3    0  502 -0.54002931357E+03  0.11647454783E+03  0.10362795284E+04  0.11743394913E+04  0.50400001928E-02 0.  1.
</event>
<event>
 5   0  0.1960961E-05  0.2797322E+04  0.7818609E-02  0.8304100E-01
        2   -1    0    0  501    0  0.00000000000E+00  0.00000000000E+00  0.16511990210E+04  0.16511990210E+04  0.25500000920E-02 0. -1.
       -2   -1    0    0    0  501  0.00000000000E+00  0.00000000000E+00 -0.11847470979E+04  0.11847470979E+04  0.25500000920E-02 0.  1.
    10030    2    1    2    0    0  0.00000000000E+00  0.00000000000E+00  0.46645192304E+03  0.28359461189E+04  0.27973224685E+04 0.  0.
        5    1    3    3  502    0 -0.43171777401E+03  0.54249046485E+03  0.14647223576E+04  0.16205276349E+04  0.46999998093E+01 0. -1.
       -5    1    3    3    0  502  0.43171777401E+03 -0.54249046485E+03 -0.99827043451E+03  0.12154184840E+04  0.46999998093E+01 0.  1.
</event>
<event>
 5   0  0.1829810E-05  0.2918744E+04  0.7818609E-02  0.8267322E-01
        2   -1    0    0  501    0  0.00000000000E+00  0.00000000000E+00  0.93002576477E+03  0.93002576477E+03  0.25500000920E-02 0.  1.
       -2   -1    0    0    0  501  0.00000000000E+00  0.00000000000E+00 -0.22900085029E+04  0.22900085029E+04  0.25500000920E-02 0. -1.
    10030    2    1    2    0    0  0.00000000000E+00  0.00000000000E+00 -0.13599827381E+04  0.32200342676E+04  0.29187441883E+04 0.  0.
        4    1    3    3  502    0 -0.38331493464E+03 -0.10670470455E+04  0.33368390456E+03  0.11818909837E+04  0.12699999809E+01 0.  1.
       -4    1    3    3    0  502  0.38331493464E+03  0.10670470455E+04 -0.16936666427E+04  0.20381432839E+04  0.12699999809E+01 0. -1.
</event>
<event>
 5   0  0.1918901E-05  0.2885567E+04  0.7818609E-02  0.8277185E-01
       -2   -1    0    0    0  501  0.00000000000E+00  0.00000000000E+00  0.12959148974E+04  0.12959148974E+04  0.25500000920E-02 0. -1.
        2   -1    0    0  501    0  0.00000000000E+00  0.00000000000E+00 -0.16062967168E+04  0.16062967168E+04  0.25500000920E-02 0.  1.
    10030    2    1    2    0    0  0.00000000000E+00  0.00000000000E+00 -0.31038181942E+03  0.29022116142E+04  0.28855667346E+04 0.  0.
        1    1    3    3  502    0  0.48781197959E+02 -0.14413248619E+04 -0.11220231633E+03  0.14465083209E+04  0.50400001928E-02 0.  1.
       -1    1    3    3    0  502 -0.48781197959E+02  0.14413248619E+04 -0.19817950309E+03  0.14557032933E+04  0.50400001928E-02 0. -1.
</event>
<event>
 5   0  0.1918901E-05  0.3087028E+04  0.7818609E-02  0.8219307E-01
        2   -1    0    0  501    0  0.00000000000E+00  0.00000000000E+00  0.19457058314E+04  0.19457058314E+04  0.25500000920E-02 0.  1.
       -2   -1    0    0    0  501  0.00000000000E+00  0.00000000000E+00 -0.12244584759E+04  0.12244584759E+04  0.25500000920E-02 0. -1.
    10030    2    1    2    0    0  0.00000000000E+00  0.00000000000E+00  0.72124735552E+03  0.31701643073E+04  0.30870283425E+04 0.  0.
        1    1    3    3  502    0 -0.14811364806E+04 -0.37326714717E+03  0.58873724273E+03  0.16369805064E+04  0.50400001928E-02 0.  1.
       -1    1    3    3    0  502  0.14811364806E+04  0.37326714717E+03  0.13251011279E+03  0.15331838009E+04  0.50400001928E-02 0. -1.
</event>
<event>
 5   0  0.8055928E-06  0.2938520E+04  0.7818609E-02  0.8261508E-01
       -1   -1    0    0    0  501  0.00000000000E+00  0.00000000000E+00  0.11738202834E+04  0.11738202834E+04  0.50400001928E-02 0. -1.
        1   -1    0    0  501    0  0.00000000000E+00  0.00000000000E+00 -0.18390588403E+04  0.18390588403E+04  0.50400001928E-02 0.  1.
    10030    2    1    2    0    0  0.00000000000E+00  0.00000000000E+00 -0.66523855685E+03  0.30128791237E+04  0.29385197424E+04 0.  0.
        2    1    3    3  502    0 -0.38197839373E+03  0.13617246762E+04 -0.74084391582E+03  0.15965748635E+04  0.25500000920E-02 0.  1.
       -2    1    3    3    0  502  0.38197839373E+03 -0.13617246762E+04  0.75605358970E+02  0.14163042602E+04  0.25500000920E-02 0. -1.
</event>
<event>
 5   0  0.1918901E-05  0.2633226E+04  0.7818609E-02  0.8357002E-01
       -2   -1    0    0    0  501  0.00000000000E+00  0.00000000000E+00  0.14356850787E+04  0.14356850787E+04  0.25500000920E-02 0. -1.
        2   -1    0    0  501    0  0.00000000000E+00  0.00000000000E+00 -0.12074160054E+04  0.12074160054E+04  0.25500000920E-02 0.  1.
    10030    2    1    2    0    0  0.00000000000E+00  0.00000000000E+00  0.22826907323E+03  0.26431010841E+04  0.26332255070E+04 0.  0.
        1    1    3    3  502    0  0.12673925160E+04  0.34897943016E+03  0.40383057568E+02  0.13151810612E+04  0.50400001928E-02 0. -1.
       -1    1    3    3    0  502 -0.12673925160E+04 -0.34897943016E+03  0.18788601566E+03  0.13279200229E+04  0.50400001928E-02 0.  1.
</event>
<event>
 5   0  0.7971153E-06  0.2975307E+04  0.7818609E-02  0.8250817E-01
        1   -1    0    0  501    0  0.00000000000E+00  0.00000000000E+00  0.13987221412E+04  0.13987221412E+04  0.50400001928E-02 0. -1.
       -1   -1    0    0    0  501  0.00000000000E+00  0.00000000000E+00 -0.15822391815E+04  0.15822391815E+04  0.50400001928E-02 0.  1.
    10030    2    1    2    0    0  0.00000000000E+00  0.00000000000E+00 -0.18351704030E+03  0.29809613227E+04  0.29753070268E+04 0.  0.
        5    1    3    3  502    0 -0.81325295520E+03  0.89389147111E+03 -0.96097197321E+03  0.15439920837E+04  0.46999998093E+01 0.  1.
       -5    1    3    3    0  502  0.81325295520E+03 -0.89389147111E+03  0.77745493291E+03  0.14369692390E+04  0.46999998093E+01 0. -1.
</event>
<event>
 5   0  0.8234888E-06  0.2879269E+04  0.7818609E-02  0.8279072E-01
        1   -1    0    0  501    0  0.00000000000E+00  0.00000000000E+00  0.20467671169E+04  0.20467671169E+04  0.50400001928E-02 0. -1.
       -1   -1    0    0    0  501  0.00000000000E+00  0.00000000000E+00 -0.10125954149E+04  0.10125954149E+04  0.50400001928E-02 0.  1.
    10030    2    1    2    0    0  0.00000000000E+00  0.00000000000E+00  0.10341717020E+04  0.30593625318E+04  0.28792686557E+04 0.  0.
        3    1    3    3  502    0  0.10438143555E+04  0.39742137430E+03  0.14822255053E+04  0.18559322769E+04  0.10100000352E+00 0. -1.
       -3    1    3    3    0  502 -0.10438143555E+04 -0.39742137430E+03 -0.44805380330E+03  0.12034302549E+04  0.10100000352E+00 0.  1.
</event>
<event>
 5   0  0.1829810E-05  0.2630152E+04  0.7818609E-02  0.8358031E-01
        2   -1    0    0  501    0  0.00000000000E+00  0.00000000000E+00  0.15314876127E+04  0.15314876127E+04  0.25500000920E-02 0.  1.
       -2   -1    0    0    0  501  0.00000000000E+00  0.00000000000E+00 -0.11292453804E+04  0.11292453804E+04  0.25500000920E-02 0. -1.
    10030    2    1    2    0    0  0.00000000000E+00  0.00000000000E+00  0.40224223227E+03  0.26607329931E+04  0.26301523240E+04 0.  0.
        4    1    3    3  502    0 -0.60791362767E+03 -0.66660544401E+02 -0.97664081775E+03  0.11523157148E+04  0.12699999809E+01 0. -1.
       -4    1    3    3    0  502  0.60791362767E+03  0.66660544401E+02  0.13788830500E+04  0.15084172783E+04  0.12699999809E+01 0.  1.
</event>
<event>
 5   0  0.7305460E-06  0.2882453E+04  0.7818609E-02  0.8278117E-01
        1   -1    0    0  501    0  0.00000000000E+00  0.00000000000E+00  0.11376578279E+04  0.11376578279E+04  0.50400001928E-02 0.  1.
       -1   -1    0    0    0  501  0.00000000000E+00  0.00000000000E+00 -0.18257987067E+04  0.18257987067E+04  0.50400001928E-02 0. -1.
    10030    2    1    2    0    0  0.00000000000E+00  0.00000000000E+00 -0.68814087883E+03  0.29634565347E+04  0.28824532544E+04 0.  0.
        4    1    3    3  502    0  0.26350741635E+03  0.13431112493E+04  0.11999966984E+03  0.13739670739E+04  0.12699999809E+01 0.  1.
       -4    1    3    3    0  502 -0.26350741635E+03 -0.13431112493E+04 -0.80814054867E+03  0.15894894607E+04  0.12699999809E+01 0. -1.
</event>
<event>
 5   0  0.1918901E-05  0.2901418E+04  0.7818609E-02  0.8272456E-01
        2   -1    0    0  501    0  0.00000000000E+00  0.00000000000E+00  0.20349124201E+04  0.20349124201E+04  0.25500000920E-02 0. -1.
       -2   -1    0    0    0  501  0.00000000000E+00  0.00000000000E+00 -0.10342245870E+04  0.10342245870E+04  0.25500000920E-02 0.  1.
    10030    2    1    2    0    0  0.00000000000E+00  0.00000000000E+00  0.10006878331E+04  0.30691370072E+04  0.29014178999E+04 0.  0.
        1    1    3    3  502    0 -0.13375467562E+04 -0.49965337197E+03  0.77183478611E+03  0.16230877223E+04  0.50400001928E-02 0. -1.
       -1    1    3    3    0  502  0.13375467562E+04  0.49965337197E+03  0.22885304698E+03  0.14460492849E+04  0.50400001928E-02 0.  1.
</event>
<event>
 5   0  0.1937947E-05  0.1725596E+04  0.7818609E-02  0.8746899E-01
        2   -1    0    0  501    0  0.00000000000E+00  0.00000000000E+00  0.77096888150E+03  0.77096888150E+03  0.25500000920E-02 0.  1.
       -2   -1    0    0    0  501  0.00000000000E+00  0.00000000000E+00 -0.96556466820E+03  0.96556466820E+03  0.25500000920E-02 0. -1.
    10030    2    1    2    0    0  0.00000000000E+00  0.00000000000E+00 -0.19459578670E+03  0.17365335497E+04  0.17255959113E+04 0.  0.
        3    1    3    3  502    0 -0.30717501648E+03 -0.36339970103E+03  0.62698933691E+03  0.78710321576E+03  0.10100000352E+00 0.  1.
       -3    1    3    3    0  502  0.30717501648E+03  0.36339970103E+03 -0.82158512362E+03  0.94943033394E+03  0.10100000352E+00 0. -1.
</event>
<event>
 5   0  0.1937947E-05  0.2938128E+04  0.7818609E-02  0.8261623E-01
       -2   -1    0    0    0  501  0.00000000000E+00  0.00000000000E+00  0.12097898545E+04  0.12097898545E+04  0.25500000920E-02 0.  1.
        2   -1    0    0  501    0  0.00000000000E+00  0.00000000000E+00 -0.17839038410E+04  0.17839038410E+04  0.25500000920E-02 0. -1.
    10030    2    1    2    0    0  0.00000000000E+00  0.00000000000E+00 -0.57411398644E+03  0.29936936955E+04  0.29381278177E+04 0.  0.
        3    1    3    3  502    0  0.13487962837E+04  0.58057054029E+03 -0.24340769250E+03  0.14884760268E+04  0.10100000352E+00 0. -1.
       -3    1    3    3    0  502 -0.13487962837E+04 -0.58057054029E+03 -0.33070629394E+03  0.15052176687E+04  0.10100000352E+00 0.  1.
</event>
<event>
 5   0  0.8055928E-06  0.2873101E+04  0.7818609E-02  0.8280926E-01
        1   -1    0    0  501    0  0.00000000000E+00  0.00000000000E+00  0.18650592690E+04  0.18650592690E+04  0.50400001928E-02 0.  1.
       -1   -1    0    0    0  501  0.00000000000E+00  0.00000000000E+00 -0.11064945754E+04  0.11064945755E+04  0.50400001928E-02 0. -1.
    10030    2    1    2    0    0  0.00000000000E+00  0.00000000000E+00  0.75856469358E+03  0.29715538445E+04  0.28731014351E+04 0.  0.
        2    1    3    3  502    0  0.32213322052E+03 -0.13209358143E+04  0.85889315928E+03  0.16082097799E+04  0.25500000920E-02 0.  1.
       -2    1    3    3    0  502 -0.32213322052E+03  0.13209358143E+04 -0.10032846570E+03  0.13633440645E+04  0.25500000920E-02 0. -1.
</event>
<event>
 5   0  0.1960961E-05  0.2901219E+04  0.7818609E-02  0.8272515E-01
       -2   -1    0    0    0  501  0.00000000000E+00  0.00000000000E+00  0.98179296235E+03  0.98179296236E+03  0.25500000920E-02 0. -1.
        2   -1    0    0  501    0  0.00000000000E+00  0.00000000000E+00 -0.21432910039E+04  0.21432910039E+04  0.25500000920E-02 0.  1.
    10030    2    1    2    0    0  0.00000000000E+00  0.00000000000E+00 -0.11614980416E+04  0.31250839663E+04  0.29012190706E+04 0.  0.
        5    1    3    3  502    0 -0.14137712500E+04 -0.30258925538E+03 -0.45358668979E+03  0.15152796375E+04  0.46999998093E+01 0. -1.
       -5    1    3    3    0  502  0.14137712500E+04  0.30258925538E+03 -0.70791135176E+03  0.16098043287E+04  0.46999998093E+01 0.  1.
</event>
<event>
 5   0  0.1960961E-05  0.3091652E+04  0.7818609E-02  0.8218033E-01
       -2   -1    0    0    0  501  0.00000000000E+00  0.00000000000E+00  0.22698609427E+04  0.22698609427E+04  0.25500000920E-02 0. -1.
        2   -1    0    0  501    0  0.00000000000E+00  0.00000000000E+00 -0.10527417966E+04  0.10527417966E+04  0.25500000920E-02 0.  1.
    10030    2    1    2    0    0  0.00000000000E+00  0.00000000000E+00  0.12171191461E+04  0.33226027394E+04  0.30916516537E+04 0.  0.
        5    1    3    3  502    0 -0.39768933120E+03  0.82177895416E+03 -0.73205376992E+03  0.11702146238E+04  0.46999998093E+01 0.  1.
       -5    1    3    3    0  502  0.39768933120E+03 -0.82177895416E+03  0.19491729160E+04  0.21523881156E+04  0.46999998093E+01 0. -1.
</event>
<event>
 5   0  0.1829810E-05  0.2887404E+04  0.7818609E-02  0.8276635E-01
       -2   -1    0    0    0  501  0.00000000000E+00  0.00000000000E+00  0.15066217549E+04  0.15066217549E+04  0.25500000920E-02 0.  1.
        2   -1    0    0  501    0  0.00000000000E+00  0.00000000000E+00 -0.13834096384E+04  0.13834096384E+04  0.25500000920E-02 0. -1.
    10030    2    1    2    0    0  0.00000000000E+00  0.00000000000E+00  0.12321211644E+03  0.28900313933E+04  0.28874037176E+04 0.  0.
        4    1    3    3  502    0  0.23711752162E+03  0.86572524812E+03 -0.10701610097E+04  0.13967645198E+04  0.12699999809E+01 0.  1.
       -4    1    3    3    0  502 -0.23711752162E+03 -0.86572524812E+03  0.11933731261E+04  0.14932668735E+04  0.12699999809E+01 0. -1.
</event>
<event>
 5   0  0.1829810E-05  0.3066852E+04  0.7818609E-02  0.8224894E-01
       -2   -1    0    0    0  501  0.00000000000E+00  0.00000000000E+00  0.14387711855E+04  0.14387711855E+04  0.25500000920E-02 0.  1.
        2   -1    0    0  501    0  0.00000000000E+00  0.00000000000E+00 -0.16343076494E+04  0.16343076494E+04  0.25500000920E-02 0. -1.
    10030    2    1    2    0    0  0.00000000000E+00  0.00000000000E+00 -0.19553646390E+03  0.30730788349E+04  0.30668516457E+04 0.  0.
        4    1    3    3  502    0  0.71879915378E+03  0.13433941292E+04 -0.27136298282E+03  0.15475850514E+04  0.12699999809E+01 0.  1.
       -4    1    3    3    0  502 -0.71879915378E+03 -0.13433941292E+04  0.75826518920E+02  0.15254937836E+04  0.12699999809E+01 0. -1.
</event>
<event>
 5   0  0.8055928E-06  0.2774435E+04  0.7818609E-02  0.8311249E-01
        1   -1    0    0  501    0  0.00000000000E+00  0.00000000000E+00  0.14796468771E+04  0.14796468771E+04  0.50400001928E-02 0. -1.
       -1   -1    0    0    0  501  0.00000000000E+00  0.00000000000E+00 -0.13005621678E+04  0.13005621679E+04  0.50400001928E-02 0.  1.
    10030    2    1    2    0    0  0.00000000000E+00  0.00000000000E+00  0.17908470926E+03  0.27802090450E+04  0.27744352580E+04 0.  0.
        2    1    3    3  502    0 -0.93463193308E+03  0.67966849968E+03 -0.67944412534E+03  0.13405709378E+04  0.25500000920E-02 0.  1.
       -2    1    3    3    0  502  0.93463193308E+03 -0.67966849968E+03  0.85852883459E+03  0.14396381072E+04  0.25500000920E-02 0. -1.
</event>
<event>
 5   0  0.1937947E-05  0.2857733E+04  0.7818609E-02  0.8285565E-01
        2   -1    0    0  501    0  0.00000000000E+00  0.00000000000E+00  0.29170344202E+04  0.29170344202E+04  0.25500000920E-02 0. -1.
       -2   -1    0    0    0  501  0.00000000000E+00  0.00000000000E+00 -0.69990939873E+03  0.69990939873E+03  0.25500000920E-02 0.  1.
    10030    2    1    2    0    0  0.00000000000E+00  0.00000000000E+00  0.22171250215E+04  0.36169438189E+04  0.28577332325E+04 0.  0.
        3    1    3    3  502    0 -0.41044132863E+03  0.60994820005E+03  0.26592836266E+04  0.27590375692E+04  0.10100000352E+00 0. -1.
       -3    1    3    3    0  502  0.41044132863E+03 -0.60994820005E+03 -0.44215860519E+03  0.85790624974E+03  0.10100000352E+00 0.  1.
</event>
<event>
 5   0  0.7305460E-06  0.1684832E+04  0.7818609E-02  0.8770063E-01
       -1   -1    0    0    0  501  0.00000000000E+00  0.00000000000E+00  0.68891067490E+03  0.68891067492E+03  0.50400001928E-02 0. -1.
        1   -1    0    0  501    0  0.00000000000E+00  0.00000000000E+00 -0.10301260879E+04  0.10301260879E+04  0.50400001928E-02 0.  1.
    10030    2    1    2    0    0  0.00000000000E+00  0.00000000000E+00 -0.34121541304E+03  0.17190367629E+04  0.16848321679E+04 0.  0.
        4    1    3    3  502    0  0.21441204944E+03 -0.79978359330E+03 -0.12421740604E+02  0.82811969883E+03  0.12699999809E+01 0.  1.
       -4    1    3    3    0  502 -0.21441204944E+03  0.79978359330E+03 -0.32879367243E+03  0.89091706403E+03  0.12699999809E+01 0. -1.
</event>
<event>
 5   0  0.1918901E-05  0.2808521E+04  0.7818609E-02  0.8300628E-01
       -2   -1    0    0    0  501  0.00000000000E+00  0.00000000000E+00  0.13919799468E+04  0.13919799468E+04  0.25500000920E-02 0. -1.
        2   -1    0    0  501    0  0.00000000000E+00  0.00000000000E+00 -0.14166497241E+04  0.14166497241E+04  0.25500000920E-02 0.  1.
    10030    2    1    2    0    0  0.00000000000E+00  0.00000000000E+00 -0.24669777291E+02  0.28086296709E+04  0.28085213245E+04 0.  0.
        1    1    3    3  502    0 -0.53433524140E+03  0.31089209651E+03  0.12485785201E+04  0.13932395224E+04  0.50400001928E-02 0. -1.
       -1    1    3    3    0  502  0.53433524140E+03 -0.31089209651E+03 -0.12732482973E+04  0.14153901485E+04  0.50400001928E-02 0.  1.
</event>
<event>
 5   0  0.1976233E-05  0.2913692E+04  0.7818609E-02  0.8268815E-01
       -2   -1    0    0    0  501  0.00000000000E+00  0.00000000000E+00  0.11649421217E+04  0.11649421217E+04  0.25500000920E-02 0. -1.
        2   -1    0    0  501    0  0.00000000000E+00  0.00000000000E+00 -0.18218931080E+04  0.18218931080E+04  0.25500000920E-02 0.  1.
    10030    2    1    2    0    0  0.00000000000E+00  0.00000000000E+00 -0.65695098626E+03  0.29868352297E+04  0.29136918319E+04 0.  0.
        2    1    3    3  502    0 -0.64278355080E+03  0.39827449689E+03  0.94801764466E+03  0.12126544119E+04  0.25500000920E-02 0. -1.
       -2    1    3    3    0  502  0.64278355080E+03 -0.39827449689E+03 -0.16049686309E+04  0.17741808178E+04  0.25500000920E-02 0.  1.
</event>
<event>
 5   0  0.7305460E-06  0.2928003E+04  0.7818609E-02  0.8264594E-01
        1   -1    0    0  501    0  0.00000000000E+00  0.00000000000E+00  0.22494000475E+04  0.22494000476E+04  0.50400001928E-02 0.  1.
       -1   -1    0    0    0  501  0.00000000000E+00  0.00000000000E+00 -0.95283192385E+03  0.95283192386E+03  0.50400001928E-02 0. -1.
    10030    2    1    2    0    0  0.00000000000E+00  0.00000000000E+00  0.12965681237E+04  0.32022319714E+04  0.29280028517E+04 0.  0.
        4    1    3    3  502    0 -0.50742424646E+03  0.91640635058E+03  0.17668227156E+04  0.20540068370E+04  0.12699999809E+01 0.  1.
       -4    1    3    3    0  502  0.50742424646E+03 -0.91640635058E+03 -0.47025459185E+03  0.11482251344E+04  0.12699999809E+01 0. -1.
</event>
<event>
 5   0  0.8055928E-06  0.2919234E+04  0.7818609E-02  0.8267178E-01
        1   -1    0    0  501    0  0.00000000000E+00  0.00000000000E+00  0.27540500170E+04  0.27540500170E+04  0.50400001928E-02 0. -1.
       -1   -1    0    0    0  501  0.00000000000E+00  0.00000000000E+00 -0.77358144883E+03  0.77358144884E+03  0.50400001928E-02 0.  1.
    10030    2    1    2    0    0  0.00000000000E+00  0.00000000000E+00  0.19804685681E+04  0.35276314658E+04  0.29192341477E+04 0.  0.
        2    1    3    3  502    0  0.13718801867E+04  0.42504118604E+03  0.67566045216E+03  0.15872089664E+04  0.25500000920E-02 0. -1.
       -2    1    3    3    0  502 -0.13718801867E+04 -0.42504118604E+03  0.13048081160E+04  0.19404224994E+04  0.25500000920E-02 0.  1.
</event>
<event>
 5   0  0.1829810E-05  0.2881488E+04  0.7818609E-02  0.8278407E-01
        2   -1    0    0  501    0  0.00000000000E+00  0.00000000000E+00  0.21276764190E+04  0.21276764190E+04  0.25500000920E-02 0.  1.
       -2   -1    0    0    0  501  0.00000000000E+00  0.00000000000E+00 -0.97559184132E+03  0.97559184132E+03  0.25500000920E-02 0. -1.
    10030    2    1    2    0    0  0.00000000000E+00  0.00000000000E+00  0.11520845777E+04  0.31032682603E+04  0.28814883344E+04 0.  0.
        4    1    3    3  502    0  0.32912750724E+03 -0.44385009957E+03  0.20090215667E+04  0.20836259490E+04  0.12699999809E+01 0.  1.
       -4    1    3    3    0  502 -0.32912750724E+03  0.44385009957E+03 -0.85693698905E+03  0.10196423113E+04  0.12699999809E+01 0. -1.
</event>
<event>
 5   0  0.1829810E-05  0.1967565E+04  0.7818609E-02  0.8621937E-01
        2   -1    0    0  501    0  0.00000000000E+00  0.00000000000E+00  0.13683921099E+04  0.13683921099E+04  0.25500000920E-02 0. -1.
       -2   -1    0    0    0  501  0.00000000000E+00  0.00000000000E+00 -0.70727396532E+03  0.70727396532E+03  0.25500000920E-02 0.  1.
    10030    2    1    2    0    0  0.00000000000E+00  0.00000000000E+00  0.66111814454E+03  0.20756660752E+04  0.19675651081E+04 0.  0.
        4    1    3    3  502    0 -0.88395151872E+03 -0.32732436628E+03  0.62766133812E+03  0.11324627572E+04  0.12699999809E+01 0. -1.
       -4    1    3    3    0  502  0.88395151872E+03  0.32732436628E+03  0.33456806418E+02  0.94320331796E+03  0.12699999809E+01 0.  1.
</event>
<event>
 5   0  0.7305460E-06  0.2733667E+04  0.7818609E-02  0.8324163E-01
        1   -1    0    0  501    0  0.00000000000E+00  0.00000000000E+00  0.14625410253E+04  0.14625410253E+04  0.50400001928E-02 0.  1.
       -1   -1    0    0    0  501  0.00000000000E+00  0.00000000000E+00 -0.12773894507E+04  0.12773894507E+04  0.50400001928E-02 0. -1.
    10030    2    1    2    0    0  0.00000000000E+00  0.00000000000E+00  0.18515157459E+03  0.27399304759E+04  0.27336674830E+04 0.  0.
        4    1    3    3  502    0 -0.71072036774E+03 -0.55238828467E+03  0.11235122220E+04  0.14396310583E+04  0.12699999809E+01 0.  1.
       -4    1    3    3    0  502  0.71072036774E+03  0.55238828467E+03 -0.93836064737E+03  0.13002994177E+04  0.12699999809E+01 0. -1.
</event>
<event>
 5   0  0.8055928E-06  0.2983998E+04  0.7818609E-02  0.8248315E-01
       -1   -1    0    0    0  501  0.00000000000E+00  0.00000000000E+00  0.21511798187E+04  0.21511798187E+04  0.50400001928E-02 0. -1.
        1   -1    0    0  501    0  0.00000000000E+00  0.00000000000E+00 -0.10348097038E+04  0.10348097039E+04  0.50400001928E-02 0.  1.
    10030    2    1    2    0    0  0.00000000000E+00  0.00000000000E+00  0.11163701149E+04  0.31859895226E+04  0.29839984927E+04 0.  0.
        2    1    3    3  502    0  0.29417033046E+02 -0.58233571478E+03 -0.90812553532E+03  0.10791998121E+04  0.25500000920E-02 0.  1.
       -2    1    3    3    0  502 -0.29417033046E+02  0.58233571478E+03  0.20244956502E+04  0.21067897105E+04  0.25500000920E-02 0. -1.
</event>
<event>
 5   0  0.1960961E-05  0.2185533E+04  0.7818609E-02  0.8524474E-01
       -2   -1    0    0    0  501  0.00000000000E+00  0.00000000000E+00  0.42327579320E+03  0.42327579321E+03  0.25500000920E-02 0. -1.
        2   -1    0    0  501    0  0.00000000000E+00  0.00000000000E+00 -0.28211840758E+04  0.28211840758E+04  0.25500000920E-02 0.  1.
    10030    2    1    2    0    0  0.00000000000E+00  0.00000000000E+00 -0.23979082826E+04  0.32444598690E+04  0.21855332781E+04 0.  0.
        5    1    3    3  502    0 -0.52313494707E+03 -0.25483461022E+03  0.17412797072E+03  0.60741541929E+03  0.46999998093E+01 0. -1.
       -5    1    3    3    0  502  0.52313494707E+03  0.25483461022E+03 -0.25720362533E+04  0.26370444497E+04  0.46999998093E+01 0.  1.
</event>
<event>
 5   0  0.1960961E-05  0.2893859E+04  0.7818609E-02  0.8274707E-01
       -2   -1    0    0    0  501  0.00000000000E+00  0.00000000000E+00  0.10312601736E+04  0.10312601736E+04  0.25500000920E-02 0.  1.
        2   -1    0    0  501    0  0.00000000000E+00  0.00000000000E+00 -0.20301420992E+04  0.20301420992E+04  0.25500000920E-02 0. -1.
    10030    2    1    2    0    0  0.00000000000E+00  0.00000000000E+00 -0.99888192560E+03  0.30614022728E+04  0.28938588035E+04 0.  0.
        5    1    3    3  502    0 -0.26268228639E+03 -0.27007722451E+03  0.97845137443E+03  0.10484907596E+04  0.46999998093E+01 0.  1.
       -5    1    3    3    0  502  0.26268228639E+03  0.27007722451E+03 -0.19773333000E+04  0.20129115133E+04  0.46999998093E+01 0. -1.
</event>
<event>
 5   0  0.7971153E-06  0.2775468E+04  0.7818609E-02  0.8310925E-01
        1   -1    0    0  501    0  0.00000000000E+00  0.00000000000E+00  0.16695400800E+04  0.16695400800E+04  0.50400001928E-02 0.  1.
       -1   -1    0    0    0  501  0.00000000000E+00  0.00000000000E+00 -0.11534946892E+04  0.11534946892E+04  0.50400001928E-02 0. -1.
    10030    2    1    2    0    0  0.00000000000E+00  0.00000000000E+00  0.51604539076E+03  0.28230347692E+04  0.27754679719E+04 0.  0.
        5    1    3    3  502    0  0.50803220754E+03  0.89077354272E+03  0.12090384630E+04  0.15853612596E+04  0.46999998093E+01 0.  1.
       -5    1    3    3    0  502 -0.50803220754E+03 -0.89077354272E+03 -0.69299307224E+03  0.12376735096E+04  0.46999998093E+01 0. -1.
</event>
<event>
 5   0  0.1976233E-05  0.1453156E+04  0.7818609E-02  0.8916215E-01
        2   -1    0    0  501    0  0.00000000000E+00  0.00000000000E+00  0.97297243333E+03  0.97297243334E+03  0.25500000920E-02 0.  1.
       -2   -1    0    0    0  501  0.00000000000E+00  0.00000000000E+00 -0.54258025825E+03  0.54258025826E+03  0.25500000920E-02 0. -1.
    10030    2    1    2    0    0  0.00000000000E+00  0.00000000000E+00  0.43039217508E+03  0.15155526916E+04  0.14531560607E+04 0.  0.
        2    1    3    3  502    0  0.52521310030E+03 -0.10530276603E+03 -0.29677758123E+03  0.61238419803E+03  0.25500000920E-02 0. -1.
       -2    1    3    3    0  502 -0.52521310030E+03  0.10530276603E+03  0.72716975632E+03  0.90316849357E+03  0.25500000920E-02 0.  1.
</event>
<event>
 5   0  0.7305460E-06  0.2774911E+04  0.7818609E-02  0.8311100E-01
       -1   -1    0    0    0  501  0.00000000000E+00  0.00000000000E+00  0.88159622727E+03  0.88159622728E+03  0.50400001928E-02 0. -1.
        1   -1    0    0  501    0  0.00000000000E+00  0.00000000000E+00 -0.21835767931E+04  0.21835767931E+04  0.50400001928E-02 0.  1.
    10030    2    1    2    0    0  0.00000000000E+00  0.00000000000E+00 -0.13019805659E+04  0.30651730204E+04  0.27749112150E+04 0.  0.
        4    1    3    3  502    0 -0.15428906524E+03 -0.13636547811E+04 -0.87648061643E+03  0.16283670844E+04  0.12699999809E+01 0.  1.
       -4    1    3    3    0  502  0.15428906524E+03  0.13636547811E+04 -0.42549994942E+03  0.14368059360E+04  0.12699999809E+01 0. -1.
</event>
<event>
 5   0  0.1937947E-05  0.2861423E+04  0.7818609E-02  0.8284449E-01
        2   -1    0    0  501    0  0.00000000000E+00  0.00000000000E+00  0.16465149510E+04  0.16465149510E+04  0.25500000920E-02 0.  1.
       -2   -1    0    0    0  501  0.00000000000E+00  0.00000000000E+00 -0.12431930279E+04  0.12431930279E+04  0.25500000920E-02 0. -1.
    10030    2    1    2    0    0  0.00000000000E+00  0.00000000000E+00  0.40332192310E+03  0.28897079788E+04  0.28614233572E+04 0.  0.
        3    1    3    3  502    0 -0.72391798332E+03  0.11990631954E+03 -0.10386902020E+04  0.12717358680E+04  0.10100000352E+00 0. -1.
       -3    1    3    3    0  502  0.72391798332E+03 -0.11990631954E+03  0.14420121251E+04  0.16179721108E+04  0.10100000352E+00 0.  1.
</event>
<event>
 5   0  0.1960961E-05  0.2831426E+04  0.7818609E-02  0.8293578E-01
        2   -1    0    0  501    0  0.00000000000E+00  0.00000000000E+00  0.17082124100E+04  0.17082124100E+04  0.25500000920E-02 0.  1.
       -2   -1    0    0    0  501  0.00000000000E+00  0.00000000000E+00 -0.11732985089E+04  0.11732985089E+04  0.25500000920E-02 0. -1.
    10030    2    1    2    0    0  0.00000000000E+00  0.00000000000E+00  0.53491390108E+03  0.28815109189E+04  0.28314258412E+04 0.  0.
        5    1    3    3  502    0  0.87210538524E+03  0.98849758750E+03  0.79285036480E+03  0.15382877086E+04  0.46999998093E+01 0. -1.
       -5    1    3    3    0  502 -0.87210538524E+03 -0.98849758750E+03 -0.25793646373E+03  0.13432232103E+04  0.46999998093E+01 0.  1.
</event>
<event>
 5   0  0.1976233E-05  0.2878624E+04  0.7818609E-02  0.8279266E-01
       -2   -1    0    0    0  501  0.00000000000E+00  0.00000000000E+00  0.11882140201E+04  0.11882140201E+04  0.25500000920E-02 0.  1.
        2   -1    0    0  501    0  0.00000000000E+00  0.00000000000E+00 -0.17434735380E+04  0.17434735380E+04  0.25500000920E-02 0. -1.
    10030    2    1    2    0    0  0.00000000000E+00  0.00000000000E+00 -0.55525951790E+03  0.29316875580E+04  0.28786244641E+04 0.  0.
        2    1    3    3  502    0 -0.91630869153E+03  0.20006490391E+03 -0.13895297333E+04  0.16764368356E+04  0.25500000920E-02 0. -1.
       -2    1    3    3    0  502  0.91630869153E+03 -0.20006490391E+03  0.83427021538E+03  0.12552507225E+04  0.25500000920E-02 0.  1.
</event>
<event>
 5   0  0.8234888E-06  0.2919649E+04  0.7818609E-02  0.8267055E-01
        1   -1    0    0  501    0  0.00000000000E+00  0.00000000000E+00  0.18096933063E+04  0.18096933063E+04  0.50400001928E-02 0. -1.
       -1   -1    0    0    0  501  0.00000000000E+00  0.00000000000E+00 -0.11775960660E+04  0.11775960660E+04  0.50400001928E-02 0.  1.
    10030    2    1    2    0    0  0.00000000000E+00  0.00000000000E+00  0.63209724029E+03  0.29872893723E+04  0.29196491009E+04 0.  0.
        3    1    3    3  502    0  0.95831887611E+03 -0.49079915616E+03 -0.69260377444E+03  0.12802182933E+04  0.10100000352E+00 0. -1.
       -3    1    3    3    0  502 -0.95831887611E+03  0.49079915616E+03  0.13247010147E+04  0.17070710790E+04  0.10100000352E+00 0.  1.
</event>
<event>
 5   0  0.1976233E-05  0.2875889E+04  0.7818609E-02  0.8280087E-01
        2   -1    0    0  501    0  0.00000000000E+00  0.00000000000E+00  0.10778606892E+04  0.10778606892E+04  0.25500000920E-02 0.  1.
       -2   -1    0    0    0  501  0.00000000000E+00  0.00000000000E+00 -0.19183229928E+04  0.19183229928E+04  0.25500000920E-02 0. -1.
    10030    2    1    2    0    0  0.00000000000E+00  0.00000000000E+00 -0.84046230368E+03  0.29961836820E+04  0.28758893881E+04 0.  0.
        2    1    3    3  502    0 -0.81843656504E+03  0.81685271744E+03 -0.13107344785E+04  0.17478877670E+04  0.25500000920E-02 0. -1.
       -2    1    3    3    0  502  0.81843656504E+03 -0.81685271744E+03  0.47027217480E+03  0.12482959150E+04  0.25500000920E-02 0.  1.
</event>
<event>
 5   0  0.7971153E-06  0.2990978E+04  0.7818609E-02  0.8246312E-01
       -1   -1    0    0    0  501  0.00000000000E+00  0.00000000000E+00  0.14972412535E+04  0.14972412535E+04  0.50400001928E-02 0.  1.
        1   -1    0    0  501    0  0.00000000000E+00  0.00000000000E+00 -0.14937384260E+04  0.14937384260E+04  0.50400001928E-02 0. -1.
    10030    2    1    2    0    0  0.00000000000E+00  0.00000000000E+00  0.35028274237E+01  0.29909796795E+04  0.29909776284E+04 0.  0.
        5    1    3    3  502    0  0.14540910206E+04 -0.28940367319E+03 -0.19402798689E+03  0.14952605565E+04  0.46999998093E+01 0.  1.
       -5    1    3    3    0  502 -0.14540910206E+04  0.28940367319E+03  0.19753081431E+03  0.14957191230E+04  0.46999998093E+01 0. -1.
</event>
<event>
 5   0  0.7305460E-06  0.1989487E+04  0.7818609E-02  0.8611552E-01
        1   -1    0    0  501    0  0.00000000000E+00  0.00000000000E+00  0.10750358989E+04  0.10750358989E+04  0.50400001928E-02 0.  1.
       -1   -1    0    0    0  501  0.00000000000E+00  0.00000000000E+00 -0.92044776643E+03  0.92044776645E+03  0.50400001928E-02 0. -1.
    10030    2    1    2    0    0  0.00000000000E+00  0.00000000000E+00  0.15458813248E+03  0.19954836654E+04  0.19894867600E+04 0.  0.
        4    1    3    3  502    0 -0.17824575760E+03 -0.74555320228E+03  0.71315422802E+03  0.10470012862E+04  0.12699999809E+01 0.  1.
       -4    1    3    3    0  502  0.17824575760E+03  0.74555320228E+03 -0.55856609554E+03  0.94848237913E+03  0.12699999809E+01 0. -1.
</event>
<event>
 5   0  0.1937947E-05  0.2911075E+04  0.7818609E-02  0.8269590E-01
       -2   -1    0    0    0  501  0.00000000000E+00  0.00000000000E+00  0.94303520155E+03  0.94303520155E+03  0.25500000920E-02 0.  1.
        2   -1    0    0  501    0  0.00000000000E+00  0.00000000000E+00 -0.22465640634E+04  0.22465640634E+04  0.25500000920E-02 0. -1.
    10030    2    1    2    0    0  0.00000000000E+00  0.00000000000E+00 -0.13035288619E+04  0.31895992650E+04  0.29110747118E+04 0.  0.
        3    1    3    3  502    0 -0.14449132244E+04  0.26579709777E+02 -0.84188351913E+03  0.16724977062E+04  0.10100000352E+00 0. -1.
       -3    1    3    3    0  502  0.14449132244E+04 -0.26579709777E+02 -0.46164534276E+03  0.15171015588E+04  0.10100000352E+00 0.  1.
</event>
<event>
 5   0  0.8234888E-06  0.3001329E+04  0.7818609E-02  0.8243352E-01
        1   -1    0    0  501    0  0.00000000000E+00  0.00000000000E+00  0.29307552443E+04  0.29307552443E+04  0.50400001928E-02 0.  1.
       -1   -1    0    0    0  501  0.00000000000E+00  0.00000000000E+00 -0.76840036788E+03  0.76840036789E+03  0.50400001928E-02 0. -1.
    10030    2    1    2    0    0  0.00000000000E+00  0.00000000000E+00  0.21623548764E+04  0.36991556122E+04  0.30013286444E+04 0.  0.
        3    1    3    3  502    0 -0.82575926073E+03  0.12170957183E+04  0.71391328305E+03  0.16348922075E+04  0.10100000352E+00 0. -1.
       -3    1    3    3    0  502  0.82575926073E+03 -0.12170957183E+04  0.14484415934E+04  0.20642634047E+04  0.10100000352E+00 0.  1.
</event>
<event>
 5   0  0.8055928E-06  0.2769677E+04  0.7818609E-02  0.8312745E-01
        1   -1    0    0  501    0  0.00000000000E+00  0.00000000000E+00  0.15091603663E+04  0.15091603663E+04  0.50400001928E-02 0. -1.
       -1   -1    0    0    0  501  0.00000000000E+00  0.00000000000E+00 -0.12707579062E+04  0.12707579062E+04  0.50400001928E-02 0.  1.
    10030    2    1    2    0    0  0.00000000000E+00  0.00000000000E+00  0.23840246009E+03  0.27799182725E+04  0.27696768528E+04 0.  0.
        2    1    3    3  502    0 -0.99473574281E+02 -0.13787058008E+04  0.34909803081E+02  0.13827304045E+04  0.25500000920E-02 0.  1.
       -2    1    3    3    0  502  0.99473574281E+02  0.13787058008E+04  0.20349265701E+03  0.13971878680E+04  0.25500000920E-02 0. -1.
</event>
<event>
 5   0  0.8055928E-06  0.2725868E+04  0.7818609E-02  0.8326660E-01
       -1   -1    0    0    0  501  0.00000000000E+00  0.00000000000E+00  0.14284529267E+04  0.14284529267E+04  0.50400001928E-02 0. -1.
        1   -1    0    0  501    0  0.00000000000E+00  0.00000000000E+00 -0.13004200057E+04  0.13004200057E+04  0.50400001928E-02 0.  1.
    10030    2    1    2    0    0  0.00000000000E+00  0.00000000000E+00  0.12803292094E+03  0.27288729324E+04  0.27258677614E+04 0.  0.
        2    1    3    3  502    0 -0.61978892070E+03 -0.46693683217E+03  0.11857071884E+04  0.14170638123E+04  0.25500000920E-02 0. -1.
       -2    1    3    3    0  502  0.61978892070E+03  0.46693683217E+03 -0.10576742675E+04  0.13118091201E+04  0.25500000920E-02 0.  1.
</event>
<event>
 5   0  0.1829810E-05  0.1641398E+04  0.7818609E-02  0.8795512E-01
       -2   -1    0    0    0  501  0.00000000000E+00  0.00000000000E+00  0.79330650260E+03  0.79330650261E+03  0.25500000920E-02 0.  1.
        2   -1    0    0  501    0  0.00000000000E+00  0.00000000000E+00 -0.84903703448E+03  0.84903703449E+03  0.25500000920E-02 0. -1.
    10030    2    1    2    0    0  0.00000000000E+00  0.00000000000E+00 -0.55730531883E+02  0.16423435371E+04  0.16413976976E+04 0.  0.
        4    1    3    3  502    0 -0.24973994182E+03  0.77969970763E+03  0.29117659759E+02  0.81923813610E+03  0.12699999809E+01 0.  1.
       -4    1    3    3    0  502  0.24973994182E+03 -0.77969970763E+03 -0.84848191641E+02  0.82310540100E+03  0.12699999809E+01 0. -1.
</event>
<event>
 5   0  0.7305460E-06  0.2889161E+04  0.7818609E-02  0.8276110E-01
        1   -1    0    0  501    0  0.00000000000E+00  0.00000000000E+00  0.26178161279E+04  0.26178161279E+04  0.50400001928E-02 0. -1.
       -1   -1    0    0    0  501  0.00000000000E+00  0.00000000000E+00 -0.79715815167E+03  0.79715815169E+03  0.50400001928E-02 0.  1.
    10030    2    1    2    0    0  0.00000000000E+00  0.00000000000E+00  0.18206579763E+04  0.34149742796E+04  0.28891614465E+04 0.  0.
        4    1    3    3  502    0  0.19503860094E+03  0.13786920234E+04  0.13650209609E+04  0.19499014303E+04  0.12699999809E+01 0. -1.
       -4    1    3    3    0  502 -0.19503860094E+03 -0.13786920234E+04  0.45563701539E+03  0.14650728494E+04  0.12699999809E+01 0.  1.
</event>
<event>
 5   0  0.8122088E-06  0.2850979E+04  0.7818609E-02  0.8287614E-01
        1   -1    0    0  501    0  0.00000000000E+00  0.00000000000E+00  0.12178116894E+04  0.12178116894E+04  0.50400001928E-02 0.  1.
       -1   -1    0    0    0  501  0.00000000000E+00  0.00000000000E+00 -0.16685832921E+04  0.16685832921E+04  0.50400001928E-02 0. -1.
    10030    2    1    2    0    0  0.00000000000E+00  0.00000000000E+00 -0.45077160275E+03  0.28863949815E+04  0.28509789462E+04 0.  0.
        1    1    3    3  502    0 -0.98347022595E+03 -0.65969403735E+03  0.57795101882E+03  0.13177394615E+04  0.50400001928E-02 0.  1.
       -1    1    3    3    0  502  0.98347022595E+03  0.65969403735E+03 -0.10287226216E+04  0.15686555200E+04  0.50400001928E-02 0. -1.
</event>
<event>
 5   0  0.1960961E-05  0.2920796E+04  0.7818609E-02  0.8266717E-01
       -2   -1    0    0    0  501  0.00000000000E+00  0.00000000000E+00  0.10069920946E+04  0.10069920946E+04  0.25500000920E-02 0. -1.
        2   -1    0    0  501    0  0.00000000000E+00  0.00000000000E+00 -0.21179532276E+04  0.21179532276E+04  0.25500000920E-02 0.  1.
    10030    2    1    2    0    0  0.00000000000E+00  0.00000000000E+00 -0.11109611330E+04  0.31249453223E+04  0.29207958895E+04 0.  0.
        5    1    3    3  502    0 -0.52827317121E+03  0.42886120547E+03  0.82702333832E+03  0.10709734680E+04  0.46999998093E+01 0. -1.
       -5    1    3    3    0  502  0.52827317121E+03 -0.42886120547E+03 -0.19379844714E+04  0.20539718543E+04  0.46999998093E+01 0.  1.
</event>
<event>
 5   0  0.1918901E-05  0.2921947E+04  0.7818609E-02  0.8266377E-01
       -2   -1    0    0    0  501  0.00000000000E+00  0.00000000000E+00  0.11566707305E+04  0.11566707305E+04  0.25500000920E-02 0.  1.
        2   -1    0    0  501    0  0.00000000000E+00  0.00000000000E+00 -0.18453338601E+04  0.18453338601E+04  0.25500000920E-02 0. -1.
    10030    2    1    2    0    0  0.00000000000E+00  0.00000000000E+00 -0.68866312956E+03  0.30020045906E+04  0.29219470659E+04 0.  0.
        1    1    3    3  502    0 -0.80637825792E+02  0.10223383645E+04  0.72473859476E+03  0.12557564339E+04  0.50400001928E-02 0.  1.
       -1    1    3    3    0  502  0.80637825792E+02 -0.10223383645E+04 -0.14134017243E+04  0.17462481567E+04  0.50400001928E-02 0. -1.
</event>
<event>
 5   0  0.1918901E-05  0.1525649E+04  0.7818609E-02  0.8867573E-01
       -2   -1    0    0    0  501  0.00000000000E+00  0.00000000000E+00  0.37685133366E+03  0.37685133367E+03  0.25500000920E-02 0.  1.
        2   -1    0    0  501    0  0.00000000000E+00  0.00000000000E+00 -0.15441141383E+04  0.15441141383E+04  0.25500000920E-02 0. -1.
    10030    2    1    2    0    0  0.00000000000E+00  0.00000000000E+00 -0.11672628046E+04  0.19209654719E+04  0.15256493337E+04 0.  0.
        1    1    3    3  502    0  0.35614827484E+03 -0.13415276661E+03 -0.14160404911E+04  0.14662909776E+04  0.50400001928E-02 0. -1.
       -1    1    3    3    0  502 -0.35614827484E+03  0.13415276661E+03  0.24877768652E+03  0.45467449433E+03  0.50400001928E-02 0.  1.
</event>
<event>
 5   0  0.8234888E-06  0.2915783E+04  0.7818609E-02  0.8268197E-01
        1   -1    0    0  501    0  0.00000000000E+00  0.00000000000E+00  0.10901943161E+04  0.10901943161E+04  0.50400001928E-02 0. -1.
       -1   -1    0    0    0  501  0.00000000000E+00  0.00000000000E+00 -0.19496043848E+04  0.19496043848E+04  0.50400001928E-02 0.  1.
    10030    2    1    2    0    0  0.00000000000E+00  0.00000000000E+00 -0.85941006871E+03  0.30397987009E+04  0.29157829954E+04 0.  0.
        3    1    3    3  502    0  0.46401194294E+03 -0.99664029080E+03 -0.14279530433E+04  0.18021234299E+04  0.10100000352E+00 0.  1.
       -3    1    3    3    0  502 -0.46401194294E+03  0.99664029080E+03  0.56854297459E+03  0.12376752711E+04  0.10100000352E+00 0. -1.
</event>
<event>
 5   0  0.1960961E-05  0.2954894E+04  0.7818609E-02  0.8256730E-01
        2   -1    0    0  501    0  0.00000000000E+00  0.00000000000E+00  0.21094852327E+04  0.21094852327E+04  0.25500000920E-02 0. -1.
       -2   -1    0    0    0  501  0.00000000000E+00  0.00000000000E+00 -0.10347785342E+04  0.10347785342E+04  0.25500000920E-02 0.  1.
    10030    2    1    2    0    0  0.00000000000E+00  0.00000000000E+00  0.10747066984E+04  0.31442637669E+04  0.29548942702E+04 0.  0.
        5    1    3    3  502    0 -0.57471359328E+03  0.97700827656E+03  0.15457051182E+04  0.19167856660E+04  0.46999998093E+01 0. -1.
       -5    1    3    3    0  502  0.57471359328E+03 -0.97700827656E+03 -0.47099841980E+03  0.12274781009E+04  0.46999998093E+01 0.  1.
</event>
<event>
 5   0  0.1976233E-05  0.2499711E+04  0.7818609E-02  0.8403088E-01
        2   -1    0    0  501    0  0.00000000000E+00  0.00000000000E+00  0.22997417313E+04  0.22997417313E+04  0.25500000920E-02 0. -1.
       -2   -1    0    0    0  501  0.00000000000E+00  0.00000000000E+00 -0.67926716569E+03  0.67926716569E+03  0.25500000920E-02 0.  1.
    10030    2    1    2    0    0  0.00000000000E+00  0.00000000000E+00  0.16204745656E+04  0.29790088970E+04  0.24997112214E+04 0.  0.
        2    1    3    3  502    0 -0.10153789609E+04 -0.34681592474E+02 -0.57315783150E+02  0.10175865301E+04  0.25500000920E-02 0.  1.
       -2    1    3    3    0  502  0.10153789609E+04  0.34681592474E+02  0.16777903488E+04  0.19614223670E+04  0.25500000920E-02 0. -1.
</event>
<event>
 5   0  0.7971153E-06  0.2829427E+04  0.7818609E-02  0.8294190E-01
       -1   -1    0    0    0  501  0.00000000000E+00  0.00000000000E+00  0.10574845863E+04  0.10574845863E+04  0.50400001928E-02 0.  1.
        1   -1    0    0  501    0  0.00000000000E+00  0.00000000000E+00 -0.18926183693E+04  0.18926183693E+04  0.50400001928E-02 0. -1.
    10030    2    1    2    0    0  0.00000000000E+00  0.00000000000E+00 -0.83513378297E+03  0.29501029556E+04  0.28294273295E+04 0.  0.
        5    1    3    3  502    0 -0.67186702072E+03 -0.45615261522E+03  0.79024881531E+03  0.11331353767E+04  0.46999998093E+01 0.  1.
       -5    1    3    3    0  502  0.67186702072E+03  0.45615261522E+03 -0.16253825983E+04  0.18169675789E+04  0.46999998093E+01 0. -1.
</event>
<event>
 5   0  0.1918901E-05  0.2854134E+04  0.7818609E-02  0.8286656E-01
        2   -1    0    0  501    0  0.00000000000E+00  0.00000000000E+00  0.12080390323E+04  0.12080390323E+04  0.25500000920E-02 0. -1.
       -2   -1    0    0    0  501  0.00000000000E+00  0.00000000000E+00 -0.16858067115E+04  0.16858067115E+04  0.25500000920E-02 0.  1.
    10030    2    1    2    0    0  0.00000000000E+00  0.00000000000E+00 -0.47776767924E+03  0.28938457438E+04  0.28541340602E+04 0.  0.
        1    1    3    3  502    0 -0.10746219533E+04 -0.75467994528E+03  0.32760832895E+03  0.13533962389E+04  0.50400001928E-02 0. -1.
       -1    1    3    3    0  502  0.10746219533E+04  0.75467994528E+03 -0.80537600819E+03  0.15404495048E+04  0.50400001928E-02 0.  1.
</event>
<event>
 5   0  0.1829810E-05  0.2889136E+04  0.7818609E-02  0.8276117E-01
        2   -1    0    0  501    0  0.00000000000E+00  0.00000000000E+00  0.26848379802E+04  0.26848379802E+04  0.25500000920E-02 0. -1.
       -2   -1    0    0    0  501  0.00000000000E+00  0.00000000000E+00 -0.77724511934E+03  0.77724511935E+03  0.25500000920E-02 0.  1.
    10030    2    1    2    0    0  0.00000000000E+00  0.00000000000E+00  0.19075928609E+04  0.34620830996E+04  0.28891363529E+04 0.  0.
        4    1    3    3  502    0  0.10296288407E+04 -0.59975018925E+03 -0.24820567557E+02  0.11918278033E+04  0.12699999809E+01 0. -1.
       -4    1    3    3    0  502 -0.10296288407E+04  0.59975018925E+03  0.19324134284E+04  0.22702552963E+04  0.12699999809E+01 0.  1.
</event>
<event>
 5   0  0.1918901E-05  0.2476447E+04  0.7818609E-02  0.8411425E-01
        2   -1    0    0  501    0  0.00000000000E+00  0.00000000000E+00  0.62272388179E+03  0.62272388180E+03  0.25500000920E-02 0.  1.
       -2   -1    0    0    0  501  0.00000000000E+00  0.00000000000E+00 -0.24620814655E+04  0.24620814655E+04  0.25500000920E-02 0. -1.
    10030    2    1    2    0    0  0.00000000000E+00  0.00000000000E+00 -0.18393575837E+04  0.30848053473E+04  0.24764465894E+04 0.  0.
        1    1    3    3  502    0 -0.79956852848E+03 -0.94515830476E+03 -0.89012558152E+03  0.15247811658E+04  0.50400001928E-02 0. -1.
       -1    1    3    3    0  502  0.79956852848E+03  0.94515830476E+03 -0.94923200223E+03  0.15600241815E+04  0.50400001928E-02 0.  1.
</event>
<event>
 5   0  0.1976233E-05  0.3346609E+04  0.7818609E-02  0.8151136E-01
       -2   -1    0    0    0  501  0.00000000000E+00  0.00000000000E+00  0.13468813534E+04  0.13468813534E+04  0.25500000920E-02 0.  1.
        2   -1    0    0  501    0  0.00000000000E+00  0.00000000000E+00 -0.20788381767E+04  0.20788381767E+04  0.25500000920E-02 0. -1.
    10030    2    1    2    0    0  0.00000000000E+00  0.00000000000E+00 -0.73195682329E+03  0.34257195301E+04  0.33466092554E+04 0.  0.
        2    1    3    3  502    0  0.37249166427E+03 -0.88783841005E+03  0.10349272110E+04  0.14135350772E+04  0.25500000920E-02 0.  1.
       -2    1    3    3    0  502 -0.37249166427E+03  0.88783841005E+03 -0.17668840343E+04  0.20121844530E+04  0.25500000920E-02 0. -1.
</event>
<event>
 5   0  0.8055928E-06  0.2939805E+04  0.7818609E-02  0.8261132E-01
       -1   -1    0    0    0  501  0.00000000000E+00  0.00000000000E+00  0.12966766735E+04  0.12966766735E+04  0.50400001928E-02 0. -1.
        1   -1    0    0  501    0  0.00000000000E+00  0.00000000000E+00 -0.16662694055E+04  0.16662694055E+04  0.50400001928E-02 0.  1.
    10030    2    1    2    0    0  0.00000000000E+00  0.00000000000E+00 -0.36959273199E+03  0.29629460791E+04  0.29398045309E+04 0.  0.
        2    1    3    3  502    0  0.66778687814E+02  0.93613547664E+03 -0.13249856756E+04  0.16236982676E+04  0.25500000920E-02 0.  1.
       -2    1    3    3    0  502 -0.66778687814E+02 -0.93613547664E+03  0.95539294359E+03  0.13392478114E+04  0.25500000920E-02 0. -1.
</event>
<event>
 5   0  0.8055928E-06  0.1663758E+04  0.7818609E-02  0.8782308E-01
       -1   -1    0    0    0  501  0.00000000000E+00  0.00000000000E+00  0.50279483598E+03  0.50279483601E+03  0.50400001928E-02 0. -1.
        1   -1    0    0  501    0  0.00000000000E+00  0.00000000000E+00 -0.13763527411E+04  0.13763527411E+04  0.50400001928E-02 0.  1.
    10030    2    1    2    0    0  0.00000000000E+00  0.00000000000E+00 -0.87355790508E+03  0.18791475771E+04  0.16637584569E+04 0.  0.
        2    1    3    3  502    0 -0.74313256025E+03  0.91596996293E+02 -0.84617804422E+03  0.11298908329E+04  0.25500000920E-02 0.  1.
       -2    1    3    3    0  502  0.74313256025E+03 -0.91596996293E+02 -0.27379860856E+02  0.74925674413E+03  0.25500000920E-02 0. -1.
</event>
<event>
 5   0  0.1918901E-05  0.2955677E+04  0.7818609E-02  0.8256502E-01
        2   -1    0    0  501    0  0.00000000000E+00  0.00000000000E+00  0.24098964745E+04  0.24098964745E+04  0.25500000920E-02 0.  1.
       -2   -1    0    0    0  501  0.00000000000E+00  0.00000000000E+00 -0.90626603789E+03  0.90626603790E+03  0.25500000920E-02 0. -1.
    10030    2    1    2    0    0  0.00000000000E+00  0.00000000000E+00  0.15036304366E+04  0.33161625124E+04  0.29556774720E+04 0.  0.
        1    1    3    3  502    0  0.90756956545E+03  0.90819681290E+03  0.15728468042E+04  0.20303573667E+04  0.50400001928E-02 0.  1.
       -1    1    3    3    0  502 -0.90756956545E+03 -0.90819681290E+03 -0.69216367586E+02  0.12858051457E+04  0.50400001928E-02 0. -1.
</event>
<event>
 5   0  0.8122088E-06  0.2935930E+04  0.7818609E-02  0.8262267E-01
        1   -1    0    0  501    0  0.00000000000E+00  0.00000000000E+00  0.22291708813E+04  0.22291708813E+04  0.50400001928E-02 0. -1.
       -1   -1    0    0    0  501  0.00000000000E+00  0.00000000000E+00 -0.96669197195E+03  0.96669197196E+03  0.50400001928E-02 0.  1.
    10030    2    1    2    0    0  0.00000000000E+00  0.00000000000E+00  0.12624789094E+04  0.31958628533E+04  0.29359302411E+04 0.  0.
        1    1    3    3  502    0 -0.78821922125E+01 -0.76384918255E+03  0.19957752470E+04  0.21369713473E+04  0.50400001928E-02 0. -1.
       -1    1    3    3    0  502  0.78821922125E+01  0.76384918255E+03 -0.73329633763E+03  0.10588915060E+04  0.50400001928E-02 0.  1.
</event>
<event>
 5   0  0.7971153E-06  0.2881587E+04  0.7818609E-02  0.8278377E-01
       -1   -1    0    0    0  501  0.00000000000E+00  0.00000000000E+00  0.10821642973E+04  0.10821642973E+04  0.50400001928E-02 0. -1.
        1   -1    0    0  501    0  0.00000000000E+00  0.00000000000E+00 -0.19182721420E+04  0.19182721420E+04  0.50400001928E-02 0.  1.
    10030    2    1    2    0    0  0.00000000000E+00  0.00000000000E+00 -0.83610784475E+03  0.30004364393E+04  0.28815868022E+04 0.  0.
        5    1    3    3  502    0 -0.53231674315E+03  0.51889921653E+02  0.97496229477E+03  0.11120374298E+04  0.46999998093E+01 0. -1.
       -5    1    3    3    0  502  0.53231674315E+03 -0.51889921653E+02 -0.18110701395E+04  0.18883990095E+04  0.46999998093E+01 0.  1.
</event>
<event>
 5   0  0.1918901E-05  0.2886480E+04  0.7818609E-02  0.8276912E-01
        2   -1    0    0  501    0  0.00000000000E+00  0.00000000000E+00  0.16518640174E+04  0.16518640174E+04  0.25500000920E-02 0.  1.
       -2   -1    0    0    0  501  0.00000000000E+00  0.00000000000E+00 -0.12609642490E+04  0.12609642490E+04  0.25500000920E-02 0. -1.
    10030    2    1    2    0    0  0.00000000000E+00  0.00000000000E+00  0.39089976846E+03  0.29128282664E+04  0.28864798424E+04 0.  0.
        1    1    3    3  502    0 -0.64543967882E+03  0.10540310993E+04  0.94748235884E+03  0.15573364305E+04  0.50400001928E-02 0.  1.
       -1    1    3    3    0  502  0.64543967882E+03 -0.10540310993E+04 -0.55658259038E+03  0.13554918359E+04  0.50400001928E-02 0. -1.
</event>
<event>
 5   0  0.7305460E-06  0.2877234E+04  0.7818609E-02  0.8279683E-01
       -1   -1    0    0    0  501  0.00000000000E+00  0.00000000000E+00  0.15873698643E+04  0.15873698643E+04  0.50400001928E-02 0.  1.
        1   -1    0    0  501    0  0.00000000000E+00  0.00000000000E+00 -0.13038037578E+04  0.13038037578E+04  0.50400001928E-02 0. -1.
    10030    2    1    2    0    0  0.00000000000E+00  0.00000000000E+00  0.28356610650E+03  0.28911736221E+04  0.28772339454E+04 0.  0.
        4    1    3    3  502    0 -0.43635723939E+03  0.12791417922E+04 -0.35356143124E+03  0.13970034587E+04  0.12699999809E+01 0. -1.
       -4    1    3    3    0  502  0.43635723939E+03 -0.12791417922E+04  0.63712753774E+03  0.14941701634E+04  0.12699999809E+01 0.  1.
</event>
<event>
 5   0  0.1976233E-05  0.2942754E+04  0.7818609E-02  0.8260269E-01
        2   -1    0    0  501    0  0.00000000000E+00  0.00000000000E+00  0.27384951894E+04  0.27384951894E+04  0.25500000920E-02 0.  1.
       -2   -1    0    0    0  501  0.00000000000E+00  0.00000000000E+00 -0.79056215276E+03  0.79056215276E+03  0.25500000920E-02 0. -1.
    10030    2    1    2    0    0  0.00000000000E+00  0.00000000000E+00  0.19479330367E+04  0.35290573422E+04  0.29427542557E+04 0.  0.
        2    1    3    3  502    0  0.11389044789E+04  0.57601323908E+03  0.18519974076E+04  0.22491751958E+04  0.25500000920E-02 0.  1.
       -2    1    3    3    0  502 -0.11389044789E+04 -0.57601323908E+03  0.95935629058E+02  0.12798821464E+04  0.25500000920E-02 0. -1.
</event>
<event>
 5   0  0.7305460E-06  0.2712471E+04  0.7818609E-02  0.8330970E-01
       -1   -1    0    0    0  501  0.00000000000E+00  0.00000000000E+00  0.11673945145E+04  0.11673945145E+04  0.50400001928E-02 0. -1.
        1   -1    0    0  501    0  0.00000000000E+00  0.00000000000E+00 -0.15756236896E+04  0.15756236896E+04  0.50400001928E-02 0.  1.
    10030    2    1    2    0    0  0.00000000000E+00  0.00000000000E+00 -0.40822917513E+03  0.27430182042E+04  0.27124707941E+04 0.  0.
        4    1    3    3  502    0 -0.16374911101E+03  0.12382785212E+04 -0.73848334450E+03  0.14510364332E+04  0.12699999809E+01 0.  1.
       -4    1    3    3    0  502  0.16374911101E+03 -0.12382785212E+04  0.33025416938E+03  0.12919817710E+04  0.12699999809E+01 0. -1.
</event>
<event>
 5   0  0.8122088E-06  0.1706801E+04  0.7818609E-02  0.8757495E-01
        1   -1    0    0  501    0  0.00000000000E+00  0.00000000000E+00  0.12152427041E+04  0.12152427041E+04  0.50400001928E-02 0. -1.
       -1   -1    0    0    0  501  0.00000000000E+00  0.00000000000E+00 -0.59929809979E+03  0.59929809981E+03  0.50400001928E-02 0.  1.
    10030    2    1    2    0    0  0.00000000000E+00  0.00000000000E+00  0.61594460428E+03  0.18145408039E+04  0.17068012695E+04 0.  0.
        1    1    3    3  502    0 -0.30241230242E+02 -0.61345667316E+03 -0.32192197833E+03  0.69345322986E+03  0.50400001928E-02 0.  1.
       -1    1    3    3    0  502  0.30241230242E+02  0.61345667316E+03  0.93786658261E+03  0.11210875740E+04  0.50400001928E-02 0. -1.
</event>
<event>
 5   0  0.1960961E-05  0.2811264E+04  0.7818609E-02  0.8299780E-01
        2   -1    0    0  501    0  0.00000000000E+00  0.00000000000E+00  0.12062430172E+04  0.12062430172E+04  0.25500000920E-02 0. -1.
       -2   -1    0    0    0  501  0.00000000000E+00  0.00000000000E+00 -0.16379789745E+04  0.16379789745E+04  0.25500000920E-02 0.  1.
    10030    2    1    2    0    0  0.00000000000E+00  0.00000000000E+00 -0.43173595725E+03  0.28442219917E+04  0.28112635596E+04 0.  0.
        5    1    3    3  502    0  0.10685634558E+04 -0.67456191541E+03  0.40691101707E+03  0.13275768538E+04  0.46999998093E+01 0. -1.
       -5    1    3    3    0  502 -0.10685634558E+04  0.67456191541E+03 -0.83864697433E+03  0.15166451379E+04  0.46999998093E+01 0.  1.
</event>
<event>
 5   0  0.8234888E-06  0.2259331E+04  0.7818609E-02  0.8494131E-01
        1   -1    0    0  501    0  0.00000000000E+00  0.00000000000E+00  0.20710846118E+04  0.20710846118E+04  0.50400001928E-02 0.  1.
       -1   -1    0    0    0  501  0.00000000000E+00  0.00000000000E+00 -0.61617203234E+03  0.61617203236E+03  0.50400001928E-02 0. -1.
    10030    2    1    2    0    0  0.00000000000E+00  0.00000000000E+00  0.14549125795E+04  0.26872566442E+04  0.22593312413E+04 0.  0.
        3    1    3    3  502    0 -0.28569934398E+03  0.86473777240E+03 -0.67532438458E+02  0.91321200748E+03  0.10100000352E+00 0. -1.
       -3    1    3    3    0  502  0.28569934398E+03 -0.86473777240E+03  0.15224450180E+04  0.17740446367E+04  0.10100000352E+00 0.  1.
</event>
<event>
 5   0  0.7971153E-06  0.1468231E+04  0.7818609E-02  0.8905858E-01
        1   -1    0    0  501    0  0.00000000000E+00  0.00000000000E+00  0.11083236954E+04  0.11083236954E+04  0.50400001928E-02 0. -1.
       -1   -1    0    0    0  501  0.00000000000E+00  0.00000000000E+00 -0.48625308282E+03  0.48625308284E+03  0.50400001928E-02 0.  1.
    10030    2    1    2    0    0  0.00000000000E+00  0.00000000000E+00  0.62207061254E+03  0.15945767782E+04  0.14682313355E+04 0.  0.
        5    1    3    3  502    0 -0.72496485178E+03 -0.56635849682E+02  0.42030143818E+03  0.83991490326E+03  0.46999998093E+01 0.  1.
       -5    1    3    3    0  502  0.72496485178E+03  0.56635849682E+02  0.20176917436E+03  0.75466187495E+03  0.46999998093E+01 0. -1.
</event>
<event>
 5   0  0.1976233E-05  0.2818861E+04  0.7818609E-02  0.8297436E-01
        2   -1    0    0  501    0  0.00000000000E+00  0.00000000000E+00  0.81885880272E+03  0.81885880273E+03  0.25500000920E-02 0. -1.
       -2   -1    0    0    0  501  0.00000000000E+00  0.00000000000E+00 -0.24259309393E+04  0.24259309393E+04  0.25500000920E-02 0.  1.
    10030    2    1    2    0    0  0.00000000000E+00  0.00000000000E+00 -0.16070721366E+04  0.32447897420E+04  0.28188614045E+04 0.  0.
        2    1    3    3  502    0  0.88384300372E+03 -0.90578177858E+03 -0.15176592807E+04  0.19760842031E+04  0.25500000920E-02 0.  1.
       -2    1    3    3    0  502 -0.88384300372E+03  0.90578177858E+03 -0.89412855903E+02  0.12687055389E+04  0.25500000920E-02 0. -1.
</event>
<event>
 5   0  0.1829810E-05  0.1652712E+04  0.7818609E-02  0.8788804E-01
        2   -1    0    0  501    0  0.00000000000E+00  0.00000000000E+00  0.24385264582E+04  0.24385264582E+04  0.25500000920E-02 0. -1.
       -2   -1    0    0    0  501  0.00000000000E+00  0.00000000000E+00 -0.28003151151E+03  0.28003151152E+03  0.25500000920E-02 0.  1.
    10030    2    1    2    0    0  0.00000000000E+00  0.00000000000E+00  0.21584949467E+04  0.27185579698E+04  0.16527120136E+04 0.  0.
        4    1    3    3  502    0 -0.30445784868E+03  0.57656548869E+03  0.24415883905E+03  0.69623092143E+03  0.12699999809E+01 0.  1.
       -4    1    3    3    0  502  0.30445784868E+03 -0.57656548869E+03  0.19143361077E+04  0.20223270483E+04  0.12699999809E+01 0. -1.
</event>
<event>
 5   0  0.8234888E-06  0.2818074E+04  0.7818609E-02  0.8297679E-01
        1   -1    0    0  501    0  0.00000000000E+00  0.00000000000E+00  0.16892232584E+04  0.16892232584E+04  0.50400001928E-02 0.  1.
       -1   -1    0    0    0  501  0.00000000000E+00  0.00000000000E+00 -0.11753244888E+04  0.11753244888E+04  0.50400001928E-02 0. -1.
    10030    2    1    2    0    0  0.00000000000E+00  0.00000000000E+00  0.51389876955E+03  0.28645477472E+04  0.28180741386E+04 0.  0.
        3    1    3    3  502    0 -0.81106899577E+03  0.20211171621E+03  0.14099854029E+04  0.16391280940E+04  0.10100000352E+00 0.  1.
       -3    1    3    3    0  502  0.81106899577E+03 -0.20211171621E+03 -0.89608663340E+03  0.12254196532E+04  0.10100000352E+00 0. -1.
</event>
<event>
 5   0  0.1976233E-05  0.2956464E+04  0.7818609E-02  0.8256273E-01
        2   -1    0    0  501    0  0.00000000000E+00  0.00000000000E+00  0.15684879085E+04  0.15684879085E+04  0.25500000920E-02 0.  1.
       -2   -1    0    0    0  501  0.00000000000E+00  0.00000000000E+00 -0.13931701241E+04  0.13931701241E+04  0.25500000920E-02 0. -1.
    10030    2    1    2    0    0  0.00000000000E+00  0.00000000000E+00  0.17531778437E+03  0.29616580325E+04  0.29564644385E+04 0.  0.
        2    1    3    3  502    0  0.61104251358E+03  0.94612360954E+03  0.10467579579E+04  0.15376036747E+04  0.25500000920E-02 0.  1.
       -2    1    3    3    0  502 -0.61104251358E+03 -0.94612360954E+03 -0.87144017358E+03  0.14240543578E+04  0.25500000920E-02 0. -1.
</event>
<event>
 5   0  0.1829810E-05  0.2541491E+04  0.7818609E-02  0.8388352E-01
        2   -1    0    0  501    0  0.00000000000E+00  0.00000000000E+00  0.11214772525E+04  0.11214772525E+04  0.25500000920E-02 0.  1.
       -2   -1    0    0    0  501  0.00000000000E+00  0.00000000000E+00 -0.14398809937E+04  0.14398809937E+04  0.25500000920E-02 0. -1.
    10030    2    1    2    0    0  0.00000000000E+00  0.00000000000E+00 -0.31840374116E+03  0.25613582462E+04  0.25414907285E+04 0.  0.
        4    1    3    3  502    0 -0.12417762546E+04 -0.26973789773E+03 -0.15412583015E+03  0.12800481180E+04  0.12699999809E+01 0.  1.
       -4    1    3    3    0  502  0.12417762546E+04  0.26973789773E+03 -0.16427791100E+03  0.12813101283E+04  0.12699999809E+01 0. -1.
</event>
<event>
 5   0  0.1937947E-05  0.2365491E+04  0.7818609E-02  0.8452537E-01
       -2   -1    0    0    0  501  0.00000000000E+00  0.00000000000E+00  0.64717788448E+03  0.64717788449E+03  0.25500000920E-02 0.  1.
        2   -1    0    0  501    0  0.00000000000E+00  0.00000000000E+00 -0.21615179498E+04  0.21615179498E+04  0.25500000920E-02 0. -1.
    10030    2    1    2    0    0  0.00000000000E+00  0.00000000000E+00 -0.15143400653E+04  0.28086958343E+04  0.23654907432E+04 0.  0.
        3    1    3    3  502    0 -0.67454750308E+03 -0.39252348572E+03  0.29804594245E+03  0.83541631225E+03  0.10100000352E+00 0.  1.
       -3    1    3    3    0  502  0.67454750308E+03  0.39252348572E+03 -0.18123860078E+04  0.19732795220E+04  0.10100000352E+00 0. -1.
</event>
<event>
 5   0  0.7971153E-06  0.1479592E+04  0.7818609E-02  0.8898139E-01
        1   -1    0    0  501    0  0.00000000000E+00  0.00000000000E+00  0.94586162341E+03  0.94586162343E+03  0.50400001928E-02 0.  1.
       -1   -1    0    0    0  501  0.00000000000E+00  0.00000000000E+00 -0.57862367540E+03  0.57862367542E+03  0.50400001928E-02 0. -1.
    10030    2    1    2    0    0  0.00000000000E+00  0.00000000000E+00  0.36723794802E+03  0.15244852988E+04  0.14795917396E+04 0.  0.
        5    1    3    3  502    0 -0.13714443641E+03  0.53255834211E+03 -0.32621688865E+03  0.63942672186E+03  0.46999998093E+01 0. -1.
       -5    1    3    3    0  502  0.13714443641E+03 -0.53255834211E+03  0.69345483667E+03  0.88505857698E+03  0.46999998093E+01 0.  1.
</event>
<event>
 5   0  0.1976233E-05  0.2608115E+04  0.7818609E-02  0.8365450E-01
        2   -1    0    0  501    0  0.00000000000E+00  0.00000000000E+00  0.18671667610E+04  0.18671667610E+04  0.25500000920E-02 0.  1.
       -2   -1    0    0    0  501  0.00000000000E+00  0.00000000000E+00 -0.91077314158E+03  0.91077314158E+03  0.25500000920E-02 0. -1.
    10030    2    1    2    0    0  0.00000000000E+00  0.00000000000E+00  0.95639361939E+03  0.27779399025E+04  0.26081145195E+04 0.  0.
        2    1    3    3  502    0  0.36146093377E+03 -0.19825254315E+03  0.17959317862E+04  0.18426418692E+04  0.25500000920E-02 0.  1.
       -2    1    3    3    0  502 -0.36146093377E+03  0.19825254315E+03 -0.83953816684E+03  0.93529803330E+03  0.25500000920E-02 0. -1.
</event>
<event>
 5   0  0.6578125E-06  0.2845853E+04  0.7818609E-02  0.8289173E-01
        3   -1    0    0  501    0  0.00000000000E+00  0.00000000000E+00  0.24439137182E+04  0.24439137203E+04  0.10100000352E+00 0. -1.
       -3   -1    0    0    0  501  0.00000000000E+00  0.00000000000E+00 -0.82847420998E+03  0.82847421614E+03  0.10100000352E+00 0.  1.
    10030    2    1    2    0    0  0.00000000000E+00  0.00000000000E+00  0.16154395082E+04  0.32723879364E+04  0.28458527723E+04 0.  0.
        3    1    3    3  502    0  0.92304731678E+03 -0.76244488636E+03  0.16919920418E+04  0.20727217936E+04  0.10100000352E+00 0. -1.
       -3    1    3    3    0  502 -0.92304731678E+03  0.76244488636E+03 -0.76552533591E+02  0.11996661429E+04  0.10100000352E+00 0.  1.
</event>
<event>
 5   0  0.7305460E-06  0.2617540E+04  0.7818609E-02  0.8362268E-01
       -1   -1    0    0    0  501  0.00000000000E+00  0.00000000000E+00  0.12709333970E+04  0.12709333970E+04  0.50400001928E-02 0. -1.
        1   -1    0    0  501    0  0.00000000000E+00  0.00000000000E+00 -0.13477332331E+04  0.13477332331E+04  0.50400001928E-02 0.  1.
    10030    2    1    2    0    0  0.00000000000E+00  0.00000000000E+00 -0.76799836089E+02  0.26186666301E+04  0.26175402012E+04 0.  0.
        4    1    3    3  502    0  0.86533333267E+03  0.37499649050E+03  0.86943393187E+03  0.12827085091E+04  0.12699999809E+01 0. -1.
       -4    1    3    3    0  502 -0.86533333267E+03 -0.37499649050E+03 -0.94623376796E+03  0.13359581210E+04  0.12699999809E+01 0.  1.
</event>
<event>
 5   0  0.1976233E-05  0.1798417E+04  0.7818609E-02  0.8707142E-01
        2   -1    0    0  501    0  0.00000000000E+00  0.00000000000E+00  0.28152019765E+04  0.28152019765E+04  0.25500000920E-02 0. -1.
       -2   -1    0    0    0  501  0.00000000000E+00  0.00000000000E+00 -0.28721775019E+03  0.28721775020E+03  0.25500000920E-02 0.  1.
    10030    2    1    2    0    0  0.00000000000E+00  0.00000000000E+00  0.25279842263E+04  0.31024197267E+04  0.17984170573E+04 0.  0.
        2    1    3    3  502    0 -0.30525844433E+03 -0.78345527580E+03  0.71415006034E+03  0.11031750522E+04  0.25500000920E-02 0.  1.
       -2    1    3    3    0  502  0.30525844433E+03  0.78345527580E+03  0.18138341659E+04  0.19992446745E+04  0.25500000920E-02 0. -1.
</event>
<event>
 5   0  0.7971153E-06  0.2910230E+04  0.7818609E-02  0.8269840E-01
       -1   -1    0    0    0  501  0.00000000000E+00  0.00000000000E+00  0.96836566350E+03  0.96836566351E+03  0.50400001928E-02 0.  1.
        1   -1    0    0  501    0  0.00000000000E+00  0.00000000000E+00 -0.21865295889E+04  0.21865295890E+04  0.50400001928E-02 0. -1.
    10030    2    1    2    0    0  0.00000000000E+00  0.00000000000E+00 -0.12181639254E+04  0.31548952525E+04  0.29102303525E+04 0.  0.
        5    1    3    3  502    0  0.10479806484E+04 -0.22489802159E+03 -0.16759393978E+04  0.19893811888E+04  0.46999998093E+01 0. -1.
       -5    1    3    3    0  502 -0.10479806484E+04  0.22489802159E+03  0.45777547232E+03  0.11655140636E+04  0.46999998093E+01 0.  1.
</event>
<event>
 5   0  0.7971153E-06  0.2996897E+04  0.7818609E-02  0.8244617E-01
        1   -1    0    0  501    0  0.00000000000E+00  0.00000000000E+00  0.23429802316E+04  0.23429802316E+04  0.50400001928E-02 0. -1.
       -1   -1    0    0    0  501  0.00000000000E+00  0.00000000000E+00 -0.95833015651E+03  0.95833015652E+03  0.50400001928E-02 0.  1.
    10030    2    1    2    0    0  0.00000000000E+00  0.00000000000E+00  0.13846500751E+04  0.33013103881E+04  0.29968974704E+04 0.  0.
        5    1    3    3  502    0  0.78495548142E+03 -0.12644796263E+04  0.88395712482E+03  0.17310303642E+04  0.46999998093E+01 0. -1.
       -5    1    3    3    0  502 -0.78495548142E+03  0.12644796263E+04  0.50069295023E+03  0.15702800239E+04  0.46999998093E+01 0.  1.
</event>
<event>
 5   0  0.8234888E-06  0.2888985E+04  0.7818609E-02  0.8276162E-01
        1   -1    0    0  501    0  0.00000000000E+00  0.00000000000E+00  0.18866362388E+04  0.18866362389E+04  0.50400001928E-02 0. -1.
       -1   -1    0    0    0  501  0.00000000000E+00  0.00000000000E+00 -0.11059678110E+04  0.11059678110E+04  0.50400001928E-02 0.  1.
    10030    2    1    2    0    0  0.00000000000E+00  0.00000000000E+00  0.78066842785E+03  0.29926040499E+04  0.28889852552E+04 0.  0.
        3    1    3    3  502    0  0.11156689128E+04  0.50970940218E+03  0.11806117868E+04  0.17024585161E+04  0.10100000352E+00 0. -1.
       -3    1    3    3    0  502 -0.11156689128E+04 -0.50970940218E+03 -0.39994335893E+03  0.12901455338E+04  0.10100000352E+00 0.  1.
</event>
<event>
 5   0  0.8055928E-06  0.2982784E+04  0.7818609E-02  0.8248664E-01
        1   -1    0    0  501    0  0.00000000000E+00  0.00000000000E+00  0.19743312087E+04  0.19743312087E+04  0.50400001928E-02 0. -1.
       -1   -1    0    0    0  501  0.00000000000E+00  0.00000000000E+00 -0.11265843061E+04  0.11265843061E+04  0.50400001928E-02 0.  1.
    10030    2    1    2    0    0  0.00000000000E+00  0.00000000000E+00  0.84774690268E+03  0.31009155148E+04  0.29827843065E+04 0.  0.
        2    1    3    3  502    0  0.14704745008E+04  0.24484179416E+03  0.37729043906E+03  0.15377226138E+04  0.25500000920E-02 0. -1.
       -2    1    3    3    0  502 -0.14704745008E+04 -0.24484179416E+03  0.47045646362E+03  0.15631929010E+04  0.25500000920E-02 0.  1.
</event>
<event>
 5   0  0.1960961E-05  0.2645376E+04  0.7818609E-02  0.8352949E-01
        2   -1    0    0  501    0  0.00000000000E+00  0.00000000000E+00  0.12905175013E+04  0.12905175013E+04  0.25500000920E-02 0.  1.
       -2   -1    0    0    0  501  0.00000000000E+00  0.00000000000E+00 -0.13556605953E+04  0.13556605953E+04  0.25500000920E-02 0. -1.
    10030    2    1    2    0    0  0.00000000000E+00  0.00000000000E+00 -0.65143093945E+02  0.26461780966E+04  0.26453761351E+04 0.  0.
        5    1    3    3  502    0 -0.60529534908E+03  0.97072542158E+03  0.63155090248E+03  0.13067398119E+04  0.46999998093E+01 0.  1.
       -5    1    3    3    0  502  0.60529534908E+03 -0.97072542158E+03 -0.69669399643E+03  0.13394382846E+04  0.46999998093E+01 0. -1.
</event>
<event>
 5   0  0.7305460E-06  0.3082265E+04  0.7818609E-02  0.8220622E-01
        1   -1    0    0  501    0  0.00000000000E+00  0.00000000000E+00  0.21306939028E+04  0.21306939028E+04  0.50400001928E-02 0.  1.
       -1   -1    0    0    0  501  0.00000000000E+00  0.00000000000E+00 -0.11147025152E+04  0.11147025152E+04  0.50400001928E-02 0. -1.
    10030    2    1    2    0    0  0.00000000000E+00  0.00000000000E+00  0.10159913876E+04  0.32453964180E+04  0.30822653050E+04 0.  0.
        4    1    3    3  502    0 -0.96401394848E+03  0.12001952075E+04  0.58462677766E+03  0.16466880430E+04  0.12699999809E+01 0.  1.
       -4    1    3    3    0  502  0.96401394848E+03 -0.12001952075E+04  0.43136460994E+03  0.15987083751E+04  0.12699999809E+01 0. -1.
</event>
<event>
 5   0  0.7971153E-06  0.2556069E+04  0.7818609E-02  0.8383278E-01
       -1   -1    0    0    0  501  0.00000000000E+00  0.00000000000E+00  0.15074873674E+04  0.15074873674E+04  0.50400001928E-02 0. -1.
        1   -1    0    0  501    0  0.00000000000E+00  0.00000000000E+00 -0.10835067531E+04  0.10835067531E+04  0.50400001928E-02 0.  1.
    10030    2    1    2    0    0  0.00000000000E+00  0.00000000000E+00  0.42398061422E+03  0.25909941205E+04  0.25560694379E+04 0.  0.
        5    1    3    3  502    0 -0.61824269281E+01 -0.10946787907E+04  0.88054016927E+03  0.14048960662E+04  0.46999998093E+01 0. -1.
       -5    1    3    3    0  502  0.61824269281E+01  0.10946787907E+04 -0.45655955505E+03  0.11860980543E+04  0.46999998093E+01 0.  1.
</event>
<event>
 5   0  0.1976233E-05  0.2761727E+04  0.7818609E-02  0.8315250E-01
       -2   -1    0    0    0  501  0.00000000000E+00  0.00000000000E+00  0.11297508929E+04  0.11297508929E+04  0.25500000920E-02 0. -1.
        2   -1    0    0  501    0  0.00000000000E+00  0.00000000000E+00 -0.16877912888E+04  0.16877912888E+04  0.25500000920E-02 0.  1.
    10030    2    1    2    0    0  0.00000000000E+00  0.00000000000E+00 -0.55804039592E+03  0.28175421816E+04  0.27617267899E+04 0.  0.
        2    1    3    3  502    0 -0.27025948308E+03  0.13323467312E+04 -0.32062457416E+02  0.13598588168E+04  0.25500000920E-02 0. -1.
       -2    1    3    3    0  502  0.27025948308E+03 -0.13323467312E+04 -0.52597793850E+03  0.14576833649E+04  0.25500000920E-02 0.  1.
</event>
<event>
 5   0  0.8055928E-06  0.2884870E+04  0.7818609E-02  0.8277393E-01
        1   -1    0    0  501    0  0.00000000000E+00  0.00000000000E+00  0.72503606308E+03  0.72503606310E+03  0.50400001928E-02 0. -1.
       -1   -1    0    0    0  501  0.00000000000E+00  0.00000000000E+00 -0.28696758435E+04  0.28696758435E+04  0.50400001928E-02 0.  1.
    10030    2    1    2    0    0  0.00000000000E+00  0.00000000000E+00 -0.21446397805E+04  0.35947119066E+04  0.28848698244E+04 0.  0.
        2    1    3    3  502    0 -0.13557498400E+04  0.53857832653E+02 -0.46231149680E+03  0.14334190647E+04  0.25500000920E-02 0.  1.
       -2    1    3    3    0  502  0.13557498400E+04 -0.53857832653E+02 -0.16823282837E+04  0.21612928420E+04  0.25500000920E-02 0. -1.
</event>
<event>
 5   0  0.1960961E-05  0.2907069E+04  0.7818609E-02  0.8270777E-01
       -2   -1    0    0    0  501  0.00000000000E+00  0.00000000000E+00  0.12158134577E+04  0.12158134577E+04  0.25500000920E-02 0. -1.
        2   -1    0    0  501    0  0.00000000000E+00  0.00000000000E+00 -0.17377362977E+04  0.17377362977E+04  0.25500000920E-02 0.  1.
    10030    2    1    2    0    0  0.00000000000E+00  0.00000000000E+00 -0.52192284005E+03  0.29535497554E+04  0.29070694362E+04 0.  0.
        5    1    3    3  502    0  0.28246742754E+03 -0.18600009173E+03  0.11752733835E+04  0.12229773088E+04  0.46999998093E+01 0. -1.
       -5    1    3    3    0  502 -0.28246742754E+03  0.18600009173E+03 -0.16971962236E+04  0.17305724466E+04  0.46999998093E+01 0.  1.
</event>
<event>
 5   0  0.8122088E-06  0.2826620E+04  0.7818609E-02  0.8295051E-01
       -1   -1    0    0    0  501  0.00000000000E+00  0.00000000000E+00  0.13740442049E+04  0.13740442049E+04  0.50400001928E-02 0. -1.
        1   -1    0    0  501    0  0.00000000000E+00  0.00000000000E+00 -0.14536974306E+04  0.14536974306E+04  0.50400001928E-02 0.  1.
    10030    2    1    2    0    0  0.00000000000E+00  0.00000000000E+00 -0.79653225702E+02  0.28277416355E+04  0.28266195571E+04 0.  0.
        1    1    3    3  502    0  0.89324664368E+02  0.13521956565E+04 -0.44127451247E+03  0.14251790008E+04  0.50400001928E-02 0. -1.
       -1    1    3    3    0  502 -0.89324664368E+02 -0.13521956565E+04  0.36162128676E+03  0.14025626346E+04  0.50400001928E-02 0.  1.
</event>
<event>
 5   0  0.1937947E-05  0.2822993E+04  0.7818609E-02  0.8296165E-01
        2   -1    0    0  501    0  0.00000000000E+00  0.00000000000E+00  0.10323668379E+04  0.10323668379E+04  0.25500000920E-02 0. -1.
       -2   -1    0    0    0  501  0.00000000000E+00  0.00000000000E+00 -0.19298589043E+04  0.19298589043E+04  0.25500000920E-02 0.  1.
    10030    2    1    2    0    0  0.00000000000E+00  0.00000000000E+00 -0.89749206637E+03  0.29622257422E+04  0.28229929752E+04 0.  0.
        3    1    3    3  502    0 -0.58980717860E+03 -0.46336751630E+02 -0.17934756207E+04  0.18885376392E+04  0.10100000352E+00 0.  1.
       -3    1    3    3    0  502  0.58980717860E+03  0.46336751630E+02  0.89598355436E+03  0.10736881029E+04  0.10100000352E+00 0. -1.
</event>
<event>
 5   0  0.1960961E-05  0.2945818E+04  0.7818609E-02  0.8259374E-01
       -2   -1    0    0    0  501  0.00000000000E+00  0.00000000000E+00  0.20853007069E+04  0.20853007069E+04  0.25500000920E-02 0. -1.
        2   -1    0    0  501    0  0.00000000000E+00  0.00000000000E+00 -0.10403586716E+04  0.10403586716E+04  0.25500000920E-02 0.  1.
    10030    2    1    2    0    0  0.00000000000E+00  0.00000000000E+00  0.10449420353E+04  0.31256593785E+04  0.29458178310E+04 0.  0.
        5    1    3    3  502    0 -0.12530622833E+04  0.46570436431E+03  0.11786022276E+04  0.17821815120E+04  0.46999998093E+01 0. -1.
       -5    1    3    3    0  502  0.12530622833E+04 -0.46570436431E+03 -0.13366019230E+03  0.13434778665E+04  0.46999998093E+01 0.  1.
</event>
<event>
 5   0  0.8122088E-06  0.1844029E+04  0.7818609E-02  0.8683229E-01
        1   -1    0    0  501    0  0.00000000000E+00  0.00000000000E+00  0.13298427651E+04  0.13298427651E+04  0.50400001928E-02 0. -1.
       -1   -1    0    0    0  501  0.00000000000E+00  0.00000000000E+00 -0.63925666206E+03  0.63925666208E+03  0.50400001928E-02 0.  1.
    10030    2    1    2    0    0  0.00000000000E+00  0.00000000000E+00  0.69058610306E+03  0.19690994272E+04  0.18440291181E+04 0.  0.
        1    1    3    3  502    0  0.23416103341E+03 -0.32181553817E+03 -0.54280971371E+03  0.67308173018E+03  0.50400001928E-02 0.  1.
       -1    1    3    3    0  502 -0.23416103341E+03  0.32181553817E+03  0.12333958168E+04  0.12960176970E+04  0.50400001928E-02 0. -1.
</event>
<event>
 5   0  0.1976233E-05  0.2851270E+04  0.7818609E-02  0.8287525E-01
        2   -1    0    0  501    0  0.00000000000E+00  0.00000000000E+00  0.12093675549E+04  0.12093675549E+04  0.25500000920E-02 0. -1.
       -2   -1    0    0    0  501  0.00000000000E+00  0.00000000000E+00 -0.16805772557E+04  0.16805772557E+04  0.25500000920E-02 0.  1.
    10030    2    1    2    0    0  0.00000000000E+00  0.00000000000E+00 -0.47120970086E+03  0.28899448106E+04  0.28512703179E+04 0.  0.
        2    1    3    3  502    0  0.10571878543E+03  0.17941214329E+03  0.11938690698E+04  0.12118946054E+04  0.25500000920E-02 0. -1.
       -2    1    3    3    0  502 -0.10571878543E+03 -0.17941214329E+03 -0.16650787706E+04  0.16780502052E+04  0.25500000920E-02 0.  1.
</event>
<event>
 5   0  0.1960961E-05  0.2833671E+04  0.7818609E-02  0.8292891E-01
       -2   -1    0    0    0  501  0.00000000000E+00  0.00000000000E+00  0.93750298027E+03  0.93750298027E+03  0.25500000920E-02 0.  1.
        2   -1    0    0  501    0  0.00000000000E+00  0.00000000000E+00 -0.21412434856E+04  0.21412434856E+04  0.25500000920E-02 0. -1.
    10030    2    1    2    0    0  0.00000000000E+00  0.00000000000E+00 -0.12037405054E+04  0.30787464659E+04  0.28336705167E+04 0.  0.
        5    1    3    3  502    0 -0.42932591413E+03 -0.13440864463E+04 -0.46226218352E+03  0.14847887163E+04  0.46999998093E+01 0. -1.
       -5    1    3    3    0  502  0.42932591413E+03  0.13440864463E+04 -0.74147832185E+03  0.15939577496E+04  0.46999998093E+01 0.  1.
</event>
<event>
 5   0  0.8055928E-06  0.2879376E+04  0.7818609E-02  0.8279040E-01
       -1   -1    0    0    0  501  0.00000000000E+00  0.00000000000E+00  0.88912320033E+03  0.88912320034E+03  0.50400001928E-02 0.  1.
        1   -1    0    0  501    0  0.00000000000E+00  0.00000000000E+00 -0.23311750815E+04  0.23311750815E+04  0.50400001928E-02 0. -1.
    10030    2    1    2    0    0  0.00000000000E+00  0.00000000000E+00 -0.14420518811E+04  0.32202982818E+04  0.28793762165E+04 0.  0.
        2    1    3    3  502    0 -0.55454123364E+03  0.77764920493E+03 -0.19258134364E+04  0.21496538459E+04  0.25500000920E-02 0. -1.
       -2    1    3    3    0  502  0.55454123364E+03 -0.77764920493E+03  0.48376155522E+03  0.10706444359E+04  0.25500000920E-02 0.  1.
</event>
<event>
 5   0  0.1937947E-05  0.2904666E+04  0.7818609E-02  0.8271491E-01
       -2   -1    0    0    0  501  0.00000000000E+00  0.00000000000E+00  0.20807121119E+04  0.20807121119E+04  0.25500000920E-02 0. -1.
        2   -1    0    0  501    0  0.00000000000E+00  0.00000000000E+00 -0.10137256187E+04  0.10137256187E+04  0.25500000920E-02 0.  1.
    10030    2    1    2    0    0  0.00000000000E+00  0.00000000000E+00  0.10669864932E+04  0.30944377306E+04  0.29046660207E+04 0.  0.
        3    1    3    3  502    0  0.10315515338E+03  0.14485728040E+04  0.55090121633E+03  0.15532212703E+04  0.10100000352E+00 0. -1.
       -3    1    3    3    0  502 -0.10315515338E+03 -0.14485728040E+04  0.51608527686E+03  0.15412164603E+04  0.10100000352E+00 0.  1.
</event>
<event>
 5   0  0.7305460E-06  0.2233088E+04  0.7818609E-02  0.8504781E-01
        1   -1    0    0  501    0  0.00000000000E+00  0.00000000000E+00  0.95517453908E+03  0.95517453910E+03  0.50400001928E-02 0.  1.
       -1   -1    0    0    0  501  0.00000000000E+00  0.00000000000E+00 -0.13051753089E+04  0.13051753089E+04  0.50400001928E-02 0. -1.
    10030    2    1    2    0    0  0.00000000000E+00  0.00000000000E+00 -0.35000076984E+03  0.22603498480E+04  0.22330877494E+04 0.  0.
        4    1    3    3  502    0  0.49738726228E+03 -0.92753249478E+03  0.20232119237E+03  0.10717490823E+04  0.12699999809E+01 0.  1.
       -4    1    3    3    0  502 -0.49738726228E+03  0.92753249478E+03 -0.55232196221E+03  0.11886007658E+04  0.12699999809E+01 0. -1.
</event>
<event>
 5   0  0.7971153E-06  0.2947434E+04  0.7818609E-02  0.8258903E-01
       -1   -1    0    0    0  501  0.00000000000E+00  0.00000000000E+00  0.79469403602E+03  0.79469403604E+03  0.50400001928E-02 0. -1.
        1   -1    0    0  501    0  0.00000000000E+00  0.00000000000E+00 -0.27329281297E+04  0.27329281297E+04  0.50400001928E-02 0.  1.
    10030    2    1    2    0    0  0.00000000000E+00  0.00000000000E+00 -0.19382340937E+04  0.35276221658E+04  0.29474339250E+04 0.  0.
        5    1    3    3  502    0  0.10321451838E+04 -0.77862696612E+03 -0.12262001395E+03  0.12987075848E+04  0.46999998093E+01 0. -1.
       -5    1    3    3    0  502 -0.10321451838E+04  0.77862696612E+03 -0.18156140797E+04  0.22289145810E+04  0.46999998093E+01 0.  1.
</event>
<event>
 5   0  0.7971153E-06  0.1454450E+04  0.7818609E-02  0.8915321E-01
        1   -1    0    0  501    0  0.00000000000E+00  0.00000000000E+00  0.22385757546E+04  0.22385757546E+04  0.50400001928E-02 0.  1.
       -1   -1    0    0    0  501  0.00000000000E+00  0.00000000000E+00 -0.23624677678E+03  0.23624677683E+03  0.50400001928E-02 0. -1.
    10030    2    1    2    0    0  0.00000000000E+00  0.00000000000E+00  0.20023289779E+04  0.24748225315E+04  0.14544501458E+04 0.  0.
        5    1    3    3  502    0 -0.20057262203E+03  0.36155775041E+03 -0.16757372475E+02  0.41383122541E+03  0.46999998093E+01 0. -1.
       -5    1    3    3    0  502  0.20057262203E+03 -0.36155775041E+03  0.20190863503E+04  0.20609913061E+04  0.46999998093E+01 0.  1.
</event>
<event>
 5   0  0.6578125E-06  0.2890014E+04  0.7818609E-02  0.8275855E-01
       -3   -1    0    0    0  501  0.00000000000E+00  0.00000000000E+00  0.11358494371E+04  0.11358494416E+04  0.10100000352E+00 0.  1.
        3   -1    0    0  501    0  0.00000000000E+00  0.00000000000E+00 -0.18383118214E+04  0.18383118242E+04  0.10100000352E+00 0. -1.
    10030    2    1    2    0    0  0.00000000000E+00  0.00000000000E+00 -0.70246238430E+03  0.29741612658E+04  0.28900141580E+04 0.  0.
        5    1    3    3  502    0 -0.92298355687E+03  0.88196592412E+03  0.34542886650E+03  0.13225376098E+04  0.46999998093E+01 0.  1.
       -5    1    3    3    0  502  0.92298355687E+03 -0.88196592412E+03 -0.10478912508E+04  0.16516236560E+04  0.46999998093E+01 0. -1.
</event>
<event>
 5   0  0.1937947E-05  0.2858980E+04  0.7818609E-02  0.8285188E-01
       -2   -1    0    0    0  501  0.00000000000E+00  0.00000000000E+00  0.99533442619E+03  0.99533442620E+03  0.25500000920E-02 0. -1.
        2   -1    0    0  501    0  0.00000000000E+00  0.00000000000E+00 -0.20530198099E+04  0.20530198099E+04  0.25500000920E-02 0.  1.
    10030    2    1    2    0    0  0.00000000000E+00  0.00000000000E+00 -0.10576853837E+04  0.30483542361E+04  0.28589797442E+04 0.  0.
        3    1    3    3  502    0  0.46984701978E+03 -0.41106304320E+03 -0.18999906608E+04  0.19999233907E+04  0.10100000352E+00 0.  1.
       -3    1    3    3    0  502 -0.46984701978E+03  0.41106304320E+03  0.84230527709E+03  0.10484308454E+04  0.10100000352E+00 0. -1.
</event>
<event>
 5   0  0.7971153E-06  0.2601141E+04  0.7818609E-02  0.8367814E-01
       -1   -1    0    0    0  501  0.00000000000E+00  0.00000000000E+00  0.16334304114E+04  0.16334304114E+04  0.50400001928E-02 0.  1.
        1   -1    0    0  501    0  0.00000000000E+00  0.00000000000E+00 -0.10355407166E+04  0.10355407166E+04  0.50400001928E-02 0. -1.
    10030    2    1    2    0    0  0.00000000000E+00  0.00000000000E+00  0.59788969480E+03  0.26689711280E+04  0.26011410564E+04 0.  0.
        5    1    3    3  502    0  0.63917314906E+03  0.66986166506E+03  0.12361103061E+04  0.15444247290E+04  0.46999998093E+01 0.  1.
       -5    1    3    3    0  502 -0.63917314906E+03 -0.66986166506E+03 -0.63822061130E+03  0.11245463990E+04  0.46999998093E+01 0. -1.
</event>
<event>
 5   0  0.7971153E-06  0.2925924E+04  0.7818609E-02  0.8265206E-01
        1   -1    0    0  501    0  0.00000000000E+00  0.00000000000E+00  0.20056273125E+04  0.20056273125E+04  0.50400001928E-02 0. -1.
       -1   -1    0    0    0  501  0.00000000000E+00  0.00000000000E+00 -0.10671265517E+04  0.10671265517E+04  0.50400001928E-02 0.  1.
    10030    2    1    2    0    0  0.00000000000E+00  0.00000000000E+00  0.93850076083E+03  0.30727538642E+04  0.29259242355E+04 0.  0.
        5    1    3    3  502    0 -0.99017241616E+03 -0.10735279687E+04  0.37932414190E+03  0.15089110669E+04  0.46999998093E+01 0.  1.
       -5    1    3    3    0  502  0.99017241616E+03  0.10735279687E+04  0.55917661894E+03  0.15638427972E+04  0.46999998093E+01 0. -1.
</event>
<event>
 5   0  0.1937947E-05  0.2911005E+04  0.7818609E-02  0.8269611E-01
       -2   -1    0    0    0  501  0.00000000000E+00  0.00000000000E+00  0.93234613135E+03  0.93234613135E+03  0.25500000920E-02 0.  1.
        2   -1    0    0  501    0  0.00000000000E+00  0.00000000000E+00 -0.22722109101E+04  0.22722109101E+04  0.25500000920E-02 0. -1.
    10030    2    1    2    0    0  0.00000000000E+00  0.00000000000E+00 -0.13398647788E+04  0.32045570415E+04  0.29110046731E+04 0.  0.
        3    1    3    3  502    0  0.10318623385E+03  0.14401972443E+04 -0.87193481955E+03  0.16867382254E+04  0.10100000352E+00 0. -1.
       -3    1    3    3    0  502 -0.10318623385E+03 -0.14401972443E+04 -0.46792995925E+03  0.15178188161E+04  0.10100000352E+00 0.  1.
</event>
<event>
 5   0  0.1918901E-05  0.2816317E+04  0.7818609E-02  0.8298220E-01
       -2   -1    0    0    0  501  0.00000000000E+00  0.00000000000E+00  0.12754238918E+04  0.12754238918E+04  0.25500000920E-02 0. -1.
        2   -1    0    0  501    0  0.00000000000E+00  0.00000000000E+00 -0.15547073802E+04  0.15547073802E+04  0.25500000920E-02 0.  1.
    10030    2    1    2    0    0  0.00000000000E+00  0.00000000000E+00 -0.27928348840E+03  0.28301312720E+04  0.28163174092E+04 0.  0.
        1    1    3    3  502    0  0.72945334568E+03 -0.35591347434E+02 -0.13495164118E+04  0.15344586907E+04  0.50400001928E-02 0.  1.
       -1    1    3    3    0  502 -0.72945334568E+03  0.35591347434E+02  0.10702329234E+04  0.12956725813E+04  0.50400001928E-02 0. -1.
</event>
<event>
 5   0  0.1829810E-05  0.2923310E+04  0.7818609E-02  0.8265976E-01
        2   -1    0    0  501    0  0.00000000000E+00  0.00000000000E+00  0.13453172594E+04  0.13453172594E+04  0.25500000920E-02 0. -1.
       -2   -1    0    0    0  501  0.00000000000E+00  0.00000000000E+00 -0.15880533945E+04  0.15880533945E+04  0.25500000920E-02 0.  1.
    10030    2    1    2    0    0  0.00000000000E+00  0.00000000000E+00 -0.24273613515E+03  0.29333706539E+04  0.29233102062E+04 0.  0.
        4    1    3    3  502    0 -0.17418061915E+03 -0.12884701006E+04 -0.79145357523E+03  0.15221348373E+04  0.12699999809E+01 0.  1.
       -4    1    3    3    0  502  0.17418061915E+03  0.12884701006E+04  0.54871744008E+03  0.14112358166E+04  0.12699999809E+01 0. -1.
</event>
<event>
 5   0  0.8055928E-06  0.2635557E+04  0.7818609E-02  0.8356223E-01
        1   -1    0    0  501    0  0.00000000000E+00  0.00000000000E+00  0.10732881671E+04  0.10732881671E+04  0.50400001928E-02 0. -1.
       -1   -1    0    0    0  501  0.00000000000E+00  0.00000000000E+00 -0.16179622576E+04  0.16179622576E+04  0.50400001928E-02 0.  1.
    10030    2    1    2    0    0  0.00000000000E+00  0.00000000000E+00 -0.54467409051E+03  0.26912504247E+04  0.26355566743E+04 0.  0.
        2    1    3    3  502    0  0.32464535379E+03  0.84550417584E+03  0.70510939854E+03  0.11478027622E+04  0.25500000920E-02 0. -1.
       -2    1    3    3    0  502 -0.32464535379E+03 -0.84550417584E+03 -0.12497834890E+04  0.15434476624E+04  0.25500000920E-02 0.  1.
</event>
<event>
 5   0  0.1960961E-05  0.2564307E+04  0.7818609E-02  0.8380427E-01
       -2   -1    0    0    0  501  0.00000000000E+00  0.00000000000E+00  0.23185449182E+04  0.23185449182E+04  0.25500000920E-02 0. -1.
        2   -1    0    0  501    0  0.00000000000E+00  0.00000000000E+00 -0.70903012678E+03  0.70903012679E+03  0.25500000920E-02 0.  1.
    10030    2    1    2    0    0  0.00000000000E+00  0.00000000000E+00  0.16095147914E+04  0.30275750450E+04  0.25643074678E+04 0.  0.
        5    1    3    3  502    0  0.77927374215E+03  0.62403174709E+03 -0.14507813033E+03  0.10088374202E+04  0.46999998093E+01 0.  1.
       -5    1    3    3    0  502 -0.77927374215E+03 -0.62403174709E+03  0.17545929217E+04  0.20187376248E+04  0.46999998093E+01 0. -1.
</event>
<event>
 5   0  0.7305460E-06  0.2906789E+04  0.7818609E-02  0.8270860E-01
       -1   -1    0    0    0  501  0.00000000000E+00  0.00000000000E+00  0.13904243721E+04  0.13904243722E+04  0.50400001928E-02 0.  1.
        1   -1    0    0  501    0  0.00000000000E+00  0.00000000000E+00 -0.15192165747E+04  0.15192165747E+04  0.50400001928E-02 0. -1.
    10030    2    1    2    0    0  0.00000000000E+00  0.00000000000E+00 -0.12879220258E+03  0.29096409469E+04  0.29067891235E+04 0.  0.
        4    1    3    3  502    0 -0.51797962847E+03 -0.12190388092E+04  0.53451826841E+03  0.14283101575E+04  0.12699999809E+01 0.  1.
       -4    1    3    3    0  502  0.51797962847E+03  0.12190388092E+04 -0.66331047099E+03  0.14813307894E+04  0.12699999809E+01 0. -1.
</event>
<event>
 5   0  0.1918901E-05  0.3051866E+04  0.7818609E-02  0.8229073E-01
       -2   -1    0    0    0  501  0.00000000000E+00  0.00000000000E+00  0.95338457473E+03  0.95338457473E+03  0.25500000920E-02 0.  1.
        2   -1    0    0  501    0  0.00000000000E+00  0.00000000000E+00 -0.24423215162E+04  0.24423215162E+04  0.25500000920E-02 0. -1.
    10030    2    1    2    0    0  0.00000000000E+00  0.00000000000E+00 -0.14889369414E+04  0.33957060909E+04  0.30518660915E+04 0.  0.
        1    1    3    3  502    0 -0.35838321037E+03 -0.62949798005E+03  0.74988951606E+03  0.10426123530E+04  0.50400001928E-02 0.  1.
       -1    1    3    3    0  502  0.35838321037E+03  0.62949798005E+03 -0.22388264575E+04  0.23530937379E+04  0.50400001928E-02 0. -1.
</event>
<event>
 5   0  0.1960961E-05  0.2431025E+04  0.7818609E-02  0.8427979E-01
       -2   -1    0    0    0  501  0.00000000000E+00  0.00000000000E+00  0.75888089628E+03  0.75888089628E+03  0.25500000920E-02 0.  1.
        2   -1    0    0  501    0  0.00000000000E+00  0.00000000000E+00 -0.19469074578E+04  0.19469074578E+04  0.25500000920E-02 0. -1.
    10030    2    1    2    0    0  0.00000000000E+00  0.00000000000E+00 -0.11880265615E+04  0.27057883541E+04  0.24310251965E+04 0.  0.
        5    1    3    3  502    0 -0.99462831018E+03  0.69830558126E+03 -0.61970041604E+03  0.13641725902E+04  0.46999998093E+01 0.  1.
       -5    1    3    3    0  502  0.99462831018E+03 -0.69830558126E+03 -0.56832614548E+03  0.13416157639E+04  0.46999998093E+01 0. -1.
</event>
<event>
 5   0  0.1976233E-05  0.2489743E+04  0.7818609E-02  0.8406649E-01
        2   -1    0    0  501    0  0.00000000000E+00  0.00000000000E+00  0.14994994144E+04  0.14994994144E+04  0.25500000920E-02 0. -1.
       -2   -1    0    0    0  501  0.00000000000E+00  0.00000000000E+00 -0.10334814175E+04  0.10334814175E+04  0.25500000920E-02 0.  1.
    10030    2    1    2    0    0  0.00000000000E+00  0.00000000000E+00  0.46601799691E+03  0.25329808319E+04  0.24897427821E+04 0.  0.
        2    1    3    3  502    0  0.77840755132E+02 -0.11825470721E+04  0.62071509365E+03  0.13378206114E+04  0.25500000920E-02 0. -1.
       -2    1    3    3    0  502 -0.77840755132E+02  0.11825470721E+04 -0.15469709673E+03  0.11951602205E+04  0.25500000920E-02 0.  1.
</event>
<event>
 5   0  0.8122088E-06  0.2931510E+04  0.7818609E-02  0.8263564E-01
        1   -1    0    0  501    0  0.00000000000E+00  0.00000000000E+00  0.22719462286E+04  0.22719462286E+04  0.50400001928E-02 0. -1.
       -1   -1    0    0    0  501  0.00000000000E+00  0.00000000000E+00 -0.94563727411E+03  0.94563727413E+03  0.50400001928E-02 0.  1.
    10030    2    1    2    0    0  0.00000000000E+00  0.00000000000E+00  0.13263089545E+04  0.32175835027E+04  0.29315095351E+04 0.  0.
        1    1    3    3  502    0 -0.43503191255E+03 -0.46044022170E+03 -0.78764444872E+03  0.10107629496E+04  0.50400001928E-02 0.  1.
       -1    1    3    3    0  502  0.43503191255E+03  0.46044022170E+03  0.21139534032E+04  0.22068205531E+04  0.50400001928E-02 0. -1.
</event>
<event>
 5   0  0.7305460E-06  0.2693056E+04  0.7818609E-02  0.8337262E-01
        1   -1    0    0  501    0  0.00000000000E+00  0.00000000000E+00  0.96667526799E+03  0.96667526800E+03  0.50400001928E-02 0.  1.
       -1   -1    0    0    0  501  0.00000000000E+00  0.00000000000E+00 -0.18756430250E+04  0.18756430250E+04  0.50400001928E-02 0. -1.
    10030    2    1    2    0    0  0.00000000000E+00  0.00000000000E+00 -0.90896775698E+03  0.28423182930E+04  0.26930560513E+04 0.  0.
        4    1    3    3  502    0  0.12116849132E+04  0.38253944552E+03 -0.92485223887E+03  0.15715820159E+04  0.12699999809E+01 0. -1.
       -4    1    3    3    0  502 -0.12116849132E+04 -0.38253944552E+03  0.15884481893E+02  0.12707362770E+04  0.12699999809E+01 0.  1.
</event>
<event>
 5   0  0.1976233E-05  0.2871507E+04  0.7818609E-02  0.8281406E-01
        2   -1    0    0  501    0  0.00000000000E+00  0.00000000000E+00  0.19132472883E+04  0.19132472883E+04  0.25500000920E-02 0. -1.
       -2   -1    0    0    0  501  0.00000000000E+00  0.00000000000E+00 -0.10774293288E+04  0.10774293288E+04  0.25500000920E-02 0.  1.
    10030    2    1    2    0    0  0.00000000000E+00  0.00000000000E+00  0.83581795950E+03  0.29906766171E+04  0.28715074380E+04 0.  0.
        2    1    3    3  502    0 -0.10478055117E+04 -0.55936331331E+03  0.12579842873E+04  0.17301179652E+04  0.25500000920E-02 0. -1.
       -2    1    3    3    0  502  0.10478055117E+04  0.55936331331E+03 -0.42216632776E+03  0.12605586519E+04  0.25500000920E-02 0.  1.
</event>
<event>
 5   0  0.1960961E-05  0.1705714E+04  0.7818609E-02  0.8758112E-01
       -2   -1    0    0    0  501  0.00000000000E+00  0.00000000000E+00  0.48570402598E+03  0.48570402599E+03  0.25500000920E-02 0. -1.
        2   -1    0    0  501    0  0.00000000000E+00  0.00000000000E+00 -0.14975475429E+04  0.14975475429E+04  0.25500000920E-02 0.  1.
    10030    2    1    2    0    0  0.00000000000E+00  0.00000000000E+00 -0.10118435169E+04  0.19832515689E+04  0.17057137752E+04 0.  0.
        5    1    3    3  502    0 -0.13120568734E+03  0.43035936535E+03 -0.13483203994E+04  0.14214127146E+04  0.46999998093E+01 0.  1.
       -5    1    3    3    0  502  0.13120568734E+03 -0.43035936535E+03  0.33647688251E+03  0.56183885429E+03  0.46999998093E+01 0. -1.
</event>
<event>
 5   0  0.7305460E-06  0.2883112E+04  0.7818609E-02  0.8277920E-01
        1   -1    0    0  501    0  0.00000000000E+00  0.00000000000E+00  0.13409307813E+04  0.13409307813E+04  0.50400001928E-02 0.  1.
       -1   -1    0    0    0  501  0.00000000000E+00  0.00000000000E+00 -0.15497320532E+04  0.15497320532E+04  0.50400001928E-02 0. -1.
    10030    2    1    2    0    0  0.00000000000E+00  0.00000000000E+00 -0.20880127186E+03  0.28906628345E+04  0.28831118001E+04 0.  0.
        4    1    3    3  502    0 -0.11365694667E+04 -0.71722882909E+03  0.41838079876E+03  0.14075693417E+04  0.12699999809E+01 0.  1.
       -4    1    3    3    0  502  0.11365694667E+04  0.71722882909E+03 -0.62718207062E+03  0.14830934929E+04  0.12699999809E+01 0. -1.
</event>
<event>
 5   0  0.8055928E-06  0.2605377E+04  0.7818609E-02  0.8366377E-01
       -1   -1    0    0    0  501  0.00000000000E+00  0.00000000000E+00  0.75173026616E+03  0.75173026618E+03  0.50400001928E-02 0. -1.
        1   -1    0    0  501    0  0.00000000000E+00  0.00000000000E+00 -0.22574546703E+04  0.22574546703E+04  0.50400001928E-02 0.  1.
    10030    2    1    2    0    0  0.00000000000E+00  0.00000000000E+00 -0.15057244041E+04  0.30091849364E+04  0.26053767483E+04 0.  0.
        2    1    3    3  502    0 -0.95926287397E+03  0.34827866749E+03 -0.16879862710E+04  0.19725062592E+04  0.25500000920E-02 0.  1.
       -2    1    3    3    0  502  0.95926287397E+03 -0.34827866749E+03  0.18226186692E+03  0.10366786772E+04  0.25500000920E-02 0. -1.
</event>
<event>
 5   0  0.1829810E-05  0.2920024E+04  0.7818609E-02  0.8266945E-01
       -2   -1    0    0    0  501  0.00000000000E+00  0.00000000000E+00  0.15720305039E+04  0.15720305039E+04  0.25500000920E-02 0.  1.
        2   -1    0    0  501    0  0.00000000000E+00  0.00000000000E+00 -0.13559751656E+04  0.13559751656E+04  0.25500000920E-02 0. -1.
    10030    2    1    2    0    0  0.00000000000E+00  0.00000000000E+00  0.21605533835E+03  0.29280056695E+04  0.29200235087E+04 0.  0.
        4    1    3    3  502    0 -0.11466358080E+04 -0.58204651267E+03  0.80135170747E+03  0.15151626946E+04  0.12699999809E+01 0.  1.
       -4    1    3    3    0  502  0.11466358080E+04  0.58204651267E+03 -0.58529636912E+03  0.14128429749E+04  0.12699999809E+01 0. -1.
</event>
<event>
 5   0  0.6578125E-06  0.2816439E+04  0.7818609E-02  0.8298183E-01
        3   -1    0    0  501    0  0.00000000000E+00  0.00000000000E+00  0.13879990910E+04  0.13879990947E+04  0.10100000352E+00 0. -1.
       -3   -1    0    0    0  501  0.00000000000E+00  0.00000000000E+00 -0.14287340931E+04  0.14287340967E+04  0.10100000352E+00 0.  1.
    10030    2    1    2    0    0  0.00000000000E+00  0.00000000000E+00 -0.40735002158E+02  0.28167331914E+04  0.28164386255E+04 0.  0.
        4    1    3    3  502    0  0.11618384314E+04 -0.18769568276E+03 -0.79374121413E+03  0.14195509634E+04  0.12699999809E+01 0.  1.
       -4    1    3    3    0  502 -0.11618384314E+04  0.18769568276E+03  0.75300621197E+03  0.13971822279E+04  0.12699999809E+01 0. -1.
</event>
<event>
 5   0  0.1829810E-05  0.2814243E+04  0.7818609E-02  0.8298860E-01
       -2   -1    0    0    0  501  0.00000000000E+00  0.00000000000E+00  0.96103709954E+03  0.96103709954E+03  0.25500000920E-02 0.  1.
        2   -1    0    0  501    0  0.00000000000E+00  0.00000000000E+00 -0.20602649979E+04  0.20602649979E+04  0.25500000920E-02 0. -1.
    10030    2    1    2    0    0  0.00000000000E+00  0.00000000000E+00 -0.10992278984E+04  0.30213020975E+04  0.28142431294E+04 0.  0.
        4    1    3    3  502    0  0.10327620882E+04 -0.40417778120E+03 -0.14793774940E+04  0.18489230898E+04  0.12699999809E+01 0. -1.
       -4    1    3    3    0  502 -0.10327620882E+04  0.40417778120E+03  0.38014959561E+03  0.11723790076E+04  0.12699999809E+01 0.  1.
</event>
<event>
 5   0  0.1829810E-05  0.1863016E+04  0.7818609E-02  0.8673488E-01
       -2   -1    0    0    0  501  0.00000000000E+00  0.00000000000E+00  0.77147406788E+03  0.77147406788E+03  0.25500000920E-02 0. -1.
        2   -1    0    0  501    0  0.00000000000E+00  0.00000000000E+00 -0.11247391100E+04  0.11247391100E+04  0.25500000920E-02 0.  1.
    10030    2    1    2    0    0  0.00000000000E+00  0.00000000000E+00 -0.35326504211E+03  0.18962131779E+04  0.18630158953E+04 0.  0.
        4    1    3    3  502    0 -0.43759081968E+03  0.59014207456E+02  0.65818829695E+03  0.79257923849E+03  0.12699999809E+01 0. -1.
       -4    1    3    3    0  502  0.43759081968E+03 -0.59014207456E+02 -0.10114533391E+04  0.11036339394E+04  0.12699999809E+01 0.  1.
</event>
<event>
 5   0  0.1937947E-05  0.2920377E+04  0.7818609E-02  0.8266841E-01
        2   -1    0    0  501    0  0.00000000000E+00  0.00000000000E+00  0.13960813365E+04  0.13960813365E+04  0.25500000920E-02 0.  1.
       -2   -1    0    0    0  501  0.00000000000E+00  0.00000000000E+00 -0.15272390974E+04  0.15272390974E+04  0.25500000920E-02 0. -1.
    10030    2    1    2    0    0  0.00000000000E+00  0.00000000000E+00 -0.13115776087E+03  0.29233204339E+04  0.29203766882E+04 0.  0.
        3    1    3    3  502    0 -0.11516768175E+04 -0.25486499339E+03  0.79600606084E+03  0.14230043274E+04  0.10100000352E+00 0.  1.
       -3    1    3    3    0  502  0.11516768175E+04  0.25486499339E+03 -0.92716382171E+03  0.15003161065E+04  0.10100000352E+00 0. -1.
</event>
<event>
 5   0  0.8055928E-06  0.2880702E+04  0.7818609E-02  0.8278642E-01
        1   -1    0    0  501    0  0.00000000000E+00  0.00000000000E+00  0.10565539590E+04  0.10565539590E+04  0.50400001928E-02 0. -1.
       -1   -1    0    0    0  501  0.00000000000E+00  0.00000000000E+00 -0.19635635005E+04  0.19635635005E+04  0.50400001928E-02 0.  1.
    10030    2    1    2    0    0  0.00000000000E+00  0.00000000000E+00 -0.90700954150E+03  0.30201174596E+04  0.28807018522E+04 0.  0.
        2    1    3    3  502    0  0.84702483764E+03 -0.89184688625E+03  0.33228133921E+03  0.12740693986E+04  0.25500000920E-02 0. -1.
       -2    1    3    3    0  502 -0.84702483764E+03  0.89184688625E+03 -0.12392908807E+04  0.17460480609E+04  0.25500000920E-02 0.  1.
</event>
<event>
 5   0  0.7305460E-06  0.2932364E+04  0.7818609E-02  0.8263313E-01
        1   -1    0    0  501    0  0.00000000000E+00  0.00000000000E+00  0.20821841313E+04  0.20821841313E+04  0.50400001928E-02 0. -1.
       -1   -1    0    0    0  501  0.00000000000E+00  0.00000000000E+00 -0.10324202988E+04  0.10324202988E+04  0.50400001928E-02 0.  1.
    10030    2    1    2    0    0  0.00000000000E+00  0.00000000000E+00  0.10497638325E+04  0.31146044300E+04  0.29323636629E+04 0.  0.
        4    1    3    3  502    0  0.20920875200E+03 -0.13753589744E+04  0.33178546045E+02  0.13915757397E+04  0.12699999809E+01 0.  1.
       -4    1    3    3    0  502 -0.20920875200E+03  0.13753589744E+04  0.10165852865E+04  0.17230286904E+04  0.12699999809E+01 0. -1.
</event>
<event>
 5   0  0.7971153E-06  0.2976719E+04  0.7818609E-02  0.8250410E-01
       -1   -1    0    0    0  501  0.00000000000E+00  0.00000000000E+00  0.20701274726E+04  0.20701274726E+04  0.50400001928E-02 0. -1.
        1   -1    0    0  501    0  0.00000000000E+00  0.00000000000E+00 -0.10700856345E+04  0.10700856345E+04  0.50400001928E-02 0.  1.
    10030    2    1    2    0    0  0.00000000000E+00  0.00000000000E+00  0.10000418381E+04  0.31402131071E+04  0.29767187775E+04 0.  0.
        5    1    3    3  502    0  0.11451861904E+04 -0.36834258238E+03  0.14245487618E+04  0.18645345085E+04  0.46999998093E+01 0. -1.
       -5    1    3    3    0  502 -0.11451861904E+04  0.36834258238E+03 -0.42450692374E+03  0.12756785986E+04  0.46999998093E+01 0.  1.
</event>
<event>
 5   0  0.1918901E-05  0.2877096E+04  0.7818609E-02  0.8279725E-01
        2   -1    0    0  501    0  0.00000000000E+00  0.00000000000E+00  0.16407794567E+04  0.16407794567E+04  0.25500000920E-02 0. -1.
       -2   -1    0    0    0  501  0.00000000000E+00  0.00000000000E+00 -0.12612424130E+04  0.12612424130E+04  0.25500000920E-02 0.  1.
    10030    2    1    2    0    0  0.00000000000E+00  0.00000000000E+00  0.37953704373E+03  0.29020218697E+04  0.28770962036E+04 0.  0.
        1    1    3    3  502    0  0.36245742422E+03  0.71663840020E+03  0.13936220809E+04  0.16084553103E+04  0.50400001928E-02 0. -1.
       -1    1    3    3    0  502 -0.36245742422E+03 -0.71663840020E+03 -0.10140850372E+04  0.12935665594E+04  0.50400001928E-02 0.  1.
</event>
<event>
 5   0  0.1960961E-05  0.2999595E+04  0.7818609E-02  0.8243847E-01
        2   -1    0    0  501    0  0.00000000000E+00  0.00000000000E+00  0.14422454674E+04  0.14422454674E+04  0.25500000920E-02 0.  1.
       -2   -1    0    0    0  501  0.00000000000E+00  0.00000000000E+00 -0.15596462483E+04  0.15596462483E+04  0.25500000920E-02 0. -1.
    10030    2    1    2    0    0  0.00000000000E+00  0.00000000000E+00 -0.11740078087E+03  0.30018917157E+04  0.29995951276E+04 0.  0.
        5    1    3    3  502    0 -0.71461585861E+03  0.43015410843E+02  0.12602025929E+04  0.14493649699E+04  0.46999998093E+01 0.  1.
       -5    1    3    3    0  502  0.71461585861E+03 -0.43015410843E+02 -0.13776033738E+04  0.15525267458E+04  0.46999998093E+01 0. -1.
</event>
<event>
 5   0  0.1829810E-05  0.2050262E+04  0.7818609E-02  0.8583475E-01
       -2   -1    0    0    0  501  0.00000000000E+00  0.00000000000E+00  0.47324369235E+03  0.47324369235E+03  0.25500000920E-02 0.  1.
        2   -1    0    0  501    0  0.00000000000E+00  0.00000000000E+00 -0.22206192594E+04  0.22206192594E+04  0.25500000920E-02 0. -1.
    10030    2    1    2    0    0  0.00000000000E+00  0.00000000000E+00 -0.17473755671E+04  0.26938629518E+04  0.20502624784E+04 0.  0.
        4    1    3    3  502    0  0.99212356575E+02  0.79517777241E+03 -0.17137094497E+04  0.18918119548E+04  0.12699999809E+01 0. -1.
       -4    1    3    3    0  502 -0.99212356575E+02 -0.79517777241E+03 -0.33666117411E+02  0.80205099701E+03  0.12699999809E+01 0.  1.
</event>
<event>
 5   0  0.7971153E-06  0.2888628E+04  0.7818609E-02  0.8276269E-01
       -1   -1    0    0    0  501  0.00000000000E+00  0.00000000000E+00  0.77075803292E+03  0.77075803294E+03  0.50400001928E-02 0. -1.
        1   -1    0    0  501    0  0.00000000000E+00  0.00000000000E+00 -0.27064815794E+04  0.27064815794E+04  0.50400001928E-02 0.  1.
    10030    2    1    2    0    0  0.00000000000E+00  0.00000000000E+00 -0.19357235465E+04  0.34772396124E+04  0.28886276453E+04 0.  0.
        5    1    3    3  502    0  0.13995591637E+04  0.22917848593E+03 -0.12969372189E+04  0.19218108312E+04  0.46999998093E+01 0.  1.
       -5    1    3    3    0  502 -0.13995591637E+04 -0.22917848593E+03 -0.63878632759E+03  0.15554287812E+04  0.46999998093E+01 0. -1.
</event>
<event>
 5   0  0.8122088E-06  0.2906997E+04  0.7818609E-02  0.8270799E-01
        1   -1    0    0  501    0  0.00000000000E+00  0.00000000000E+00  0.82575527152E+03  0.82575527154E+03  0.50400001928E-02 0. -1.
       -1   -1    0    0    0  501  0.00000000000E+00  0.00000000000E+00 -0.25584554131E+04  0.25584554131E+04  0.50400001928E-02 0.  1.
    10030    2    1    2    0    0  0.00000000000E+00  0.00000000000E+00 -0.17327001416E+04  0.33842106846E+04  0.29069971065E+04 0.  0.
        1    1    3    3  502    0 -0.42109581041E+03 -0.34533175009E+02 -0.24853885674E+04  0.25210455277E+04  0.50400001928E-02 0.  1.
       -1    1    3    3    0  502  0.42109581041E+03  0.34533175009E+02  0.75268842584E+03  0.86316515693E+03  0.50400001928E-02 0. -1.
</event>
<event>
 5   0  0.8055928E-06  0.2886838E+04  0.7818609E-02  0.8276804E-01
        1   -1    0    0  501    0  0.00000000000E+00  0.00000000000E+00  0.15318688443E+04  0.15318688443E+04  0.50400001928E-02 0.  1.
       -1   -1    0    0    0  501  0.00000000000E+00  0.00000000000E+00 -0.13600757927E+04  0.13600757927E+04  0.50400001928E-02 0. -1.
    10030    2    1    2    0    0  0.00000000000E+00  0.00000000000E+00  0.17179305158E+03  0.28919446370E+04  0.28868375311E+04 0.  0.
        2    1    3    3  502    0  0.43430104806E+03 -0.10079945188E+04  0.10249915472E+04  0.15017583102E+04  0.25500000920E-02 0.  1.
       -2    1    3    3    0  502 -0.43430104806E+03  0.10079945188E+04 -0.85319849567E+03  0.13901863268E+04  0.25500000920E-02 0. -1.
</event>
<event>
 5   0  0.8055928E-06  0.3039618E+04  0.7818609E-02  0.8232507E-01
       -1   -1    0    0    0  501  0.00000000000E+00  0.00000000000E+00  0.14690866986E+04  0.14690866986E+04  0.50400001928E-02 0. -1.
        1   -1    0    0  501    0  0.00000000000E+00  0.00000000000E+00 -0.15722830308E+04  0.15722830308E+04  0.50400001928E-02 0.  1.
    10030    2    1    2    0    0  0.00000000000E+00  0.00000000000E+00 -0.10319633217E+03  0.30413697294E+04  0.30396184544E+04 0.  0.
        2    1    3    3  502    0  0.60525432501E+03 -0.54845544321E+03  0.12308125812E+04  0.14771715476E+04  0.25500000920E-02 0. -1.
       -2    1    3    3    0  502 -0.60525432501E+03  0.54845544321E+03 -0.13340089133E+04  0.15641981818E+04  0.25500000920E-02 0.  1.
</event>
<event>
 5   0  0.7971153E-06  0.2807193E+04  0.7818609E-02  0.8301039E-01
        1   -1    0    0  501    0  0.00000000000E+00  0.00000000000E+00  0.15796600670E+04  0.15796600670E+04  0.50400001928E-02 0. -1.
       -1   -1    0    0    0  501  0.00000000000E+00  0.00000000000E+00 -0.12471562068E+04  0.12471562068E+04  0.50400001928E-02 0.  1.
    10030    2    1    2    0    0  0.00000000000E+00  0.00000000000E+00  0.33250386021E+03  0.28268162738E+04  0.28071928022E+04 0.  0.
        5    1    3    3  502    0  0.89166126922E+03 -0.39369383880E+02 -0.92457994733E+03  0.12850991932E+04  0.46999998093E+01 0.  1.
       -5    1    3    3    0  502 -0.89166126922E+03  0.39369383880E+02  0.12570838075E+04  0.15417170806E+04  0.46999998093E+01 0. -1.
</event>
<event>
 5   0  0.1918901E-05  0.2816729E+04  0.7818609E-02  0.8298093E-01
        2   -1    0    0  501    0  0.00000000000E+00  0.00000000000E+00  0.16927663059E+04  0.16927663059E+04  0.25500000920E-02 0.  1.
       -2   -1    0    0    0  501  0.00000000000E+00  0.00000000000E+00 -0.11717451652E+04  0.11717451652E+04  0.25500000920E-02 0. -1.
    10030    2    1    2    0    0  0.00000000000E+00  0.00000000000E+00  0.52102114066E+03  0.28645114712E+04  0.28167291207E+04 0.  0.
        1    1    3    3  502    0 -0.79412121357E+03  0.11259372150E+04  0.55722640938E+03  0.14862248771E+04  0.50400001928E-02 0. -1.
       -1    1    3    3    0  502  0.79412121357E+03 -0.11259372150E+04 -0.36205268722E+02  0.13782865941E+04  0.50400001928E-02 0.  1.
</event>
<event>
 5   0  0.8055928E-06  0.2852067E+04  0.7818609E-02  0.8287284E-01
        1   -1    0    0  501    0  0.00000000000E+00  0.00000000000E+00  0.28815594995E+04  0.28815594995E+04  0.50400001928E-02 0.  1.
       -1   -1    0    0    0  501  0.00000000000E+00  0.00000000000E+00 -0.70571897681E+03  0.70571897683E+03  0.50400001928E-02 0. -1.
    10030    2    1    2    0    0  0.00000000000E+00  0.00000000000E+00  0.21758405226E+04  0.35872784763E+04  0.28520667745E+04 0.  0.
        2    1    3    3  502    0 -0.60069695369E+01 -0.11419115580E+04  0.13585029508E+02  0.11420081625E+04  0.25500000920E-02 0. -1.
       -2    1    3    3    0  502  0.60069695369E+01  0.11419115580E+04  0.21622554931E+04  0.24452703138E+04  0.25500000920E-02 0.  1.
</event>
<event>
 5   0  0.8122088E-06  0.2876311E+04  0.7818609E-02  0.8279961E-01
        1   -1    0    0  501    0  0.00000000000E+00  0.00000000000E+00  0.26500964575E+04  0.26500964575E+04  0.50400001928E-02 0. -1.
       -1   -1    0    0    0  501  0.00000000000E+00  0.00000000000E+00 -0.78045861280E+03  0.78045861281E+03  0.50400001928E-02 0.  1.
    10030    2    1    2    0    0  0.00000000000E+00  0.00000000000E+00  0.18696378447E+04  0.34305550703E+04  0.28763105570E+04 0.  0.
        1    1    3    3  502    0  0.12449842808E+03  0.45460866623E+03  0.25553553002E+04  0.25984629319E+04  0.50400001928E-02 0. -1.
       -1    1    3    3    0  502 -0.12449842808E+03 -0.45460866623E+03 -0.68571745552E+03  0.83209213843E+03  0.50400001928E-02 0.  1.
</event>
<event>
 5   0  0.1829810E-05  0.2081008E+04  0.7818609E-02  0.8569656E-01
        2   -1    0    0  501    0  0.00000000000E+00  0.00000000000E+00  0.17637812482E+04  0.17637812482E+04  0.25500000920E-02 0. -1.
       -2   -1    0    0    0  501  0.00000000000E+00  0.00000000000E+00 -0.61382256685E+03  0.61382256685E+03  0.25500000920E-02 0.  1.
    10030    2    1    2    0    0  0.00000000000E+00  0.00000000000E+00  0.11499586814E+04  0.23776038151E+04  0.20810081529E+04 0.  0.
        4    1    3    3  502    0 -0.30300959414E+03 -0.17113801701E+03 -0.54536186032E+03  0.64693446855E+03  0.12699999809E+01 0.  1.
       -4    1    3    3    0  502  0.30300959414E+03  0.17113801701E+03  0.16953205417E+04  0.17306693465E+04  0.12699999809E+01 0. -1.
</event>
<event>
 5   0  0.7971153E-06  0.2923694E+04  0.7818609E-02  0.8265863E-01
        1   -1    0    0  501    0  0.00000000000E+00  0.00000000000E+00  0.67967228474E+03  0.67967228476E+03  0.50400001928E-02 0. -1.
       -1   -1    0    0    0  501  0.00000000000E+00  0.00000000000E+00 -0.31441565847E+04  0.31441565847E+04  0.50400001928E-02 0.  1.
    10030    2    1    2    0    0  0.00000000000E+00  0.00000000000E+00 -0.24644843000E+04  0.38238288695E+04  0.29236936157E+04 0.  0.
        5    1    3    3  502    0 -0.11553799150E+04 -0.86322654592E+03 -0.92023439325E+03  0.17108232656E+04  0.46999998093E+01 0. -1.
       -5    1    3    3    0  502  0.11553799150E+04  0.86322654592E+03 -0.15442499067E+04  0.21130056039E+04  0.46999998093E+01 0.  1.
</event>
<event>
 5   0  0.7971153E-06  0.1587720E+04  0.7818609E-02  0.8828128E-01
        1   -1    0    0  501    0  0.00000000000E+00  0.00000000000E+00  0.12412292175E+04  0.12412292175E+04  0.50400001928E-02 0. -1.
       -1   -1    0    0    0  501  0.00000000000E+00  0.00000000000E+00 -0.50773355688E+03  0.50773355690E+03  0.50400001928E-02 0.  1.
    10030    2    1    2    0    0  0.00000000000E+00  0.00000000000E+00  0.73349566064E+03  0.17489627744E+04  0.15877200327E+04 0.  0.
        5    1    3    3  502    0 -0.59668984232E+03  0.43659819738E+03  0.48371646879E+02  0.74095793410E+03  0.46999998093E+01 0.  1.
       -5    1    3    3    0  502  0.59668984232E+03 -0.43659819738E+03  0.68512401376E+03  0.10080048403E+04  0.46999998093E+01 0. -1.
</event>
<event>
 5   0  0.8055928E-06  0.2981195E+04  0.7818609E-02  0.8249121E-01
        1   -1    0    0  501    0  0.00000000000E+00  0.00000000000E+00  0.27769311330E+04  0.27769311330E+04  0.50400001928E-02 0. -1.
       -1   -1    0    0    0  501  0.00000000000E+00  0.00000000000E+00 -0.80012081864E+03  0.80012081866E+03  0.50400001928E-02 0.  1.
    10030    2    1    2    0    0  0.00000000000E+00  0.00000000000E+00  0.19768103143E+04  0.35770519516E+04  0.29811946675E+04 0.  0.
        2    1    3    3  502    0  0.83651092854E+03 -0.97202262954E+03  0.76737810345E+02  0.12847051091E+04  0.25500000920E-02 0.  1.
       -2    1    3    3    0  502 -0.83651092854E+03  0.97202262954E+03  0.19000725040E+04  0.22923468425E+04  0.25500000920E-02 0. -1.
</event>
<event>
 5   0  0.1918901E-05  0.2902112E+04  0.7818609E-02  0.8272249E-01
       -2   -1    0    0    0  501  0.00000000000E+00  0.00000000000E+00  0.18269869263E+04  0.18269869263E+04  0.25500000920E-02 0.  1.
        2   -1    0    0  501    0  0.00000000000E+00  0.00000000000E+00 -0.11524785554E+04  0.11524785554E+04  0.25500000920E-02 0. -1.
    10030    2    1    2    0    0  0.00000000000E+00  0.00000000000E+00  0.67450837088E+03  0.29794654818E+04  0.29021118198E+04 0.  0.
        1    1    3    3  502    0 -0.14267598343E+04  0.56539535005E+02  0.72061399546E+02  0.14296968871E+04  0.50400001928E-02 0. -1.
       -1    1    3    3    0  502  0.14267598343E+04 -0.56539535005E+02  0.60244697134E+03  0.15497685947E+04  0.50400001928E-02 0.  1.
</event>
<event>
 5   0  0.7305460E-06  0.2908248E+04  0.7818609E-02  0.8270428E-01
       -1   -1    0    0    0  501  0.00000000000E+00  0.00000000000E+00  0.14610524171E+04  0.14610524171E+04  0.50400001928E-02 0. -1.
        1   -1    0    0  501    0  0.00000000000E+00  0.00000000000E+00 -0.14472284742E+04  0.14472284742E+04  0.50400001928E-02 0.  1.
    10030    2    1    2    0    0  0.00000000000E+00  0.00000000000E+00  0.13823942913E+02  0.29082808914E+04  0.29082480365E+04 0.  0.
        4    1    3    3  502    0  0.63152418038E+02 -0.13997588368E+04 -0.38188802046E+03  0.14522923612E+04  0.12699999809E+01 0.  1.
       -4    1    3    3    0  502 -0.63152418038E+02  0.13997588368E+04  0.39571196337E+03  0.14559885302E+04  0.12699999809E+01 0. -1.
</event>
<event>
 5   0  0.1918901E-05  0.2848753E+04  0.7818609E-02  0.8288290E-01
        2   -1    0    0  501    0  0.00000000000E+00  0.00000000000E+00  0.18845997695E+04  0.18845997695E+04  0.25500000920E-02 0. -1.
       -2   -1    0    0    0  501  0.00000000000E+00  0.00000000000E+00 -0.10765403661E+04  0.10765403661E+04  0.25500000920E-02 0.  1.
    10030    2    1    2    0    0  0.00000000000E+00  0.00000000000E+00  0.80805940341E+03  0.29611401357E+04  0.28487525171E+04 0.  0.
        1    1    3    3  502    0  0.13055129622E+04 -0.43101768719E+03  0.79115720839E+03  0.15862124920E+04  0.50400001928E-02 0.  1.
       -1    1    3    3    0  502 -0.13055129622E+04  0.43101768719E+03  0.16902195018E+02  0.13749276437E+04  0.50400001928E-02 0. -1.
</event>
<event>
 5   0  0.1937947E-05  0.2625197E+04  0.7818609E-02  0.8359692E-01
       -2   -1    0    0    0  501  0.00000000000E+00  0.00000000000E+00  0.92416042548E+03  0.92416042548E+03  0.25500000920E-02 0. -1.
        2   -1    0    0  501    0  0.00000000000E+00  0.00000000000E+00 -0.18643029598E+04  0.18643029598E+04  0.25500000920E-02 0.  1.
    10030    2    1    2    0    0  0.00000000000E+00  0.00000000000E+00 -0.94014253431E+03  0.27884633853E+04  0.26251971481E+04 0.  0.
        3    1    3    3  502    0  0.90688792120E+03  0.83522875417E+03 -0.94848498420E+03  0.15555309540E+04  0.10100000352E+00 0. -1.
       -3    1    3    3    0  502 -0.90688792120E+03 -0.83522875417E+03  0.83424498920E+01  0.12329324313E+04  0.10100000352E+00 0.  1.
</event>
<event>
 5   0  0.1937947E-05  0.2893650E+04  0.7818609E-02  0.8274769E-01
        2   -1    0    0  501    0  0.00000000000E+00  0.00000000000E+00  0.15790858435E+04  0.15790858435E+04  0.25500000920E-02 0.  1.
       -2   -1    0    0    0  501  0.00000000000E+00  0.00000000000E+00 -0.13256419059E+04  0.13256419059E+04  0.25500000920E-02 0. -1.
    10030    2    1    2    0    0  0.00000000000E+00  0.00000000000E+00  0.25344393754E+03  0.29047277494E+04  0.28936498525E+04 0.  0.
        3    1    3    3  502    0  0.12894131724E+04  0.30533484043E+03 -0.45643807944E+03  0.14014818673E+04  0.10100000352E+00 0.  1.
       -3    1    3    3    0  502 -0.12894131724E+04 -0.30533484043E+03  0.70988201698E+03  0.15032458821E+04  0.10100000352E+00 0. -1.
</event>
<event>
 5   0  0.8122088E-06  0.2954042E+04  0.7818609E-02  0.8256978E-01
       -1   -1    0    0    0  501  0.00000000000E+00  0.00000000000E+00  0.17350010476E+04  0.17350010476E+04  0.50400001928E-02 0.  1.
        1   -1    0    0  501    0  0.00000000000E+00  0.00000000000E+00 -0.12574003606E+04  0.12574003606E+04  0.50400001928E-02 0. -1.
    10030    2    1    2    0    0  0.00000000000E+00  0.00000000000E+00  0.47760068701E+03  0.29924014082E+04  0.29540419380E+04 0.  0.
        1    1    3    3  502    0  0.14638135028E+04  0.75453127859E+02  0.42322990421E+03  0.15256364892E+04  0.50400001928E-02 0. -1.
       -1    1    3    3    0  502 -0.14638135028E+04 -0.75453127859E+02  0.54370782801E+02  0.14667649189E+04  0.50400001928E-02 0.  1.
</event>
<event>
 5   0  0.7971153E-06  0.2612224E+04  0.7818609E-02  0.8364061E-01
        1   -1    0    0  501    0  0.00000000000E+00  0.00000000000E+00  0.18006424649E+04  0.18006424649E+04  0.50400001928E-02 0. -1.
       -1   -1    0    0    0  501  0.00000000000E+00  0.00000000000E+00 -0.94740007250E+03  0.94740007252E+03  0.50400001928E-02 0.  1.
    10030    2    1    2    0    0  0.00000000000E+00  0.00000000000E+00  0.85324239243E+03  0.27480425374E+04  0.26122241878E+04 0.  0.
        5    1    3    3  502    0 -0.12181183768E+04  0.36844050312E+03  0.73574605713E+03  0.14700017466E+04  0.46999998093E+01 0. -1.
       -5    1    3    3    0  502  0.12181183768E+04 -0.36844050312E+03  0.11749633530E+03  0.12780407909E+04  0.46999998093E+01 0.  1.
</event>
<event>
 5   0  0.1937947E-05  0.2950045E+04  0.7818609E-02  0.8258142E-01
        2   -1    0    0  501    0  0.00000000000E+00  0.00000000000E+00  0.22272741699E+04  0.22272741700E+04  0.25500000920E-02 0. -1.
       -2   -1    0    0    0  501  0.00000000000E+00  0.00000000000E+00 -0.97684012650E+03  0.97684012650E+03  0.25500000920E-02 0.  1.
    10030    2    1    2    0    0  0.00000000000E+00  0.00000000000E+00  0.12504340435E+04  0.32041142965E+04  0.29500445976E+04 0.  0.
        3    1    3    3  502    0  0.37390295222E+03  0.77107049057E+03 -0.67873701826E+03  0.10931775104E+04  0.10100000352E+00 0.  1.
       -3    1    3    3    0  502 -0.37390295222E+03 -0.77107049057E+03  0.19291710617E+04  0.21109367860E+04  0.10100000352E+00 0. -1.
</event>
<event>
 5   0  0.7971153E-06  0.2967351E+04  0.7818609E-02  0.8253116E-01
       -1   -1    0    0    0  501  0.00000000000E+00  0.00000000000E+00  0.11255262131E+04  0.11255262131E+04  0.50400001928E-02 0. -1.
        1   -1    0    0  501    0  0.00000000000E+00  0.00000000000E+00 -0.19557899032E+04  0.19557899032E+04  0.50400001928E-02 0.  1.
    10030    2    1    2    0    0  0.00000000000E+00  0.00000000000E+00 -0.83026369007E+03  0.30813161164E+04  0.29673508748E+04 0.  0.
        5    1    3    3  502    0 -0.95476623021E+03  0.63386150213E+03 -0.13936125268E+04  0.18043106504E+04  0.46999998093E+01 0.  1.
       -5    1    3    3    0  502  0.95476623021E+03 -0.63386150213E+03  0.56334883676E+03  0.12770054660E+04  0.46999998093E+01 0. -1.
</event>
<event>
 5   0  0.1976233E-05  0.2870617E+04  0.7818609E-02  0.8281674E-01
       -2   -1    0    0    0  501  0.00000000000E+00  0.00000000000E+00  0.10980314491E+04  0.10980314491E+04  0.25500000920E-02 0.  1.
        2   -1    0    0  501    0  0.00000000000E+00  0.00000000000E+00 -0.18761859652E+04  0.18761859652E+04  0.25500000920E-02 0. -1.
    10030    2    1    2    0    0  0.00000000000E+00  0.00000000000E+00 -0.77815451612E+03  0.29742174143E+04  0.28706174905E+04 0.  0.
        2    1    3    3  502    0 -0.29629728478E+03  0.75701972195E+02 -0.18420387816E+04  0.18672519226E+04  0.25500000920E-02 0. -1.
       -2    1    3    3    0  502  0.29629728478E+03 -0.75701972195E+02  0.10638842655E+04  0.11069654917E+04  0.25500000920E-02 0.  1.
</event>
<event>
 5   0  0.8234888E-06  0.2615060E+04  0.7818609E-02  0.8363104E-01
        1   -1    0    0  501    0  0.00000000000E+00  0.00000000000E+00  0.14824183318E+04  0.14824183318E+04  0.50400001928E-02 0.  1.
       -1   -1    0    0    0  501  0.00000000000E+00  0.00000000000E+00 -0.11532741336E+04  0.11532741337E+04  0.50400001928E-02 0. -1.
    10030    2    1    2    0    0  0.00000000000E+00  0.00000000000E+00  0.32914419814E+03  0.26356924654E+04  0.26150600125E+04 0.  0.
        3    1    3    3  502    0 -0.69375947280E+03 -0.82389143401E+02  0.12785273035E+04  0.14569565035E+04  0.10100000352E+00 0.  1.
       -3    1    3    3    0  502  0.69375947280E+03  0.82389143401E+02 -0.94938310536E+03  0.11787359620E+04  0.10100000352E+00 0. -1.
</event>
<event>
 5   0  0.8122088E-06  0.2958306E+04  0.7818609E-02  0.8255738E-01
       -1   -1    0    0    0  501  0.00000000000E+00  0.00000000000E+00  0.11982373173E+04  0.11982373173E+04  0.50400001928E-02 0. -1.
        1   -1    0    0  501    0  0.00000000000E+00  0.00000000000E+00 -0.18259263172E+04  0.18259263172E+04  0.50400001928E-02 0.  1.
    10030    2    1    2    0    0  0.00000000000E+00  0.00000000000E+00 -0.62768899995E+03  0.30241636345E+04  0.29583056312E+04 0.  0.
        1    1    3    3  502    0  0.72027260210E+03  0.29018963381E+03  0.97310606496E+03  0.12449650833E+04  0.50400001928E-02 0. -1.
       -1    1    3    3    0  502 -0.72027260210E+03 -0.29018963381E+03 -0.16007950649E+04  0.17791985512E+04  0.50400001928E-02 0.  1.
</event>
<event>
 5   0  0.7305460E-06  0.2855100E+04  0.7818609E-02  0.8286363E-01
        1   -1    0    0  501    0  0.00000000000E+00  0.00000000000E+00  0.22494604999E+04  0.22494604999E+04  0.50400001928E-02 0. -1.
       -1   -1    0    0    0  501  0.00000000000E+00  0.00000000000E+00 -0.90594998801E+03  0.90594998802E+03  0.50400001928E-02 0.  1.
    10030    2    1    2    0    0  0.00000000000E+00  0.00000000000E+00  0.13435105119E+04  0.31554104879E+04  0.28550997972E+04 0.  0.
        4    1    3    3  502    0  0.11457707788E+04  0.25389980536E+03  0.15700470561E+04  0.19601798795E+04  0.12699999809E+01 0. -1.
       -4    1    3    3    0  502 -0.11457707788E+04 -0.25389980536E+03 -0.22653654422E+03  0.11952306084E+04  0.12699999809E+01 0.  1.
</event>
<event>
 5   0  0.1829810E-05  0.2959974E+04  0.7818609E-02  0.8255254E-01
       -2   -1    0    0    0  501  0.00000000000E+00  0.00000000000E+00  0.14238580532E+04  0.14238580532E+04  0.25500000920E-02 0.  1.
        2   -1    0    0  501    0  0.00000000000E+00  0.00000000000E+00 -0.15383283752E+04  0.15383283752E+04  0.25500000920E-02 0. -1.
    10030    2    1    2    0    0  0.00000000000E+00  0.00000000000E+00 -0.11447032198E+03  0.29621864284E+04  0.29599738144E+04 0.  0.
        4    1    3    3  502    0 -0.14659413300E+04 -0.20320063140E+03 -0.66469904085E+02  0.14814500803E+04  0.12699999809E+01 0.  1.
       -4    1    3    3    0  502  0.14659413300E+04  0.20320063140E+03 -0.48000417898E+02  0.14807363481E+04  0.12699999809E+01 0. -1.
</event>
<event>
 5   0  0.8234888E-06  0.2938338E+04  0.7818609E-02  0.8261561E-01
       -1   -1    0    0    0  501  0.00000000000E+00  0.00000000000E+00  0.99358907442E+03  0.99358907443E+03  0.50400001928E-02 0.  1.
        1   -1    0    0  501    0  0.00000000000E+00  0.00000000000E+00 -0.21723851178E+04  0.21723851178E+04  0.50400001928E-02 0. -1.
    10030    2    1    2    0    0  0.00000000000E+00  0.00000000000E+00 -0.11787960434E+04  0.31659741922E+04  0.29383383866E+04 0.  0.
        3    1    3    3  502    0  0.14533886442E+03  0.49000164180E+03 -0.20735074005E+04  0.21355697002E+04  0.10100000352E+00 0. -1.
       -3    1    3    3    0  502 -0.14533886442E+03 -0.49000164180E+03  0.89471135708E+03  0.10304044920E+04  0.10100000352E+00 0.  1.
</event>
<event>
 5   0  0.7971153E-06  0.2701861E+04  0.7818609E-02  0.8334401E-01
        1   -1    0    0  501    0  0.00000000000E+00  0.00000000000E+00  0.20584465389E+04  0.20584465389E+04  0.50400001928E-02 0. -1.
       -1   -1    0    0    0  501  0.00000000000E+00  0.00000000000E+00 -0.88659740902E+03  0.88659740903E+03  0.50400001928E-02 0.  1.
    10030    2    1    2    0    0  0.00000000000E+00  0.00000000000E+00  0.11718491299E+04  0.29450439480E+04  0.27018611127E+04 0.  0.
        5    1    3    3  502    0 -0.10862750683E+03 -0.18704483295E+03  0.20394403178E+04  0.20508838594E+04  0.46999998093E+01 0. -1.
       -5    1    3    3    0  502  0.10862750683E+03  0.18704483295E+03 -0.86759118788E+03  0.89416008860E+03  0.46999998093E+01 0.  1.
</event>
<event>
 5   0  0.7305460E-06  0.3087500E+04  0.7818609E-02  0.8219177E-01
       -1   -1    0    0    0  501  0.00000000000E+00  0.00000000000E+00  0.81546248943E+03  0.81546248945E+03  0.50400001928E-02 0. -1.
        1   -1    0    0  501    0  0.00000000000E+00  0.00000000000E+00 -0.29224696936E+04  0.29224696936E+04  0.50400001928E-02 0.  1.
    10030    2    1    2    0    0  0.00000000000E+00  0.00000000000E+00 -0.21070072042E+04  0.37379321831E+04  0.30875002262E+04 0.  0.
        4    1    3    3  502    0  0.64945244145E+03  0.12955367512E+04 -0.40950331413E+03  0.15059543568E+04  0.12699999809E+01 0. -1.
       -4    1    3    3    0  502 -0.64945244145E+03 -0.12955367512E+04 -0.16975038901E+04  0.22319778263E+04  0.12699999809E+01 0.  1.
</event>
<event>
 5   0  0.1976233E-05  0.2858300E+04  0.7818609E-02  0.8285394E-01
        2   -1    0    0  501    0  0.00000000000E+00  0.00000000000E+00  0.10613692223E+04  0.10613692223E+04  0.25500000920E-02 0.  1.
       -2   -1    0    0    0  501  0.00000000000E+00  0.00000000000E+00 -0.19243728959E+04  0.19243728959E+04  0.25500000920E-02 0. -1.
    10030    2    1    2    0    0  0.00000000000E+00  0.00000000000E+00 -0.86300367356E+03  0.29857421182E+04  0.28583003088E+04 0.  0.
        2    1    3    3  502    0 -0.40332821212E+03 -0.12882650531E+04 -0.92164526507E+03  0.16345428989E+04  0.25500000920E-02 0. -1.
       -2    1    3    3    0  502  0.40332821212E+03  0.12882650531E+04  0.58641591512E+02  0.13511992192E+04  0.25500000920E-02 0.  1.
</event>
<event>
 5   0  0.1829810E-05  0.2969951E+04  0.7818609E-02  0.8252364E-01
        2   -1    0    0  501    0  0.00000000000E+00  0.00000000000E+00  0.20834563570E+04  0.20834563570E+04  0.25500000920E-02 0. -1.
       -2   -1    0    0    0  501  0.00000000000E+00  0.00000000000E+00 -0.10584104307E+04  0.10584104307E+04  0.25500000920E-02 0.  1.
    10030    2    1    2    0    0  0.00000000000E+00  0.00000000000E+00  0.10250459262E+04  0.31418667877E+04  0.29699508011E+04 0.  0.
        4    1    3    3  502    0 -0.14292978338E+03  0.22555608325E+03  0.20578486884E+04  0.20751017582E+04  0.12699999809E+01 0. -1.
       -4    1    3    3    0  502  0.14292978338E+03 -0.22555608325E+03 -0.10328027622E+04  0.10667650295E+04  0.12699999809E+01 0.  1.
</event>
<event>
 5   0  0.1829810E-05  0.2168005E+04  0.7818609E-02  0.8531864E-01
       -2   -1    0    0    0  501  0.00000000000E+00  0.00000000000E+00  0.93211576409E+03  0.93211576409E+03  0.25500000920E-02 0.  1.
        2   -1    0    0  501    0  0.00000000000E+00  0.00000000000E+00 -0.12606386646E+04  0.12606386646E+04  0.25500000920E-02 0. -1.
    10030    2    1    2    0    0  0.00000000000E+00  0.00000000000E+00 -0.32852290047E+03  0.21927544287E+04  0.21680047713E+04 0.  0.
        4    1    3    3  502    0  0.35022066896E+03  0.92307141261E+03 -0.61696944109E+03  0.11642028405E+04  0.12699999809E+01 0. -1.
       -4    1    3    3    0  502 -0.35022066896E+03 -0.92307141261E+03  0.28844654062E+03  0.10285515881E+04  0.12699999809E+01 0.  1.
</event>
<event>
 5   0  0.7305460E-06  0.2240606E+04  0.7818609E-02  0.8501715E-01
        1   -1    0    0  501    0  0.00000000000E+00  0.00000000000E+00  0.47879779415E+03  0.47879779418E+03  0.50400001928E-02 0. -1.
       -1   -1    0    0    0  501  0.00000000000E+00  0.00000000000E+00 -0.26213129281E+04  0.26213129281E+04  0.50400001928E-02 0.  1.
    10030    2    1    2    0    0  0.00000000000E+00  0.00000000000E+00 -0.21425151339E+04  0.31001107223E+04  0.22406060321E+04 0.  0.
        4    1    3    3  502    0  0.10008886684E+04  0.15860066411E+03 -0.17321292180E+04  0.20067898590E+04  0.12699999809E+01 0.  1.
       -4    1    3    3    0  502 -0.10008886684E+04 -0.15860066411E+03 -0.41038591590E+03  0.10933208633E+04  0.12699999809E+01 0. -1.
</event>
<event>
 5   0  0.1976233E-05  0.2919018E+04  0.7818609E-02  0.8267241E-01
        2   -1    0    0  501    0  0.00000000000E+00  0.00000000000E+00  0.17209192840E+04  0.17209192840E+04  0.25500000920E-02 0. -1.
       -2   -1    0    0    0  501  0.00000000000E+00  0.00000000000E+00 -0.12378075118E+04  0.12378075118E+04  0.25500000920E-02 0.  1.
    10030    2    1    2    0    0  0.00000000000E+00  0.00000000000E+00  0.48311177222E+03  0.29587267959E+04  0.29190182028E+04 0.  0.
        2    1    3    3  502    0 -0.69745437244E+03 -0.11511365677E+03  0.15358258590E+04  0.16906965501E+04  0.25500000920E-02 0. -1.
       -2    1    3    3    0  502  0.69745437244E+03  0.11511365677E+03 -0.10527140867E+04  0.12680302457E+04  0.25500000920E-02 0.  1.
</event>
<event>
 5   0  0.1829810E-05  0.3060097E+04  0.7818609E-02  0.8226775E-01
        2   -1    0    0  501    0  0.00000000000E+00  0.00000000000E+00  0.20069295087E+04  0.20069295087E+04  0.25500000920E-02 0.  1.
       -2   -1    0    0    0  501  0.00000000000E+00  0.00000000000E+00 -0.11664825093E+04  0.11664825093E+04  0.25500000920E-02 0. -1.
    10030    2    1    2    0    0  0.00000000000E+00  0.00000000000E+00  0.84044699945E+03  0.31734120180E+04  0.30600968411E+04 0.  0.
        4    1    3    3  502    0 -0.21433259403E+03 -0.12206882299E+04  0.13506817187E+04  0.18331287281E+04  0.12699999809E+01 0.  1.
       -4    1    3    3    0  502  0.21433259403E+03  0.12206882299E+04 -0.51023471924E+03  0.13402832899E+04  0.12699999809E+01 0. -1.
</event>
<event>
 5   0  0.1960961E-05  0.1583451E+04  0.7818609E-02  0.8830780E-01
        2   -1    0    0  501    0  0.00000000000E+00  0.00000000000E+00  0.21096278664E+04  0.21096278664E+04  0.25500000920E-02 0.  1.
       -2   -1    0    0    0  501  0.00000000000E+00  0.00000000000E+00 -0.29712783184E+03  0.29712783185E+03  0.25500000920E-02 0. -1.
    10030    2    1    2    0    0  0.00000000000E+00  0.00000000000E+00  0.18125000345E+04  0.24067556982E+04  0.15834508567E+04 0.  0.
        5    1    3    3  502    0  0.40818361874E+03 -0.22195888432E+03 -0.68088780845E+02  0.46961450681E+03  0.46999998093E+01 0. -1.
       -5    1    3    3    0  502 -0.40818361874E+03  0.22195888432E+03  0.18805888154E+04  0.19371411914E+04  0.46999998093E+01 0.  1.
</event>
<event>
 5   0  0.1960961E-05  0.2928932E+04  0.7818609E-02  0.8264321E-01
       -2   -1    0    0    0  501  0.00000000000E+00  0.00000000000E+00  0.95777011706E+03  0.95777011707E+03  0.25500000920E-02 0.  1.
        2   -1    0    0  501    0  0.00000000000E+00  0.00000000000E+00 -0.22392233879E+04  0.22392233879E+04  0.25500000920E-02 0. -1.
    10030    2    1    2    0    0  0.00000000000E+00  0.00000000000E+00 -0.12814532708E+04  0.31969935049E+04  0.29289323968E+04 0.  0.
        5    1    3    3  502    0  0.19028086225E+02 -0.16528279101E+03 -0.22288659524E+04  0.22350718094E+04  0.46999998093E+01 0. -1.
       -5    1    3    3    0  502 -0.19028086225E+02  0.16528279101E+03  0.94741268164E+03  0.96192169557E+03  0.46999998093E+01 0.  1.
</event>
<event>
 5   0  0.1937947E-05  0.2947923E+04  0.7818609E-02  0.8258760E-01
        2   -1    0    0  501    0  0.00000000000E+00  0.00000000000E+00  0.14209935175E+04  0.14209935175E+04  0.25500000920E-02 0. -1.
       -2   -1    0    0    0  501  0.00000000000E+00  0.00000000000E+00 -0.15289043906E+04  0.15289043906E+04  0.25500000920E-02 0.  1.
    10030    2    1    2    0    0  0.00000000000E+00  0.00000000000E+00 -0.10791087312E+03  0.29498979081E+04  0.29479234915E+04 0.  0.
        3    1    3    3  502    0 -0.28720412802E+03  0.44645761765E+03  0.13220119217E+04  0.14246143853E+04  0.10100000352E+00 0. -1.
       -3    1    3    3    0  502  0.28720412802E+03 -0.44645761765E+03 -0.14299227948E+04  0.15252835228E+04  0.10100000352E+00 0.  1.
</event>
<event>
 5   0  0.6578125E-06  0.2921100E+04  0.7818609E-02  0.8266627E-01
        3   -1    0    0  501    0  0.00000000000E+00  0.00000000000E+00  0.19617423921E+04  0.19617423947E+04  0.10100000352E+00 0.  1.
       -3   -1    0    0    0  501  0.00000000000E+00  0.00000000000E+00 -0.10874039352E+04  0.10874039399E+04  0.10100000352E+00 0. -1.
    10030    2    1    2    0    0  0.00000000000E+00  0.00000000000E+00  0.87433845682E+03  0.30491463346E+04  0.29211000723E+04 0.  0.
        2    1    3    3  502    0  0.11762853919E+03 -0.14316730441E+03 -0.10750853862E+04  0.10909362667E+04  0.25500000920E-02 0. -1.
       -2    1    3    3    0  502 -0.11762853919E+03  0.14316730441E+03  0.19494238430E+04  0.19582100679E+04  0.25500000920E-02 0.  1.
</event>
<event>
 5   0  0.8055928E-06  0.2897457E+04  0.7818609E-02  0.8273634E-01
       -1   -1    0    0    0  501  0.00000000000E+00  0.00000000000E+00  0.11995867807E+04  0.11995867807E+04  0.50400001928E-02 0. -1.
        1   -1    0    0  501    0  0.00000000000E+00  0.00000000000E+00 -0.17496145315E+04  0.17496145315E+04  0.50400001928E-02 0.  1.
    10030    2    1    2    0    0  0.00000000000E+00  0.00000000000E+00 -0.55002775081E+03  0.29492013122E+04  0.28974571357E+04 0.  0.
        2    1    3    3  502    0 -0.11662146653E+04  0.26849862939E+03 -0.11060916168E+04  0.16295971356E+04  0.25500000920E-02 0.  1.
       -2    1    3    3    0  502  0.11662146653E+04 -0.26849862939E+03  0.55606386602E+03  0.13196041765E+04  0.25500000920E-02 0. -1.
</event>
<event>
 5   0  0.1918901E-05  0.2989704E+04  0.7818609E-02  0.8246677E-01
       -2   -1    0    0    0  501  0.00000000000E+00  0.00000000000E+00  0.11714489579E+04  0.11714489580E+04  0.25500000920E-02 0.  1.
        2   -1    0    0  501    0  0.00000000000E+00  0.00000000000E+00 -0.19075370573E+04  0.19075370573E+04  0.25500000920E-02 0. -1.
    10030    2    1    2    0    0  0.00000000000E+00  0.00000000000E+00 -0.73608809935E+03  0.30789860152E+04  0.29897038636E+04 0.  0.
        1    1    3    3  502    0 -0.14926067181E+04  0.35845360310E+02 -0.44388138343E+03  0.15576233137E+04  0.50400001928E-02 0. -1.
       -1    1    3    3    0  502  0.14926067181E+04 -0.35845360310E+02 -0.29220671591E+03  0.15213627015E+04  0.50400001928E-02 0.  1.
</event>
<event>
 5   0  0.7305460E-06  0.2939089E+04  0.7818609E-02  0.8261342E-01
       -1   -1    0    0    0  501  0.00000000000E+00  0.00000000000E+00  0.19133849923E+04  0.19133849923E+04  0.50400001928E-02 0. -1.
        1   -1    0    0  501    0  0.00000000000E+00  0.00000000000E+00 -0.11286595934E+04  0.11286595934E+04  0.50400001928E-02 0.  1.
    10030    2    1    2    0    0  0.00000000000E+00  0.00000000000E+00  0.78472539892E+03  0.30420445858E+04  0.29390885169E+04 0.  0.
        4    1    3    3  502    0  0.77462779885E+03  0.78912712588E+03 -0.60942055872E+03  0.12626024227E+04  0.12699999809E+01 0.  1.
       -4    1    3    3    0  502 -0.77462779885E+03 -0.78912712588E+03  0.13941459576E+04  0.17794421631E+04  0.12699999809E+01 0. -1.
</event>
<event>
 5   0  0.1937947E-05  0.2917504E+04  0.7818609E-02  0.8267688E-01
       -2   -1    0    0    0  501  0.00000000000E+00  0.00000000000E+00  0.18148912821E+04  0.18148912821E+04  0.25500000920E-02 0.  1.
        2   -1    0    0  501    0  0.00000000000E+00  0.00000000000E+00 -0.11724986411E+04  0.11724986411E+04  0.25500000920E-02 0. -1.
    10030    2    1    2    0    0  0.00000000000E+00  0.00000000000E+00  0.64239264094E+03  0.29873899232E+04  0.29175041128E+04 0.  0.
        3    1    3    3  502    0  0.19592067796E+03  0.11719605351E+04 -0.54528968685E+03  0.13073703609E+04  0.10100000352E+00 0. -1.
       -3    1    3    3    0  502 -0.19592067796E+03 -0.11719605351E+04  0.11876823278E+04  0.16800195623E+04  0.10100000352E+00 0.  1.
</event>
<event>
 5   0  0.7971153E-06  0.2932620E+04  0.7818609E-02  0.8263238E-01
        1   -1    0    0  501    0  0.00000000000E+00  0.00000000000E+00  0.13977054509E+04  0.13977054510E+04  0.50400001928E-02 0.  1.
       -1   -1    0    0    0  501  0.00000000000E+00  0.00000000000E+00 -0.15382818393E+04  0.15382818393E+04  0.50400001928E-02 0. -1.
    10030    2    1    2    0    0  0.00000000000E+00  0.00000000000E+00 -0.14057638833E+03  0.29359872902E+04  0.29326199289E+04 0.  0.
        5    1    3    3  502    0 -0.23838447932E+03 -0.12126138305E+04  0.71978420426E+03  0.14301646243E+04  0.46999998093E+01 0.  1.
       -5    1    3    3    0  502  0.23838447932E+03  0.12126138305E+04 -0.86036059259E+03  0.15058226659E+04  0.46999998093E+01 0. -1.
</event>
<event>
 5   0  0.8234888E-06  0.1702548E+04  0.7818609E-02  0.8759913E-01
        1   -1    0    0  501    0  0.00000000000E+00  0.00000000000E+00  0.94321749351E+03  0.94321749353E+03  0.50400001928E-02 0.  1.
       -1   -1    0    0    0  501  0.00000000000E+00  0.00000000000E+00 -0.76829281218E+03  0.76829281219E+03  0.50400001928E-02 0. -1.
    10030    2    1    2    0    0  0.00000000000E+00  0.00000000000E+00  0.17492468134E+03  0.17115103057E+04  0.17025477622E+04 0.  0.
        3    1    3    3  502    0 -0.41817308109E+03 -0.29995085289E+03 -0.59421350711E+03  0.78608456423E+03  0.10100000352E+00 0. -1.
       -3    1    3    3    0  502  0.41817308109E+03  0.29995085289E+03  0.76913818844E+03  0.92542574149E+03  0.10100000352E+00 0.  1.
</event>
<event>
 5   0  0.6578125E-06  0.2921012E+04  0.7818609E-02  0.8266653E-01
       -3   -1    0    0    0  501  0.00000000000E+00  0.00000000000E+00  0.99458398981E+03  0.99458399494E+03  0.10100000352E+00 0.  1.
        3   -1    0    0  501    0  0.00000000000E+00  0.00000000000E+00 -0.21446940611E+04  0.21446940635E+04  0.10100000352E+00 0. -1.
    10030    2    1    2    0    0  0.00000000000E+00  0.00000000000E+00 -0.11501100713E+04  0.31392780584E+04  0.29210124190E+04 0.  0.
        5    1    3    3  502    0  0.14250172623E+04  0.31527680733E+03 -0.51636066731E+03  0.15481356826E+04  0.46999998093E+01 0. -1.
       -5    1    3    3    0  502 -0.14250172623E+04 -0.31527680733E+03 -0.63374940396E+03  0.15911423758E+04  0.46999998093E+01 0.  1.
</event>
<event>
 5   0  0.1976233E-05  0.2718906E+04  0.7818609E-02  0.8328897E-01
        2   -1    0    0  501    0  0.00000000000E+00  0.00000000000E+00  0.26064894362E+04  0.26064894362E+04  0.25500000920E-02 0.  1.
       -2   -1    0    0    0  501  0.00000000000E+00  0.00000000000E+00 -0.70904290092E+03  0.70904290093E+03  0.25500000920E-02 0. -1.
    10030    2    1    2    0    0  0.00000000000E+00  0.00000000000E+00  0.18974465353E+04  0.33155323371E+04  0.27189062735E+04 0.  0.
        2    1    3    3  502    0 -0.90072013441E+03  0.77818517510E+03  0.17495167240E+04  0.21160523847E+04  0.25500000920E-02 0.  1.
       -2    1    3    3    0  502  0.90072013441E+03 -0.77818517510E+03  0.14792981134E+03  0.11994799525E+04  0.25500000920E-02 0. -1.
</event>
<event>
 5   0  0.1960961E-05  0.2877417E+04  0.7818609E-02  0.8279629E-01
        2   -1    0    0  501    0  0.00000000000E+00  0.00000000000E+00  0.22850351512E+04  0.22850351512E+04  0.25500000920E-02 0.  1.
       -2   -1    0    0    0  501  0.00000000000E+00  0.00000000000E+00 -0.90584234007E+03  0.90584234007E+03  0.25500000920E-02 0. -1.
    10030    2    1    2    0    0  0.00000000000E+00  0.00000000000E+00  0.13791928111E+04  0.31908774913E+04  0.28774166111E+04 0.  0.
        5    1    3    3  502    0  0.79508375895E+03  0.10325489027E+04  0.13655432671E+04  0.18876032222E+04  0.46999998093E+01 0.  1.
       -5    1    3    3    0  502 -0.79508375895E+03 -0.10325489027E+04  0.13649544054E+02  0.13032742690E+04  0.46999998093E+01 0. -1.
</event>
<event>
 5   0  0.7305460E-06  0.1589400E+04  0.7818609E-02  0.8827086E-01
       -1   -1    0    0    0  501  0.00000000000E+00  0.00000000000E+00  0.67941292743E+03  0.67941292745E+03  0.50400001928E-02 0.  1.
        1   -1    0    0  501    0  0.00000000000E+00  0.00000000000E+00 -0.92955021611E+03  0.92955021612E+03  0.50400001928E-02 0. -1.
    10030    2    1    2    0    0  0.00000000000E+00  0.00000000000E+00 -0.25013728868E+03  0.16089631436E+04  0.15894004323E+04 0.  0.
        4    1    3    3  502    0  0.36510075200E+02  0.41983611010E+03  0.55698335317E+03  0.69844642854E+03  0.12699999809E+01 0.  1.
       -4    1    3    3    0  502 -0.36510075200E+02 -0.41983611010E+03 -0.80712064185E+03  0.91051671502E+03  0.12699999809E+01 0. -1.
</event>
<event>
 5   0  0.1829810E-05  0.2365965E+04  0.7818609E-02  0.8452357E-01
       -2   -1    0    0    0  501  0.00000000000E+00  0.00000000000E+00  0.68071189968E+03  0.68071189968E+03  0.25500000920E-02 0. -1.
        2   -1    0    0  501    0  0.00000000000E+00  0.00000000000E+00 -0.20558589755E+04  0.20558589755E+04  0.25500000920E-02 0.  1.
    10030    2    1    2    0    0  0.00000000000E+00  0.00000000000E+00 -0.13751470758E+04  0.27365708751E+04  0.23659650620E+04 0.  0.
        4    1    3    3  502    0 -0.54952407261E+02  0.22866212375E+03 -0.20285483283E+04  0.20421351736E+04  0.12699999809E+01 0.  1.
       -4    1    3    3    0  502  0.54952407261E+02 -0.22866212375E+03  0.65340125254E+03  0.69443570157E+03  0.12699999809E+01 0. -1.
</event>
<event>
 5   0  0.7971153E-06  0.2869131E+04  0.7818609E-02  0.8282121E-01
       -1   -1    0    0    0  501  0.00000000000E+00  0.00000000000E+00  0.58948383504E+03  0.58948383506E+03  0.50400001928E-02 0.  1.
        1   -1    0    0  501    0  0.00000000000E+00  0.00000000000E+00 -0.34911538246E+04  0.34911538246E+04  0.50400001928E-02 0. -1.
    10030    2    1    2    0    0  0.00000000000E+00  0.00000000000E+00 -0.29016699896E+04  0.40806376597E+04  0.28691313984E+04 0.  0.
        5    1    3    3  502    0  0.37184428494E+03  0.48629055415E+03  0.39437901713E+03  0.72821945487E+03  0.46999998093E+01 0.  1.
       -5    1    3    3    0  502 -0.37184428494E+03 -0.48629055415E+03 -0.32960490067E+04  0.33524182048E+04  0.46999998093E+01 0. -1.
</event>
<event>
 5   0  0.1976233E-05  0.1606947E+04  0.7818609E-02  0.8816291E-01
       -2   -1    0    0    0  501  0.00000000000E+00  0.00000000000E+00  0.69632484735E+03  0.69632484735E+03  0.25500000920E-02 0. -1.
        2   -1    0    0  501    0  0.00000000000E+00  0.00000000000E+00 -0.92711046784E+03  0.92711046784E+03  0.25500000920E-02 0.  1.
    10030    2    1    2    0    0  0.00000000000E+00  0.00000000000E+00 -0.23078562049E+03  0.16234353152E+04  0.16069474851E+04 0.  0.
        2    1    3    3  502    0 -0.17155279498E+02 -0.65802668287E+02  0.69341240757E+03  0.69673887630E+03  0.25500000920E-02 0. -1.
       -2    1    3    3    0  502  0.17155279498E+02  0.65802668287E+02 -0.92419802807E+03  0.92669643889E+03  0.25500000920E-02 0.  1.
</event>
<event>
 5   0  0.1937947E-05  0.2914969E+04  0.7818609E-02  0.8268438E-01
        2   -1    0    0  501    0  0.00000000000E+00  0.00000000000E+00  0.19022125987E+04  0.19022125987E+04  0.25500000920E-02 0. -1.
       -2   -1    0    0    0  501  0.00000000000E+00  0.00000000000E+00 -0.11167318354E+04  0.11167318354E+04  0.25500000920E-02 0.  1.
    10030    2    1    2    0    0  0.00000000000E+00  0.00000000000E+00  0.78548076332E+03  0.30189444340E+04  0.29149692050E+04 0.  0.
        3    1    3    3  502    0  0.98330550763E+03  0.23481152401E+03  0.14800626521E+04  0.17923759755E+04  0.10100000352E+00 0. -1.
       -3    1    3    3    0  502 -0.98330550763E+03 -0.23481152401E+03 -0.69458188878E+03  0.12265684586E+04  0.10100000352E+00 0.  1.
</event>
<event>
 5   0  0.8055928E-06  0.3022680E+04  0.7818609E-02  0.8237284E-01
        1   -1    0    0  501    0  0.00000000000E+00  0.00000000000E+00  0.19493182097E+04  0.19493182098E+04  0.50400001928E-02 0. -1.
       -1   -1    0    0    0  501  0.00000000000E+00  0.00000000000E+00 -0.11717680791E+04  0.11717680791E+04  0.50400001928E-02 0.  1.
    10030    2    1    2    0    0  0.00000000000E+00  0.00000000000E+00  0.77755013067E+03  0.31210862888E+04  0.30226801711E+04 0.  0.
        2    1    3    3  502    0  0.92387570615E+01  0.62007116501E+03 -0.10343459434E+04  0.12060037873E+04  0.25500000920E-02 0.  1.
       -2    1    3    3    0  502 -0.92387570615E+01 -0.62007116501E+03  0.18118960741E+04  0.19150825015E+04  0.25500000920E-02 0. -1.
</event>
<event>
 5   0  0.7971153E-06  0.2773217E+04  0.7818609E-02  0.8311632E-01
       -1   -1    0    0    0  501  0.00000000000E+00  0.00000000000E+00  0.78869387469E+03  0.78869387471E+03  0.50400001928E-02 0. -1.
        1   -1    0    0  501    0  0.00000000000E+00  0.00000000000E+00 -0.24378067451E+04  0.24378067451E+04  0.50400001928E-02 0.  1.
    10030    2    1    2    0    0  0.00000000000E+00  0.00000000000E+00 -0.16491128704E+04  0.32265006198E+04  0.27732170831E+04 0.  0.
        5    1    3    3  502    0  0.24847993018E+03  0.11575039266E+04 -0.16644222385E+04  0.20425183215E+04  0.46999998093E+01 0.  1.
       -5    1    3    3    0  502 -0.24847993018E+03 -0.11575039266E+04  0.15309368116E+02  0.11839822983E+04  0.46999998093E+01 0. -1.
</event>
<event>
 5   0  0.1937947E-05  0.1628625E+04  0.7818609E-02  0.8803153E-01
        2   -1    0    0  501    0  0.00000000000E+00  0.00000000000E+00  0.87275557743E+03  0.87275557744E+03  0.25500000920E-02 0. -1.
       -2   -1    0    0    0  501  0.00000000000E+00  0.00000000000E+00 -0.75978278058E+03  0.75978278058E+03  0.25500000920E-02 0.  1.
    10030    2    1    2    0    0  0.00000000000E+00  0.00000000000E+00  0.11297279685E+03  0.16325383580E+04  0.16286247688E+04 0.  0.
        3    1    3    3  502    0 -0.52945146806E+03 -0.61118983998E+03  0.15280460923E+03  0.82293446660E+03  0.10100000352E+00 0.  1.
       -3    1    3    3    0  502  0.52945146806E+03  0.61118983998E+03 -0.39831812374E+02  0.80960389142E+03  0.10100000352E+00 0. -1.
</event>
<event>
 5   0  0.1937947E-05  0.1793771E+04  0.7818609E-02  0.8709619E-01
        2   -1    0    0  501    0  0.00000000000E+00  0.00000000000E+00  0.57521780046E+03  0.57521780047E+03  0.25500000920E-02 0.  1.
       -2   -1    0    0    0  501  0.00000000000E+00  0.00000000000E+00 -0.13984336838E+04  0.13984336838E+04  0.25500000920E-02 0. -1.
    10030    2    1    2    0    0  0.00000000000E+00  0.00000000000E+00 -0.82321588336E+03  0.19736514843E+04  0.17937713876E+04 0.  0.
        3    1    3    3  502    0  0.43726631665E+03 -0.51319064352E+03  0.23917556023E+03  0.71538201479E+03  0.10100000352E+00 0.  1.
       -3    1    3    3    0  502 -0.43726631665E+03  0.51319064352E+03 -0.10623914436E+04  0.12582694695E+04  0.10100000352E+00 0. -1.
</event>
<event>
 5   0  0.1976233E-05  0.2916496E+04  0.7818609E-02  0.8267986E-01
        2   -1    0    0  501    0  0.00000000000E+00  0.00000000000E+00  0.12322657196E+04  0.12322657196E+04  0.25500000920E-02 0. -1.
       -2   -1    0    0    0  501  0.00000000000E+00  0.00000000000E+00 -0.17256730292E+04  0.17256730293E+04  0.25500000920E-02 0.  1.
    10030    2    1    2    0    0  0.00000000000E+00  0.00000000000E+00 -0.49340730966E+03  0.29579387488E+04  0.29164963344E+04 0.  0.
        2    1    3    3  502    0 -0.64457746429E+03 -0.87808303043E+03 -0.12300047897E+04  0.16429916916E+04  0.25500000920E-02 0.  1.
       -2    1    3    3    0  502  0.64457746429E+03  0.87808303043E+03  0.73659748007E+03  0.13149470573E+04  0.25500000920E-02 0. -1.
</event>
<event>
 5   0  0.8122088E-06  0.2782478E+04  0.7818609E-02  0.8308729E-01
       -1   -1    0    0    0  501  0.00000000000E+00  0.00000000000E+00  0.10750425725E+04  0.10750425725E+04  0.50400001928E-02 0. -1.
        1   -1    0    0  501    0  0.00000000000E+00  0.00000000000E+00 -0.18004368082E+04  0.18004368082E+04  0.50400001928E-02 0.  1.
    10030    2    1    2    0    0  0.00000000000E+00  0.00000000000E+00 -0.72539423572E+03  0.28754793807E+04  0.27824781888E+04 0.  0.
        1    1    3    3  502    0 -0.12711530746E+04 -0.14065728318E+03  0.20326792358E+03  0.12949642695E+04  0.50400001928E-02 0.  1.
       -1    1    3    3    0  502  0.12711530746E+04  0.14065728318E+03 -0.92866215929E+03  0.15805151112E+04  0.50400001928E-02 0. -1.
</event>
<event>
 5   0  0.1829810E-05  0.2873662E+04  0.7818609E-02  0.8280757E-01
       -2   -1    0    0    0  501  0.00000000000E+00  0.00000000000E+00  0.17512408667E+04  0.17512408667E+04  0.25500000920E-02 0.  1.
        2   -1    0    0  501    0  0.00000000000E+00  0.00000000000E+00 -0.11788687439E+04  0.11788687439E+04  0.25500000920E-02 0. -1.
    10030    2    1    2    0    0  0.00000000000E+00  0.00000000000E+00  0.57237212276E+03  0.29301096106E+04  0.28736618595E+04 0.  0.
        4    1    3    3  502    0 -0.12703281882E+04 -0.51453973323E+03 -0.15355880850E+03  0.13791543653E+04  0.12699999809E+01 0. -1.
       -4    1    3    3    0  502  0.12703281882E+04  0.51453973323E+03  0.72593093126E+03  0.15509552452E+04  0.12699999809E+01 0.  1.
</event>
<event>
 5   0  0.1937947E-05  0.2921915E+04  0.7818609E-02  0.8266387E-01
        2   -1    0    0  501    0  0.00000000000E+00  0.00000000000E+00  0.27866488068E+04  0.27866488068E+04  0.25500000920E-02 0. -1.
       -2   -1    0    0    0  501  0.00000000000E+00  0.00000000000E+00 -0.76593654548E+03  0.76593654549E+03  0.25500000920E-02 0.  1.
    10030    2    1    2    0    0  0.00000000000E+00  0.00000000000E+00  0.20207122613E+04  0.35525853523E+04  0.29219145508E+04 0.  0.
        3    1    3    3  502    0  0.10797406630E+04 -0.65519367814E+03  0.19032157011E+04  0.22841516303E+04  0.10100000352E+00 0. -1.
       -3    1    3    3    0  502 -0.10797406630E+04  0.65519367814E+03  0.11749656023E+03  0.12684337220E+04  0.10100000352E+00 0.  1.
</event>
<event>
 5   0  0.8055928E-06  0.1724819E+04  0.7818609E-02  0.8747334E-01
       -1   -1    0    0    0  501  0.00000000000E+00  0.00000000000E+00  0.12998403151E+04  0.12998403151E+04  0.50400001928E-02 0. -1.
        1   -1    0    0  501    0  0.00000000000E+00  0.00000000000E+00 -0.57218571258E+03  0.57218571260E+03  0.50400001928E-02 0.  1.
    10030    2    1    2    0    0  0.00000000000E+00  0.00000000000E+00  0.72765460250E+03  0.18720260277E+04  0.17248188971E+04 0.  0.
        2    1    3    3  502    0 -0.58878777925E+03 -0.28862253529E+03 -0.24413726738E+03  0.69969780777E+03  0.25500000920E-02 0.  1.
       -2    1    3    3    0  502  0.58878777925E+03  0.28862253529E+03  0.97179186988E+03  0.11723282199E+04  0.25500000920E-02 0. -1.
</event>
<event>
 5   0  0.8122088E-06  0.2968050E+04  0.7818609E-02  0.8252914E-01
        1   -1    0    0  501    0  0.00000000000E+00  0.00000000000E+00  0.19209423923E+04  0.19209423923E+04  0.50400001928E-02 0.  1.
       -1   -1    0    0    0  501  0.00000000000E+00  0.00000000000E+00 -0.11464842008E+04  0.11464842008E+04  0.50400001928E-02 0. -1.
    10030    2    1    2    0    0  0.00000000000E+00  0.00000000000E+00  0.77445819157E+03  0.30674265931E+04  0.29680499345E+04 0.  0.
        1    1    3    3  502    0 -0.45915179104E+03  0.22608989208E+03 -0.10523907853E+04  0.11702407323E+04  0.50400001928E-02 0. -1.
       -1    1    3    3    0  502  0.45915179104E+03 -0.22608989208E+03  0.18268489768E+04  0.18971858609E+04  0.50400001928E-02 0.  1.
</event>
<event>
 5   0  0.1918901E-05  0.1867074E+04  0.7818609E-02  0.8671421E-01
        2   -1    0    0  501    0  0.00000000000E+00  0.00000000000E+00  0.88746169998E+03  0.88746169999E+03  0.25500000920E-02 0. -1.
       -2   -1    0    0    0  501  0.00000000000E+00  0.00000000000E+00 -0.98200463849E+03  0.98200463850E+03  0.25500000920E-02 0.  1.
    10030    2    1    2    0    0  0.00000000000E+00  0.00000000000E+00 -0.94542938512E+02  0.18694663385E+04  0.18670741880E+04 0.  0.
        1    1    3    3  502    0 -0.20539645380E+03 -0.23025636578E+03 -0.92947115383E+03  0.97934790705E+03  0.50400001928E-02 0.  1.
       -1    1    3    3    0  502  0.20539645380E+03  0.23025636578E+03  0.83492821532E+03  0.89011843143E+03  0.50400001928E-02 0. -1.
</event>
<event>
 5   0  0.7971153E-06  0.2334813E+04  0.7818609E-02  0.8464320E-01
       -1   -1    0    0    0  501  0.00000000000E+00  0.00000000000E+00  0.88692696509E+03  0.88692696511E+03  0.50400001928E-02 0.  1.
        1   -1    0    0  501    0  0.00000000000E+00  0.00000000000E+00 -0.15365845614E+04  0.15365845614E+04  0.50400001928E-02 0. -1.
    10030    2    1    2    0    0  0.00000000000E+00  0.00000000000E+00 -0.64965759631E+03  0.24235115265E+04  0.23348132959E+04 0.  0.
        5    1    3    3  502    0 -0.22056704753E+03  0.11335172685E+04 -0.14713855519E+03  0.11641233031E+04  0.46999998093E+01 0. -1.
       -5    1    3    3    0  502  0.22056704753E+03 -0.11335172685E+04 -0.50251904112E+03  0.12593882234E+04  0.46999998093E+01 0.  1.
</event>
<event>
 5   0  0.7305460E-06  0.2911139E+04  0.7818609E-02  0.8269571E-01
       -1   -1    0    0    0  501  0.00000000000E+00  0.00000000000E+00  0.97462445055E+03  0.97462445056E+03  0.50400001928E-02 0. -1.
        1   -1    0    0  501    0  0.00000000000E+00  0.00000000000E+00 -0.21738446316E+04  0.21738446317E+04  0.50400001928E-02 0.  1.
    10030    2    1    2    0    0  0.00000000000E+00  0.00000000000E+00 -0.11992201811E+04  0.31484690822E+04  0.29111386980E+04 0.  0.
        4    1    3    3  502    0 -0.88348236466E+03 -0.10636433920E+04 -0.10914390236E+04  0.17615672310E+04  0.12699999809E+01 0. -1.
       -4    1    3    3    0  502  0.88348236466E+03  0.10636433920E+04 -0.10778115745E+03  0.13869018512E+04  0.12699999809E+01 0.  1.
</event>
<event>
 5   0  0.1937947E-05  0.2913700E+04  0.7818609E-02  0.8268813E-01
       -2   -1    0    0    0  501  0.00000000000E+00  0.00000000000E+00  0.18559396172E+04  0.18559396172E+04  0.25500000920E-02 0. -1.
        2   -1    0    0  501    0  0.00000000000E+00  0.00000000000E+00 -0.11435780944E+04  0.11435780944E+04  0.25500000920E-02 0.  1.
    10030    2    1    2    0    0  0.00000000000E+00  0.00000000000E+00  0.71236152285E+03  0.29995177116E+04  0.29136999782E+04 0.  0.
        3    1    3    3  502    0  0.86234422220E+03 -0.66285520162E+03 -0.64159110645E+03  0.12627959986E+04  0.10100000352E+00 0.  1.
       -3    1    3    3    0  502 -0.86234422220E+03  0.66285520162E+03  0.13539526293E+04  0.17367217130E+04  0.10100000352E+00 0. -1.
</event>
<event>
 5   0  0.7305460E-06  0.2828860E+04  0.7818609E-02  0.8294364E-01
        1   -1    0    0  501    0  0.00000000000E+00  0.00000000000E+00  0.70982533060E+03  0.70982533062E+03  0.50400001928E-02 0. -1.
       -1   -1    0    0    0  501  0.00000000000E+00  0.00000000000E+00 -0.28184566074E+04  0.28184566074E+04  0.50400001928E-02 0.  1.
    10030    2    1    2    0    0  0.00000000000E+00  0.00000000000E+00 -0.21086312768E+04  0.35282819381E+04  0.28288597655E+04 0.  0.
        4    1    3    3  502    0 -0.53238927676E+03  0.14841241768E+03  0.56956976419E+03  0.79364722447E+03  0.12699999809E+01 0. -1.
       -4    1    3    3    0  502  0.53238927676E+03 -0.14841241768E+03 -0.26782010410E+04  0.27346347136E+04  0.12699999809E+01 0.  1.
</event>
<event>
 5   0  0.8122088E-06  0.2934168E+04  0.7818609E-02  0.8262783E-01
       -1   -1    0    0    0  501  0.00000000000E+00  0.00000000000E+00  0.27628546496E+04  0.27628546496E+04  0.50400001928E-02 0.  1.
        1   -1    0    0  501    0  0.00000000000E+00  0.00000000000E+00 -0.77902620118E+03  0.77902620119E+03  0.50400001928E-02 0. -1.
    10030    2    1    2    0    0  0.00000000000E+00  0.00000000000E+00  0.19838284485E+04  0.35418808508E+04  0.29341684765E+04 0.  0.
        1    1    3    3  502    0  0.47081393403E+03 -0.28482001119E+03  0.26335684900E+04  0.26904407057E+04  0.50400001928E-02 0.  1.
       -1    1    3    3    0  502 -0.47081393403E+03  0.28482001119E+03 -0.64974004151E+03  0.85144014518E+03  0.50400001928E-02 0. -1.
</event>
<event>
 5   0  0.8055928E-06  0.2914731E+04  0.7818609E-02  0.8268508E-01
        1   -1    0    0  501    0  0.00000000000E+00  0.00000000000E+00  0.10019321701E+04  0.10019321701E+04  0.50400001928E-02 0. -1.
       -1   -1    0    0    0  501  0.00000000000E+00  0.00000000000E+00 -0.21198181418E+04  0.21198181418E+04  0.50400001928E-02 0.  1.
    10030    2    1    2    0    0  0.00000000000E+00  0.00000000000E+00 -0.11178859716E+04  0.31217503119E+04  0.29147308563E+04 0.  0.
        2    1    3    3  502    0  0.80732291607E+03 -0.97428086398E+03  0.21555008827E+03  0.12835323655E+04  0.25500000920E-02 0. -1.
       -2    1    3    3    0  502 -0.80732291607E+03  0.97428086398E+03 -0.13334360599E+04  0.18382179464E+04  0.25500000920E-02 0.  1.
</event>
<event>
 5   0  0.1918901E-05  0.2970055E+04  0.7818609E-02  0.8252334E-01
        2   -1    0    0  501    0  0.00000000000E+00  0.00000000000E+00  0.20883998380E+04  0.20883998380E+04  0.25500000920E-02 0. -1.
       -2   -1    0    0    0  501  0.00000000000E+00  0.00000000000E+00 -0.10559794329E+04  0.10559794329E+04  0.25500000920E-02 0.  1.
    10030    2    1    2    0    0  0.00000000000E+00  0.00000000000E+00  0.10324204051E+04  0.31443792709E+04  0.29700554046E+04 0.  0.
        1    1    3    3  502    0 -0.10896731165E+03 -0.13344132980E+03  0.20777842223E+04  0.20849143239E+04  0.50400001928E-02 0. -1.
       -1    1    3    3    0  502  0.10896731165E+03  0.13344132980E+03 -0.10453638172E+04  0.10594649470E+04  0.50400001928E-02 0.  1.
</event>
<event>
 5   0  0.6578125E-06  0.1465095E+04  0.7818609E-02  0.8908002E-01
        3   -1    0    0  501    0  0.00000000000E+00  0.00000000000E+00  0.78935225520E+03  0.78935226166E+03  0.10100000352E+00 0. -1.
       -3   -1    0    0    0  501  0.00000000000E+00  0.00000000000E+00 -0.67983088711E+03  0.67983089461E+03  0.10100000352E+00 0.  1.
    10030    2    1    2    0    0  0.00000000000E+00  0.00000000000E+00  0.10952136809E+03  0.14691831563E+04  0.14650952927E+04 0.  0.
        5    1    3    3  502    0  0.31013657449E+03 -0.63696123297E+03 -0.13203750377E+03  0.72066656613E+03  0.46999998093E+01 0.  1.
       -5    1    3    3    0  502 -0.31013657449E+03  0.63696123297E+03  0.24155887186E+03  0.74851659014E+03  0.46999998093E+01 0. -1.
</event>
<event>
 5   0  0.1937947E-05  0.2943207E+04  0.7818609E-02  0.8260137E-01
       -2   -1    0    0    0  501  0.00000000000E+00  0.00000000000E+00  0.11219003367E+04  0.11219003367E+04  0.25500000920E-02 0. -1.
        2   -1    0    0  501    0  0.00000000000E+00  0.00000000000E+00 -0.19303113672E+04  0.19303113672E+04  0.25500000920E-02 0.  1.
    10030    2    1    2    0    0  0.00000000000E+00  0.00000000000E+00 -0.80841103050E+03  0.30522117040E+04  0.29432070759E+04 0.  0.
        3    1    3    3  502    0  0.11471665448E+04 -0.35830846490E+03 -0.12849177212E+04  0.17593719328E+04  0.10100000352E+00 0.  1.
       -3    1    3    3    0  502 -0.11471665448E+04  0.35830846490E+03  0.47650669066E+03  0.12928397712E+04  0.10100000352E+00 0. -1.
</event>
<event>
 5   0  0.1976233E-05  0.2867714E+04  0.7818609E-02  0.8282549E-01
        2   -1    0    0  501    0  0.00000000000E+00  0.00000000000E+00  0.20552499852E+04  0.20552499852E+04  0.25500000920E-02 0.  1.
       -2   -1    0    0    0  501  0.00000000000E+00  0.00000000000E+00 -0.10003387802E+04  0.10003387802E+04  0.25500000920E-02 0. -1.
    10030    2    1    2    0    0  0.00000000000E+00  0.00000000000E+00  0.10549112050E+04  0.30555887654E+04  0.28677142558E+04 0.  0.
        2    1    3    3  502    0  0.10638620569E+04  0.83081553937E+03  0.10427604539E+04  0.17056981857E+04  0.25500000920E-02 0.  1.
       -2    1    3    3    0  502 -0.10638620569E+04 -0.83081553937E+03  0.12150751180E+02  0.13498905797E+04  0.25500000920E-02 0. -1.
</event>
<event>
 5   0  0.1829810E-05  0.2971376E+04  0.7818609E-02  0.8251952E-01
       -2   -1    0    0    0  501  0.00000000000E+00  0.00000000000E+00  0.14500291531E+04  0.14500291531E+04  0.25500000920E-02 0. -1.
        2   -1    0    0  501    0  0.00000000000E+00  0.00000000000E+00 -0.15222238363E+04  0.15222238363E+04  0.25500000920E-02 0.  1.
    10030    2    1    2    0    0  0.00000000000E+00  0.00000000000E+00 -0.72194683201E+02  0.29722529893E+04  0.29713760718E+04 0.  0.
        4    1    3    3  502    0  0.17854379353E+03  0.90475587315E+03  0.11290666876E+04  0.14578251864E+04  0.12699999809E+01 0. -1.
       -4    1    3    3    0  502 -0.17854379353E+03 -0.90475587315E+03 -0.12012613708E+04  0.15144278029E+04  0.12699999809E+01 0.  1.
</event>
<event>
 5   0  0.1937947E-05  0.2052771E+04  0.7818609E-02  0.8582338E-01
        2   -1    0    0  501    0  0.00000000000E+00  0.00000000000E+00  0.14694276186E+04  0.14694276186E+04  0.25500000920E-02 0. -1.
       -2   -1    0    0    0  501  0.00000000000E+00  0.00000000000E+00 -0.71692373810E+03  0.71692373810E+03  0.25500000920E-02 0.  1.
    10030    2    1    2    0    0  0.00000000000E+00  0.00000000000E+00  0.75250388049E+03  0.21863513567E+04  0.20527713377E+04 0.  0.
        3    1    3    3  502    0 -0.58133263192E+03 -0.39731438863E+03 -0.41910960099E+03  0.81942615298E+03  0.10100000352E+00 0.  1.
       -3    1    3    3    0  502  0.58133263192E+03  0.39731438863E+03  0.11716134815E+04  0.13669252037E+04  0.10100000352E+00 0. -1.
</event>
<event>
 5   0  0.8122088E-06  0.2876804E+04  0.7818609E-02  0.8279813E-01
        1   -1    0    0  501    0  0.00000000000E+00  0.00000000000E+00  0.19134697277E+04  0.19134697277E+04  0.50400001928E-02 0.  1.
       -1   -1    0    0    0  501  0.00000000000E+00  0.00000000000E+00 -0.10812820541E+04  0.10812820541E+04  0.50400001928E-02 0. -1.
    10030    2    1    2    0    0  0.00000000000E+00  0.00000000000E+00  0.83218767367E+03  0.29947517818E+04  0.28768041140E+04 0.  0.
        1    1    3    3  502    0 -0.69068745608E+03 -0.10729822660E+04  0.11071328071E+04  0.16894031957E+04  0.50400001928E-02 0.  1.
       -1    1    3    3    0  502  0.69068745608E+03  0.10729822660E+04 -0.27494513339E+03  0.13053485862E+04  0.50400001928E-02 0. -1.
</event>
<event>
 5   0  0.6578125E-06  0.2927215E+04  0.7818609E-02  0.8264826E-01
       -3   -1    0    0    0  501  0.00000000000E+00  0.00000000000E+00  0.15021631886E+04  0.15021631920E+04  0.10100000352E+00 0. -1.
        3   -1    0    0  501    0  0.00000000000E+00  0.00000000000E+00 -0.14260414156E+04  0.14260414192E+04  0.10100000352E+00 0.  1.
    10030    2    1    2    0    0  0.00000000000E+00  0.00000000000E+00  0.76121772934E+02  0.29282046112E+04  0.29272150110E+04 0.  0.
        3    1    3    3  502    0  0.67526415422E+03 -0.84181569715E+03  0.10270869822E+04  0.14898130840E+04  0.10100000352E+00 0. -1.
       -3    1    3    3    0  502 -0.67526415422E+03  0.84181569715E+03 -0.95096520931E+03  0.14383915272E+04  0.10100000352E+00 0.  1.
</event>
<event>
 5   0  0.1829810E-05  0.2987596E+04  0.7818609E-02  0.8247282E-01
       -2   -1    0    0    0  501  0.00000000000E+00  0.00000000000E+00  0.12965496649E+04  0.12965496649E+04  0.25500000920E-02 0.  1.
        2   -1    0    0  501    0  0.00000000000E+00  0.00000000000E+00 -0.17210538297E+04  0.17210538298E+04  0.25500000920E-02 0. -1.
    10030    2    1    2    0    0  0.00000000000E+00  0.00000000000E+00 -0.42450416482E+03  0.30176034947E+04  0.29875955324E+04 0.  0.
        4    1    3    3  502    0 -0.10711431643E+04 -0.10224397494E+04 -0.13554456735E+02  0.14808497749E+04  0.12699999809E+01 0.  1.
       -4    1    3    3    0  502  0.10711431643E+04  0.10224397494E+04 -0.41094970809E+03  0.15367537198E+04  0.12699999809E+01 0. -1.
</event>
<event>
 5   0  0.1976233E-05  0.2892608E+04  0.7818609E-02  0.8275080E-01
       -2   -1    0    0    0  501  0.00000000000E+00  0.00000000000E+00  0.11709996885E+04  0.11709996885E+04  0.25500000920E-02 0. -1.
        2   -1    0    0  501    0  0.00000000000E+00  0.00000000000E+00 -0.17863331853E+04  0.17863331853E+04  0.25500000920E-02 0.  1.
    10030    2    1    2    0    0  0.00000000000E+00  0.00000000000E+00 -0.61533349681E+03  0.29573328738E+04  0.28926082372E+04 0.  0.
        2    1    3    3  502    0  0.13311652114E+04  0.53500345538E+03 -0.49497674059E+03  0.15176401059E+04  0.25500000920E-02 0. -1.
       -2    1    3    3    0  502 -0.13311652114E+04 -0.53500345538E+03 -0.12035675622E+03  0.14396927679E+04  0.25500000920E-02 0.  1.
</event>
<event>
 5   0  0.8055928E-06  0.2857801E+04  0.7818609E-02  0.8285545E-01
       -1   -1    0    0    0  501  0.00000000000E+00  0.00000000000E+00  0.16235803703E+04  0.16235803703E+04  0.50400001928E-02 0. -1.
        1   -1    0    0  501    0  0.00000000000E+00  0.00000000000E+00 -0.12575645422E+04  0.12575645422E+04  0.50400001928E-02 0.  1.
    10030    2    1    2    0    0  0.00000000000E+00  0.00000000000E+00  0.36601582817E+03  0.28811449125E+04  0.28578013263E+04 0.  0.
        2    1    3    3  502    0 -0.22672188471E+03  0.38739927556E+02  0.16047946788E+04  0.16211938675E+04  0.25500000920E-02 0. -1.
       -2    1    3    3    0  502  0.22672188471E+03 -0.38739927556E+02 -0.12387788506E+04  0.12599510450E+04  0.25500000920E-02 0.  1.
</event>
<event>
 5   0  0.6578125E-06  0.1583663E+04  0.7818609E-02  0.8830648E-01
       -4   -1    0    0    0  501  0.00000000000E+00  0.00000000000E+00  0.96079197637E+03  0.96079281572E+03  0.12699999809E+01 0.  1.
        4   -1    0    0  501    0  0.00000000000E+00  0.00000000000E+00 -0.65258150741E+03  0.65258274319E+03  0.12699999809E+01 0. -1.
    10030    2    1    2    0    0  0.00000000000E+00  0.00000000000E+00  0.30821046896E+03  0.16133755589E+04  0.15836625275E+04 0.  0.
        2    1    3    3  502    0 -0.36107269323E+03  0.67534998003E+03  0.35919212831E+03  0.84586646131E+03  0.25500000920E-02 0.  1.
       -2    1    3    3    0  502  0.36107269323E+03 -0.67534998003E+03 -0.50981659353E+02  0.76750909761E+03  0.25500000920E-02 0. -1.
</event>
<event>
 5   0  0.1918901E-05  0.2924166E+04  0.7818609E-02  0.8265724E-01
        2   -1    0    0  501    0  0.00000000000E+00  0.00000000000E+00  0.20226165289E+04  0.20226165289E+04  0.25500000920E-02 0.  1.
       -2   -1    0    0    0  501  0.00000000000E+00  0.00000000000E+00 -0.10568913950E+04  0.10568913950E+04  0.25500000920E-02 0. -1.
    10030    2    1    2    0    0  0.00000000000E+00  0.00000000000E+00  0.96572513394E+03  0.30795079239E+04  0.29241655253E+04 0.  0.
        1    1    3    3  502    0  0.12197544434E+04 -0.71408510178E+03  0.87685972091E+03  0.16633103754E+04  0.50400001928E-02 0.  1.
       -1    1    3    3    0  502 -0.12197544434E+04  0.71408510178E+03  0.88865413032E+02  0.14161975485E+04  0.50400001928E-02 0. -1.
</event>
<event>
 5   0  0.7305460E-06  0.2893412E+04  0.7818609E-02  0.8274840E-01
       -1   -1    0    0    0  501  0.00000000000E+00  0.00000000000E+00  0.99071113572E+03  0.99071113573E+03  0.50400001928E-02 0.  1.
        1   -1    0    0  501    0  0.00000000000E+00  0.00000000000E+00 -0.21125822363E+04  0.21125822363E+04  0.50400001928E-02 0. -1.
    10030    2    1    2    0    0  0.00000000000E+00  0.00000000000E+00 -0.11218711006E+04  0.31032933720E+04  0.28934123430E+04 0.  0.
        4    1    3    3  502    0 -0.55440325992E+02  0.94788564768E+02  0.98623420274E+03  0.99232959107E+03  0.12699999809E+01 0.  1.
       -4    1    3    3    0  502  0.55440325992E+02 -0.94788564768E+02 -0.21081053033E+04  0.21109637810E+04  0.12699999809E+01 0. -1.
</event>
<event>
 5   0  0.7971153E-06  0.2850245E+04  0.7818609E-02  0.8287837E-01
       -1   -1    0    0    0  501  0.00000000000E+00  0.00000000000E+00  0.17350364080E+04  0.17350364080E+04  0.50400001928E-02 0.  1.
        1   -1    0    0  501    0  0.00000000000E+00  0.00000000000E+00 -0.11705653698E+04  0.11705653698E+04  0.50400001928E-02 0. -1.
    10030    2    1    2    0    0  0.00000000000E+00  0.00000000000E+00  0.56447103821E+03  0.29056017778E+04  0.28502445752E+04 0.  0.
        5    1    3    3  502    0 -0.13473156954E+03  0.78197170544E+03 -0.92452886926E+03  0.12183628622E+04  0.46999998093E+01 0. -1.
       -5    1    3    3    0  502  0.13473156954E+03 -0.78197170544E+03  0.14889999075E+04  0.16872389156E+04  0.46999998093E+01 0.  1.
</event>
<event>
 5   0  0.8122088E-06  0.2949334E+04  0.7818609E-02  0.8258349E-01
       -1   -1    0    0    0  501  0.00000000000E+00  0.00000000000E+00  0.93241928933E+03  0.93241928935E+03  0.50400001928E-02 0. -1.
        1   -1    0    0  501    0  0.00000000000E+00  0.00000000000E+00 -0.23322583957E+04  0.23322583957E+04  0.50400001928E-02 0.  1.
    10030    2    1    2    0    0  0.00000000000E+00  0.00000000000E+00 -0.13998391064E+04  0.32646776851E+04  0.29493339695E+04 0.  0.
        1    1    3    3  502    0 -0.13900993354E+04 -0.25196658846E+03 -0.11679510556E+04  0.18330229110E+04  0.50400001928E-02 0.  1.
       -1    1    3    3    0  502  0.13900993354E+04  0.25196658846E+03 -0.23188805075E+03  0.14316547740E+04  0.50400001928E-02 0. -1.
</event>
<event>
 5   0  0.8234888E-06  0.2858838E+04  0.7818609E-02  0.8285231E-01
       -1   -1    0    0    0  501  0.00000000000E+00  0.00000000000E+00  0.16309970658E+04  0.16309970658E+04  0.50400001928E-02 0. -1.
        1   -1    0    0  501    0  0.00000000000E+00  0.00000000000E+00 -0.12527547891E+04  0.12527547891E+04  0.50400001928E-02 0.  1.
    10030    2    1    2    0    0  0.00000000000E+00  0.00000000000E+00  0.37824227670E+03  0.28837518549E+04  0.28588384951E+04 0.  0.
        3    1    3    3  502    0 -0.70489500186E+03 -0.12427260307E+04  0.14407298344E+03  0.14359672649E+04  0.10100000352E+00 0.  1.
       -3    1    3    3    0  502  0.70489500186E+03  0.12427260307E+04  0.23416929326E+03  0.14477845900E+04  0.10100000352E+00 0. -1.
</event>
<event>
 5   0  0.1918901E-05  0.2879815E+04  0.7818609E-02  0.8278908E-01
        2   -1    0    0  501    0  0.00000000000E+00  0.00000000000E+00  0.14107768964E+04  0.14107768964E+04  0.25500000920E-02 0. -1.
       -2   -1    0    0    0  501  0.00000000000E+00  0.00000000000E+00 -0.14696399705E+04  0.14696399705E+04  0.25500000920E-02 0.  1.
    10030    2    1    2    0    0  0.00000000000E+00  0.00000000000E+00 -0.58863074041E+02  0.28804168669E+04  0.28798153527E+04 0.  0.
        1    1    3    3  502    0 -0.46500828162E+03  0.10000837221E+04  0.89646909503E+03  0.14212870898E+04  0.50400001928E-02 0. -1.
       -1    1    3    3    0  502  0.46500828162E+03 -0.10000837221E+04 -0.95533216907E+03  0.14591297771E+04  0.50400001928E-02 0.  1.
</event>
<event>
 5   0  0.1918901E-05  0.2864315E+04  0.7818609E-02  0.8283575E-01
        2   -1    0    0  501    0  0.00000000000E+00  0.00000000000E+00  0.18799493699E+04  0.18799493699E+04  0.25500000920E-02 0. -1.
       -2   -1    0    0    0  501  0.00000000000E+00  0.00000000000E+00 -0.10910268208E+04  0.10910268208E+04  0.25500000920E-02 0.  1.
    10030    2    1    2    0    0  0.00000000000E+00  0.00000000000E+00  0.78892254905E+03  0.29709761907E+04  0.28643150555E+04 0.  0.
        1    1    3    3  502    0 -0.98335748321E+03 -0.36128160983E+03 -0.61840505593E+03  0.12165283205E+04  0.50400001928E-02 0.  1.
       -1    1    3    3    0  502  0.98335748321E+03  0.36128160983E+03  0.14073276050E+04  0.17544478702E+04  0.50400001928E-02 0. -1.
</event>
<event>
 5   0  0.1829810E-05  0.2965218E+04  0.7818609E-02  0.8253733E-01
       -2   -1    0    0    0  501  0.00000000000E+00  0.00000000000E+00  0.14621791248E+04  0.14621791248E+04  0.25500000920E-02 0. -1.
        2   -1    0    0  501    0  0.00000000000E+00  0.00000000000E+00 -0.15033246388E+04  0.15033246388E+04  0.25500000920E-02 0.  1.
    10030    2    1    2    0    0  0.00000000000E+00  0.00000000000E+00 -0.41145514006E+02  0.29655037635E+04  0.29652183087E+04 0.  0.
        4    1    3    3  502    0  0.24382213519E+03  0.49290527284E+03  0.13564125231E+04  0.14636466060E+04  0.12699999809E+01 0. -1.
       -4    1    3    3    0  502 -0.24382213519E+03 -0.49290527284E+03 -0.13975580371E+04  0.15018571575E+04  0.12699999809E+01 0.  1.
</event>
<event>
 5   0  0.8055928E-06  0.2897398E+04  0.7818609E-02  0.8273652E-01
        1   -1    0    0  501    0  0.00000000000E+00  0.00000000000E+00  0.22602078989E+04  0.22602078989E+04  0.50400001928E-02 0. -1.
       -1   -1    0    0    0  501  0.00000000000E+00  0.00000000000E+00 -0.92855585726E+03  0.92855585727E+03  0.50400001928E-02 0.  1.
    10030    2    1    2    0    0  0.00000000000E+00  0.00000000000E+00  0.13316520416E+04  0.31887637561E+04  0.28973983386E+04 0.  0.
        2    1    3    3  502    0 -0.26830660075E+03 -0.35810491234E+03  0.21822464834E+04  0.22276506178E+04  0.25500000920E-02 0. -1.
       -2    1    3    3    0  502  0.26830660075E+03  0.35810491234E+03 -0.85059444185E+03  0.96111313838E+03  0.25500000920E-02 0.  1.
</event>
<event>
 5   0  0.1960961E-05  0.1564262E+04  0.7818609E-02  0.8842809E-01
        2   -1    0    0  501    0  0.00000000000E+00  0.00000000000E+00  0.88795228397E+03  0.88795228397E+03  0.25500000920E-02 0. -1.
       -2   -1    0    0    0  501  0.00000000000E+00  0.00000000000E+00 -0.68892085860E+03  0.68892085861E+03  0.25500000920E-02 0.  1.
    10030    2    1    2    0    0  0.00000000000E+00  0.00000000000E+00  0.19903142537E+03  0.15768731426E+04  0.15642619344E+04 0.  0.
        5    1    3    3  502    0 -0.35182614980E+03 -0.29311377481E+03 -0.53963812704E+03  0.70776318273E+03  0.46999998093E+01 0.  1.
       -5    1    3    3    0  502  0.35182614980E+03  0.29311377481E+03  0.73866955241E+03  0.86910995986E+03  0.46999998093E+01 0. -1.
</event>
<event>
 5   0  0.1960961E-05  0.2043447E+04  0.7818609E-02  0.8586573E-01
        2   -1    0    0  501    0  0.00000000000E+00  0.00000000000E+00  0.16584756269E+04  0.16584756269E+04  0.25500000920E-02 0. -1.
       -2   -1    0    0    0  501  0.00000000000E+00  0.00000000000E+00 -0.62944513760E+03  0.62944513760E+03  0.25500000920E-02 0.  1.
    10030    2    1    2    0    0  0.00000000000E+00  0.00000000000E+00  0.10290304893E+04  0.22879207645E+04  0.20434474979E+04 0.  0.
        5    1    3    3  502    0 -0.24906371743E+03 -0.66956503148E+03  0.13323469516E+04  0.15117938206E+04  0.46999998093E+01 0. -1.
       -5    1    3    3    0  502  0.24906371743E+03  0.66956503148E+03 -0.30331646227E+03  0.77612694387E+03  0.46999998093E+01 0.  1.
</event>
<event>
 5   0  0.1937947E-05  0.2715034E+04  0.7818609E-02  0.8330143E-01
       -2   -1    0    0    0  501  0.00000000000E+00  0.00000000000E+00  0.90882283136E+03  0.90882283136E+03  0.25500000920E-02 0.  1.
        2   -1    0    0  501    0  0.00000000000E+00  0.00000000000E+00 -0.20277354020E+04  0.20277354020E+04  0.25500000920E-02 0. -1.
    10030    2    1    2    0    0  0.00000000000E+00  0.00000000000E+00 -0.11189125707E+04  0.29365582334E+04  0.27150338704E+04 0.  0.
        3    1    3    3  502    0  0.81621987434E+03  0.79686076336E+03 -0.13554742032E+04  0.17715846819E+04  0.10100000352E+00 0.  1.
       -3    1    3    3    0  502 -0.81621987434E+03 -0.79686076336E+03  0.23656163254E+03  0.11649735515E+04  0.10100000352E+00 0. -1.
</event>
<event>
 5   0  0.1960961E-05  0.2962719E+04  0.7818609E-02  0.8254457E-01
        2   -1    0    0  501    0  0.00000000000E+00  0.00000000000E+00  0.12125846502E+04  0.12125846502E+04  0.25500000920E-02 0. -1.
       -2   -1    0    0    0  501  0.00000000000E+00  0.00000000000E+00 -0.18097096005E+04  0.18097096005E+04  0.25500000920E-02 0.  1.
    10030    2    1    2    0    0  0.00000000000E+00  0.00000000000E+00 -0.59712495032E+03  0.30222942507E+04  0.29627190774E+04 0.  0.
        5    1    3    3  502    0 -0.10760545848E+04  0.42278846887E+03 -0.12433393962E+04  0.16978099137E+04  0.46999998093E+01 0. -1.
       -5    1    3    3    0  502  0.10760545848E+04 -0.42278846887E+03  0.64621444587E+03  0.13244843370E+04  0.46999998093E+01 0.  1.
</event>
<event>
 5   0  0.1976233E-05  0.2948172E+04  0.7818609E-02  0.8258687E-01
        2   -1    0    0  501    0  0.00000000000E+00  0.00000000000E+00  0.17256857169E+04  0.17256857169E+04  0.25500000920E-02 0. -1.
       -2   -1    0    0    0  501  0.00000000000E+00  0.00000000000E+00 -0.12591687933E+04  0.12591687933E+04  0.25500000920E-02 0.  1.
    10030    2    1    2    0    0  0.00000000000E+00  0.00000000000E+00  0.46651692362E+03  0.29848545102E+04  0.29481720451E+04 0.  0.
        2    1    3    3  502    0 -0.42701717309E+03 -0.65982546364E+03 -0.10293414138E+04  0.12950895934E+04  0.25500000920E-02 0.  1.
       -2    1    3    3    0  502  0.42701717309E+03  0.65982546364E+03  0.14958583375E+04  0.16897649169E+04  0.25500000920E-02 0. -1.
</event>
<event>
 5   0  0.1960961E-05  0.2910020E+04  0.7818609E-02  0.8269903E-01
       -2   -1    0    0    0  501  0.00000000000E+00  0.00000000000E+00  0.11837298481E+04  0.11837298481E+04  0.25500000920E-02 0. -1.
        2   -1    0    0  501    0  0.00000000000E+00  0.00000000000E+00 -0.17884601594E+04  0.17884601594E+04  0.25500000920E-02 0.  1.
    10030    2    1    2    0    0  0.00000000000E+00  0.00000000000E+00 -0.60473031128E+03  0.29721900075E+04  0.29100197063E+04 0.  0.
        5    1    3    3  502    0  0.10420066965E+04 -0.18572175291E+03 -0.13220739642E+04  0.16935678852E+04  0.46999998093E+01 0.  1.
       -5    1    3    3    0  502 -0.10420066965E+04  0.18572175291E+03  0.71734365288E+03  0.12786221222E+04  0.46999998093E+01 0. -1.
</event>
<event>
 5   0  0.1976233E-05  0.2900398E+04  0.7818609E-02  0.8272759E-01
       -2   -1    0    0    0  501  0.00000000000E+00  0.00000000000E+00  0.66980993457E+03  0.66980993457E+03  0.25500000920E-02 0. -1.
        2   -1    0    0  501    0  0.00000000000E+00  0.00000000000E+00 -0.31398125316E+04  0.31398125316E+04  0.25500000920E-02 0.  1.
    10030    2    1    2    0    0  0.00000000000E+00  0.00000000000E+00 -0.24700025971E+04  0.38096224662E+04  0.29003983357E+04 0.  0.
        2    1    3    3  502    0  0.14013318396E+04 -0.10706469878E+02 -0.74489087724E+03  0.15870437839E+04  0.25500000920E-02 0. -1.
       -2    1    3    3    0  502 -0.14013318396E+04  0.10706469878E+02 -0.17251117198E+04  0.22225786823E+04  0.25500000920E-02 0.  1.
</event>
<event>
 5   0  0.1829810E-05  0.1965899E+04  0.7818609E-02  0.8622732E-01
        2   -1    0    0  501    0  0.00000000000E+00  0.00000000000E+00  0.93675366440E+03  0.93675366440E+03  0.25500000920E-02 0.  1.
       -2   -1    0    0    0  501  0.00000000000E+00  0.00000000000E+00 -0.10314237734E+04  0.10314237734E+04  0.25500000920E-02 0. -1.
    10030    2    1    2    0    0  0.00000000000E+00  0.00000000000E+00 -0.94670109026E+02  0.19681774378E+04  0.19658992846E+04 0.  0.
        4    1    3    3  502    0  0.19759922353E+03  0.67858022153E+03 -0.73126051415E+03  0.10169858026E+04  0.12699999809E+01 0. -1.
       -4    1    3    3    0  502 -0.19759922353E+03 -0.67858022153E+03  0.63659040512E+03  0.95119163526E+03  0.12699999809E+01 0.  1.
</event>
<event>
 5   0  0.1918901E-05  0.3007975E+04  0.7818609E-02  0.8241457E-01
       -2   -1    0    0    0  501  0.00000000000E+00  0.00000000000E+00  0.15712747047E+04  0.15712747047E+04  0.25500000920E-02 0. -1.
        2   -1    0    0  501    0  0.00000000000E+00  0.00000000000E+00 -0.14395819865E+04  0.14395819865E+04  0.25500000920E-02 0.  1.
    10030    2    1    2    0    0  0.00000000000E+00  0.00000000000E+00  0.13169271828E+03  0.30108566912E+04  0.30079752398E+04 0.  0.
        1    1    3    3  502    0 -0.12893921952E+04  0.80556023114E+02  0.83662118400E+03  0.15391414852E+04  0.50400001928E-02 0. -1.
       -1    1    3    3    0  502  0.12893921952E+04 -0.80556023114E+02 -0.70492846572E+03  0.14717152060E+04  0.50400001928E-02 0.  1.
</event>
<event>
 5   0  0.8122088E-06  0.2911615E+04  0.7818609E-02  0.8269430E-01
        1   -1    0    0  501    0  0.00000000000E+00  0.00000000000E+00  0.21117135486E+04  0.21117135486E+04  0.50400001928E-02 0.  1.
       -1   -1    0    0    0  501  0.00000000000E+00  0.00000000000E+00 -0.10036281699E+04  0.10036281699E+04  0.50400001928E-02 0. -1.
    10030    2    1    2    0    0  0.00000000000E+00  0.00000000000E+00  0.11080853787E+04  0.31153417185E+04  0.29116148126E+04 0.  0.
        1    1    3    3  502    0 -0.68491596739E+03  0.37848050788E+03  0.18675453766E+04  0.20248661958E+04  0.50400001928E-02 0.  1.
       -1    1    3    3    0  502  0.68491596739E+03 -0.37848050788E+03 -0.75945999788E+03  0.10904755227E+04  0.50400001928E-02 0. -1.
</event>
<event>
 5   0  0.7971153E-06  0.2892271E+04  0.7818609E-02  0.8275181E-01
       -1   -1    0    0    0  501  0.00000000000E+00  0.00000000000E+00  0.13251664540E+04  0.13251664540E+04  0.50400001928E-02 0.  1.
        1   -1    0    0  501    0  0.00000000000E+00  0.00000000000E+00 -0.15781473203E+04  0.15781473203E+04  0.50400001928E-02 0. -1.
    10030    2    1    2    0    0  0.00000000000E+00  0.00000000000E+00 -0.25298086626E+03  0.29033137743E+04  0.28922710027E+04 0.  0.
        5    1    3    3  502    0 -0.85462106918E+03 -0.11171204725E+04  0.21087378982E+03  0.14222605835E+04  0.46999998093E+01 0.  1.
       -5    1    3    3    0  502  0.85462106918E+03  0.11171204725E+04 -0.46385465608E+03  0.14810531908E+04  0.46999998093E+01 0. -1.
</event>
<event>
 5   0  0.8055928E-06  0.2634397E+04  0.7818609E-02  0.8356610E-01
       -1   -1    0    0    0  501  0.00000000000E+00  0.00000000000E+00  0.10096291810E+04  0.10096291810E+04  0.50400001928E-02 0. -1.
        1   -1    0    0  501    0  0.00000000000E+00  0.00000000000E+00 -0.17184638749E+04  0.17184638750E+04  0.50400001928E-02 0.  1.
    10030    2    1    2    0    0  0.00000000000E+00  0.00000000000E+00 -0.70883469397E+03  0.27280930559E+04  0.26343965340E+04 0.  0.
        2    1    3    3  502    0  0.14092892171E+03 -0.38288490337E+03  0.94254432879E+03  0.10270596974E+04  0.25500000920E-02 0. -1.
       -2    1    3    3    0  502 -0.14092892171E+03  0.38288490337E+03 -0.16513790228E+04  0.17010333586E+04  0.25500000920E-02 0.  1.
</event>
<event>
 5   0  0.7971153E-06  0.2950032E+04  0.7818609E-02  0.8258145E-01
       -1   -1    0    0    0  501  0.00000000000E+00  0.00000000000E+00  0.13653420942E+04  0.13653420942E+04  0.50400001928E-02 0.  1.
        1   -1    0    0  501    0  0.00000000000E+00  0.00000000000E+00 -0.15935001348E+04  0.15935001348E+04  0.50400001928E-02 0. -1.
    10030    2    1    2    0    0  0.00000000000E+00  0.00000000000E+00 -0.22815804062E+03  0.29588422290E+04  0.29500324142E+04 0.  0.
        5    1    3    3  502    0  0.24803272336E+03  0.38924845034E+03 -0.15191967145E+04  0.15877705550E+04  0.46999998093E+01 0. -1.
       -5    1    3    3    0  502 -0.24803272336E+03 -0.38924845034E+03  0.12910386739E+04  0.13710716741E+04  0.46999998093E+01 0.  1.
</event>
<event>
 5   0  0.1918901E-05  0.2570191E+04  0.7818609E-02  0.8378398E-01
        2   -1    0    0  501    0  0.00000000000E+00  0.00000000000E+00  0.95993679245E+03  0.95993679245E+03  0.25500000920E-02 0.  1.
       -2   -1    0    0    0  501  0.00000000000E+00  0.00000000000E+00 -0.17203948886E+04  0.17203948886E+04  0.25500000920E-02 0. -1.
    10030    2    1    2    0    0  0.00000000000E+00  0.00000000000E+00 -0.76045809610E+03  0.26803316810E+04  0.25701909276E+04 0.  0.
        1    1    3    3  502    0  0.11293291563E+04  0.28899915214E+03  0.18384316683E+03  0.11801284520E+04  0.50400001928E-02 0. -1.
       -1    1    3    3    0  502 -0.11293291563E+04 -0.28899915214E+03 -0.94430126293E+03  0.15002032290E+04  0.50400001928E-02 0.  1.
</event>
<event>
 5   0  0.1829810E-05  0.2912221E+04  0.7818609E-02  0.8269250E-01
        2   -1    0    0  501    0  0.00000000000E+00  0.00000000000E+00  0.13763966643E+04  0.13763966643E+04  0.25500000920E-02 0.  1.
       -2   -1    0    0    0  501  0.00000000000E+00  0.00000000000E+00 -0.15404414698E+04  0.15404414698E+04  0.25500000920E-02 0. -1.
    10030    2    1    2    0    0  0.00000000000E+00  0.00000000000E+00 -0.16404480554E+03  0.29168381341E+04  0.29122214892E+04 0.  0.
        4    1    3    3  502    0  0.23059920735E+03  0.10187872050E+04 -0.10981026526E+04  0.15155640574E+04  0.12699999809E+01 0. -1.
       -4    1    3    3    0  502 -0.23059920735E+03 -0.10187872050E+04  0.93405784708E+03  0.14012740767E+04  0.12699999809E+01 0.  1.
</event>
<event>
 5   0  0.7305460E-06  0.2780255E+04  0.7818609E-02  0.8309425E-01
       -1   -1    0    0    0  501  0.00000000000E+00  0.00000000000E+00  0.83755434764E+03  0.83755434765E+03  0.50400001928E-02 0. -1.
        1   -1    0    0  501    0  0.00000000000E+00  0.00000000000E+00 -0.23072584934E+04  0.23072584934E+04  0.50400001928E-02 0.  1.
    10030    2    1    2    0    0  0.00000000000E+00  0.00000000000E+00 -0.14697041457E+04  0.31448128410E+04  0.27802549396E+04 0.  0.
        4    1    3    3  502    0  0.81704181363E+03  0.11030794344E+04 -0.98295580833E+03  0.16883557972E+04  0.12699999809E+01 0. -1.
       -4    1    3    3    0  502 -0.81704181363E+03 -0.11030794344E+04 -0.48674833741E+03  0.14564570439E+04  0.12699999809E+01 0.  1.
</event>
<event>
 5   0  0.8055928E-06  0.2908734E+04  0.7818609E-02  0.8270284E-01
       -1   -1    0    0    0  501  0.00000000000E+00  0.00000000000E+00  0.21258162107E+04  0.21258162107E+04  0.50400001928E-02 0.  1.
        1   -1    0    0  501    0  0.00000000000E+00  0.00000000000E+00 -0.99499819200E+03  0.99499819201E+03  0.50400001928E-02 0. -1.
    10030    2    1    2    0    0  0.00000000000E+00  0.00000000000E+00  0.11308180187E+04  0.31208144028E+04  0.29087339419E+04 0.  0.
        2    1    3    3  502    0 -0.81464753868E+03  0.72487133950E+03 -0.46709448128E+03  0.11862825656E+04  0.25500000920E-02 0. -1.
       -2    1    3    3    0  502  0.81464753868E+03 -0.72487133950E+03  0.15979125000E+04  0.19345318371E+04  0.25500000920E-02 0.  1.
</event>
<event>
 5   0  0.8055928E-06  0.2984944E+04  0.7818609E-02  0.8248043E-01
        1   -1    0    0  501    0  0.00000000000E+00  0.00000000000E+00  0.17540713698E+04  0.17540713698E+04  0.50400001928E-02 0.  1.
       -1   -1    0    0    0  501  0.00000000000E+00  0.00000000000E+00 -0.12698867548E+04  0.12698867549E+04  0.50400001928E-02 0. -1.
    10030    2    1    2    0    0  0.00000000000E+00  0.00000000000E+00  0.48418461494E+03  0.30239581247E+04  0.29849435503E+04 0.  0.
        2    1    3    3  502    0  0.23886112681E+03  0.14549782310E+04  0.78654469111E+01  0.14744755528E+04  0.25500000920E-02 0. -1.
       -2    1    3    3    0  502 -0.23886112681E+03 -0.14549782310E+04  0.47631916803E+03  0.15494825718E+04  0.25500000920E-02 0.  1.
</event>
<event>
 5   0  0.1976233E-05  0.2918679E+04  0.7818609E-02  0.8267341E-01
       -2   -1    0    0    0  501  0.00000000000E+00  0.00000000000E+00  0.86539668501E+03  0.86539668502E+03  0.25500000920E-02 0. -1.
        2   -1    0    0  501    0  0.00000000000E+00  0.00000000000E+00 -0.24609202874E+04  0.24609202874E+04  0.25500000920E-02 0.  1.
    10030    2    1    2    0    0  0.00000000000E+00  0.00000000000E+00 -0.15955236024E+04  0.33263169725E+04  0.29186793307E+04 0.  0.
        2    1    3    3  502    0  0.45015397670E+03  0.59842103603E+03  0.62974592724E+03  0.97843051464E+03  0.25500000920E-02 0. -1.
       -2    1    3    3    0  502 -0.45015397670E+03 -0.59842103603E+03 -0.22252695297E+04  0.23478864578E+04  0.25500000920E-02 0.  1.
</event>
<event>
 5   0  0.8122088E-06  0.1917389E+04  0.7818609E-02  0.8646249E-01
        1   -1    0    0  501    0  0.00000000000E+00  0.00000000000E+00  0.22045846984E+04  0.22045846984E+04  0.50400001928E-02 0. -1.
       -1   -1    0    0    0  501  0.00000000000E+00  0.00000000000E+00 -0.41690172417E+03  0.41690172420E+03  0.50400001928E-02 0.  1.
    10030    2    1    2    0    0  0.00000000000E+00  0.00000000000E+00  0.17876829742E+04  0.26214864226E+04  0.19173890183E+04 0.  0.
        1    1    3    3  502    0 -0.70630514290E+03  0.64824435761E+03  0.89010725486E+03  0.13081967082E+04  0.50400001928E-02 0. -1.
       -1    1    3    3    0  502  0.70630514290E+03 -0.64824435761E+03  0.89757571938E+03  0.13132897145E+04  0.50400001928E-02 0.  1.
</event>
<event>
 5   0  0.8055928E-06  0.2661225E+04  0.7818609E-02  0.8347697E-01
        1   -1    0    0  501    0  0.00000000000E+00  0.00000000000E+00  0.12207953065E+04  0.12207953065E+04  0.50400001928E-02 0.  1.
       -1   -1    0    0    0  501  0.00000000000E+00  0.00000000000E+00 -0.14503083242E+04  0.14503083242E+04  0.50400001928E-02 0. -1.
    10030    2    1    2    0    0  0.00000000000E+00  0.00000000000E+00 -0.22951301769E+03  0.26711036306E+04  0.26612249774E+04 0.  0.
        2    1    3    3  502    0 -0.91650724483E+03 -0.88733935292E+03 -0.49454308940E+03  0.13681847552E+04  0.25500000920E-02 0. -1.
       -2    1    3    3    0  502  0.91650724483E+03  0.88733935292E+03  0.26503007171E+03  0.13029188754E+04  0.25500000920E-02 0.  1.
</event>
<event>
 5   0  0.8234888E-06  0.2647267E+04  0.7818609E-02  0.8352321E-01
        1   -1    0    0  501    0  0.00000000000E+00  0.00000000000E+00  0.12841379209E+04  0.12841379209E+04  0.50400001928E-02 0.  1.
       -1   -1    0    0    0  501  0.00000000000E+00  0.00000000000E+00 -0.13643440690E+04  0.13643440690E+04  0.50400001928E-02 0. -1.
    10030    2    1    2    0    0  0.00000000000E+00  0.00000000000E+00 -0.80206148152E+02  0.26484819899E+04  0.26472672371E+04 0.  0.
        3    1    3    3  502    0 -0.10310109985E+04  0.24706232969E+03  0.75271401057E+03  0.13002314662E+04  0.10100000352E+00 0.  1.
       -3    1    3    3    0  502  0.10310109985E+04 -0.24706232969E+03 -0.83292015872E+03  0.13482505237E+04  0.10100000352E+00 0. -1.
</event>
<event>
 5   0  0.7305460E-06  0.2815437E+04  0.7818609E-02  0.8298492E-01
       -1   -1    0    0    0  501  0.00000000000E+00  0.00000000000E+00  0.88734311739E+03  0.88734311740E+03  0.50400001928E-02 0. -1.
        1   -1    0    0  501    0  0.00000000000E+00  0.00000000000E+00 -0.22332644472E+04  0.22332644472E+04  0.50400001928E-02 0.  1.
    10030    2    1    2    0    0  0.00000000000E+00  0.00000000000E+00 -0.13459213298E+04  0.31206075646E+04  0.28154373277E+04 0.  0.
        4    1    3    3  502    0  0.65001212772E+03  0.75326246738E+03 -0.17767709131E+04  0.20363783051E+04  0.12699999809E+01 0.  1.
       -4    1    3    3    0  502 -0.65001212772E+03 -0.75326246738E+03  0.43084958325E+03  0.10842292595E+04  0.12699999809E+01 0. -1.
</event>
<event>
 5   0  0.1829810E-05  0.2899090E+04  0.7818609E-02  0.8273148E-01
        2   -1    0    0  501    0  0.00000000000E+00  0.00000000000E+00  0.15489586847E+04  0.15489586847E+04  0.25500000920E-02 0. -1.
       -2   -1    0    0    0  501  0.00000000000E+00  0.00000000000E+00 -0.13565115658E+04  0.13565115658E+04  0.25500000920E-02 0.  1.
    10030    2    1    2    0    0  0.00000000000E+00  0.00000000000E+00  0.19244711888E+03  0.29054702506E+04  0.28990897681E+04 0.  0.
        4    1    3    3  502    0 -0.93668274203E+03  0.18440316141E+02  0.12047610732E+04  0.15261603654E+04  0.12699999809E+01 0. -1.
       -4    1    3    3    0  502  0.93668274203E+03 -0.18440316141E+02 -0.10123139543E+04  0.13793098852E+04  0.12699999809E+01 0.  1.
</event>
<event>
 5   0  0.1976233E-05  0.1834523E+04  0.7818609E-02  0.8688153E-01
        2   -1    0    0  501    0  0.00000000000E+00  0.00000000000E+00  0.81911933407E+03  0.81911933408E+03  0.25500000920E-02 0. -1.
       -2   -1    0    0    0  501  0.00000000000E+00  0.00000000000E+00 -0.10271619464E+04  0.10271619464E+04  0.25500000920E-02 0.  1.
    10030    2    1    2    0    0  0.00000000000E+00  0.00000000000E+00 -0.20804261232E+03  0.18462812805E+04  0.18345225096E+04 0.  0.
        2    1    3    3  502    0 -0.46758857609E+03  0.75037469620E+03  0.14181257328E+03  0.89543959435E+03  0.25500000920E-02 0. -1.
       -2    1    3    3    0  502  0.46758857609E+03 -0.75037469620E+03 -0.34985518560E+03  0.95084168613E+03  0.25500000920E-02 0.  1.
</event>
<event>
 5   0  0.1960961E-05  0.1493848E+04  0.7818609E-02  0.8888554E-01
       -2   -1    0    0    0  501  0.00000000000E+00  0.00000000000E+00  0.42315375134E+03  0.42315375135E+03  0.25500000920E-02 0. -1.
        2   -1    0    0  501    0  0.00000000000E+00  0.00000000000E+00 -0.13184223798E+04  0.13184223798E+04  0.25500000920E-02 0.  1.
    10030    2    1    2    0    0  0.00000000000E+00  0.00000000000E+00 -0.89526862845E+03  0.17415761311E+04  0.14938478850E+04 0.  0.
        5    1    3    3  502    0 -0.56401571969E+03 -0.47097698579E+03 -0.29148138950E+03  0.79051663084E+03  0.46999998093E+01 0. -1.
       -5    1    3    3    0  502  0.56401571969E+03  0.47097698579E+03 -0.60378723896E+03  0.95105950031E+03  0.46999998093E+01 0.  1.
</event>
<event>
 5   0  0.1937947E-05  0.2991576E+04  0.7818609E-02  0.8246141E-01
        2   -1    0    0  501    0  0.00000000000E+00  0.00000000000E+00  0.14894444191E+04  0.14894444191E+04  0.25500000920E-02 0. -1.
       -2   -1    0    0    0  501  0.00000000000E+00  0.00000000000E+00 -0.15021582336E+04  0.15021582336E+04  0.25500000920E-02 0.  1.
    10030    2    1    2    0    0  0.00000000000E+00  0.00000000000E+00 -0.12713814426E+02  0.29916026527E+04  0.29915756368E+04 0.  0.
        3    1    3    3  502    0 -0.64537236539E+03  0.75613280076E+03  0.11113020060E+04  0.14910514616E+04  0.10100000352E+00 0. -1.
       -3    1    3    3    0  502  0.64537236539E+03 -0.75613280076E+03 -0.11240158204E+04  0.15005511911E+04  0.10100000352E+00 0.  1.
</event>
<event>
 5   0  0.1918901E-05  0.2203753E+04  0.7818609E-02  0.8516867E-01
       -2   -1    0    0    0  501  0.00000000000E+00  0.00000000000E+00  0.81430352111E+03  0.81430352112E+03  0.25500000920E-02 0. -1.
        2   -1    0    0  501    0  0.00000000000E+00  0.00000000000E+00 -0.14910070389E+04  0.14910070389E+04  0.25500000920E-02 0.  1.
    10030    2    1    2    0    0  0.00000000000E+00  0.00000000000E+00 -0.67670351776E+03  0.23053105600E+04  0.22037534179E+04 0.  0.
        1    1    3    3  502    0  0.40453038383E+03  0.10134068587E+03 -0.14052635675E+04  0.14658378015E+04  0.50400001928E-02 0.  1.
       -1    1    3    3    0  502 -0.40453038383E+03 -0.10134068587E+03  0.72856004979E+03  0.83947275848E+03  0.50400001928E-02 0. -1.
</event>
<event>
 5   0  0.8234888E-06  0.2886722E+04  0.7818609E-02  0.8276839E-01
        1   -1    0    0  501    0  0.00000000000E+00  0.00000000000E+00  0.13654358681E+04  0.13654358681E+04  0.50400001928E-02 0.  1.
       -1   -1    0    0    0  501  0.00000000000E+00  0.00000000000E+00 -0.15257334708E+04  0.15257334709E+04  0.50400001928E-02 0. -1.
    10030    2    1    2    0    0  0.00000000000E+00  0.00000000000E+00 -0.16029760272E+03  0.28911693390E+04  0.28867221593E+04 0.  0.
        3    1    3    3  502    0  0.10084823029E+04  0.93287097126E+03  0.36325933766E+03  0.14210004085E+04  0.10100000352E+00 0.  1.
       -3    1    3    3    0  502 -0.10084823029E+04 -0.93287097126E+03 -0.52355694037E+03  0.14701689305E+04  0.10100000352E+00 0. -1.
</event>
<event>
 5   0  0.8234888E-06  0.1617045E+04  0.7818609E-02  0.8810145E-01
        1   -1    0    0  501    0  0.00000000000E+00  0.00000000000E+00  0.14475772085E+04  0.14475772085E+04  0.50400001928E-02 0.  1.
       -1   -1    0    0    0  501  0.00000000000E+00  0.00000000000E+00 -0.45158807293E+03  0.45158807296E+03  0.50400001928E-02 0. -1.
    10030    2    1    2    0    0  0.00000000000E+00  0.00000000000E+00  0.99598913558E+03  0.18991652815E+04  0.16170449617E+04 0.  0.
        3    1    3    3  502    0  0.75589477415E+03 -0.10670448463E+03  0.81082148850E+03  0.11136400913E+04  0.10100000352E+00 0. -1.
       -3    1    3    3    0  502 -0.75589477415E+03  0.10670448463E+03  0.18516764708E+03  0.78552519015E+03  0.10100000352E+00 0.  1.
</event>
<event>
 5   0  0.1937947E-05  0.2861948E+04  0.7818609E-02  0.8284290E-01
       -2   -1    0    0    0  501  0.00000000000E+00  0.00000000000E+00  0.20848922603E+04  0.20848922603E+04  0.25500000920E-02 0. -1.
        2   -1    0    0  501    0  0.00000000000E+00  0.00000000000E+00 -0.98215456979E+03  0.98215456979E+03  0.25500000920E-02 0.  1.
    10030    2    1    2    0    0  0.00000000000E+00  0.00000000000E+00  0.11027376905E+04  0.30670468301E+04  0.28619479107E+04 0.  0.
        3    1    3    3  502    0  0.66869762046E+03  0.55871036083E+03  0.17677773136E+04  0.19708755454E+04  0.10100000352E+00 0. -1.
       -3    1    3    3    0  502 -0.66869762046E+03 -0.55871036083E+03 -0.66503962306E+03  0.10961712847E+04  0.10100000352E+00 0.  1.
</event>
<event>
 5   0  0.7305460E-06  0.2887013E+04  0.7818609E-02  0.8276752E-01
       -1   -1    0    0    0  501  0.00000000000E+00  0.00000000000E+00  0.11317012471E+04  0.11317012471E+04  0.50400001928E-02 0.  1.
        1   -1    0    0  501    0  0.00000000000E+00  0.00000000000E+00 -0.18412201120E+04  0.18412201120E+04  0.50400001928E-02 0. -1.
    10030    2    1    2    0    0  0.00000000000E+00  0.00000000000E+00 -0.70951886490E+03  0.29729213592E+04  0.28870130564E+04 0.  0.
        4    1    3    3  502    0 -0.42341395749E+03 -0.43354593528E+03 -0.17038854956E+04  0.18084437653E+04  0.12699999809E+01 0. -1.
       -4    1    3    3    0  502  0.42341395749E+03  0.43354593528E+03  0.99436663069E+03  0.11644775938E+04  0.12699999809E+01 0.  1.
</event>
<event>
 5   0  0.1918901E-05  0.3038963E+04  0.7818609E-02  0.8232692E-01
       -2   -1    0    0    0  501  0.00000000000E+00  0.00000000000E+00  0.14988122957E+04  0.14988122957E+04  0.25500000920E-02 0. -1.
        2   -1    0    0  501    0  0.00000000000E+00  0.00000000000E+00 -0.15404354609E+04  0.15404354609E+04  0.25500000920E-02 0.  1.
    10030    2    1    2    0    0  0.00000000000E+00  0.00000000000E+00 -0.41623165241E+02  0.30392477566E+04  0.30389627241E+04 0.  0.
        1    1    3    3  502    0 -0.11285723207E+04  0.74539381009E+03  0.67173888678E+03  0.15101392476E+04  0.50400001928E-02 0. -1.
       -1    1    3    3    0  502  0.11285723207E+04 -0.74539381009E+03 -0.71336205202E+03  0.15291085090E+04  0.50400001928E-02 0.  1.
</event>
<event>
 5   0  0.1937947E-05  0.2875045E+04  0.7818609E-02  0.8280341E-01
       -2   -1    0    0    0  501  0.00000000000E+00  0.00000000000E+00  0.17199781085E+04  0.17199781085E+04  0.25500000920E-02 0. -1.
        2   -1    0    0  501    0  0.00000000000E+00  0.00000000000E+00 -0.12014516038E+04  0.12014516038E+04  0.25500000920E-02 0.  1.
    10030    2    1    2    0    0  0.00000000000E+00  0.00000000000E+00  0.51852650474E+03  0.29214297123E+04  0.28750446653E+04 0.  0.
        3    1    3    3  502    0 -0.35411850044E+03 -0.95418200359E+03 -0.77230374643E+03  0.12776213427E+04  0.10100000352E+00 0.  1.
       -3    1    3    3    0  502  0.35411850044E+03  0.95418200359E+03  0.12908302512E+04  0.16438083696E+04  0.10100000352E+00 0. -1.
</event>
<event>
 5   0  0.8122088E-06  0.2310627E+04  0.7818609E-02  0.8473743E-01
        1   -1    0    0  501    0  0.00000000000E+00  0.00000000000E+00  0.13393857553E+04  0.13393857553E+04  0.50400001928E-02 0.  1.
       -1   -1    0    0    0  501  0.00000000000E+00  0.00000000000E+00 -0.99653820472E+03  0.99653820474E+03  0.50400001928E-02 0. -1.
    10030    2    1    2    0    0  0.00000000000E+00  0.00000000000E+00  0.34284755059E+03  0.23359239601E+04  0.23106268206E+04 0.  0.
        1    1    3    3  502    0 -0.46842838490E+03  0.84412489926E+03  0.81301921003E+03  0.12621300382E+04  0.50400001928E-02 0.  1.
       -1    1    3    3    0  502  0.46842838490E+03 -0.84412489926E+03 -0.47017165944E+03  0.10737939219E+04  0.50400001928E-02 0. -1.
</event>
<event>
 5   0  0.1937947E-05  0.2913257E+04  0.7818609E-02  0.8268944E-01
       -2   -1    0    0    0  501  0.00000000000E+00  0.00000000000E+00  0.10293511774E+04  0.10293511774E+04  0.25500000920E-02 0.  1.
        2   -1    0    0  501    0  0.00000000000E+00  0.00000000000E+00 -0.20612658817E+04  0.20612658817E+04  0.25500000920E-02 0. -1.
    10030    2    1    2    0    0  0.00000000000E+00  0.00000000000E+00 -0.10319147042E+04  0.30906170591E+04  0.29132569144E+04 0.  0.
        3    1    3    3  502    0  0.83947131356E+03 -0.42304671193E+03 -0.16963915717E+04  0.19394393472E+04  0.10100000352E+00 0. -1.
       -3    1    3    3    0  502 -0.83947131356E+03  0.42304671193E+03  0.66447686746E+03  0.11511777119E+04  0.10100000352E+00 0.  1.
</event>
<event>
 5   0  0.1918901E-05  0.2922665E+04  0.7818609E-02  0.8266166E-01
        2   -1    0    0  501    0  0.00000000000E+00  0.00000000000E+00  0.17660965927E+04  0.17660965927E+04  0.25500000920E-02 0. -1.
       -2   -1    0    0    0  501  0.00000000000E+00  0.00000000000E+00 -0.12091597673E+04  0.12091597673E+04  0.25500000920E-02 0.  1.
    10030    2    1    2    0    0  0.00000000000E+00  0.00000000000E+00  0.55693682536E+03  0.29752563600E+04  0.29226651844E+04 0.  0.
        1    1    3    3  502    0  0.77704295904E+02  0.77929641153E+03  0.15344241966E+04  0.17227299468E+04  0.50400001928E-02 0. -1.
       -1    1    3    3    0  502 -0.77704295904E+02 -0.77929641153E+03 -0.97748737123E+03  0.12525264131E+04  0.50400001928E-02 0.  1.
</event>
<event>
 5   0  0.8055928E-06  0.2620822E+04  0.7818609E-02  0.8361163E-01
        1   -1    0    0  501    0  0.00000000000E+00  0.00000000000E+00  0.90728088256E+03  0.90728088258E+03  0.50400001928E-02 0. -1.
       -1   -1    0    0    0  501  0.00000000000E+00  0.00000000000E+00 -0.18926633564E+04  0.18926633564E+04  0.50400001928E-02 0.  1.
    10030    2    1    2    0    0  0.00000000000E+00  0.00000000000E+00 -0.98538247380E+03  0.27999442389E+04  0.26208222224E+04 0.  0.
        2    1    3    3  502    0 -0.70169923076E+03 -0.14665827188E+03  0.67922453727E+03  0.98754059724E+03  0.25500000920E-02 0. -1.
       -2    1    3    3    0  502  0.70169923076E+03  0.14665827188E+03 -0.16646070111E+04  0.18124036417E+04  0.25500000920E-02 0.  1.
</event>
<event>
 5   0  0.1829810E-05  0.2832267E+04  0.7818609E-02  0.8293320E-01
       -2   -1    0    0    0  501  0.00000000000E+00  0.00000000000E+00  0.16344977194E+04  0.16344977194E+04  0.25500000920E-02 0. -1.
        2   -1    0    0  501    0  0.00000000000E+00  0.00000000000E+00 -0.12269424947E+04  0.12269424947E+04  0.25500000920E-02 0.  1.
    10030    2    1    2    0    0  0.00000000000E+00  0.00000000000E+00  0.40755522474E+03  0.28614402141E+04  0.28322674375E+04 0.  0.
        4    1    3    3  502    0  0.38827606976E+03  0.93211131877E+03  0.12069010026E+04  0.15735950749E+04  0.12699999809E+01 0. -1.
       -4    1    3    3    0  502 -0.38827606976E+03 -0.93211131877E+03 -0.79934577784E+03  0.12878451391E+04  0.12699999809E+01 0.  1.
</event>
<event>
 5   0  0.1976233E-05  0.2937268E+04  0.7818609E-02  0.8261875E-01
       -2   -1    0    0    0  501  0.00000000000E+00  0.00000000000E+00  0.13792109160E+04  0.13792109160E+04  0.25500000920E-02 0. -1.
        2   -1    0    0  501    0  0.00000000000E+00  0.00000000000E+00 -0.15638547254E+04  0.15638547254E+04  0.25500000920E-02 0.  1.
    10030    2    1    2    0    0  0.00000000000E+00  0.00000000000E+00 -0.18464380941E+03  0.29430656413E+04  0.29372677836E+04 0.  0.
        2    1    3    3  502    0  0.11240795490E+04  0.77900300692E+03  0.44397753562E+03  0.14378861462E+04  0.25500000920E-02 0. -1.
       -2    1    3    3    0  502 -0.11240795490E+04 -0.77900300692E+03 -0.62862134503E+03  0.15051794952E+04  0.25500000920E-02 0.  1.
</event>
<event>
 5   0  0.8234888E-06  0.1651646E+04  0.7818609E-02  0.8789433E-01
       -1   -1    0    0    0  501  0.00000000000E+00  0.00000000000E+00  0.58372590187E+03  0.58372590189E+03  0.50400001928E-02 0. -1.
        1   -1    0    0  501    0  0.00000000000E+00  0.00000000000E+00 -0.11683290216E+04  0.11683290217E+04  0.50400001928E-02 0.  1.
    10030    2    1    2    0    0  0.00000000000E+00  0.00000000000E+00 -0.58460311978E+03  0.17520549236E+04  0.16516463446E+04 0.  0.
        3    1    3    3  502    0 -0.67942065875E+02 -0.74664742505E+03  0.74992414998E+02  0.75347353912E+03  0.10100000352E+00 0. -1.
       -3    1    3    3    0  502  0.67942065875E+02  0.74664742505E+03 -0.65959553478E+03  0.99858138444E+03  0.10100000352E+00 0.  1.
</event>
<event>
 5   0  0.7305460E-06  0.1769005E+04  0.7818609E-02  0.8722958E-01
       -1   -1    0    0    0  501  0.00000000000E+00  0.00000000000E+00  0.36513993481E+03  0.36513993484E+03  0.50400001928E-02 0. -1.
        1   -1    0    0  501    0  0.00000000000E+00  0.00000000000E+00 -0.21425883811E+04  0.21425883812E+04  0.50400001928E-02 0.  1.
    10030    2    1    2    0    0  0.00000000000E+00  0.00000000000E+00 -0.17774484463E+04  0.25077283160E+04  0.17690048975E+04 0.  0.
        4    1    3    3  502    0  0.18067897944E+03 -0.86581137361E+03 -0.87697096348E+03  0.12455335852E+04  0.12699999809E+01 0.  1.
       -4    1    3    3    0  502 -0.18067897944E+03  0.86581137361E+03 -0.90047748285E+03  0.12621947307E+04  0.12699999809E+01 0. -1.
</event>
<event>
 5   0  0.7971153E-06  0.2890973E+04  0.7818609E-02  0.8275568E-01
        1   -1    0    0  501    0  0.00000000000E+00  0.00000000000E+00  0.18136439017E+04  0.18136439017E+04  0.50400001928E-02 0. -1.
       -1   -1    0    0    0  501  0.00000000000E+00  0.00000000000E+00 -0.11520625601E+04  0.11520625601E+04  0.50400001928E-02 0.  1.
    10030    2    1    2    0    0  0.00000000000E+00  0.00000000000E+00  0.66158134158E+03  0.29657064618E+04  0.28909730103E+04 0.  0.
        5    1    3    3  502    0 -0.64208275967E+03  0.10479693867E+04  0.11113133763E+04  0.16569700106E+04  0.46999998093E+01 0. -1.
       -5    1    3    3    0  502  0.64208275967E+03 -0.10479693867E+04 -0.44973203468E+03  0.13087364512E+04  0.46999998093E+01 0.  1.
</event>
<event>
 5   0  0.7305460E-06  0.1640449E+04  0.7818609E-02  0.8796077E-01
        1   -1    0    0  501    0  0.00000000000E+00  0.00000000000E+00  0.10229904972E+04  0.10229904972E+04  0.50400001928E-02 0. -1.
       -1   -1    0    0    0  501  0.00000000000E+00  0.00000000000E+00 -0.65764879106E+03  0.65764879108E+03  0.50400001928E-02 0.  1.
    10030    2    1    2    0    0  0.00000000000E+00  0.00000000000E+00  0.36534170614E+03  0.16806392883E+04  0.16404492845E+04 0.  0.
        4    1    3    3  502    0  0.75722325077E+03 -0.28882216300E+03  0.53236565654E+02  0.81218288468E+03  0.12699999809E+01 0. -1.
       -4    1    3    3    0  502 -0.75722325077E+03  0.28882216300E+03  0.31210514048E+03  0.86845640361E+03  0.12699999809E+01 0.  1.
</event>
<event>
 5   0  0.8122088E-06  0.2882766E+04  0.7818609E-02  0.8278024E-01
       -1   -1    0    0    0  501  0.00000000000E+00  0.00000000000E+00  0.92598087805E+03  0.92598087806E+03  0.50400001928E-02 0.  1.
        1   -1    0    0  501    0  0.00000000000E+00  0.00000000000E+00 -0.22436579356E+04  0.22436579356E+04  0.50400001928E-02 0. -1.
    10030    2    1    2    0    0  0.00000000000E+00  0.00000000000E+00 -0.13176770575E+04  0.31696388137E+04  0.28827655786E+04 0.  0.
        1    1    3    3  502    0 -0.12343141791E+04 -0.73423126583E+03 -0.52436801570E+03  0.15289175453E+04  0.50400001928E-02 0. -1.
       -1    1    3    3    0  502  0.12343141791E+04  0.73423126583E+03 -0.79330904184E+03  0.16407212683E+04  0.50400001928E-02 0.  1.
</event>
<event>
 5   0  0.1960961E-05  0.2872323E+04  0.7818609E-02  0.8281160E-01
       -2   -1    0    0    0  501  0.00000000000E+00  0.00000000000E+00  0.11310811021E+04  0.11310811021E+04  0.25500000920E-02 0.  1.
        2   -1    0    0  501    0  0.00000000000E+00  0.00000000000E+00 -0.18235291240E+04  0.18235291240E+04  0.25500000920E-02 0. -1.
    10030    2    1    2    0    0  0.00000000000E+00  0.00000000000E+00 -0.69244802192E+03  0.29546102260E+04  0.28723226359E+04 0.  0.
        5    1    3    3  502    0  0.34488900530E+03 -0.76228566996E+03 -0.15469301332E+04  0.17587048631E+04  0.46999998093E+01 0. -1.
       -5    1    3    3    0  502 -0.34488900530E+03  0.76228566996E+03  0.85448211126E+03  0.11959053629E+04  0.46999998093E+01 0.  1.
</event>
<event>
 5   0  0.7305460E-06  0.2904872E+04  0.7818609E-02  0.8271429E-01
        1   -1    0    0  501    0  0.00000000000E+00  0.00000000000E+00  0.14316280259E+04  0.14316280259E+04  0.50400001928E-02 0. -1.
       -1   -1    0    0    0  501  0.00000000000E+00  0.00000000000E+00 -0.14735464793E+04  0.14735464793E+04  0.50400001928E-02 0.  1.
    10030    2    1    2    0    0  0.00000000000E+00  0.00000000000E+00 -0.41918453465E+02  0.29051745052E+04  0.29048720710E+04 0.  0.
        4    1    3    3  502    0  0.57234591051E+03  0.42058411633E+02  0.13134285653E+04  0.14333335133E+04  0.12699999809E+01 0. -1.
       -4    1    3    3    0  502 -0.57234591051E+03 -0.42058411633E+02 -0.13553470188E+04  0.14718409919E+04  0.12699999809E+01 0.  1.
</event>
<event>
 5   0  0.1960961E-05  0.2873933E+04  0.7818609E-02  0.8280676E-01
        2   -1    0    0  501    0  0.00000000000E+00  0.00000000000E+00  0.19460692057E+04  0.19460692057E+04  0.25500000920E-02 0. -1.
       -2   -1    0    0    0  501  0.00000000000E+00  0.00000000000E+00 -0.10610482216E+04  0.10610482216E+04  0.25500000920E-02 0.  1.
    10030    2    1    2    0    0  0.00000000000E+00  0.00000000000E+00  0.88502098405E+03  0.30071174273E+04  0.28739333812E+04 0.  0.
        5    1    3    3  502    0  0.12608768136E+04 -0.21379335931E+03 -0.24308972730E+03  0.13017805672E+04  0.46999998093E+01 0.  1.
       -5    1    3    3    0  502 -0.12608768136E+04  0.21379335931E+03  0.11281107113E+04  0.17053368601E+04  0.46999998093E+01 0. -1.
</event>
<event>
 5   0  0.1937947E-05  0.2816157E+04  0.7818609E-02  0.8298270E-01
       -2   -1    0    0    0  501  0.00000000000E+00  0.00000000000E+00  0.15224510616E+04  0.15224510616E+04  0.25500000920E-02 0.  1.
        2   -1    0    0  501    0  0.00000000000E+00  0.00000000000E+00 -0.13022982667E+04  0.13022982667E+04  0.25500000920E-02 0. -1.
    10030    2    1    2    0    0  0.00000000000E+00  0.00000000000E+00  0.22015279497E+03  0.28247493283E+04  0.28161572248E+04 0.  0.
        3    1    3    3  502    0 -0.57630686746E+03 -0.10985616515E+04  0.77823039265E+03  0.14644486546E+04  0.10100000352E+00 0.  1.
       -3    1    3    3    0  502  0.57630686746E+03  0.10985616515E+04 -0.55807759768E+03  0.13603006737E+04  0.10100000352E+00 0. -1.
</event>
<event>
 5   0  0.1937947E-05  0.2882793E+04  0.7818609E-02  0.8278015E-01
       -2   -1    0    0    0  501  0.00000000000E+00  0.00000000000E+00  0.15919776836E+04  0.15919776836E+04  0.25500000920E-02 0.  1.
        2   -1    0    0  501    0  0.00000000000E+00  0.00000000000E+00 -0.13050587612E+04  0.13050587612E+04  0.25500000920E-02 0. -1.
    10030    2    1    2    0    0  0.00000000000E+00  0.00000000000E+00  0.28691892239E+03  0.28970364448E+04  0.28827933839E+04 0.  0.
        3    1    3    3  502    0  0.13834028165E+04 -0.32849019857E+03 -0.94172897317E+02  0.14249834062E+04  0.10100000352E+00 0. -1.
       -3    1    3    3    0  502 -0.13834028165E+04  0.32849019857E+03  0.38109181971E+03  0.14720530386E+04  0.10100000352E+00 0.  1.
</event>
<event>
 5   0  0.7971153E-06  0.2873409E+04  0.7818609E-02  0.8280833E-01
        1   -1    0    0  501    0  0.00000000000E+00  0.00000000000E+00  0.19691139583E+04  0.19691139583E+04  0.50400001928E-02 0. -1.
       -1   -1    0    0    0  501  0.00000000000E+00  0.00000000000E+00 -0.10482482449E+04  0.10482482450E+04  0.50400001928E-02 0.  1.
    10030    2    1    2    0    0  0.00000000000E+00  0.00000000000E+00  0.92086571338E+03  0.30173622033E+04  0.28734092997E+04 0.  0.
        5    1    3    3  502    0 -0.43418469973E+03  0.11030775257E+04  0.13127619929E+04  0.17688025671E+04  0.46999998093E+01 0. -1.
       -5    1    3    3    0  502  0.43418469973E+03 -0.11030775257E+04 -0.39189627953E+03  0.12485596362E+04  0.46999998093E+01 0.  1.
</event>
<event>
 5   0  0.1960961E-05  0.2472246E+04  0.7818609E-02  0.8412940E-01
       -2   -1    0    0    0  501  0.00000000000E+00  0.00000000000E+00  0.95137014713E+03  0.95137014714E+03  0.25500000920E-02 0. -1.
        2   -1    0    0  501    0  0.00000000000E+00  0.00000000000E+00 -0.16061042772E+04  0.16061042772E+04  0.25500000920E-02 0.  1.
    10030    2    1    2    0    0  0.00000000000E+00  0.00000000000E+00 -0.65473413008E+03  0.25574744243E+04  0.24722456694E+04 0.  0.
        5    1    3    3  502    0  0.45614616109E+03 -0.10957804907E+04 -0.68448304331E+03  0.13701617899E+04  0.46999998093E+01 0.  1.
       -5    1    3    3    0  502 -0.45614616109E+03  0.10957804907E+04  0.29748913229E+02  0.11873126344E+04  0.46999998093E+01 0. -1.
</event>
<event>
 5   0  0.1937947E-05  0.2828037E+04  0.7818609E-02  0.8294616E-01
       -2   -1    0    0    0  501  0.00000000000E+00  0.00000000000E+00  0.98399346987E+03  0.98399346987E+03  0.25500000920E-02 0.  1.
        2   -1    0    0  501    0  0.00000000000E+00  0.00000000000E+00 -0.20319732934E+04  0.20319732934E+04  0.25500000920E-02 0. -1.
    10030    2    1    2    0    0  0.00000000000E+00  0.00000000000E+00 -0.10479798235E+04  0.30159667633E+04  0.28280370943E+04 0.  0.
        3    1    3    3  502    0  0.65850589595E+03 -0.64558720446E+03 -0.16671529907E+04  0.19052065395E+04  0.10100000352E+00 0. -1.
       -3    1    3    3    0  502 -0.65850589595E+03  0.64558720446E+03  0.61917316718E+03  0.11107602238E+04  0.10100000352E+00 0.  1.
</event>
<event>
 5   0  0.8234888E-06  0.2736730E+04  0.7818609E-02  0.8323185E-01
       -1   -1    0    0    0  501  0.00000000000E+00  0.00000000000E+00  0.12086715672E+04  0.12086715672E+04  0.50400001928E-02 0.  1.
        1   -1    0    0  501    0  0.00000000000E+00  0.00000000000E+00 -0.15491576173E+04  0.15491576173E+04  0.50400001928E-02 0. -1.
    10030    2    1    2    0    0  0.00000000000E+00  0.00000000000E+00 -0.34048605015E+03  0.27578291845E+04  0.27367299941E+04 0.  0.
        3    1    3    3  502    0  0.37712477291E+03  0.94437807736E+03 -0.10929164662E+04  0.14928293471E+04  0.10100000352E+00 0. -1.
       -3    1    3    3    0  502 -0.37712477291E+03 -0.94437807736E+03  0.75243041608E+03  0.12649998374E+04  0.10100000352E+00 0.  1.
</event>
<event>
 5   0  0.8234888E-06  0.2856564E+04  0.7818609E-02  0.8285920E-01
       -1   -1    0    0    0  501  0.00000000000E+00  0.00000000000E+00  0.14012362020E+04  0.14012362020E+04  0.50400001928E-02 0.  1.
        1   -1    0    0  501    0  0.00000000000E+00  0.00000000000E+00 -0.14558496838E+04  0.14558496838E+04  0.50400001928E-02 0. -1.
    10030    2    1    2    0    0  0.00000000000E+00  0.00000000000E+00 -0.54613481847E+02  0.28570858858E+04  0.28565638670E+04 0.  0.
        3    1    3    3  502    0  0.87462556379E+03  0.27412972036E+03 -0.11228937384E+04  0.14494851977E+04  0.10100000352E+00 0. -1.
       -3    1    3    3    0  502 -0.87462556379E+03 -0.27412972036E+03  0.10682802565E+04  0.14076006881E+04  0.10100000352E+00 0.  1.
</event>
<event>
 5   0  0.7305460E-06  0.2054289E+04  0.7818609E-02  0.8581651E-01
        1   -1    0    0  501    0  0.00000000000E+00  0.00000000000E+00  0.10184860578E+04  0.10184860578E+04  0.50400001928E-02 0.  1.
       -1   -1    0    0    0  501  0.00000000000E+00  0.00000000000E+00 -0.10358769295E+04  0.10358769295E+04  0.50400001928E-02 0. -1.
    10030    2    1    2    0    0  0.00000000000E+00  0.00000000000E+00 -0.17390871704E+02  0.20543629874E+04  0.20542893763E+04 0.  0.
        4    1    3    3  502    0  0.47366584274E+03  0.75995632925E+03  0.49444449073E+03  0.10229222455E+04  0.12699999809E+01 0.  1.
       -4    1    3    3    0  502 -0.47366584274E+03 -0.75995632925E+03 -0.51183536243E+03  0.10314407419E+04  0.12699999809E+01 0. -1.
</event>
<event>
 5   0  0.1918901E-05  0.2935414E+04  0.7818609E-02  0.8262418E-01
       -2   -1    0    0    0  501  0.00000000000E+00  0.00000000000E+00  0.12707696806E+04  0.12707696806E+04  0.25500000920E-02 0.  1.
        2   -1    0    0  501    0  0.00000000000E+00  0.00000000000E+00 -0.16951645633E+04  0.16951645633E+04  0.25500000920E-02 0. -1.
    10030    2    1    2    0    0  0.00000000000E+00  0.00000000000E+00 -0.42439488270E+03  0.29659342438E+04  0.29354139269E+04 0.  0.
        1    1    3    3  502    0  0.74285480312E+03 -0.10210987345E+04  0.54370388273E+03  0.13748053667E+04  0.50400001928E-02 0.  1.
       -1    1    3    3    0  502 -0.74285480312E+03  0.10210987345E+04 -0.96809876543E+03  0.15911288772E+04  0.50400001928E-02 0. -1.
</event>
<event>
 5   0  0.1960961E-05  0.2899517E+04  0.7818609E-02  0.8273021E-01
       -2   -1    0    0    0  501  0.00000000000E+00  0.00000000000E+00  0.98474303974E+03  0.98474303974E+03  0.25500000920E-02 0. -1.
        2   -1    0    0  501    0  0.00000000000E+00  0.00000000000E+00 -0.21343633112E+04  0.21343633112E+04  0.25500000920E-02 0.  1.
    10030    2    1    2    0    0  0.00000000000E+00  0.00000000000E+00 -0.11496202715E+04  0.31191063510E+04  0.28995167977E+04 0.  0.
        5    1    3    3  502    0  0.89574023451E+03  0.11398050612E+04 -0.59252480940E+03  0.15660823366E+04  0.46999998093E+01 0.  1.
       -5    1    3    3    0  502 -0.89574023451E+03 -0.11398050612E+04 -0.55709546209E+03  0.15530240144E+04  0.46999998093E+01 0. -1.
</event>
<event>
 5   0  0.1976233E-05  0.2776164E+04  0.7818609E-02  0.8310707E-01
        2   -1    0    0  501    0  0.00000000000E+00  0.00000000000E+00  0.17629142481E+04  0.17629142481E+04  0.25500000920E-02 0.  1.
       -2   -1    0    0    0  501  0.00000000000E+00  0.00000000000E+00 -0.10929467366E+04  0.10929467366E+04  0.25500000920E-02 0. -1.
    10030    2    1    2    0    0  0.00000000000E+00  0.00000000000E+00  0.66996751153E+03  0.28558609847E+04  0.27761638096E+04 0.  0.
        2    1    3    3  502    0 -0.39544321002E+03  0.16478809937E+03  0.16932055077E+04  0.17465610042E+04  0.25500000920E-02 0.  1.
       -2    1    3    3    0  502  0.39544321002E+03 -0.16478809937E+03 -0.10232379962E+04  0.11092999805E+04  0.25500000920E-02 0. -1.
</event>
<event>
 5   0  0.1937947E-05  0.3011023E+04  0.7818609E-02  0.8240590E-01
        2   -1    0    0  501    0  0.00000000000E+00  0.00000000000E+00  0.12787244546E+04  0.12787244546E+04  0.25500000920E-02 0.  1.
       -2   -1    0    0    0  501  0.00000000000E+00  0.00000000000E+00 -0.17725202944E+04  0.17725202944E+04  0.25500000920E-02 0. -1.
    10030    2    1    2    0    0  0.00000000000E+00  0.00000000000E+00 -0.49379583971E+03  0.30512447490E+04  0.30110231130E+04 0.  0.
        3    1    3    3  502    0  0.11212512938E+04 -0.68549306916E+03  0.49739263770E+03  0.14051706864E+04  0.10100000352E+00 0.  1.
       -3    1    3    3    0  502 -0.11212512938E+04  0.68549306916E+03 -0.99118847741E+03  0.16460740626E+04  0.10100000352E+00 0. -1.
</event>
<event>
 5   0  0.8055928E-06  0.2954949E+04  0.7818609E-02  0.8256714E-01
        1   -1    0    0  501    0  0.00000000000E+00  0.00000000000E+00  0.12939221971E+04  0.12939221971E+04  0.50400001928E-02 0.  1.
       -1   -1    0    0    0  501  0.00000000000E+00  0.00000000000E+00 -0.16870649468E+04  0.16870649468E+04  0.50400001928E-02 0. -1.
    10030    2    1    2    0    0  0.00000000000E+00  0.00000000000E+00 -0.39314274970E+03  0.29809871438E+04  0.29549489217E+04 0.  0.
        2    1    3    3  502    0  0.29386611922E+03 -0.17101040470E+03 -0.16470619649E+04  0.16817892171E+04  0.25500000920E-02 0. -1.
       -2    1    3    3    0  502 -0.29386611922E+03  0.17101040470E+03  0.12539192152E+04  0.12991979267E+04  0.25500000920E-02 0.  1.
</event>
<event>
 5   0  0.8122088E-06  0.2830769E+04  0.7818609E-02  0.8293779E-01
        1   -1    0    0  501    0  0.00000000000E+00  0.00000000000E+00  0.19911153402E+04  0.19911153402E+04  0.50400001928E-02 0. -1.
       -1   -1    0    0    0  501  0.00000000000E+00  0.00000000000E+00 -0.10061261566E+04  0.10061261566E+04  0.50400001928E-02 0.  1.
    10030    2    1    2    0    0  0.00000000000E+00  0.00000000000E+00  0.98498918358E+03  0.29972414968E+04  0.28307689588E+04 0.  0.
        1    1    3    3  502    0 -0.13088845630E+04 -0.14364934685E+02 -0.77620381636E+02  0.13112627785E+04  0.50400001928E-02 0. -1.
       -1    1    3    3    0  502  0.13088845630E+04  0.14364934685E+02  0.10626095652E+04  0.16859787183E+04  0.50400001928E-02 0.  1.
</event>
<event>
 5   0  0.1937947E-05  0.2881987E+04  0.7818609E-02  0.8278257E-01
       -2   -1    0    0    0  501  0.00000000000E+00  0.00000000000E+00  0.14411573983E+04  0.14411573983E+04  0.25500000920E-02 0.  1.
        2   -1    0    0  501    0  0.00000000000E+00  0.00000000000E+00 -0.14408293240E+04  0.14408293240E+04  0.25500000920E-02 0. -1.
    10030    2    1    2    0    0  0.00000000000E+00  0.00000000000E+00  0.32807432272E+00  0.28819867224E+04  0.28819867037E+04 0.  0.
        3    1    3    3  502    0  0.66200753566E+03 -0.44974987329E+03 -0.11981401490E+04  0.14408569508E+04  0.10100000352E+00 0. -1.
       -3    1    3    3    0  502 -0.66200753566E+03  0.44974987329E+03  0.11984682234E+04  0.14411297715E+04  0.10100000352E+00 0.  1.
</event>
<event>
 5   0  0.1960961E-05  0.2279983E+04  0.7818609E-02  0.8485856E-01
       -2   -1    0    0    0  501  0.00000000000E+00  0.00000000000E+00  0.10870805109E+04  0.10870805109E+04  0.25500000920E-02 0. -1.
        2   -1    0    0  501    0  0.00000000000E+00  0.00000000000E+00 -0.11954776885E+04  0.11954776885E+04  0.25500000920E-02 0.  1.
    10030    2    1    2    0    0  0.00000000000E+00  0.00000000000E+00 -0.10839717765E+03  0.22825581994E+04  0.22799828915E+04 0.  0.
        5    1    3    3  502    0 -0.15975439556E+03 -0.11138073091E+04  0.12895673227E+03  0.11325811748E+04  0.46999998093E+01 0.  1.
       -5    1    3    3    0  502  0.15975439556E+03  0.11138073091E+04 -0.23735390992E+03  0.11499770246E+04  0.46999998093E+01 0. -1.
</event>
<event>
 5   0  0.8234888E-06  0.2887983E+04  0.7818609E-02  0.8276462E-01
       -1   -1    0    0    0  501  0.00000000000E+00  0.00000000000E+00  0.13242185271E+04  0.13242185272E+04  0.50400001928E-02 0. -1.
        1   -1    0    0  501    0  0.00000000000E+00  0.00000000000E+00 -0.15745978357E+04  0.15745978357E+04  0.50400001928E-02 0.  1.
    10030    2    1    2    0    0  0.00000000000E+00  0.00000000000E+00 -0.25037930852E+03  0.28988163628E+04  0.28879831210E+04 0.  0.
        3    1    3    3  502    0  0.73022646757E+03  0.72458416799E+03 -0.11423312107E+04  0.15372616939E+04  0.10100000352E+00 0.  1.
       -3    1    3    3    0  502 -0.73022646757E+03 -0.72458416799E+03  0.89195190218E+03  0.13615546689E+04  0.10100000352E+00 0. -1.
</event>
<event>
 5   0  0.8055928E-06  0.1684282E+04  0.7818609E-02  0.8770380E-01
        1   -1    0    0  501    0  0.00000000000E+00  0.00000000000E+00  0.11963414979E+04  0.11963414979E+04  0.50400001928E-02 0. -1.
       -1   -1    0    0    0  501  0.00000000000E+00  0.00000000000E+00 -0.59280888863E+03  0.59280888865E+03  0.50400001928E-02 0.  1.
    10030    2    1    2    0    0  0.00000000000E+00  0.00000000000E+00  0.60353260930E+03  0.17891503866E+04  0.16842824868E+04 0.  0.
        2    1    3    3  502    0  0.20023347742E+03  0.53410994062E+02 -0.56530014235E+03  0.60208839112E+03  0.25500000920E-02 0.  1.
       -2    1    3    3    0  502 -0.20023347742E+03 -0.53410994062E+02  0.11688327517E+04  0.11870619955E+04  0.25500000920E-02 0. -1.
</event>
<event>
 5   0  0.8055928E-06  0.2888314E+04  0.7818609E-02  0.8276363E-01
        1   -1    0    0  501    0  0.00000000000E+00  0.00000000000E+00  0.20394282470E+04  0.20394282470E+04  0.50400001928E-02 0. -1.
       -1   -1    0    0    0  501  0.00000000000E+00  0.00000000000E+00 -0.10226344468E+04  0.10226344468E+04  0.50400001928E-02 0.  1.
    10030    2    1    2    0    0  0.00000000000E+00  0.00000000000E+00  0.10167938002E+04  0.30620626938E+04  0.28883140946E+04 0.  0.
        2    1    3    3  502    0 -0.13555702742E+04  0.18149262684E+02 -0.19225689191E+02  0.13558280832E+04  0.25500000920E-02 0.  1.
       -2    1    3    3    0  502  0.13555702742E+04 -0.18149262684E+02  0.10360194894E+04  0.17062346106E+04  0.25500000920E-02 0. -1.
</event>
<event>
 5   0  0.1829810E-05  0.2906303E+04  0.7818609E-02  0.8271005E-01
        2   -1    0    0  501    0  0.00000000000E+00  0.00000000000E+00  0.14773905054E+04  0.14773905054E+04  0.25500000920E-02 0. -1.
       -2   -1    0    0    0  501  0.00000000000E+00  0.00000000000E+00 -0.14293102027E+04  0.14293102027E+04  0.25500000920E-02 0.  1.
    10030    2    1    2    0    0  0.00000000000E+00  0.00000000000E+00  0.48080302719E+02  0.29067007081E+04  0.29063030281E+04 0.  0.
        4    1    3    3  502    0  0.13197142694E+04  0.70174286581E+02 -0.58025898245E+03  0.14433545244E+04  0.12699999809E+01 0.  1.
       -4    1    3    3    0  502 -0.13197142694E+04 -0.70174286581E+02  0.62833928517E+03  0.14633461838E+04  0.12699999809E+01 0. -1.
</event>
<event>
 5   0  0.7971153E-06  0.2875842E+04  0.7818609E-02  0.8280102E-01
        1   -1    0    0  501    0  0.00000000000E+00  0.00000000000E+00  0.29801261311E+04  0.29801261311E+04  0.50400001928E-02 0.  1.
       -1   -1    0    0    0  501  0.00000000000E+00  0.00000000000E+00 -0.69380188989E+03  0.69380188991E+03  0.50400001928E-02 0. -1.
    10030    2    1    2    0    0  0.00000000000E+00  0.00000000000E+00  0.22863242412E+04  0.36739280210E+04  0.28758422362E+04 0.  0.
        5    1    3    3  502    0  0.84436476347E+03  0.10997982437E+03 -0.33707209216E+03  0.91579861370E+03  0.46999998093E+01 0. -1.
       -5    1    3    3    0  502 -0.84436476347E+03 -0.10997982437E+03  0.26233963333E+04  0.27581294073E+04  0.46999998093E+01 0.  1.
</event>
<event>
 5   0  0.1960961E-05  0.2698085E+04  0.7818609E-02  0.8335626E-01
        2   -1    0    0  501    0  0.00000000000E+00  0.00000000000E+00  0.14785541514E+04  0.14785541514E+04  0.25500000920E-02 0.  1.
       -2   -1    0    0    0  501  0.00000000000E+00  0.00000000000E+00 -0.12308754597E+04  0.12308754597E+04  0.25500000920E-02 0. -1.
    10030    2    1    2    0    0  0.00000000000E+00  0.00000000000E+00  0.24767869170E+03  0.27094296111E+04  0.26980852624E+04 0.  0.
        5    1    3    3  502    0 -0.47109825503E+03  0.12543508818E+04 -0.33549438623E+02  0.13403273315E+04  0.46999998093E+01 0. -1.
       -5    1    3    3    0  502  0.47109825503E+03 -0.12543508818E+04  0.28122813033E+03  0.13691022796E+04  0.46999998093E+01 0.  1.
</event>
<event>
 5   0  0.8055928E-06  0.2816240E+04  0.7818609E-02  0.8298244E-01
       -1   -1    0    0    0  501  0.00000000000E+00  0.00000000000E+00  0.80582782942E+03  0.80582782943E+03  0.50400001928E-02 0.  1.
        1   -1    0    0  501    0  0.00000000000E+00  0.00000000000E+00 -0.24605772609E+04  0.24605772610E+04  0.50400001928E-02 0. -1.
    10030    2    1    2    0    0  0.00000000000E+00  0.00000000000E+00 -0.16547494315E+04  0.32664050904E+04  0.28162397862E+04 0.  0.
        2    1    3    3  502    0 -0.88079065095E+03  0.36089621009E+03 -0.20309147864E+04  0.22429117492E+04  0.25500000920E-02 0. -1.
       -2    1    3    3    0  502  0.88079065095E+03 -0.36089621009E+03  0.37616535483E+03  0.10234933412E+04  0.25500000920E-02 0.  1.
</event>
<event>
 5   0  0.1918901E-05  0.2564401E+04  0.7818609E-02  0.8380395E-01
       -2   -1    0    0    0  501  0.00000000000E+00  0.00000000000E+00  0.88368776069E+03  0.88368776070E+03  0.25500000920E-02 0.  1.
        2   -1    0    0  501    0  0.00000000000E+00  0.00000000000E+00 -0.18604283182E+04  0.18604283182E+04  0.25500000920E-02 0. -1.
    10030    2    1    2    0    0  0.00000000000E+00  0.00000000000E+00 -0.97674055749E+03  0.27441160789E+04  0.25644006976E+04 0.  0.
        1    1    3    3  502    0 -0.49162528242E+03  0.84078638373E+03  0.40399026496E+03  0.10544312664E+04  0.50400001928E-02 0.  1.
       -1    1    3    3    0  502  0.49162528242E+03 -0.84078638373E+03 -0.13807308225E+04  0.16896848125E+04  0.50400001928E-02 0. -1.
</event>
<event>
 5   0  0.7971153E-06  0.2946154E+04  0.7818609E-02  0.8259276E-01
        1   -1    0    0  501    0  0.00000000000E+00  0.00000000000E+00  0.16786137439E+04  0.16786137439E+04  0.50400001928E-02 0. -1.
       -1   -1    0    0    0  501  0.00000000000E+00  0.00000000000E+00 -0.12927071344E+04  0.12927071344E+04  0.50400001928E-02 0.  1.
    10030    2    1    2    0    0  0.00000000000E+00  0.00000000000E+00  0.38590660946E+03  0.29713208783E+04  0.29461540779E+04 0.  0.
        5    1    3    3  502    0 -0.41471619466E+03  0.36762638568E+03  0.15694546901E+04  0.16644364799E+04  0.46999998093E+01 0. -1.
       -5    1    3    3    0  502  0.41471619466E+03 -0.36762638568E+03 -0.11835480806E+04  0.13068843984E+04  0.46999998093E+01 0.  1.
</event>
<event>
 5   0  0.6578125E-06  0.1469673E+04  0.7818609E-02  0.8904874E-01
       -4   -1    0    0    0  501  0.00000000000E+00  0.00000000000E+00  0.87837289259E+03  0.87837381071E+03  0.12699999809E+01 0.  1.
        4   -1    0    0  501    0  0.00000000000E+00  0.00000000000E+00 -0.61475351366E+03  0.61475482548E+03  0.12699999809E+01 0. -1.
    10030    2    1    2    0    0  0.00000000000E+00  0.00000000000E+00  0.26361937893E+03  0.14931286362E+04  0.14696727348E+04 0.  0.
        5    1    3    3  502    0  0.38896701927E+03 -0.13408010769E+03 -0.48675023070E+03  0.63735444961E+03  0.46999998093E+01 0. -1.
       -5    1    3    3    0  502 -0.38896701927E+03  0.13408010769E+03  0.75036960963E+03  0.85577418658E+03  0.46999998093E+01 0.  1.
</event>
<event>
 5   0  0.1976233E-05  0.1978166E+04  0.7818609E-02  0.8616897E-01
        2   -1    0    0  501    0  0.00000000000E+00  0.00000000000E+00  0.11553389884E+04  0.11553389884E+04  0.25500000920E-02 0.  1.
       -2   -1    0    0    0  501  0.00000000000E+00  0.00000000000E+00 -0.84675205975E+03  0.84675205976E+03  0.25500000920E-02 0. -1.
    10030    2    1    2    0    0  0.00000000000E+00  0.00000000000E+00  0.30858692865E+03  0.20020910482E+04  0.19781664926E+04 0.  0.
        2    1    3    3  502    0  0.47957429001E+03 -0.36963351232E+03 -0.63725567544E+03  0.87904222251E+03  0.25500000920E-02 0. -1.
       -2    1    3    3    0  502 -0.47957429001E+03  0.36963351232E+03  0.94584260409E+03  0.11230488256E+04  0.25500000920E-02 0.  1.
</event>
<event>
 5   0  0.1976233E-05  0.2877900E+04  0.7818609E-02  0.8279483E-01
        2   -1    0    0  501    0  0.00000000000E+00  0.00000000000E+00  0.14703157437E+04  0.14703157437E+04  0.25500000920E-02 0. -1.
       -2   -1    0    0    0  501  0.00000000000E+00  0.00000000000E+00 -0.14082532747E+04  0.14082532747E+04  0.25500000920E-02 0.  1.
    10030    2    1    2    0    0  0.00000000000E+00  0.00000000000E+00  0.62062469013E+02  0.28785690184E+04  0.28778999016E+04 0.  0.
        2    1    3    3  502    0  0.13330676828E+04  0.51576374149E+03 -0.13482431659E+03  0.14357086335E+04  0.25500000920E-02 0.  1.
       -2    1    3    3    0  502 -0.13330676828E+04 -0.51576374149E+03  0.19688678560E+03  0.14428603849E+04  0.25500000920E-02 0. -1.
</event>
<event>
 5   0  0.1829810E-05  0.1665587E+04  0.7818609E-02  0.8781239E-01
        2   -1    0    0  501    0  0.00000000000E+00  0.00000000000E+00  0.15036817863E+04  0.15036817863E+04  0.25500000920E-02 0.  1.
       -2   -1    0    0    0  501  0.00000000000E+00  0.00000000000E+00 -0.46123099911E+03  0.46123099912E+03  0.25500000920E-02 0. -1.
    10030    2    1    2    0    0  0.00000000000E+00  0.00000000000E+00  0.10424507872E+04  0.19649127854E+04  0.16655865665E+04 0.  0.
        4    1    3    3  502    0 -0.61048775280E+03 -0.25723499788E+03 -0.74123702474E+02  0.66660413787E+03  0.12699999809E+01 0. -1.
       -4    1    3    3    0  502  0.61048775280E+03  0.25723499788E+03  0.11165744897E+04  0.12983086476E+04  0.12699999809E+01 0.  1.
</event>
<event>
 5   0  0.1976233E-05  0.2867430E+04  0.7818609E-02  0.8282634E-01
        2   -1    0    0  501    0  0.00000000000E+00  0.00000000000E+00  0.21415300343E+04  0.21415300343E+04  0.25500000920E-02 0. -1.
       -2   -1    0    0    0  501  0.00000000000E+00  0.00000000000E+00 -0.95984575694E+03  0.95984575695E+03  0.25500000920E-02 0.  1.
    10030    2    1    2    0    0  0.00000000000E+00  0.00000000000E+00  0.11816842774E+04  0.31013757913E+04  0.28674298714E+04 0.  0.
        2    1    3    3  502    0 -0.58147462693E+03  0.10928004460E+04  0.13731916830E+04  0.18487782330E+04  0.25500000920E-02 0. -1.
       -2    1    3    3    0  502  0.58147462693E+03 -0.10928004460E+04 -0.19150740557E+03  0.12525975583E+04  0.25500000920E-02 0.  1.
</event>
<event>
 5   0  0.1976233E-05  0.2887117E+04  0.7818609E-02  0.8276721E-01
        2   -1    0    0  501    0  0.00000000000E+00  0.00000000000E+00  0.15301460323E+04  0.15301460323E+04  0.25500000920E-02 0.  1.
       -2   -1    0    0    0  501  0.00000000000E+00  0.00000000000E+00 -0.13618711583E+04  0.13618711583E+04  0.25500000920E-02 0. -1.
    10030    2    1    2    0    0  0.00000000000E+00  0.00000000000E+00  0.16827487398E+03  0.28920171906E+04  0.28871174201E+04 0.  0.
        2    1    3    3  502    0  0.51703006817E+03  0.22982817111E+03 -0.12461678751E+04  0.13686034680E+04  0.25500000920E-02 0. -1.
       -2    1    3    3    0  502 -0.51703006817E+03 -0.22982817111E+03  0.14144427491E+04  0.15234137226E+04  0.25500000920E-02 0.  1.
</event>
<event>
 5   0  0.1937947E-05  0.2884183E+04  0.7818609E-02  0.8277599E-01
        2   -1    0    0  501    0  0.00000000000E+00  0.00000000000E+00  0.17367858333E+04  0.17367858333E+04  0.25500000920E-02 0. -1.
       -2   -1    0    0    0  501  0.00000000000E+00  0.00000000000E+00 -0.11974003931E+04  0.11974003931E+04  0.25500000920E-02 0.  1.
    10030    2    1    2    0    0  0.00000000000E+00  0.00000000000E+00  0.53938544018E+03  0.29341862264E+04  0.28841831007E+04 0.  0.
        3    1    3    3  502    0  0.13109673347E+04 -0.45160027137E+03 -0.13347303792E+03  0.13929799782E+04  0.10100000352E+00 0. -1.
       -3    1    3    3    0  502 -0.13109673347E+04  0.45160027137E+03  0.67285847810E+03  0.15412062482E+04  0.10100000352E+00 0.  1.
</event>
<event>
 5   0  0.7305460E-06  0.2865733E+04  0.7818609E-02  0.8283146E-01
       -1   -1    0    0    0  501  0.00000000000E+00  0.00000000000E+00  0.73042441244E+03  0.73042441246E+03  0.50400001928E-02 0.  1.
        1   -1    0    0  501    0  0.00000000000E+00  0.00000000000E+00 -0.28108405322E+04  0.28108405322E+04  0.50400001928E-02 0. -1.
    10030    2    1    2    0    0  0.00000000000E+00  0.00000000000E+00 -0.20804161198E+04  0.35412649447E+04  0.28657330959E+04 0.  0.
        4    1    3    3  502    0  0.13666643668E+04 -0.42674363900E+03 -0.97005066216E+03  0.17294165274E+04  0.12699999809E+01 0.  1.
       -4    1    3    3    0  502 -0.13666643668E+04  0.42674363900E+03 -0.11103654576E+04  0.18118484173E+04  0.12699999809E+01 0. -1.
</event>
<event>
 5   0  0.8122088E-06  0.2783867E+04  0.7818609E-02  0.8308294E-01
       -1   -1    0    0    0  501  0.00000000000E+00  0.00000000000E+00  0.16181252149E+04  0.16181252149E+04  0.50400001928E-02 0. -1.
        1   -1    0    0  501    0  0.00000000000E+00  0.00000000000E+00 -0.11973605880E+04  0.11973605880E+04  0.50400001928E-02 0.  1.
    10030    2    1    2    0    0  0.00000000000E+00  0.00000000000E+00  0.42076462695E+03  0.28154858029E+04  0.27838673523E+04 0.  0.
        1    1    3    3  502    0  0.11640580874E+04 -0.21358055198E+02 -0.56116630327E+03  0.12924376261E+04  0.50400001928E-02 0.  1.
       -1    1    3    3    0  502 -0.11640580874E+04  0.21358055198E+02  0.98193093022E+03  0.15230481769E+04  0.50400001928E-02 0. -1.
</event>
<event>
 5   0  0.8234888E-06  0.2534322E+04  0.7818609E-02  0.8390859E-01
        1   -1    0    0  501    0  0.00000000000E+00  0.00000000000E+00  0.11660984464E+04  0.11660984464E+04  0.50400001928E-02 0. -1.
       -1   -1    0    0    0  501  0.00000000000E+00  0.00000000000E+00 -0.13769823777E+04  0.13769823777E+04  0.50400001928E-02 0.  1.
    10030    2    1    2    0    0  0.00000000000E+00  0.00000000000E+00 -0.21088393123E+03  0.25430808241E+04  0.25343220091E+04 0.  0.
        3    1    3    3  502    0  0.10956152619E+04 -0.41181088043E+03  0.38176256814E+03  0.12311391765E+04  0.10100000352E+00 0. -1.
       -3    1    3    3    0  502 -0.10956152619E+04  0.41181088043E+03 -0.59264649938E+03  0.13119416476E+04  0.10100000352E+00 0.  1.
</event>
<event>
 5   0  0.8055928E-06  0.2863250E+04  0.7818609E-02  0.8283896E-01
       -1   -1    0    0    0  501  0.00000000000E+00  0.00000000000E+00  0.11369020520E+04  0.11369020520E+04  0.50400001928E-02 0.  1.
        1   -1    0    0  501    0  0.00000000000E+00  0.00000000000E+00 -0.18027497075E+04  0.18027497075E+04  0.50400001928E-02 0. -1.
    10030    2    1    2    0    0  0.00000000000E+00  0.00000000000E+00 -0.66584765553E+03  0.29396517595E+04  0.28632497912E+04 0.  0.
        2    1    3    3  502    0 -0.11183083328E+03 -0.13396744308E+04 -0.83831518000E+03  0.15842998633E+04  0.25500000920E-02 0. -1.
       -2    1    3    3    0  502  0.11183083328E+03  0.13396744308E+04  0.17246752448E+03  0.13553518963E+04  0.25500000920E-02 0.  1.
</event>
<event>
 5   0  0.8122088E-06  0.2824273E+04  0.7818609E-02  0.8295772E-01
        1   -1    0    0  501    0  0.00000000000E+00  0.00000000000E+00  0.15242651295E+04  0.15242651295E+04  0.50400001928E-02 0. -1.
       -1   -1    0    0    0  501  0.00000000000E+00  0.00000000000E+00 -0.13082560583E+04  0.13082560583E+04  0.50400001928E-02 0.  1.
    10030    2    1    2    0    0  0.00000000000E+00  0.00000000000E+00  0.21600907116E+03  0.28325211878E+04  0.28242727136E+04 0.  0.
        1    1    3    3  502    0 -0.11896132673E+04 -0.18477218358E+02  0.87088894181E+03  0.14744384295E+04  0.50400001928E-02 0.  1.
       -1    1    3    3    0  502  0.11896132673E+04  0.18477218358E+02 -0.65487987065E+03  0.13580827583E+04  0.50400001928E-02 0. -1.
</event>
<event>
 5   0  0.1829810E-05  0.2286217E+04  0.7818609E-02  0.8483375E-01
       -2   -1    0    0    0  501  0.00000000000E+00  0.00000000000E+00  0.86814345364E+03  0.86814345365E+03  0.25500000920E-02 0.  1.
        2   -1    0    0  501    0  0.00000000000E+00  0.00000000000E+00 -0.15051632080E+04  0.15051632080E+04  0.25500000920E-02 0. -1.
    10030    2    1    2    0    0  0.00000000000E+00  0.00000000000E+00 -0.63701975434E+03  0.23733066616E+04  0.22862174749E+04 0.  0.
        4    1    3    3  502    0 -0.38601690854E+03 -0.49573045296E+03 -0.13098416622E+04  0.14527369096E+04  0.12699999809E+01 0. -1.
       -4    1    3    3    0  502  0.38601690854E+03  0.49573045296E+03  0.67282190787E+03  0.92056975199E+03  0.12699999809E+01 0.  1.
</event>
<event>
 5   0  0.1829810E-05  0.2837817E+04  0.7818609E-02  0.8291623E-01
        2   -1    0    0  501    0  0.00000000000E+00  0.00000000000E+00  0.23285033338E+04  0.23285033338E+04  0.25500000920E-02 0.  1.
       -2   -1    0    0    0  501  0.00000000000E+00  0.00000000000E+00 -0.86463346887E+03  0.86463346888E+03  0.25500000920E-02 0. -1.
    10030    2    1    2    0    0  0.00000000000E+00  0.00000000000E+00  0.14638698649E+04  0.31931368027E+04  0.28378174112E+04 0.  0.
        4    1    3    3  502    0  0.47207746149E+03 -0.10332788178E+03  0.22330521037E+04  0.22847444259E+04  0.12699999809E+01 0.  1.
       -4    1    3    3    0  502 -0.47207746149E+03  0.10332788178E+03 -0.76918223880E+03  0.90839237678E+03  0.12699999809E+01 0. -1.
</event>
<event>
 5   0  0.1976233E-05  0.2896190E+04  0.7818609E-02  0.8274012E-01
        2   -1    0    0  501    0  0.00000000000E+00  0.00000000000E+00  0.20630575831E+04  0.20630575831E+04  0.25500000920E-02 0.  1.
       -2   -1    0    0    0  501  0.00000000000E+00  0.00000000000E+00 -0.10164420581E+04  0.10164420581E+04  0.25500000920E-02 0. -1.
    10030    2    1    2    0    0  0.00000000000E+00  0.00000000000E+00  0.10466155250E+04  0.30794996412E+04  0.28961895627E+04 0.  0.
        2    1    3    3  502    0 -0.11972596921E+04  0.76535286927E+03  0.81985556608E+03  0.16405361727E+04  0.25500000920E-02 0. -1.
       -2    1    3    3    0  502  0.11972596921E+04 -0.76535286927E+03  0.22675995894E+03  0.14389634685E+04  0.25500000920E-02 0.  1.
</event>
<event>
 5   0  0.6578125E-06  0.2783388E+04  0.7818609E-02  0.8308444E-01
        3   -1    0    0  501    0  0.00000000000E+00  0.00000000000E+00  0.16925231684E+04  0.16925231714E+04  0.10100000352E+00 0. -1.
       -3   -1    0    0    0  501  0.00000000000E+00  0.00000000000E+00 -0.11443343769E+04  0.11443343814E+04  0.10100000352E+00 0.  1.
    10030    2    1    2    0    0  0.00000000000E+00  0.00000000000E+00  0.54818879149E+03  0.28368575528E+04  0.27833881913E+04 0.  0.
        3    1    3    3  502    0 -0.85689434680E+03 -0.94975561619E+02  0.13875665414E+04  0.16335939507E+04  0.10100000352E+00 0. -1.
       -3    1    3    3    0  502  0.85689434680E+03  0.94975561619E+02 -0.83937774988E+03  0.12032636021E+04  0.10100000352E+00 0.  1.
</event>
<event>
 5   0  0.7305460E-06  0.2845658E+04  0.7818609E-02  0.8289232E-01
        1   -1    0    0  501    0  0.00000000000E+00  0.00000000000E+00  0.13179217484E+04  0.13179217484E+04  0.50400001928E-02 0.  1.
       -1   -1    0    0    0  501  0.00000000000E+00  0.00000000000E+00 -0.15360872625E+04  0.15360872625E+04  0.50400001928E-02 0. -1.
    10030    2    1    2    0    0  0.00000000000E+00  0.00000000000E+00 -0.21816551404E+03  0.28540090109E+04  0.28456583145E+04 0.  0.
        4    1    3    3  502    0 -0.14154166128E+04  0.26839367798E+02 -0.25203755173E+03  0.14379322237E+04  0.12699999809E+01 0.  1.
       -4    1    3    3    0  502  0.14154166128E+04 -0.26839367798E+02  0.33872037692E+02  0.14160767872E+04  0.12699999809E+01 0. -1.
</event>
<event>
 5   0  0.8234888E-06  0.3136149E+04  0.7818609E-02  0.8205887E-01
        1   -1    0    0  501    0  0.00000000000E+00  0.00000000000E+00  0.18110919652E+04  0.18110919652E+04  0.50400001928E-02 0. -1.
       -1   -1    0    0    0  501  0.00000000000E+00  0.00000000000E+00 -0.13576656417E+04  0.13576656417E+04  0.50400001928E-02 0.  1.
    10030    2    1    2    0    0  0.00000000000E+00  0.00000000000E+00  0.45342632352E+03  0.31687576070E+04  0.31361488072E+04 0.  0.
        3    1    3    3  502    0 -0.77429406504E+03 -0.35883312487E+03  0.15559007971E+04  0.17745759525E+04  0.10100000352E+00 0. -1.
       -3    1    3    3    0  502  0.77429406504E+03  0.35883312487E+03 -0.11024744736E+04  0.13941816545E+04  0.10100000352E+00 0.  1.
</event>
<event>
 5   0  0.7305460E-06  0.2908590E+04  0.7818609E-02  0.8270326E-01
       -1   -1    0    0    0  501  0.00000000000E+00  0.00000000000E+00  0.86650061186E+03  0.86650061188E+03  0.50400001928E-02 0.  1.
        1   -1    0    0  501    0  0.00000000000E+00  0.00000000000E+00 -0.24408218949E+04  0.24408218949E+04  0.50400001928E-02 0. -1.
    10030    2    1    2    0    0  0.00000000000E+00  0.00000000000E+00 -0.15743212831E+04  0.33073225068E+04  0.29085898064E+04 0.  0.
        4    1    3    3  502    0  0.57166698755E+03  0.77838107065E+01 -0.23076765929E+04  0.23774432912E+04  0.12699999809E+01 0. -1.
       -4    1    3    3    0  502 -0.57166698755E+03 -0.77838107065E+01  0.73335530982E+03  0.92987921566E+03  0.12699999809E+01 0.  1.
</event>
<event>
 5   0  0.7305460E-06  0.1645833E+04  0.7818609E-02  0.8792875E-01
       -1   -1    0    0    0  501  0.00000000000E+00  0.00000000000E+00  0.31492076002E+03  0.31492076006E+03  0.50400001928E-02 0.  1.
        1   -1    0    0  501    0  0.00000000000E+00  0.00000000000E+00 -0.21503556636E+04  0.21503556636E+04  0.50400001928E-02 0. -1.
    10030    2    1    2    0    0  0.00000000000E+00  0.00000000000E+00 -0.18354349035E+04  0.24652764236E+04  0.16458330899E+04 0.  0.
        4    1    3    3  502    0  0.64017726492E+03  0.25072340974E+03 -0.15950897174E+04  0.17369519217E+04  0.12699999809E+01 0. -1.
       -4    1    3    3    0  502 -0.64017726492E+03 -0.25072340974E+03 -0.24034518609E+03  0.72832450192E+03  0.12699999809E+01 0.  1.
</event>
<event>
 5   0  0.1918901E-05  0.2760477E+04  0.7818609E-02  0.8315645E-01
       -2   -1    0    0    0  501  0.00000000000E+00  0.00000000000E+00  0.19283954467E+04  0.19283954467E+04  0.25500000920E-02 0.  1.
        2   -1    0    0  501    0  0.00000000000E+00  0.00000000000E+00 -0.98789824040E+03  0.98789824040E+03  0.25500000920E-02 0. -1.
    10030    2    1    2    0    0  0.00000000000E+00  0.00000000000E+00  0.94049720631E+03  0.29162936871E+04  0.27604771099E+04 0.  0.
        1    1    3    3  502    0 -0.77632628362E+03 -0.11227740623E+04  0.25437571533E+03  0.13885283930E+04  0.50400001928E-02 0.  1.
       -1    1    3    3    0  502  0.77632628362E+03  0.11227740623E+04  0.68612149097E+03  0.15277652941E+04  0.50400001928E-02 0. -1.
</event>
<event>
 5   0  0.1976233E-05  0.3028512E+04  0.7818609E-02  0.8235636E-01
       -2   -1    0    0    0  501  0.00000000000E+00  0.00000000000E+00  0.16739532152E+04  0.16739532152E+04  0.25500000920E-02 0. -1.
        2   -1    0    0  501    0  0.00000000000E+00  0.00000000000E+00 -0.13697937038E+04  0.13697937038E+04  0.25500000920E-02 0.  1.
    10030    2    1    2    0    0  0.00000000000E+00  0.00000000000E+00  0.30415951144E+03  0.30437469190E+04  0.30285115649E+04 0.  0.
        2    1    3    3  502    0  0.10482009639E+04 -0.10782288986E+04 -0.26769833790E+02  0.15040011445E+04  0.25500000920E-02 0.  1.
       -2    1    3    3    0  502 -0.10482009639E+04  0.10782288986E+04  0.33092934523E+03  0.15397457745E+04  0.25500000920E-02 0. -1.
</event>
<event>
 5   0  0.1937947E-05  0.2926352E+04  0.7818609E-02  0.8265080E-01
       -2   -1    0    0    0  501  0.00000000000E+00  0.00000000000E+00  0.22831038062E+04  0.22831038062E+04  0.25500000920E-02 0. -1.
        2   -1    0    0  501    0  0.00000000000E+00  0.00000000000E+00 -0.93770741505E+03  0.93770741505E+03  0.25500000920E-02 0.  1.
    10030    2    1    2    0    0  0.00000000000E+00  0.00000000000E+00  0.13453963911E+04  0.32208112212E+04  0.29263515636E+04 0.  0.
        3    1    3    3  502    0 -0.35179495137E+02  0.13676242236E+04  0.12438037980E+04  0.18489676882E+04  0.10100000352E+00 0. -1.
       -3    1    3    3    0  502  0.35179495137E+02 -0.13676242236E+04  0.10159259313E+03  0.13718435330E+04  0.10100000352E+00 0.  1.
</event>
<event>
 5   0  0.1960961E-05  0.2863583E+04  0.7818609E-02  0.8283796E-01
       -2   -1    0    0    0  501  0.00000000000E+00  0.00000000000E+00  0.17294683416E+04  0.17294683416E+04  0.25500000920E-02 0.  1.
        2   -1    0    0  501    0  0.00000000000E+00  0.00000000000E+00 -0.11853506525E+04  0.11853506525E+04  0.25500000920E-02 0. -1.
    10030    2    1    2    0    0  0.00000000000E+00  0.00000000000E+00  0.54411768904E+03  0.29148189941E+04  0.28635826702E+04 0.  0.
        5    1    3    3  502    0  0.12852907311E+04  0.31255450896E+03  0.82989893280E+03  0.15615431192E+04  0.46999998093E+01 0.  1.
       -5    1    3    3    0  502 -0.12852907311E+04 -0.31255450896E+03 -0.28578124376E+03  0.13532758749E+04  0.46999998093E+01 0. -1.
</event>
<event>
 5   0  0.7971153E-06  0.2949099E+04  0.7818609E-02  0.8258417E-01
        1   -1    0    0  501    0  0.00000000000E+00  0.00000000000E+00  0.25727164596E+04  0.25727164596E+04  0.50400001928E-02 0. -1.
       -1   -1    0    0    0  501  0.00000000000E+00  0.00000000000E+00 -0.84513637163E+03  0.84513637164E+03  0.50400001928E-02 0.  1.
    10030    2    1    2    0    0  0.00000000000E+00  0.00000000000E+00  0.17275800880E+04  0.34178528313E+04  0.29490990176E+04 0.  0.
        5    1    3    3  502    0 -0.13306742618E+04 -0.62959287057E+03  0.96208217267E+03  0.17586089306E+04  0.46999998093E+01 0.  1.
       -5    1    3    3    0  502  0.13306742618E+04  0.62959287057E+03  0.76549791532E+03  0.16592439007E+04  0.46999998093E+01 0. -1.
</event>
<event>
 5   0  0.8055928E-06  0.1983256E+04  0.7818609E-02  0.8614489E-01
        1   -1    0    0  501    0  0.00000000000E+00  0.00000000000E+00  0.61196773051E+03  0.61196773053E+03  0.50400001928E-02 0.  1.
       -1   -1    0    0    0  501  0.00000000000E+00  0.00000000000E+00 -0.16068267938E+04  0.16068267938E+04  0.50400001928E-02 0. -1.
    10030    2    1    2    0    0  0.00000000000E+00  0.00000000000E+00 -0.99485906331E+03  0.22187945244E+04  0.19832560565E+04 0.  0.
        2    1    3    3  502    0 -0.14991690419E+03 -0.93165606034E+03 -0.15649462598E+03  0.95652948773E+03  0.25500000920E-02 0.  1.
       -2    1    3    3    0  502  0.14991690419E+03  0.93165606034E+03 -0.83836443734E+03  0.12622650366E+04  0.25500000920E-02 0. -1.
</event>
<event>
 5   0  0.7971153E-06  0.2900431E+04  0.7818609E-02  0.8272749E-01
        1   -1    0    0  501    0  0.00000000000E+00  0.00000000000E+00  0.16218094984E+04  0.16218094984E+04  0.50400001928E-02 0. -1.
       -1   -1    0    0    0  501  0.00000000000E+00  0.00000000000E+00 -0.12967768848E+04  0.12967768848E+04  0.50400001928E-02 0.  1.
    10030    2    1    2    0    0  0.00000000000E+00  0.00000000000E+00  0.32503261357E+03  0.29185863831E+04  0.29004310500E+04 0.  0.
        5    1    3    3  502    0 -0.85698632221E+02  0.10366645223E+04  0.11793291840E+04  0.15725320352E+04  0.46999998093E+01 0. -1.
       -5    1    3    3    0  502  0.85698632221E+02 -0.10366645223E+04 -0.85429657042E+03  0.13460543480E+04  0.46999998093E+01 0.  1.
</event>
<event>
 5   0  0.1976233E-05  0.2904427E+04  0.7818609E-02  0.8271562E-01
       -2   -1    0    0    0  501  0.00000000000E+00  0.00000000000E+00  0.89166874727E+03  0.89166874727E+03  0.25500000920E-02 0.  1.
        2   -1    0    0  501    0  0.00000000000E+00  0.00000000000E+00 -0.23651426585E+04  0.23651426585E+04  0.25500000920E-02 0. -1.
    10030    2    1    2    0    0  0.00000000000E+00  0.00000000000E+00 -0.14734739112E+04  0.32568114058E+04  0.29044268222E+04 0.  0.
        2    1    3    3  502    0  0.58528537817E+03 -0.77917138825E+03 -0.19440558326E+04  0.21746310276E+04  0.25500000920E-02 0. -1.
       -2    1    3    3    0  502 -0.58528537817E+03  0.77917138825E+03  0.47058192133E+03  0.10821803782E+04  0.25500000920E-02 0.  1.
</event>
<event>
 5   0  0.1918901E-05  0.2974218E+04  0.7818609E-02  0.8251132E-01
       -2   -1    0    0    0  501  0.00000000000E+00  0.00000000000E+00  0.17839578286E+04  0.17839578286E+04  0.25500000920E-02 0. -1.
        2   -1    0    0  501    0  0.00000000000E+00  0.00000000000E+00 -0.12396552527E+04  0.12396552527E+04  0.25500000920E-02 0.  1.
    10030    2    1    2    0    0  0.00000000000E+00  0.00000000000E+00  0.54430257593E+03  0.30236130813E+04  0.29742176738E+04 0.  0.
        1    1    3    3  502    0 -0.73637188974E+03  0.42554405887E+02 -0.10405875859E+04  0.12754908708E+04  0.50400001928E-02 0.  1.
       -1    1    3    3    0  502  0.73637188974E+03 -0.42554405887E+02  0.15848901619E+04  0.17481222105E+04  0.50400001928E-02 0. -1.
</event>
<event>
 5   0  0.1918901E-05  0.2744512E+04  0.7818609E-02  0.8320705E-01
        2   -1    0    0  501    0  0.00000000000E+00  0.00000000000E+00  0.18846299553E+04  0.18846299553E+04  0.25500000920E-02 0.  1.
       -2   -1    0    0    0  501  0.00000000000E+00  0.00000000000E+00 -0.99918134580E+03  0.99918134580E+03  0.25500000920E-02 0. -1.
    10030    2    1    2    0    0  0.00000000000E+00  0.00000000000E+00  0.88544860945E+03  0.28838113011E+04  0.27445124121E+04 0.  0.
        1    1    3    3  502    0  0.64649854761E+03 -0.10176435356E+04  0.11313727332E+04  0.16533490252E+04  0.50400001928E-02 0.  1.
       -1    1    3    3    0  502 -0.64649854761E+03  0.10176435356E+04 -0.24592412377E+03  0.12304622759E+04  0.50400001928E-02 0. -1.
</event>
<event>
 5   0  0.1937947E-05  0.2651264E+04  0.7818609E-02  0.8350994E-01
        2   -1    0    0  501    0  0.00000000000E+00  0.00000000000E+00  0.20833801981E+04  0.20833801981E+04  0.25500000920E-02 0. -1.
       -2   -1    0    0    0  501  0.00000000000E+00  0.00000000000E+00 -0.84348521366E+03  0.84348521366E+03  0.25500000920E-02 0.  1.
    10030    2    1    2    0    0  0.00000000000E+00  0.00000000000E+00  0.12398949844E+04  0.29268654117E+04  0.26512641449E+04 0.  0.
        3    1    3    3  502    0  0.38202517545E+03 -0.78185780827E+03  0.17239290241E+04  0.19311074950E+04  0.10100000352E+00 0. -1.
       -3    1    3    3    0  502 -0.38202517545E+03  0.78185780827E+03 -0.48403403964E+03  0.99575791675E+03  0.10100000352E+00 0.  1.
</event>
<event>
 5   0  0.7305460E-06  0.2849511E+04  0.7818609E-02  0.8288060E-01
        1   -1    0    0  501    0  0.00000000000E+00  0.00000000000E+00  0.18059995485E+04  0.18059995485E+04  0.50400001928E-02 0. -1.
       -1   -1    0    0    0  501  0.00000000000E+00  0.00000000000E+00 -0.11239914020E+04  0.11239914020E+04  0.50400001928E-02 0.  1.
    10030    2    1    2    0    0  0.00000000000E+00  0.00000000000E+00  0.68200814647E+03  0.29299909504E+04  0.28495108103E+04 0.  0.
        4    1    3    3  502    0 -0.89021395456E+03 -0.83292855354E+03  0.10991727675E+04  0.16414728892E+04  0.12699999809E+01 0. -1.
       -4    1    3    3    0  502  0.89021395456E+03  0.83292855354E+03 -0.41716462106E+03  0.12885180612E+04  0.12699999809E+01 0.  1.
</event>
<event>
 5   0  0.1918901E-05  0.2892328E+04  0.7818609E-02  0.8275164E-01
        2   -1    0    0  501    0  0.00000000000E+00  0.00000000000E+00  0.26683517670E+04  0.26683517670E+04  0.25500000920E-02 0.  1.
       -2   -1    0    0    0  501  0.00000000000E+00  0.00000000000E+00 -0.78377615589E+03  0.78377615589E+03  0.25500000920E-02 0. -1.
    10030    2    1    2    0    0  0.00000000000E+00  0.00000000000E+00  0.18845756111E+04  0.34521279229E+04  0.28923281214E+04 0.  0.
        1    1    3    3  502    0  0.12485565882E+04 -0.12480208453E+03  0.84160806150E+02  0.12575977718E+04  0.50400001928E-02 0. -1.
       -1    1    3    3    0  502 -0.12485565882E+04  0.12480208453E+03  0.18004148050E+04  0.21945301511E+04  0.50400001928E-02 0.  1.
</event>
<event>
 5   0  0.8055928E-06  0.2889628E+04  0.7818609E-02  0.8275970E-01
       -1   -1    0    0    0  501  0.00000000000E+00  0.00000000000E+00  0.15588192020E+04  0.15588192020E+04  0.50400001928E-02 0.  1.
        1   -1    0    0  501    0  0.00000000000E+00  0.00000000000E+00 -0.13391468940E+04  0.13391468941E+04  0.50400001928E-02 0. -1.
    10030    2    1    2    0    0  0.00000000000E+00  0.00000000000E+00  0.21967230796E+03  0.28979660961E+04  0.28896282756E+04 0.  0.
        2    1    3    3  502    0 -0.76208629011E+03  0.11895579174E+04 -0.19379863581E+03  0.14259668522E+04  0.25500000920E-02 0. -1.
       -2    1    3    3    0  502  0.76208629011E+03 -0.11895579174E+04  0.41347094377E+03  0.14719992438E+04  0.25500000920E-02 0.  1.
</event>
<event>
 5   0  0.1960961E-05  0.2897731E+04  0.7818609E-02  0.8273553E-01
       -2   -1    0    0    0  501  0.00000000000E+00  0.00000000000E+00  0.14458953335E+04  0.14458953335E+04  0.25500000920E-02 0. -1.
        2   -1    0    0  501    0  0.00000000000E+00  0.00000000000E+00 -0.14518417273E+04  0.14518417273E+04  0.25500000920E-02 0.  1.
    10030    2    1    2    0    0  0.00000000000E+00  0.00000000000E+00 -0.59463938412E+01  0.28977370608E+04  0.28977309595E+04 0.  0.
        5    1    3    3  502    0 -0.25941663973E+03 -0.14254432248E+04 -0.48989438288E+01  0.14488724822E+04  0.46999998093E+01 0.  1.
       -5    1    3    3    0  502  0.25941663973E+03  0.14254432248E+04 -0.10474500124E+01  0.14488645786E+04  0.46999998093E+01 0. -1.
</event>
<event>
 5   0  0.1937947E-05  0.3298429E+04  0.7818609E-02  0.8163295E-01
       -2   -1    0    0    0  501  0.00000000000E+00  0.00000000000E+00  0.14653253898E+04  0.14653253898E+04  0.25500000920E-02 0. -1.
        2   -1    0    0  501    0  0.00000000000E+00  0.00000000000E+00 -0.18561800368E+04  0.18561800368E+04  0.25500000920E-02 0.  1.
    10030    2    1    2    0    0  0.00000000000E+00  0.00000000000E+00 -0.39085464701E+03  0.33215054267E+04  0.32984285568E+04 0.  0.
        3    1    3    3  502    0 -0.23524883038E+03  0.11053326076E+04  0.10141448443E+04  0.15184175845E+04  0.10100000352E+00 0. -1.
       -3    1    3    3    0  502  0.23524883038E+03 -0.11053326076E+04 -0.14049994913E+04  0.18030878421E+04  0.10100000352E+00 0.  1.
</event>
<event>
 5   0  0.8055928E-06  0.1848110E+04  0.7818609E-02  0.8681125E-01
        1   -1    0    0  501    0  0.00000000000E+00  0.00000000000E+00  0.55742284439E+03  0.55742284442E+03  0.50400001928E-02 0. -1.
       -1   -1    0    0    0  501  0.00000000000E+00  0.00000000000E+00 -0.15318306816E+04  0.15318306816E+04  0.50400001928E-02 0.  1.
    10030    2    1    2    0    0  0.00000000000E+00  0.00000000000E+00 -0.97440783721E+03  0.20892535260E+04  0.18481097540E+04 0.  0.
        2    1    3    3  502    0 -0.14349577868E+03 -0.54238682745E+03 -0.13172443001E+04  0.14317496482E+04  0.25500000920E-02 0.  1.
       -2    1    3    3    0  502  0.14349577868E+03  0.54238682745E+03  0.34283646285E+03  0.65750387782E+03  0.25500000920E-02 0. -1.
</event>
<event>
 5   0  0.8055928E-06  0.2853811E+04  0.7818609E-02  0.8286754E-01
        1   -1    0    0  501    0  0.00000000000E+00  0.00000000000E+00  0.23994465447E+04  0.23994465447E+04  0.50400001928E-02 0.  1.
       -1   -1    0    0    0  501  0.00000000000E+00  0.00000000000E+00 -0.84855398333E+03  0.84855398335E+03  0.50400001928E-02 0. -1.
    10030    2    1    2    0    0  0.00000000000E+00  0.00000000000E+00  0.15508925613E+04  0.32480005280E+04  0.28538114327E+04 0.  0.
        2    1    3    3  502    0 -0.87503533393E+03 -0.40566684858E+03 -0.42137852648E+03  0.10525266221E+04  0.25500000920E-02 0. -1.
       -2    1    3    3    0  502  0.87503533393E+03  0.40566684858E+03  0.19722710878E+04  0.21954739059E+04  0.25500000920E-02 0.  1.
</event>
<event>
 5   0  0.6578125E-06  0.2740196E+04  0.7818609E-02  0.8322079E-01
        3   -1    0    0  501    0  0.00000000000E+00  0.00000000000E+00  0.19296845973E+04  0.19296845999E+04  0.10100000352E+00 0.  1.
       -3   -1    0    0    0  501  0.00000000000E+00  0.00000000000E+00 -0.97278536635E+03  0.97278537159E+03  0.10100000352E+00 0. -1.
    10030    2    1    2    0    0  0.00000000000E+00  0.00000000000E+00  0.95689923093E+03  0.29024699715E+04  0.27401963064E+04 0.  0.
        2    1    3    3  502    0 -0.42751877719E+03 -0.10929042220E+04  0.12273988617E+04  0.16981519099E+04  0.25500000920E-02 0.  1.
       -2    1    3    3    0  502  0.42751877719E+03  0.10929042220E+04 -0.27049963081E+03  0.12043180616E+04  0.25500000920E-02 0. -1.
</event>
<event>
 5   0  0.1976233E-05  0.2841033E+04  0.7818609E-02  0.8290641E-01
       -2   -1    0    0    0  501  0.00000000000E+00  0.00000000000E+00  0.18037406641E+04  0.18037406641E+04  0.25500000920E-02 0.  1.
        2   -1    0    0  501    0  0.00000000000E+00  0.00000000000E+00 -0.11187123363E+04  0.11187123363E+04  0.25500000920E-02 0. -1.
    10030    2    1    2    0    0  0.00000000000E+00  0.00000000000E+00  0.68502832778E+03  0.29224530005E+04  0.28410328633E+04 0.  0.
        2    1    3    3  502    0  0.47691551901E+03 -0.12405144078E+04 -0.17339944684E+03  0.13402954064E+04  0.25500000920E-02 0. -1.
       -2    1    3    3    0  502 -0.47691551901E+03  0.12405144078E+04  0.85842777462E+03  0.15821575941E+04  0.25500000920E-02 0.  1.
</event>
<event>
 5   0  0.1976233E-05  0.2893771E+04  0.7818609E-02  0.8274733E-01
       -2   -1    0    0    0  501  0.00000000000E+00  0.00000000000E+00  0.13607639953E+04  0.13607639953E+04  0.25500000920E-02 0.  1.
        2   -1    0    0  501    0  0.00000000000E+00  0.00000000000E+00 -0.15384580854E+04  0.15384580854E+04  0.25500000920E-02 0. -1.
    10030    2    1    2    0    0  0.00000000000E+00  0.00000000000E+00 -0.17769409002E+03  0.28992220807E+04  0.28937714982E+04 0.  0.
        2    1    3    3  502    0 -0.86892065350E+03 -0.10242453953E+04  0.45010358376E+03  0.14165786134E+04  0.25500000920E-02 0.  1.
       -2    1    3    3    0  502  0.86892065350E+03  0.10242453953E+04 -0.62779767378E+03  0.14826434673E+04  0.25500000920E-02 0. -1.
</event>
<event>
 5   0  0.8234888E-06  0.2874362E+04  0.7818609E-02  0.8280547E-01
       -1   -1    0    0    0  501  0.00000000000E+00  0.00000000000E+00  0.99722787997E+03  0.99722787998E+03  0.50400001928E-02 0.  1.
        1   -1    0    0  501    0  0.00000000000E+00  0.00000000000E+00 -0.20712304512E+04  0.20712304512E+04  0.50400001928E-02 0. -1.
    10030    2    1    2    0    0  0.00000000000E+00  0.00000000000E+00 -0.10740025712E+04  0.30684583312E+04  0.28743616695E+04 0.  0.
        3    1    3    3  502    0 -0.10620284245E+04 -0.85082584560E+03 -0.43531577539E+02  0.13615079883E+04  0.10100000352E+00 0.  1.
       -3    1    3    3    0  502  0.10620284245E+04  0.85082584560E+03 -0.10304709937E+04  0.17069503428E+04  0.10100000352E+00 0. -1.
</event>
<event>
 5   0  0.1829810E-05  0.2877750E+04  0.7818609E-02  0.8279528E-01
        2   -1    0    0  501    0  0.00000000000E+00  0.00000000000E+00  0.16993188661E+04  0.16993188661E+04  0.25500000920E-02 0.  1.
       -2   -1    0    0    0  501  0.00000000000E+00  0.00000000000E+00 -0.12183481247E+04  0.12183481247E+04  0.25500000920E-02 0. -1.
    10030    2    1    2    0    0  0.00000000000E+00  0.00000000000E+00  0.48097074138E+03  0.29176669908E+04  0.28777504783E+04 0.  0.
        4    1    3    3  502    0  0.61155412268E+03 -0.45847008921E+02 -0.10792067063E+04  0.12412852698E+04  0.12699999809E+01 0. -1.
       -4    1    3    3    0  502 -0.61155412268E+03  0.45847008921E+02  0.15601774477E+04  0.16763817210E+04  0.12699999809E+01 0.  1.
</event>
<event>
 5   0  0.8122088E-06  0.2636051E+04  0.7818609E-02  0.8356058E-01
       -1   -1    0    0    0  501  0.00000000000E+00  0.00000000000E+00  0.10370026454E+04  0.10370026454E+04  0.50400001928E-02 0. -1.
        1   -1    0    0  501    0  0.00000000000E+00  0.00000000000E+00 -0.16752038722E+04  0.16752038722E+04  0.50400001928E-02 0.  1.
    10030    2    1    2    0    0  0.00000000000E+00  0.00000000000E+00 -0.63820122682E+03  0.27122065175E+04  0.26360507180E+04 0.  0.
        1    1    3    3  502    0  0.47037567485E+03  0.89681829461E+03 -0.11870683831E+04  0.15603421660E+04  0.50400001928E-02 0.  1.
       -1    1    3    3    0  502 -0.47037567485E+03 -0.89681829461E+03  0.54886715624E+03  0.11518643515E+04  0.50400001928E-02 0. -1.
</event>
<event>
 5   0  0.1976233E-05  0.2891771E+04  0.7818609E-02  0.8275330E-01
        2   -1    0    0  501    0  0.00000000000E+00  0.00000000000E+00  0.21455052228E+04  0.21455052228E+04  0.25500000920E-02 0.  1.
       -2   -1    0    0    0  501  0.00000000000E+00  0.00000000000E+00 -0.97440241155E+03  0.97440241155E+03  0.25500000920E-02 0. -1.
    10030    2    1    2    0    0  0.00000000000E+00  0.00000000000E+00  0.11711028112E+04  0.31199076343E+04  0.28917714039E+04 0.  0.
        2    1    3    3  502    0 -0.82219530501E+02  0.27154737052E+03  0.21151773907E+04  0.21341212289E+04  0.25500000920E-02 0.  1.
       -2    1    3    3    0  502  0.82219530501E+02 -0.27154737052E+03 -0.94407457943E+03  0.98578640544E+03  0.25500000920E-02 0. -1.
</event>
<event>
 5   0  0.7971153E-06  0.1969663E+04  0.7818609E-02  0.8620937E-01
       -1   -1    0    0    0  501  0.00000000000E+00  0.00000000000E+00  0.66903486427E+03  0.66903486429E+03  0.50400001928E-02 0.  1.
        1   -1    0    0  501    0  0.00000000000E+00  0.00000000000E+00 -0.14496895287E+04  0.14496895287E+04  0.50400001928E-02 0. -1.
    10030    2    1    2    0    0  0.00000000000E+00  0.00000000000E+00 -0.78065466443E+03  0.21187243930E+04  0.19696627499E+04 0.  0.
        5    1    3    3  502    0 -0.71140056795E+03 -0.67670061938E+03 -0.30800978393E+03  0.10290318816E+04  0.46999998093E+01 0. -1.
       -5    1    3    3    0  502  0.71140056795E+03  0.67670061938E+03 -0.47264488050E+03  0.10896925114E+04  0.46999998093E+01 0.  1.
</event>
<event>
 5   0  0.1918901E-05  0.1545971E+04  0.7818609E-02  0.8854445E-01
       -2   -1    0    0    0  501  0.00000000000E+00  0.00000000000E+00  0.32036506512E+03  0.32036506513E+03  0.25500000920E-02 0.  1.
        2   -1    0    0  501    0  0.00000000000E+00  0.00000000000E+00 -0.18650803852E+04  0.18650803852E+04  0.25500000920E-02 0. -1.
    10030    2    1    2    0    0  0.00000000000E+00  0.00000000000E+00 -0.15447153201E+04  0.21854454503E+04  0.15459710205E+04 0.  0.
        1    1    3    3  502    0 -0.42836772989E+03 -0.61048020045E+03 -0.48499704185E+03  0.88961065516E+03  0.50400001928E-02 0. -1.
       -1    1    3    3    0  502  0.42836772989E+03  0.61048020045E+03 -0.10597182782E+04  0.12958347952E+04  0.50400001928E-02 0.  1.
</event>
<event>
 5   0  0.1960961E-05  0.3086326E+04  0.7818609E-02  0.8219501E-01
       -2   -1    0    0    0  501  0.00000000000E+00  0.00000000000E+00  0.11357825174E+04  0.11357825174E+04  0.25500000920E-02 0.  1.
        2   -1    0    0  501    0  0.00000000000E+00  0.00000000000E+00 -0.20966624317E+04  0.20966624317E+04  0.25500000920E-02 0. -1.
    10030    2    1    2    0    0  0.00000000000E+00  0.00000000000E+00 -0.96087991430E+03  0.32324449490E+04  0.30863263176E+04 0.  0.
        5    1    3    3  502    0  0.72775684202E+03 -0.12966988641E+04 -0.48263081929E+02  0.14877531315E+04  0.46999998093E+01 0. -1.
       -5    1    3    3    0  502 -0.72775684202E+03  0.12966988641E+04 -0.91261683237E+03  0.17446918175E+04  0.46999998093E+01 0.  1.
</event>
<event>
 5   0  0.8122088E-06  0.3148551E+04  0.7818609E-02  0.8202538E-01
        1   -1    0    0  501    0  0.00000000000E+00  0.00000000000E+00  0.22283470787E+04  0.22283470787E+04  0.50400001928E-02 0.  1.
       -1   -1    0    0    0  501  0.00000000000E+00  0.00000000000E+00 -0.11121892403E+04  0.11121892403E+04  0.50400001928E-02 0. -1.
    10030    2    1    2    0    0  0.00000000000E+00  0.00000000000E+00  0.11161578384E+04  0.33405363190E+04  0.31485511872E+04 0.  0.
        1    1    3    3  502    0  0.31629762312E+03 -0.60886501418E+03  0.20613668768E+04  0.21725547617E+04  0.50400001928E-02 0.  1.
       -1    1    3    3    0  502 -0.31629762312E+03  0.60886501418E+03 -0.94520903840E+03  0.11679815573E+04  0.50400001928E-02 0. -1.
</event>
<event>
 5   0  0.7305460E-06  0.2892458E+04  0.7818609E-02  0.8275125E-01
        1   -1    0    0  501    0  0.00000000000E+00  0.00000000000E+00  0.18501456737E+04  0.18501456737E+04  0.50400001928E-02 0.  1.
       -1   -1    0    0    0  501  0.00000000000E+00  0.00000000000E+00 -0.11304939115E+04  0.11304939116E+04  0.50400001928E-02 0. -1.
    10030    2    1    2    0    0  0.00000000000E+00  0.00000000000E+00  0.71965176212E+03  0.29806395852E+04  0.28924580686E+04 0.  0.
        4    1    3    3  502    0  0.12870813176E+04 -0.51056432318E+03  0.79007420913E+03  0.15941998353E+04  0.12699999809E+01 0.  1.
       -4    1    3    3    0  502 -0.12870813176E+04  0.51056432318E+03 -0.70422447010E+02  0.13864397499E+04  0.12699999809E+01 0. -1.
</event>
<event>
 5   0  0.7305460E-06  0.1454077E+04  0.7818609E-02  0.8915579E-01
       -1   -1    0    0    0  501  0.00000000000E+00  0.00000000000E+00  0.16530642064E+04  0.16530642064E+04  0.50400001928E-02 0. -1.
        1   -1    0    0  501    0  0.00000000000E+00  0.00000000000E+00 -0.31976057426E+03  0.31976057430E+03  0.50400001928E-02 0.  1.
    10030    2    1    2    0    0  0.00000000000E+00  0.00000000000E+00  0.13333036321E+04  0.19728247807E+04  0.14540766967E+04 0.  0.
        4    1    3    3  502    0  0.61896505838E+03  0.31861937565E+03  0.38222777903E+03  0.79418872946E+03  0.12699999809E+01 0.  1.
       -4    1    3    3    0  502 -0.61896505838E+03 -0.31861937565E+03  0.95107585310E+03  0.11786360512E+04  0.12699999809E+01 0. -1.
</event>
<event>
 5   0  0.1976233E-05  0.2901005E+04  0.7818609E-02  0.8272578E-01
       -2   -1    0    0    0  501  0.00000000000E+00  0.00000000000E+00  0.10278516273E+04  0.10278516273E+04  0.25500000920E-02 0.  1.
        2   -1    0    0  501    0  0.00000000000E+00  0.00000000000E+00 -0.20469468825E+04  0.20469468825E+04  0.25500000920E-02 0. -1.
    10030    2    1    2    0    0  0.00000000000E+00  0.00000000000E+00 -0.10190952552E+04  0.30747985098E+04  0.29010051252E+04 0.  0.
        2    1    3    3  502    0 -0.58089038944E+03 -0.84222771863E+03  0.58024011311E+03  0.11762056638E+04  0.25500000920E-02 0.  1.
       -2    1    3    3    0  502  0.58089038944E+03  0.84222771863E+03 -0.15993353683E+04  0.18985928460E+04  0.25500000920E-02 0. -1.
</event>
<event>
 5   0  0.1976233E-05  0.2965426E+04  0.7818609E-02  0.8253673E-01
       -2   -1    0    0    0  501  0.00000000000E+00  0.00000000000E+00  0.16283554995E+04  0.16283554995E+04  0.25500000920E-02 0.  1.
        2   -1    0    0  501    0  0.00000000000E+00  0.00000000000E+00 -0.13500968585E+04  0.13500968585E+04  0.25500000920E-02 0. -1.
    10030    2    1    2    0    0  0.00000000000E+00  0.00000000000E+00  0.27825864107E+03  0.29784523580E+04  0.29654258679E+04 0.  0.
        2    1    3    3  502    0  0.70583055738E+03  0.10293680250E+04 -0.66478803424E+03  0.14141210829E+04  0.25500000920E-02 0. -1.
       -2    1    3    3    0  502 -0.70583055738E+03 -0.10293680250E+04  0.94304667530E+03  0.15643312751E+04  0.25500000920E-02 0.  1.
</event>
<event>
 5   0  0.1829810E-05  0.2607891E+04  0.7818609E-02  0.8365526E-01
       -2   -1    0    0    0  501  0.00000000000E+00  0.00000000000E+00  0.87532412875E+03  0.87532412875E+03  0.25500000920E-02 0. -1.
        2   -1    0    0  501    0  0.00000000000E+00  0.00000000000E+00 -0.19424508067E+04  0.19424508067E+04  0.25500000920E-02 0.  1.
    10030    2    1    2    0    0  0.00000000000E+00  0.00000000000E+00 -0.10671266779E+04  0.28177749354E+04  0.26078911480E+04 0.  0.
        4    1    3    3  502    0 -0.84212438810E+03 -0.97329776445E+03 -0.30746029174E+03  0.13232594104E+04  0.12699999809E+01 0. -1.
       -4    1    3    3    0  502  0.84212438810E+03  0.97329776445E+03 -0.75966638616E+03  0.14945155250E+04  0.12699999809E+01 0.  1.
</event>
<event>
 5   0  0.1960961E-05  0.2830562E+04  0.7818609E-02  0.8293842E-01
        2   -1    0    0  501    0  0.00000000000E+00  0.00000000000E+00  0.20782614079E+04  0.20782614079E+04  0.25500000920E-02 0. -1.
       -2   -1    0    0    0  501  0.00000000000E+00  0.00000000000E+00 -0.96379613431E+03  0.96379613432E+03  0.25500000920E-02 0.  1.
    10030    2    1    2    0    0  0.00000000000E+00  0.00000000000E+00  0.11144652736E+04  0.30420575423E+04  0.28305620015E+04 0.  0.
        5    1    3    3  502    0 -0.89489548330E+03  0.10298596394E+04  0.96157458268E+03  0.16691604389E+04  0.46999998093E+01 0. -1.
       -5    1    3    3    0  502  0.89489548330E+03 -0.10298596394E+04  0.15289069095E+03  0.13728971033E+04  0.46999998093E+01 0.  1.
</event>
<event>
 5   0  0.1976233E-05  0.2776847E+04  0.7818609E-02  0.8310493E-01
       -2   -1    0    0    0  501  0.00000000000E+00  0.00000000000E+00  0.13957427326E+04  0.13957427326E+04  0.25500000920E-02 0.  1.
        2   -1    0    0  501    0  0.00000000000E+00  0.00000000000E+00 -0.13811426982E+04  0.13811426982E+04  0.25500000920E-02 0. -1.
    10030    2    1    2    0    0  0.00000000000E+00  0.00000000000E+00  0.14600034393E+02  0.27768854307E+04  0.27768470492E+04 0.  0.
        2    1    3    3  502    0 -0.64127221213E+03 -0.32507794540E+03  0.11950934183E+04  0.13946877784E+04  0.25500000920E-02 0.  1.
       -2    1    3    3    0  502  0.64127221213E+03  0.32507794540E+03 -0.11804933839E+04  0.13821976524E+04  0.25500000920E-02 0. -1.
</event>
<event>
 5   0  0.1918901E-05  0.2823031E+04  0.7818609E-02  0.8296154E-01
       -2   -1    0    0    0  501  0.00000000000E+00  0.00000000000E+00  0.12601541787E+04  0.12601541787E+04  0.25500000920E-02 0.  1.
        2   -1    0    0  501    0  0.00000000000E+00  0.00000000000E+00 -0.15810577457E+04  0.15810577457E+04  0.25500000920E-02 0. -1.
    10030    2    1    2    0    0  0.00000000000E+00  0.00000000000E+00 -0.32090356702E+03  0.28412119244E+04  0.28230313672E+04 0.  0.
        1    1    3    3  502    0  0.28338399171E+03  0.86010105758E+03 -0.12501509164E+04  0.15436831377E+04  0.50400001928E-02 0. -1.
       -1    1    3    3    0  502 -0.28338399171E+03 -0.86010105758E+03  0.92924734935E+03  0.12975287867E+04  0.50400001928E-02 0.  1.
</event>
<event>
 5   0  0.1829810E-05  0.2734050E+04  0.7818609E-02  0.8324041E-01
        2   -1    0    0  501    0  0.00000000000E+00  0.00000000000E+00  0.23217613339E+04  0.23217613339E+04  0.25500000920E-02 0. -1.
       -2   -1    0    0    0  501  0.00000000000E+00  0.00000000000E+00 -0.80488766472E+03  0.80488766472E+03  0.25500000920E-02 0.  1.
    10030    2    1    2    0    0  0.00000000000E+00  0.00000000000E+00  0.15168736692E+04  0.31266489986E+04  0.27340497860E+04 0.  0.
        4    1    3    3  502    0  0.10940597147E+04 -0.75944869276E+03  0.11109659627E+04  0.17343517404E+04  0.12699999809E+01 0. -1.
       -4    1    3    3    0  502 -0.10940597147E+04  0.75944869276E+03  0.40590770649E+03  0.13922972582E+04  0.12699999809E+01 0.  1.
</event>
<event>
 5   0  0.1829810E-05  0.3032858E+04  0.7818609E-02  0.8234410E-01
       -2   -1    0    0    0  501  0.00000000000E+00  0.00000000000E+00  0.11542264719E+04  0.11542264719E+04  0.25500000920E-02 0.  1.
        2   -1    0    0  501    0  0.00000000000E+00  0.00000000000E+00 -0.19922927508E+04  0.19922927508E+04  0.25500000920E-02 0. -1.
    10030    2    1    2    0    0  0.00000000000E+00  0.00000000000E+00 -0.83806627887E+03  0.31465192227E+04  0.30328580796E+04 0.  0.
        4    1    3    3  502    0  0.56094342536E+03  0.40391080317E+03  0.98127354419E+03  0.12002919831E+04  0.12699999809E+01 0.  1.
       -4    1    3    3    0  502 -0.56094342536E+03 -0.40391080317E+03 -0.18193398231E+04  0.19462272396E+04  0.12699999809E+01 0. -1.
</event>
<event>
 5   0  0.1960961E-05  0.2924104E+04  0.7818609E-02  0.8265742E-01
        2   -1    0    0  501    0  0.00000000000E+00  0.00000000000E+00  0.19362188480E+04  0.19362188480E+04  0.25500000920E-02 0.  1.
       -2   -1    0    0    0  501  0.00000000000E+00  0.00000000000E+00 -0.11040051572E+04  0.11040051572E+04  0.25500000920E-02 0. -1.
    10030    2    1    2    0    0  0.00000000000E+00  0.00000000000E+00  0.83221369073E+03  0.30402240052E+04  0.29241036874E+04 0.  0.
        5    1    3    3  502    0 -0.80495869687E+03  0.54702027978E+03  0.15504809967E+04  0.18306291545E+04  0.46999998093E+01 0.  1.
       -5    1    3    3    0  502  0.80495869687E+03 -0.54702027978E+03 -0.71826730593E+03  0.12095948507E+04  0.46999998093E+01 0. -1.
</event>
<event>
 5   0  0.7305460E-06  0.2841433E+04  0.7818609E-02  0.8290519E-01
       -1   -1    0    0    0  501  0.00000000000E+00  0.00000000000E+00  0.15553567997E+04  0.15553567997E+04  0.50400001928E-02 0.  1.
        1   -1    0    0  501    0  0.00000000000E+00  0.00000000000E+00 -0.12977313177E+04  0.12977313177E+04  0.50400001928E-02 0. -1.
    10030    2    1    2    0    0  0.00000000000E+00  0.00000000000E+00  0.25762548203E+03  0.28530881174E+04  0.28414328985E+04 0.  0.
        4    1    3    3  502    0 -0.77277390853E+03  0.36596303643E+03 -0.10104447922E+04  0.13236724477E+04  0.12699999809E+01 0. -1.
       -4    1    3    3    0  502  0.77277390853E+03 -0.36596303643E+03  0.12680702742E+04  0.15294156698E+04  0.12699999809E+01 0.  1.
</event>
<event>
 5   0  0.1960961E-05  0.2916590E+04  0.7818609E-02  0.8267958E-01
        2   -1    0    0  501    0  0.00000000000E+00  0.00000000000E+00  0.15905580398E+04  0.15905580398E+04  0.25500000920E-02 0. -1.
       -2   -1    0    0    0  501  0.00000000000E+00  0.00000000000E+00 -0.13370307256E+04  0.13370307256E+04  0.25500000920E-02 0.  1.
    10030    2    1    2    0    0  0.00000000000E+00  0.00000000000E+00  0.25352731420E+03  0.29275887654E+04  0.29165904547E+04 0.  0.
        5    1    3    3  502    0  0.61563001241E+02  0.63987727736E+03  0.14406572482E+04  0.15775767272E+04  0.46999998093E+01 0. -1.
       -5    1    3    3    0  502 -0.61563001241E+02 -0.63987727736E+03 -0.11871299340E+04  0.13500120383E+04  0.46999998093E+01 0.  1.
</event>
<event>
 5   0  0.1937947E-05  0.2934467E+04  0.7818609E-02  0.8262696E-01
        2   -1    0    0  501    0  0.00000000000E+00  0.00000000000E+00  0.16942477848E+04  0.16942477848E+04  0.25500000920E-02 0.  1.
       -2   -1    0    0    0  501  0.00000000000E+00  0.00000000000E+00 -0.12706375396E+04  0.12706375396E+04  0.25500000920E-02 0. -1.
    10030    2    1    2    0    0  0.00000000000E+00  0.00000000000E+00  0.42361024516E+03  0.29648853244E+04  0.29344674724E+04 0.  0.
        3    1    3    3  502    0  0.56686969423E+03  0.47765621688E+03  0.14911364441E+04  0.16652280975E+04  0.10100000352E+00 0.  1.
       -3    1    3    3    0  502 -0.56686969423E+03 -0.47765621688E+03 -0.10675261989E+04  0.12996572268E+04  0.10100000352E+00 0. -1.
</event>
<event>
 5   0  0.1960961E-05  0.2976441E+04  0.7818609E-02  0.8250491E-01
        2   -1    0    0  501    0  0.00000000000E+00  0.00000000000E+00  0.10338229745E+04  0.10338229745E+04  0.25500000920E-02 0.  1.
       -2   -1    0    0    0  501  0.00000000000E+00  0.00000000000E+00 -0.21423392417E+04  0.21423392417E+04  0.25500000920E-02 0. -1.
    10030    2    1    2    0    0  0.00000000000E+00  0.00000000000E+00 -0.11085162673E+04  0.31761622162E+04  0.29764405099E+04 0.  0.
        5    1    3    3  502    0  0.10792737153E+03 -0.22948068062E+03  0.10105890550E+04  0.10419318732E+04  0.46999998093E+01 0.  1.
       -5    1    3    3    0  502 -0.10792737153E+03  0.22948068062E+03 -0.21191053222E+04  0.21342303430E+04  0.46999998093E+01 0. -1.
</event>
<event>
 5   0  0.8122088E-06  0.2006405E+04  0.7818609E-02  0.8603632E-01
        1   -1    0    0  501    0  0.00000000000E+00  0.00000000000E+00  0.14357488381E+04  0.14357488381E+04  0.50400001928E-02 0.  1.
       -1   -1    0    0    0  501  0.00000000000E+00  0.00000000000E+00 -0.70096905415E+03  0.70096905417E+03  0.50400001928E-02 0. -1.
    10030    2    1    2    0    0  0.00000000000E+00  0.00000000000E+00  0.73477978393E+03  0.21367178923E+04  0.20064052483E+04 0.  0.
        1    1    3    3  502    0  0.81035609274E+03  0.12169603090E+03  0.98370758890E+03  0.12802997858E+04  0.50400001928E-02 0.  1.
       -1    1    3    3    0  502 -0.81035609274E+03 -0.12169603090E+03 -0.24892780497E+03  0.85641810648E+03  0.50400001928E-02 0. -1.
</event>
<event>
 5   0  0.7971153E-06  0.1612174E+04  0.7818609E-02  0.8813104E-01
        1   -1    0    0  501    0  0.00000000000E+00  0.00000000000E+00  0.11996808551E+04  0.11996808551E+04  0.50400001928E-02 0. -1.
       -1   -1    0    0    0  501  0.00000000000E+00  0.00000000000E+00 -0.54162447719E+03  0.54162447721E+03  0.50400001928E-02 0.  1.
    10030    2    1    2    0    0  0.00000000000E+00  0.00000000000E+00  0.65805637788E+03  0.17413053323E+04  0.16121743280E+04 0.  0.
        5    1    3    3  502    0 -0.31917204972E+03 -0.37005034889E+03 -0.36336932820E+03  0.60898884778E+03  0.46999998093E+01 0.  1.
       -5    1    3    3    0  502  0.31917204972E+03  0.37005034889E+03  0.10214257061E+04  0.11323164845E+04  0.46999998093E+01 0. -1.
</event>
<event>
 5   0  0.7971153E-06  0.2920761E+04  0.7818609E-02  0.8266727E-01
        1   -1    0    0  501    0  0.00000000000E+00  0.00000000000E+00  0.13916123184E+04  0.13916123185E+04  0.50400001928E-02 0.  1.
       -1   -1    0    0    0  501  0.00000000000E+00  0.00000000000E+00 -0.15325470792E+04  0.15325470792E+04  0.50400001928E-02 0. -1.
    10030    2    1    2    0    0  0.00000000000E+00  0.00000000000E+00 -0.14093476073E+03  0.29241593976E+04  0.29207611296E+04 0.  0.
        5    1    3    3  502    0  0.71600994732E+03  0.87306681976E+03 -0.99770551881E+03  0.15067694942E+04  0.46999998093E+01 0. -1.
       -5    1    3    3    0  502 -0.71600994732E+03 -0.87306681976E+03  0.85677075809E+03  0.14173899034E+04  0.46999998093E+01 0.  1.
</event>
<event>
 5   0  0.1918901E-05  0.3033268E+04  0.7818609E-02  0.8234294E-01
       -2   -1    0    0    0  501  0.00000000000E+00  0.00000000000E+00  0.13324533664E+04  0.13324533664E+04  0.25500000920E-02 0.  1.
        2   -1    0    0  501    0  0.00000000000E+00  0.00000000000E+00 -0.17262737136E+04  0.17262737136E+04  0.25500000920E-02 0. -1.
    10030    2    1    2    0    0  0.00000000000E+00  0.00000000000E+00 -0.39382034726E+03  0.30587270800E+04  0.30332683501E+04 0.  0.
        1    1    3    3  502    0 -0.13968244890E+04  0.15044670188E+03 -0.77304284515E+03  0.16035423611E+04  0.50400001928E-02 0.  1.
       -1    1    3    3    0  502  0.13968244890E+04 -0.15044670188E+03  0.37922249789E+03  0.14551847189E+04  0.50400001928E-02 0. -1.
</event>
<event>
 5   0  0.1918901E-05  0.2875145E+04  0.7818609E-02  0.8280311E-01
       -2   -1    0    0    0  501  0.00000000000E+00  0.00000000000E+00  0.20085823512E+04  0.20085823512E+04  0.25500000920E-02 0. -1.
        2   -1    0    0  501    0  0.00000000000E+00  0.00000000000E+00 -0.10288922429E+04  0.10288922429E+04  0.25500000920E-02 0.  1.
    10030    2    1    2    0    0  0.00000000000E+00  0.00000000000E+00  0.97969010822E+03  0.30374745941E+04  0.28751450749E+04 0.  0.
        1    1    3    3  502    0  0.21381502521E+03  0.70680802816E+02  0.19898324709E+04  0.20025348694E+04  0.50400001928E-02 0. -1.
       -1    1    3    3    0  502 -0.21381502521E+03 -0.70680802816E+02 -0.10101423627E+04  0.10349397247E+04  0.50400001928E-02 0.  1.
</event>
<event>
 5   0  0.7305460E-06  0.2880591E+04  0.7818609E-02  0.8278676E-01
       -1   -1    0    0    0  501  0.00000000000E+00  0.00000000000E+00  0.15840169630E+04  0.15840169630E+04  0.50400001928E-02 0. -1.
        1   -1    0    0  501    0  0.00000000000E+00  0.00000000000E+00 -0.13096141353E+04  0.13096141353E+04  0.50400001928E-02 0.  1.
    10030    2    1    2    0    0  0.00000000000E+00  0.00000000000E+00  0.27440282764E+03  0.28936310983E+04  0.28805909153E+04 0.  0.
        4    1    3    3  502    0 -0.82366819423E+03 -0.31684097359E+03  0.12806124823E+04  0.15552451380E+04  0.12699999809E+01 0. -1.
       -4    1    3    3    0  502  0.82366819423E+03  0.31684097359E+03 -0.10062096546E+04  0.13383859603E+04  0.12699999809E+01 0.  1.
</event>
<event>
 5   0  0.1976233E-05  0.2866848E+04  0.7818609E-02  0.8282810E-01
        2   -1    0    0  501    0  0.00000000000E+00  0.00000000000E+00  0.20982519501E+04  0.20982519501E+04  0.25500000920E-02 0.  1.
       -2   -1    0    0    0  501  0.00000000000E+00  0.00000000000E+00 -0.97924603798E+03  0.97924603798E+03  0.25500000920E-02 0. -1.
    10030    2    1    2    0    0  0.00000000000E+00  0.00000000000E+00  0.11190059121E+04  0.30774979881E+04  0.28668483803E+04 0.  0.
        2    1    3    3  502    0 -0.10631804411E+04  0.82500631330E+03  0.10894540872E+04  0.17314439856E+04  0.25500000920E-02 0. -1.
       -2    1    3    3    0  502  0.10631804411E+04 -0.82500631330E+03  0.29551824982E+02  0.13460540025E+04  0.25500000920E-02 0.  1.
</event>
<event>
 5   0  0.1960961E-05  0.2826769E+04  0.7818609E-02  0.8295005E-01
       -2   -1    0    0    0  501  0.00000000000E+00  0.00000000000E+00  0.79949587878E+03  0.79949587878E+03  0.25500000920E-02 0.  1.
        2   -1    0    0  501    0  0.00000000000E+00  0.00000000000E+00 -0.24986445882E+04  0.24986445882E+04  0.25500000920E-02 0. -1.
    10030    2    1    2    0    0  0.00000000000E+00  0.00000000000E+00 -0.16991487095E+04  0.32981404670E+04  0.28267692165E+04 0.  0.
        5    1    3    3  502    0 -0.54430552308E+03  0.86969822174E+03  0.28463312614E+03  0.10647448548E+04  0.46999998093E+01 0.  1.
       -5    1    3    3    0  502  0.54430552308E+03 -0.86969822174E+03 -0.19837818356E+04  0.22333956122E+04  0.46999998093E+01 0. -1.
</event>
<event>
 5   0  0.1960961E-05  0.2890922E+04  0.7818609E-02  0.8275583E-01
       -2   -1    0    0    0  501  0.00000000000E+00  0.00000000000E+00  0.11270921076E+04  0.11270921076E+04  0.25500000920E-02 0. -1.
        2   -1    0    0  501    0  0.00000000000E+00  0.00000000000E+00 -0.18537598208E+04  0.18537598208E+04  0.25500000920E-02 0.  1.
    10030    2    1    2    0    0  0.00000000000E+00  0.00000000000E+00 -0.72666771318E+03  0.29808519284E+04  0.28909223881E+04 0.  0.
        5    1    3    3  502    0  0.38314906000E+03 -0.92009570376E+03  0.71611149981E+03  0.12272803577E+04  0.46999998093E+01 0. -1.
       -5    1    3    3    0  502 -0.38314906000E+03  0.92009570376E+03 -0.14427792130E+04  0.17535715707E+04  0.46999998093E+01 0.  1.
</event>
<event>
 5   0  0.8122088E-06  0.3145717E+04  0.7818609E-02  0.8203302E-01
        1   -1    0    0  501    0  0.00000000000E+00  0.00000000000E+00  0.14384470749E+04  0.14384470749E+04  0.50400001928E-02 0.  1.
       -1   -1    0    0    0  501  0.00000000000E+00  0.00000000000E+00 -0.17198292835E+04  0.17198292835E+04  0.50400001928E-02 0. -1.
    10030    2    1    2    0    0  0.00000000000E+00  0.00000000000E+00 -0.28138220862E+03  0.31582763584E+04  0.31457167083E+04 0.  0.
        1    1    3    3  502    0 -0.99106119934E+03 -0.10070883676E+04  0.55304826859E+03  0.15173304414E+04  0.50400001928E-02 0.  1.
       -1    1    3    3    0  502  0.99106119934E+03  0.10070883676E+04 -0.83443047721E+03  0.16409459170E+04  0.50400001928E-02 0. -1.
</event>
<event>
 5   0  0.7305460E-06  0.2882223E+04  0.7818609E-02  0.8278186E-01
        1   -1    0    0  501    0  0.00000000000E+00  0.00000000000E+00  0.16911304563E+04  0.16911304563E+04  0.50400001928E-02 0.  1.
       -1   -1    0    0    0  501  0.00000000000E+00  0.00000000000E+00 -0.12280558701E+04  0.12280558701E+04  0.50400001928E-02 0. -1.
    10030    2    1    2    0    0  0.00000000000E+00  0.00000000000E+00  0.46307458624E+03  0.29191863264E+04  0.28822232280E+04 0.  0.
        4    1    3    3  502    0  0.72142656446E+03  0.21923958668E+03 -0.10123327648E+04  0.12622763263E+04  0.12699999809E+01 0. -1.
       -4    1    3    3    0  502 -0.72142656446E+03 -0.21923958668E+03  0.14754073510E+04  0.16569100002E+04  0.12699999809E+01 0.  1.
</event>
<event>
 5   0  0.1937947E-05  0.2721532E+04  0.7818609E-02  0.8328052E-01
       -2   -1    0    0    0  501  0.00000000000E+00  0.00000000000E+00  0.69811537201E+03  0.69811537201E+03  0.25500000920E-02 0. -1.
        2   -1    0    0  501    0  0.00000000000E+00  0.00000000000E+00 -0.26524047907E+04  0.26524047907E+04  0.25500000920E-02 0.  1.
    10030    2    1    2    0    0  0.00000000000E+00  0.00000000000E+00 -0.19542894187E+04  0.33505201627E+04  0.27215323310E+04 0.  0.
        3    1    3    3  502    0  0.67136151951E+02 -0.83982492948E+03 -0.22926946223E+04  0.24425932564E+04  0.10100000352E+00 0.  1.
       -3    1    3    3    0  502 -0.67136151951E+02  0.83982492948E+03  0.33840520362E+03  0.90792690626E+03  0.10100000352E+00 0. -1.
</event>
<event>
 5   0  0.1918901E-05  0.2493021E+04  0.7818609E-02  0.8405476E-01
       -2   -1    0    0    0  501  0.00000000000E+00  0.00000000000E+00  0.96455821927E+03  0.96455821927E+03  0.25500000920E-02 0.  1.
        2   -1    0    0  501    0  0.00000000000E+00  0.00000000000E+00 -0.16108807369E+04  0.16108807369E+04  0.25500000920E-02 0. -1.
    10030    2    1    2    0    0  0.00000000000E+00  0.00000000000E+00 -0.64632251762E+03  0.25754389562E+04  0.24930208624E+04 0.  0.
        1    1    3    3  502    0 -0.70735430666E+03 -0.82510082597E+03 -0.95379038695E+03  0.14459798029E+04  0.50400001928E-02 0. -1.
       -1    1    3    3    0  502  0.70735430666E+03  0.82510082597E+03  0.30746786934E+03  0.11294591533E+04  0.50400001928E-02 0.  1.
</event>
<event>
 5   0  0.1960961E-05  0.2730284E+04  0.7818609E-02  0.8325245E-01
        2   -1    0    0  501    0  0.00000000000E+00  0.00000000000E+00  0.16126462539E+04  0.16126462539E+04  0.25500000920E-02 0.  1.
       -2   -1    0    0    0  501  0.00000000000E+00  0.00000000000E+00 -0.11556239159E+04  0.11556239159E+04  0.25500000920E-02 0. -1.
    10030    2    1    2    0    0  0.00000000000E+00  0.00000000000E+00  0.45702233801E+03  0.27682701698E+04  0.27302839258E+04 0.  0.
        5    1    3    3  502    0 -0.86937361913E+03  0.68658522416E+03  0.10373447439E+04  0.15176679371E+04  0.46999998093E+01 0.  1.
       -5    1    3    3    0  502  0.86937361913E+03 -0.68658522416E+03 -0.58032240586E+03  0.12506022327E+04  0.46999998093E+01 0. -1.
</event>
<event>
 5   0  0.1960961E-05  0.2910019E+04  0.7818609E-02  0.8269903E-01
       -2   -1    0    0    0  501  0.00000000000E+00  0.00000000000E+00  0.25314744276E+04  0.25314744276E+04  0.25500000920E-02 0.  1.
        2   -1    0    0  501    0  0.00000000000E+00  0.00000000000E+00 -0.83629233637E+03  0.83629233637E+03  0.25500000920E-02 0. -1.
    10030    2    1    2    0    0  0.00000000000E+00  0.00000000000E+00  0.16951820912E+04  0.33677667640E+04  0.29100190127E+04 0.  0.
        5    1    3    3  502    0  0.40232962212E+02  0.14541016893E+04  0.88419102421E+03  0.17023061626E+04  0.46999998093E+01 0. -1.
       -5    1    3    3    0  502 -0.40232962212E+02 -0.14541016893E+04  0.81099106701E+03  0.16654606014E+04  0.46999998093E+01 0.  1.
</event>
<event>
 5   0  0.1937947E-05  0.2830109E+04  0.7818609E-02  0.8293981E-01
        2   -1    0    0  501    0  0.00000000000E+00  0.00000000000E+00  0.17252443441E+04  0.17252443441E+04  0.25500000920E-02 0.  1.
       -2   -1    0    0    0  501  0.00000000000E+00  0.00000000000E+00 -0.11606352430E+04  0.11606352430E+04  0.25500000920E-02 0. -1.
    10030    2    1    2    0    0  0.00000000000E+00  0.00000000000E+00  0.56460910103E+03  0.28858795871E+04  0.28301091064E+04 0.  0.
        3    1    3    3  502    0  0.21594192786E+03  0.14835905547E+03 -0.11356876734E+04  0.11655161206E+04  0.10100000352E+00 0. -1.
       -3    1    3    3    0  502 -0.21594192786E+03 -0.14835905547E+03  0.17002967744E+04  0.17203634665E+04  0.10100000352E+00 0.  1.
</event>
<event>
 5   0  0.1829810E-05  0.2551010E+04  0.7818609E-02  0.8385035E-01
       -2   -1    0    0    0  501  0.00000000000E+00  0.00000000000E+00  0.86683446120E+03  0.86683446120E+03  0.25500000920E-02 0.  1.
        2   -1    0    0  501    0  0.00000000000E+00  0.00000000000E+00 -0.18768445791E+04  0.18768445791E+04  0.25500000920E-02 0. -1.
    10030    2    1    2    0    0  0.00000000000E+00  0.00000000000E+00 -0.10100101179E+04  0.27436790403E+04  0.25510104347E+04 0.  0.
        4    1    3    3  502    0  0.15756851798E+03  0.11197570141E+04  0.12967247499E+03  0.11382004095E+04  0.12699999809E+01 0.  1.
       -4    1    3    3    0  502 -0.15756851798E+03 -0.11197570141E+04 -0.11396825929E+04  0.16054786308E+04  0.12699999809E+01 0. -1.
</event>
<event>
 5   0  0.6578125E-06  0.2923194E+04  0.7818609E-02  0.8266010E-01
        3   -1    0    0  501    0  0.00000000000E+00  0.00000000000E+00  0.24299745366E+04  0.24299745387E+04  0.10100000352E+00 0.  1.
       -3   -1    0    0    0  501  0.00000000000E+00  0.00000000000E+00 -0.87913099983E+03  0.87913100563E+03  0.10100000352E+00 0. -1.
    10030    2    1    2    0    0  0.00000000000E+00  0.00000000000E+00  0.15508435368E+04  0.33091055443E+04  0.29231941140E+04 0.  0.
        1    1    3    3  502    0 -0.25723741730E+03  0.16797343406E+02 -0.85319345205E+03  0.89128688213E+03  0.50400001928E-02 0. -1.
       -1    1    3    3    0  502  0.25723741730E+03 -0.16797343406E+02  0.24040369888E+04  0.24178186622E+04  0.50400001928E-02 0.  1.
</event>
<event>
 5   0  0.1937947E-05  0.2469663E+04  0.7818609E-02  0.8413874E-01
        2   -1    0    0  501    0  0.00000000000E+00  0.00000000000E+00  0.13092994174E+04  0.13092994174E+04  0.25500000920E-02 0. -1.
       -2   -1    0    0    0  501  0.00000000000E+00  0.00000000000E+00 -0.11645988806E+04  0.11645988806E+04  0.25500000920E-02 0.  1.
    10030    2    1    2    0    0  0.00000000000E+00  0.00000000000E+00  0.14470053681E+03  0.24738982980E+04  0.24696628400E+04 0.  0.
        3    1    3    3  502    0 -0.11795591143E+04  0.28907291747E+03 -0.15138400307E+03  0.12238627302E+04  0.10100000352E+00 0.  1.
       -3    1    3    3    0  502  0.11795591143E+04 -0.28907291747E+03  0.29608453988E+03  0.12500355678E+04  0.10100000352E+00 0. -1.
</event>
<event>
 5   0  0.1829810E-05  0.2848528E+04  0.7818609E-02  0.8288359E-01
       -2   -1    0    0    0  501  0.00000000000E+00  0.00000000000E+00  0.13992815081E+04  0.13992815081E+04  0.25500000920E-02 0. -1.
        2   -1    0    0  501    0  0.00000000000E+00  0.00000000000E+00 -0.14496925828E+04  0.14496925828E+04  0.25500000920E-02 0.  1.
    10030    2    1    2    0    0  0.00000000000E+00  0.00000000000E+00 -0.50411074700E+02  0.28489740909E+04  0.28485280575E+04 0.  0.
        4    1    3    3  502    0  0.76585686735E+03  0.85557893138E+03  0.81752616373E+03  0.14095753582E+04  0.12699999809E+01 0. -1.
       -4    1    3    3    0  502 -0.76585686735E+03 -0.85557893138E+03 -0.86793723843E+03  0.14393987328E+04  0.12699999809E+01 0.  1.
</event>
<event>
 5   0  0.1918901E-05  0.2943208E+04  0.7818609E-02  0.8260137E-01
        2   -1    0    0  501    0  0.00000000000E+00  0.00000000000E+00  0.18987365547E+04  0.18987365547E+04  0.25500000920E-02 0.  1.
       -2   -1    0    0    0  501  0.00000000000E+00  0.00000000000E+00 -0.11405578046E+04  0.11405578046E+04  0.25500000920E-02 0. -1.
    10030    2    1    2    0    0  0.00000000000E+00  0.00000000000E+00  0.75817875008E+03  0.30392943593E+04  0.29432083150E+04 0.  0.
        1    1    3    3  502    0 -0.91949514342E+03 -0.10287501707E+04  0.90747821851E+03  0.16514584311E+04  0.50400001928E-02 0.  1.
       -1    1    3    3    0  502  0.91949514342E+03  0.10287501707E+04 -0.14929946843E+03  0.13878359282E+04  0.50400001928E-02 0. -1.
</event>
<event>
 5   0  0.7305460E-06  0.2914753E+04  0.7818609E-02  0.8268501E-01
       -1   -1    0    0    0  501  0.00000000000E+00  0.00000000000E+00  0.98228366809E+03  0.98228366810E+03  0.50400001928E-02 0.  1.
        1   -1    0    0  501    0  0.00000000000E+00  0.00000000000E+00 -0.21622538155E+04  0.21622538155E+04  0.50400001928E-02 0. -1.
    10030    2    1    2    0    0  0.00000000000E+00  0.00000000000E+00 -0.11799701474E+04  0.31445374836E+04  0.29147532377E+04 0.  0.
        4    1    3    3  502    0  0.64864794189E+03 -0.54737487000E+03 -0.18681115020E+04  0.20518785534E+04  0.12699999809E+01 0. -1.
       -4    1    3    3    0  502 -0.64864794189E+03  0.54737487000E+03  0.68814135467E+03  0.10926589302E+04  0.12699999809E+01 0.  1.
</event>
<event>
 5   0  0.1937947E-05  0.3025113E+04  0.7818609E-02  0.8236596E-01
       -2   -1    0    0    0  501  0.00000000000E+00  0.00000000000E+00  0.11492937471E+04  0.11492937471E+04  0.25500000920E-02 0. -1.
        2   -1    0    0  501    0  0.00000000000E+00  0.00000000000E+00 -0.19906375646E+04  0.19906375646E+04  0.25500000920E-02 0.  1.
    10030    2    1    2    0    0  0.00000000000E+00  0.00000000000E+00 -0.84134381755E+03  0.31399313117E+04  0.30251130925E+04 0.  0.
        3    1    3    3  502    0 -0.13820869629E+04 -0.33190711141E+03 -0.95750701186E+03  0.17138104888E+04  0.10100000352E+00 0.  1.
       -3    1    3    3    0  502  0.13820869629E+04  0.33190711141E+03  0.11616319431E+03  0.14261208229E+04  0.10100000352E+00 0. -1.
</event>
<event>
 5   0  0.1960961E-05  0.2905585E+04  0.7818609E-02  0.8271218E-01
       -2   -1    0    0    0  501  0.00000000000E+00  0.00000000000E+00  0.10978211405E+04  0.10978211405E+04  0.25500000920E-02 0.  1.
        2   -1    0    0  501    0  0.00000000000E+00  0.00000000000E+00 -0.19225408441E+04  0.19225408442E+04  0.25500000920E-02 0. -1.
    10030    2    1    2    0    0  0.00000000000E+00  0.00000000000E+00 -0.82471970369E+03  0.30203619846E+04  0.29055849546E+04 0.  0.
        5    1    3    3  502    0  0.19364335804E+03 -0.57058007147E+03  0.96179937089E+03  0.11349623289E+04  0.46999998093E+01 0.  1.
       -5    1    3    3    0  502 -0.19364335804E+03  0.57058007147E+03 -0.17865190746E+04  0.18853996558E+04  0.46999998093E+01 0. -1.
</event>
<event>
 5   0  0.8234888E-06  0.2845002E+04  0.7818609E-02  0.8289432E-01
        1   -1    0    0  501    0  0.00000000000E+00  0.00000000000E+00  0.14073748645E+04  0.14073748645E+04  0.50400001928E-02 0. -1.
       -1   -1    0    0    0  501  0.00000000000E+00  0.00000000000E+00 -0.14377895476E+04  0.14377895476E+04  0.50400001928E-02 0.  1.
    10030    2    1    2    0    0  0.00000000000E+00  0.00000000000E+00 -0.30414683083E+02  0.28451644121E+04  0.28450018416E+04 0.  0.
        3    1    3    3  502    0 -0.11014748930E+04  0.21403243932E+03  0.85917209689E+03  0.14132351281E+04  0.10100000352E+00 0. -1.
       -3    1    3    3    0  502  0.11014748930E+04 -0.21403243932E+03 -0.88958677998E+03  0.14319292840E+04  0.10100000352E+00 0.  1.
</event>
<event>
 5   0  0.7305460E-06  0.2856485E+04  0.7818609E-02  0.8285943E-01
       -1   -1    0    0    0  501  0.00000000000E+00  0.00000000000E+00  0.13555618014E+04  0.13555618015E+04  0.50400001928E-02 0.  1.
        1   -1    0    0  501    0  0.00000000000E+00  0.00000000000E+00 -0.15048205899E+04  0.15048205899E+04  0.50400001928E-02 0. -1.
    10030    2    1    2    0    0  0.00000000000E+00  0.00000000000E+00 -0.14925878841E+03  0.28603823913E+04  0.28564854697E+04 0.  0.
        4    1    3    3  502    0 -0.83085552669E+03  0.10495985529E+04 -0.57320186802E+03  0.14562074107E+04  0.12699999809E+01 0. -1.
       -4    1    3    3    0  502  0.83085552669E+03 -0.10495985529E+04  0.42394307961E+03  0.14041749806E+04  0.12699999809E+01 0.  1.
</event>
<event>
 5   0  0.1829810E-05  0.2827311E+04  0.7818609E-02  0.8294839E-01
        2   -1    0    0  501    0  0.00000000000E+00  0.00000000000E+00  0.13444471282E+04  0.13444471282E+04  0.25500000920E-02 0. -1.
       -2   -1    0    0    0  501  0.00000000000E+00  0.00000000000E+00 -0.14864268789E+04  0.14864268789E+04  0.25500000920E-02 0.  1.
    10030    2    1    2    0    0  0.00000000000E+00  0.00000000000E+00 -0.14197975072E+03  0.28308740071E+04  0.28273113367E+04 0.  0.
        4    1    3    3  502    0  0.76989003359E+03  0.22575044890E+03 -0.12363838503E+04  0.14738862124E+04  0.12699999809E+01 0.  1.
       -4    1    3    3    0  502 -0.76989003359E+03 -0.22575044890E+03  0.10944040996E+04  0.13569877947E+04  0.12699999809E+01 0. -1.
</event>
<event>
 5   0  0.8234888E-06  0.2799054E+04  0.7818609E-02  0.8303562E-01
        1   -1    0    0  501    0  0.00000000000E+00  0.00000000000E+00  0.19651389151E+04  0.19651389151E+04  0.50400001928E-02 0.  1.
       -1   -1    0    0    0  501  0.00000000000E+00  0.00000000000E+00 -0.99671127310E+03  0.99671127311E+03  0.50400001928E-02 0. -1.
    10030    2    1    2    0    0  0.00000000000E+00  0.00000000000E+00  0.96842764203E+03  0.29618501882E+04  0.27990542045E+04 0.  0.
        3    1    3    3  502    0 -0.25715658954E+03  0.10337492172E+04  0.14447007092E+04  0.17949727310E+04  0.10100000352E+00 0.  1.
       -3    1    3    3    0  502  0.25715658954E+03 -0.10337492172E+04 -0.47627306719E+03  0.11668774573E+04  0.10100000352E+00 0. -1.
</event>
<event>
 5   0  0.1960961E-05  0.2911285E+04  0.7818609E-02  0.8269528E-01
       -2   -1    0    0    0  501  0.00000000000E+00  0.00000000000E+00  0.18656838602E+04  0.18656838602E+04  0.25500000920E-02 0. -1.
        2   -1    0    0  501    0  0.00000000000E+00  0.00000000000E+00 -0.11357204448E+04  0.11357204448E+04  0.25500000920E-02 0.  1.
    10030    2    1    2    0    0  0.00000000000E+00  0.00000000000E+00  0.72996341539E+03  0.30014043049E+04  0.29112851481E+04 0.  0.
        5    1    3    3  502    0 -0.33233093697E+02 -0.12392473925E+04 -0.42154628831E+03  0.13094128079E+04  0.46999998093E+01 0.  1.
       -5    1    3    3    0  502  0.33233093697E+02  0.12392473925E+04  0.11515097037E+04  0.16919914970E+04  0.46999998093E+01 0. -1.
</event>
<event>
 5   0  0.1976233E-05  0.1893139E+04  0.7818609E-02  0.8658279E-01
       -2   -1    0    0    0  501  0.00000000000E+00  0.00000000000E+00  0.14409939279E+04  0.14409939279E+04  0.25500000920E-02 0.  1.
        2   -1    0    0  501    0  0.00000000000E+00  0.00000000000E+00 -0.62178872041E+03  0.62178872041E+03  0.25500000920E-02 0. -1.
    10030    2    1    2    0    0  0.00000000000E+00  0.00000000000E+00  0.81920520746E+03  0.20627826483E+04  0.18931389495E+04 0.  0.
        2    1    3    3  502    0 -0.92274807250E+03  0.24428810225E+02  0.18121822180E+03  0.94069166893E+03  0.25500000920E-02 0. -1.
       -2    1    3    3    0  502  0.92274807250E+03 -0.24428810225E+02  0.63798698566E+03  0.11220909794E+04  0.25500000920E-02 0.  1.
</event>
<event>
 5   0  0.1960961E-05  0.2921005E+04  0.7818609E-02  0.8266655E-01
        2   -1    0    0  501    0  0.00000000000E+00  0.00000000000E+00  0.21575440200E+04  0.21575440200E+04  0.25500000920E-02 0.  1.
       -2   -1    0    0    0  501  0.00000000000E+00  0.00000000000E+00 -0.98865525225E+03  0.98865525225E+03  0.25500000920E-02 0. -1.
    10030    2    1    2    0    0  0.00000000000E+00  0.00000000000E+00  0.11688887677E+04  0.31461992722E+04  0.29210047773E+04 0.  0.
        5    1    3    3  502    0  0.97967711767E+03 -0.44680540555E+03 -0.47836110823E+03  0.11782418110E+04  0.46999998093E+01 0. -1.
       -5    1    3    3    0  502 -0.97967711767E+03  0.44680540555E+03  0.16472498759E+04  0.19679574612E+04  0.46999998093E+01 0.  1.
</event>
<event>
 5   0  0.7971153E-06  0.2221654E+04  0.7818609E-02  0.8509469E-01
        1   -1    0    0  501    0  0.00000000000E+00  0.00000000000E+00  0.19448030275E+04  0.19448030275E+04  0.50400001928E-02 0.  1.
       -1   -1    0    0    0  501  0.00000000000E+00  0.00000000000E+00 -0.63447922115E+03  0.63447922117E+03  0.50400001928E-02 0. -1.
    10030    2    1    2    0    0  0.00000000000E+00  0.00000000000E+00  0.13103238063E+04  0.25792822486E+04  0.22216544377E+04 0.  0.
        5    1    3    3  502    0  0.24445180379E+03 -0.94035879555E+03  0.30083869547E+02  0.97208974789E+03  0.46999998093E+01 0. -1.
       -5    1    3    3    0  502 -0.24445180379E+03  0.94035879555E+03  0.12802399368E+04  0.16071925007E+04  0.46999998093E+01 0.  1.
</event>
<event>
 5   0  0.7305460E-06  0.2938190E+04  0.7818609E-02  0.8261605E-01
       -1   -1    0    0    0  501  0.00000000000E+00  0.00000000000E+00  0.21134533554E+04  0.21134533554E+04  0.50400001928E-02 0.  1.
        1   -1    0    0  501    0  0.00000000000E+00  0.00000000000E+00 -0.10211911408E+04  0.10211911408E+04  0.50400001928E-02 0. -1.
    10030    2    1    2    0    0  0.00000000000E+00  0.00000000000E+00  0.10922622146E+04  0.31346444962E+04  0.29381898121E+04 0.  0.
        4    1    3    3  502    0 -0.30177424539E+03  0.62281725878E+03  0.19286421422E+04  0.20490561629E+04  0.12699999809E+01 0.  1.
       -4    1    3    3    0  502  0.30177424539E+03 -0.62281725878E+03 -0.83637992767E+03  0.10855883333E+04  0.12699999809E+01 0. -1.
</event>
<event>
 5   0  0.1937947E-05  0.2915914E+04  0.7818609E-02  0.8268158E-01
       -2   -1    0    0    0  501  0.00000000000E+00  0.00000000000E+00  0.10450746032E+04  0.10450746032E+04  0.25500000920E-02 0. -1.
        2   -1    0    0  501    0  0.00000000000E+00  0.00000000000E+00 -0.20339591181E+04  0.20339591181E+04  0.25500000920E-02 0.  1.
    10030    2    1    2    0    0  0.00000000000E+00  0.00000000000E+00 -0.98888451490E+03  0.30790337213E+04  0.29159142774E+04 0.  0.
        3    1    3    3  502    0 -0.12808941840E+04  0.59011708990E+03 -0.88487055950E+03  0.16649096095E+04  0.10100000352E+00 0. -1.
       -3    1    3    3    0  502  0.12808941840E+04 -0.59011708990E+03 -0.10401395540E+03  0.14141241118E+04  0.10100000352E+00 0.  1.
</event>
<event>
 5   0  0.8055928E-06  0.2921176E+04  0.7818609E-02  0.8266605E-01
        1   -1    0    0  501    0  0.00000000000E+00  0.00000000000E+00  0.12121481513E+04  0.12121481513E+04  0.50400001928E-02 0. -1.
       -1   -1    0    0    0  501  0.00000000000E+00  0.00000000000E+00 -0.17599481979E+04  0.17599481979E+04  0.50400001928E-02 0.  1.
    10030    2    1    2    0    0  0.00000000000E+00  0.00000000000E+00 -0.54780004655E+03  0.29720963492E+04  0.29211764442E+04 0.  0.
        2    1    3    3  502    0 -0.11171790866E+04  0.47936194647E+03  0.54980532466E+03  0.13342274478E+04  0.25500000920E-02 0. -1.
       -2    1    3    3    0  502  0.11171790866E+04 -0.47936194647E+03 -0.10976053712E+04  0.16378689014E+04  0.25500000920E-02 0.  1.
</event>
<event>
 5   0  0.1829810E-05  0.2862581E+04  0.7818609E-02  0.8284099E-01
       -2   -1    0    0    0  501  0.00000000000E+00  0.00000000000E+00  0.15885354568E+04  0.15885354568E+04  0.25500000920E-02 0. -1.
        2   -1    0    0  501    0  0.00000000000E+00  0.00000000000E+00 -0.12896108856E+04  0.12896108856E+04  0.25500000920E-02 0.  1.
    10030    2    1    2    0    0  0.00000000000E+00  0.00000000000E+00  0.29892457127E+03  0.28781463424E+04  0.28625810851E+04 0.  0.
        4    1    3    3  502    0 -0.66254342735E+03 -0.46378706943E+03  0.13367851020E+04  0.15623886394E+04  0.12699999809E+01 0. -1.
       -4    1    3    3    0  502  0.66254342735E+03  0.46378706943E+03 -0.10378605307E+04  0.13157577030E+04  0.12699999809E+01 0.  1.
</event>
<event>
 5   0  0.7305460E-06  0.3009660E+04  0.7818609E-02  0.8240978E-01
       -1   -1    0    0    0  501  0.00000000000E+00  0.00000000000E+00  0.13074403978E+04  0.13074403978E+04  0.50400001928E-02 0.  1.
        1   -1    0    0  501    0  0.00000000000E+00  0.00000000000E+00 -0.17320208151E+04  0.17320208151E+04  0.50400001928E-02 0. -1.
    10030    2    1    2    0    0  0.00000000000E+00  0.00000000000E+00 -0.42458041733E+03  0.30394612129E+04  0.30096604350E+04 0.  0.
        4    1    3    3  502    0  0.74442743724E+03  0.13045745982E+04 -0.30498839917E+03  0.15326795582E+04  0.12699999809E+01 0. -1.
       -4    1    3    3    0  502 -0.74442743724E+03 -0.13045745982E+04 -0.11959201816E+03  0.15067816548E+04  0.12699999809E+01 0.  1.
</event>
<event>
 5   0  0.8122088E-06  0.2743643E+04  0.7818609E-02  0.8320982E-01
        1   -1    0    0  501    0  0.00000000000E+00  0.00000000000E+00  0.14356347051E+04  0.14356347051E+04  0.50400001928E-02 0. -1.
       -1   -1    0    0    0  501  0.00000000000E+00  0.00000000000E+00 -0.13108450768E+04  0.13108450768E+04  0.50400001928E-02 0.  1.
    10030    2    1    2    0    0  0.00000000000E+00  0.00000000000E+00  0.12478962831E+03  0.27464797819E+04  0.27436433335E+04 0.  0.
        1    1    3    3  502    0  0.58921689365E+03  0.42486789770E+03  0.12273011961E+04  0.14261688203E+04  0.50400001928E-02 0. -1.
       -1    1    3    3    0  502 -0.58921689365E+03 -0.42486789770E+03 -0.11025115677E+04  0.13203109616E+04  0.50400001928E-02 0.  1.
</event>
<event>
 5   0  0.7971153E-06  0.2182368E+04  0.7818609E-02  0.8525803E-01
        1   -1    0    0  501    0  0.00000000000E+00  0.00000000000E+00  0.10313587659E+04  0.10313587659E+04  0.50400001928E-02 0. -1.
       -1   -1    0    0    0  501  0.00000000000E+00  0.00000000000E+00 -0.11544793982E+04  0.11544793982E+04  0.50400001928E-02 0.  1.
    10030    2    1    2    0    0  0.00000000000E+00  0.00000000000E+00 -0.12312063235E+03  0.21858381641E+04  0.21823679317E+04 0.  0.
        5    1    3    3  502    0 -0.63397305382E+03  0.87774423761E+03  0.73945528296E+02  0.10852865109E+04  0.46999998093E+01 0. -1.
       -5    1    3    3    0  502  0.63397305382E+03 -0.87774423761E+03 -0.19706616065E+03  0.11005516532E+04  0.46999998093E+01 0.  1.
</event>
<event>
 5   0  0.8234888E-06  0.1971348E+04  0.7818609E-02  0.8620135E-01
       -1   -1    0    0    0  501  0.00000000000E+00  0.00000000000E+00  0.10250411687E+04  0.10250411687E+04  0.50400001928E-02 0. -1.
        1   -1    0    0  501    0  0.00000000000E+00  0.00000000000E+00 -0.94781845187E+03  0.94781845188E+03  0.50400001928E-02 0.  1.
    10030    2    1    2    0    0  0.00000000000E+00  0.00000000000E+00  0.77222716793E+02  0.19728596205E+04  0.19713476950E+04 0.  0.
        3    1    3    3  502    0  0.18033790232E+03  0.23446018828E+03  0.97957690715E+03  0.10232615825E+04  0.10100000352E+00 0. -1.
       -3    1    3    3    0  502 -0.18033790232E+03 -0.23446018828E+03 -0.90235419036E+03  0.94959803810E+03  0.10100000352E+00 0.  1.
</event>
<event>
 5   0  0.1976233E-05  0.2880063E+04  0.7818609E-02  0.8278834E-01
        2   -1    0    0  501    0  0.00000000000E+00  0.00000000000E+00  0.19271542438E+04  0.19271542439E+04  0.25500000920E-02 0. -1.
       -2   -1    0    0    0  501  0.00000000000E+00  0.00000000000E+00 -0.10760377955E+04  0.10760377955E+04  0.25500000920E-02 0.  1.
    10030    2    1    2    0    0  0.00000000000E+00  0.00000000000E+00  0.85111644838E+03  0.30031920393E+04  0.28800630577E+04 0.  0.
        2    1    3    3  502    0 -0.62956422137E+03 -0.75255423142E+02  0.17737671633E+04  0.18836837413E+04  0.25500000920E-02 0. -1.
       -2    1    3    3    0  502  0.62956422137E+03  0.75255423142E+02 -0.92265071494E+03  0.11195082980E+04  0.25500000920E-02 0.  1.
</event>
<event>
 5   0  0.7305460E-06  0.2671101E+04  0.7818609E-02  0.8344443E-01
       -1   -1    0    0    0  501  0.00000000000E+00  0.00000000000E+00  0.17041906946E+04  0.17041906946E+04  0.50400001928E-02 0.  1.
        1   -1    0    0  501    0  0.00000000000E+00  0.00000000000E+00 -0.10466523659E+04  0.10466523659E+04  0.50400001928E-02 0. -1.
    10030    2    1    2    0    0  0.00000000000E+00  0.00000000000E+00  0.65753832866E+03  0.27508430605E+04  0.26711010632E+04 0.  0.
        4    1    3    3  502    0  0.11336223234E+04  0.60938939060E+03  0.69612331275E+03  0.14632307682E+04  0.12699999809E+01 0.  1.
       -4    1    3    3    0  502 -0.11336223234E+04 -0.60938939060E+03 -0.38584984089E+02  0.12876122923E+04  0.12699999809E+01 0. -1.
</event>
<event>
 5   0  0.1937947E-05  0.3066952E+04  0.7818609E-02  0.8224867E-01
       -2   -1    0    0    0  501  0.00000000000E+00  0.00000000000E+00  0.21768891392E+04  0.21768891392E+04  0.25500000920E-02 0. -1.
        2   -1    0    0  501    0  0.00000000000E+00  0.00000000000E+00 -0.10802335779E+04  0.10802335779E+04  0.25500000920E-02 0.  1.
    10030    2    1    2    0    0  0.00000000000E+00  0.00000000000E+00  0.10966555614E+04  0.32571227171E+04  0.30669520658E+04 0.  0.
        3    1    3    3  502    0 -0.84795643345E+03 -0.23250659802E+03  0.18825981072E+04  0.20778029442E+04  0.10100000352E+00 0. -1.
       -3    1    3    3    0  502  0.84795643345E+03  0.23250659802E+03 -0.78594254589E+03  0.11793197729E+04  0.10100000352E+00 0.  1.
</event>
<event>
 5   0  0.1829810E-05  0.2856804E+04  0.7818609E-02  0.8285847E-01
        2   -1    0    0  501    0  0.00000000000E+00  0.00000000000E+00  0.16200341456E+04  0.16200341456E+04  0.25500000920E-02 0. -1.
       -2   -1    0    0    0  501  0.00000000000E+00  0.00000000000E+00 -0.12594375076E+04  0.12594375076E+04  0.25500000920E-02 0.  1.
    10030    2    1    2    0    0  0.00000000000E+00  0.00000000000E+00  0.36059663801E+03  0.28794716532E+04  0.28568036450E+04 0.  0.
        4    1    3    3  502    0 -0.63111540317E+03 -0.12633103445E+04 -0.36045135913E+02  0.14126431055E+04  0.12699999809E+01 0. -1.
       -4    1    3    3    0  502  0.63111540317E+03  0.12633103445E+04  0.39664177392E+03  0.14668285477E+04  0.12699999809E+01 0.  1.
</event>
<event>
 5   0  0.8122088E-06  0.2884091E+04  0.7818609E-02  0.8277627E-01
       -1   -1    0    0    0  501  0.00000000000E+00  0.00000000000E+00  0.10191430457E+04  0.10191430458E+04  0.50400001928E-02 0.  1.
        1   -1    0    0  501    0  0.00000000000E+00  0.00000000000E+00 -0.20404353433E+04  0.20404353433E+04  0.50400001928E-02 0. -1.
    10030    2    1    2    0    0  0.00000000000E+00  0.00000000000E+00 -0.10212922976E+04  0.30595783891E+04  0.28840911848E+04 0.  0.
        1    1    3    3  502    0 -0.70243259573E+03 -0.16111154141E+03 -0.18356970916E+04  0.19720933782E+04  0.50400001928E-02 0. -1.
       -1    1    3    3    0  502  0.70243259573E+03  0.16111154141E+03  0.81440479402E+03  0.10874850109E+04  0.50400001928E-02 0.  1.
</event>
<event>
 5   0  0.1960961E-05  0.1719923E+04  0.7818609E-02  0.8750082E-01
        2   -1    0    0  501    0  0.00000000000E+00  0.00000000000E+00  0.90070382561E+03  0.90070382561E+03  0.25500000920E-02 0.  1.
       -2   -1    0    0    0  501  0.00000000000E+00  0.00000000000E+00 -0.82106249214E+03  0.82106249214E+03  0.25500000920E-02 0. -1.
    10030    2    1    2    0    0  0.00000000000E+00  0.00000000000E+00  0.79641333472E+02  0.17217663178E+04  0.17199234026E+04 0.  0.
        5    1    3    3  502    0 -0.17915252587E+03 -0.55435732173E+03  0.67303647599E+03  0.89017293584E+03  0.46999998093E+01 0.  1.
       -5    1    3    3    0  502  0.17915252587E+03  0.55435732173E+03 -0.59339514252E+03  0.83159338192E+03  0.46999998093E+01 0. -1.
</event>
<event>
 5   0  0.1918901E-05  0.2926072E+04  0.7818609E-02  0.8265162E-01
        2   -1    0    0  501    0  0.00000000000E+00  0.00000000000E+00  0.21010040080E+04  0.21010040080E+04  0.25500000920E-02 0. -1.
       -2   -1    0    0    0  501  0.00000000000E+00  0.00000000000E+00 -0.10187863730E+04  0.10187863731E+04  0.25500000920E-02 0.  1.
    10030    2    1    2    0    0  0.00000000000E+00  0.00000000000E+00  0.10822176349E+04  0.31197903810E+04  0.29260719424E+04 0.  0.
        1    1    3    3  502    0  0.75692271976E+03  0.12472981415E+04  0.42534046067E+03  0.15197365446E+04  0.50400001928E-02 0.  1.
       -1    1    3    3    0  502 -0.75692271976E+03 -0.12472981415E+04  0.65687717428E+03  0.16000538365E+04  0.50400001928E-02 0. -1.
</event>
<event>
 5   0  0.1937947E-05  0.2906854E+04  0.7818609E-02  0.8270841E-01
        2   -1    0    0  501    0  0.00000000000E+00  0.00000000000E+00  0.19634165176E+04  0.19634165176E+04  0.25500000920E-02 0. -1.
       -2   -1    0    0    0  501  0.00000000000E+00  0.00000000000E+00 -0.10759055435E+04  0.10759055435E+04  0.25500000920E-02 0.  1.
    10030    2    1    2    0    0  0.00000000000E+00  0.00000000000E+00  0.88751097409E+03  0.30393220611E+04  0.29068544617E+04 0.  0.
        3    1    3    3  502    0 -0.13077825771E+04  0.62758641437E+03  0.34855267258E+03  0.14918609024E+04  0.10100000352E+00 0.  1.
       -3    1    3    3    0  502  0.13077825771E+04 -0.62758641437E+03  0.53895830151E+03  0.15474611586E+04  0.10100000352E+00 0. -1.
</event>
<event>
 5   0  0.8122088E-06  0.2863960E+04  0.7818609E-02  0.8283682E-01
        1   -1    0    0  501    0  0.00000000000E+00  0.00000000000E+00  0.16513251249E+04  0.16513251249E+04  0.50400001928E-02 0.  1.
       -1   -1    0    0    0  501  0.00000000000E+00  0.00000000000E+00 -0.12417706499E+04  0.12417706499E+04  0.50400001928E-02 0. -1.
    10030    2    1    2    0    0  0.00000000000E+00  0.00000000000E+00  0.40955447501E+03  0.28930957747E+04  0.28639602465E+04 0.  0.
        1    1    3    3  502    0  0.89725079923E+03 -0.49113921705E+03 -0.80756060028E+03  0.13032386007E+04  0.50400001928E-02 0. -1.
       -1    1    3    3    0  502 -0.89725079923E+03  0.49113921705E+03  0.12171150753E+04  0.15898571740E+04  0.50400001928E-02 0.  1.
</event>
<event>
 5   0  0.8055928E-06  0.2812651E+04  0.7818609E-02  0.8299352E-01
       -1   -1    0    0    0  501  0.00000000000E+00  0.00000000000E+00  0.11616175795E+04  0.11616175795E+04  0.50400001928E-02 0. -1.
        1   -1    0    0  501    0  0.00000000000E+00  0.00000000000E+00 -0.17025835874E+04  0.17025835874E+04  0.50400001928E-02 0.  1.
    10030    2    1    2    0    0  0.00000000000E+00  0.00000000000E+00 -0.54096600797E+03  0.28642011669E+04  0.28126507254E+04 0.  0.
        2    1    3    3  502    0  0.10422676186E+04 -0.29926197339E+03 -0.11823680710E+04  0.16043296958E+04  0.25500000920E-02 0.  1.
       -2    1    3    3    0  502 -0.10422676186E+04  0.29926197339E+03  0.64140206301E+03  0.12598714712E+04  0.25500000920E-02 0. -1.
</event>
<event>
 5   0  0.1918901E-05  0.1438775E+04  0.7818609E-02  0.8926220E-01
       -2   -1    0    0    0  501  0.00000000000E+00  0.00000000000E+00  0.38929967881E+03  0.38929967881E+03  0.25500000920E-02 0. -1.
        2   -1    0    0  501    0  0.00000000000E+00  0.00000000000E+00 -0.13293575222E+04  0.13293575222E+04  0.25500000920E-02 0.  1.
    10030    2    1    2    0    0  0.00000000000E+00  0.00000000000E+00 -0.94005784338E+03  0.17186572010E+04  0.14387751130E+04 0.  0.
        1    1    3    3  502    0  0.32717800503E+02 -0.67933088847E+03 -0.18999540743E+03  0.70615803144E+03  0.50400001928E-02 0. -1.
       -1    1    3    3    0  502 -0.32717800503E+02  0.67933088847E+03 -0.75006243595E+03  0.10124991696E+04  0.50400001928E-02 0.  1.
</event>
<event>
 5   0  0.1937947E-05  0.2153365E+04  0.7818609E-02  0.8538093E-01
        2   -1    0    0  501    0  0.00000000000E+00  0.00000000000E+00  0.40856661861E+03  0.40856661862E+03  0.25500000920E-02 0. -1.
       -2   -1    0    0    0  501  0.00000000000E+00  0.00000000000E+00 -0.28373480448E+04  0.28373480448E+04  0.25500000920E-02 0.  1.
    10030    2    1    2    0    0  0.00000000000E+00  0.00000000000E+00 -0.24287814262E+04  0.32459146634E+04  0.21533654557E+04 0.  0.
        3    1    3    3  502    0  0.29520392074E+03  0.57194141014E+03  0.86655253662E+02  0.64943935409E+03  0.10100000352E+00 0. -1.
       -3    1    3    3    0  502 -0.29520392074E+03 -0.57194141014E+03 -0.25154366798E+04  0.25964753093E+04  0.10100000352E+00 0.  1.
</event>
<event>
 5   0  0.7971153E-06  0.3022497E+04  0.7818609E-02  0.8237336E-01
       -1   -1    0    0    0  501  0.00000000000E+00  0.00000000000E+00  0.10650690204E+04  0.10650690204E+04  0.50400001928E-02 0.  1.
        1   -1    0    0  501    0  0.00000000000E+00  0.00000000000E+00 -0.21443413127E+04  0.21443413128E+04  0.50400001928E-02 0. -1.
    10030    2    1    2    0    0  0.00000000000E+00  0.00000000000E+00 -0.10792722923E+04  0.32094103332E+04  0.30224966510E+04 0.  0.
        5    1    3    3  502    0  0.48559266259E+03 -0.13673414329E+04 -0.91108519687E+02  0.14538726493E+04  0.46999998093E+01 0. -1.
       -5    1    3    3    0  502 -0.48559266259E+03  0.13673414329E+04 -0.98816377266E+03  0.17555376839E+04  0.46999998093E+01 0.  1.
</event>
<event>
 5   0  0.1937947E-05  0.2681458E+04  0.7818609E-02  0.8341047E-01
       -2   -1    0    0    0  501  0.00000000000E+00  0.00000000000E+00  0.11631320083E+04  0.11631320083E+04  0.25500000920E-02 0. -1.
        2   -1    0    0  501    0  0.00000000000E+00  0.00000000000E+00 -0.15454425206E+04  0.15454425206E+04  0.25500000920E-02 0.  1.
    10030    2    1    2    0    0  0.00000000000E+00  0.00000000000E+00 -0.38231051235E+03  0.27085745289E+04  0.26814575608E+04 0.  0.
        3    1    3    3  502    0 -0.82934799535E+03  0.21439879247E+03  0.85066661089E+03  0.12072359474E+04  0.10100000352E+00 0. -1.
       -3    1    3    3    0  502  0.82934799535E+03 -0.21439879247E+03 -0.12329771232E+04  0.15013385815E+04  0.10100000352E+00 0.  1.
</event>
<event>
 5   0  0.7305460E-06  0.2869641E+04  0.7818609E-02  0.8281968E-01
        1   -1    0    0  501    0  0.00000000000E+00  0.00000000000E+00  0.17640348199E+04  0.17640348199E+04  0.50400001928E-02 0.  1.
       -1   -1    0    0    0  501  0.00000000000E+00  0.00000000000E+00 -0.11670464493E+04  0.11670464493E+04  0.50400001928E-02 0. -1.
    10030    2    1    2    0    0  0.00000000000E+00  0.00000000000E+00  0.59698837063E+03  0.29310812692E+04  0.28696414919E+04 0.  0.
        4    1    3    3  502    0 -0.43934963881E+03 -0.35979538355E+02 -0.10961652578E+04  0.11814831855E+04  0.12699999809E+01 0. -1.
       -4    1    3    3    0  502  0.43934963881E+03  0.35979538355E+02  0.16931536284E+04  0.17495980837E+04  0.12699999809E+01 0.  1.
</event>
<event>
 5   0  0.7305460E-06  0.2767740E+04  0.7818609E-02  0.8313354E-01
        1   -1    0    0  501    0  0.00000000000E+00  0.00000000000E+00  0.29378974026E+04  0.29378974026E+04  0.50400001928E-02 0.  1.
       -1   -1    0    0    0  501  0.00000000000E+00  0.00000000000E+00 -0.65185925893E+03  0.65185925895E+03  0.50400001928E-02 0. -1.
    10030    2    1    2    0    0  0.00000000000E+00  0.00000000000E+00  0.22860381436E+04  0.35897566615E+04  0.27677396002E+04 0.  0.
        4    1    3    3  502    0  0.13748813823E+04  0.56871764139E+02  0.13334652208E+04  0.19161587411E+04  0.12699999809E+01 0. -1.
       -4    1    3    3    0  502 -0.13748813823E+04 -0.56871764139E+02  0.95257292286E+03  0.16735979204E+04  0.12699999809E+01 0.  1.
</event>
<event>
 5   0  0.1937947E-05  0.2729054E+04  0.7818609E-02  0.8325639E-01
       -2   -1    0    0    0  501  0.00000000000E+00  0.00000000000E+00  0.11541554077E+04  0.11541554077E+04  0.25500000920E-02 0.  1.
        2   -1    0    0  501    0  0.00000000000E+00  0.00000000000E+00 -0.16132433327E+04  0.16132433327E+04  0.25500000920E-02 0. -1.
    10030    2    1    2    0    0  0.00000000000E+00  0.00000000000E+00 -0.45908792504E+03  0.27673987404E+04  0.27290536942E+04 0.  0.
        3    1    3    3  502    0  0.10877494985E+04 -0.50164349052E+03 -0.89224632285E+03  0.14936360581E+04  0.10100000352E+00 0. -1.
       -3    1    3    3    0  502 -0.10877494985E+04  0.50164349052E+03  0.43315839781E+03  0.12737626824E+04  0.10100000352E+00 0.  1.
</event>
<event>
 5   0  0.7971153E-06  0.2934974E+04  0.7818609E-02  0.8262547E-01
        1   -1    0    0  501    0  0.00000000000E+00  0.00000000000E+00  0.15681559704E+04  0.15681559704E+04  0.50400001928E-02 0.  1.
       -1   -1    0    0    0  501  0.00000000000E+00  0.00000000000E+00 -0.13732808256E+04  0.13732808256E+04  0.50400001928E-02 0. -1.
    10030    2    1    2    0    0  0.00000000000E+00  0.00000000000E+00  0.19487514480E+03  0.29414367961E+04  0.29349742934E+04 0.  0.
        5    1    3    3  502    0  0.67311831894E+03  0.71224000353E+03  0.11921441014E+04  0.15432445504E+04  0.46999998093E+01 0.  1.
       -5    1    3    3    0  502 -0.67311831894E+03 -0.71224000353E+03 -0.99726895661E+03  0.13981922456E+04  0.46999998093E+01 0. -1.
</event>
<event>
 5   0  0.8122088E-06  0.2924946E+04  0.7818609E-02  0.8265494E-01
        1   -1    0    0  501    0  0.00000000000E+00  0.00000000000E+00  0.13949546784E+04  0.13949546785E+04  0.50400001928E-02 0. -1.
       -1   -1    0    0    0  501  0.00000000000E+00  0.00000000000E+00 -0.15332590880E+04  0.15332590880E+04  0.50400001928E-02 0.  1.
    10030    2    1    2    0    0  0.00000000000E+00  0.00000000000E+00 -0.13830440958E+03  0.29282137665E+04  0.29249457692E+04 0.  0.
        1    1    3    3  502    0  0.11370183608E+04  0.23683122676E+03 -0.95892368585E+03  0.15061322711E+04  0.50400001928E-02 0.  1.
       -1    1    3    3    0  502 -0.11370183608E+04 -0.23683122676E+03  0.82061927627E+03  0.14220814954E+04  0.50400001928E-02 0. -1.
</event>
<event>
 5   0  0.7305460E-06  0.2903026E+04  0.7818609E-02  0.8271978E-01
        1   -1    0    0  501    0  0.00000000000E+00  0.00000000000E+00  0.15221267794E+04  0.15221267795E+04  0.50400001928E-02 0. -1.
       -1   -1    0    0    0  501  0.00000000000E+00  0.00000000000E+00 -0.13841747712E+04  0.13841747712E+04  0.50400001928E-02 0.  1.
    10030    2    1    2    0    0  0.00000000000E+00  0.00000000000E+00  0.13795200821E+03  0.29063015507E+04  0.29030256539E+04 0.  0.
        4    1    3    3  502    0  0.32260661602E+02 -0.14338970872E+04  0.29235615599E+03  0.14637538528E+04  0.12699999809E+01 0. -1.
       -4    1    3    3    0  502 -0.32260661602E+02  0.14338970872E+04 -0.15440414778E+03  0.14425476979E+04  0.12699999809E+01 0.  1.
</event>
<event>
 5   0  0.1976233E-05  0.2515029E+04  0.7818609E-02  0.8397651E-01
        2   -1    0    0  501    0  0.00000000000E+00  0.00000000000E+00  0.13466282048E+04  0.13466282048E+04  0.25500000920E-02 0. -1.
       -2   -1    0    0    0  501  0.00000000000E+00  0.00000000000E+00 -0.11742975251E+04  0.11742975251E+04  0.25500000920E-02 0.  1.
    10030    2    1    2    0    0  0.00000000000E+00  0.00000000000E+00  0.17233067970E+03  0.25209257299E+04  0.25150285629E+04 0.  0.
        2    1    3    3  502    0  0.55295222292E+03  0.10518446283E+04 -0.32614925831E+03  0.12322770068E+04  0.25500000920E-02 0.  1.
       -2    1    3    3    0  502 -0.55295222292E+03 -0.10518446283E+04  0.49847993800E+03  0.12886487231E+04  0.25500000920E-02 0. -1.
</event>
<event>
 5   0  0.1976233E-05  0.2503540E+04  0.7818609E-02  0.8401725E-01
        2   -1    0    0  501    0  0.00000000000E+00  0.00000000000E+00  0.11898543237E+04  0.11898543238E+04  0.25500000920E-02 0. -1.
       -2   -1    0    0    0  501  0.00000000000E+00  0.00000000000E+00 -0.13169076524E+04  0.13169076524E+04  0.25500000920E-02 0.  1.
    10030    2    1    2    0    0  0.00000000000E+00  0.00000000000E+00 -0.12705332865E+03  0.25067619761E+04  0.25035401049E+04 0.  0.
        2    1    3    3  502    0  0.75340478472E+03 -0.67389025077E+03 -0.80284090324E+03  0.12908525693E+04  0.25500000920E-02 0.  1.
       -2    1    3    3    0  502 -0.75340478472E+03  0.67389025077E+03  0.67578757459E+03  0.12159094069E+04  0.25500000920E-02 0. -1.
</event>
<event>
 5   0  0.1976233E-05  0.2848107E+04  0.7818609E-02  0.8288487E-01
       -2   -1    0    0    0  501  0.00000000000E+00  0.00000000000E+00  0.14473352333E+04  0.14473352333E+04  0.25500000920E-02 0.  1.
        2   -1    0    0  501    0  0.00000000000E+00  0.00000000000E+00 -0.14011466873E+04  0.14011466873E+04  0.25500000920E-02 0. -1.
    10030    2    1    2    0    0  0.00000000000E+00  0.00000000000E+00  0.46188545968E+02  0.28484819205E+04  0.28481074190E+04 0.  0.
        2    1    3    3  502    0  0.10317434489E+04  0.57223488820E+03  0.82068371563E+03  0.14371739883E+04  0.25500000920E-02 0.  1.
       -2    1    3    3    0  502 -0.10317434489E+04 -0.57223488820E+03 -0.77449516967E+03  0.14113079322E+04  0.25500000920E-02 0. -1.
</event>
<event>
 5   0  0.8055928E-06  0.2931725E+04  0.7818609E-02  0.8263501E-01
       -1   -1    0    0    0  501  0.00000000000E+00  0.00000000000E+00  0.12221918121E+04  0.12221918121E+04  0.50400001928E-02 0. -1.
        1   -1    0    0  501    0  0.00000000000E+00  0.00000000000E+00 -0.17581137895E+04  0.17581137895E+04  0.50400001928E-02 0.  1.
    10030    2    1    2    0    0  0.00000000000E+00  0.00000000000E+00 -0.53592197739E+03  0.29803056016E+04  0.29317245971E+04 0.  0.
        2    1    3    3  502    0 -0.63726973202E+03  0.99951631828E+03  0.60865477160E+03  0.13325187477E+04  0.25500000920E-02 0. -1.
       -2    1    3    3    0  502  0.63726973202E+03 -0.99951631828E+03 -0.11445767490E+04  0.16477868540E+04  0.25500000920E-02 0.  1.
</event>
<event>
 5   0  0.7305460E-06  0.2873894E+04  0.7818609E-02  0.8280687E-01
       -1   -1    0    0    0  501  0.00000000000E+00  0.00000000000E+00  0.31549778413E+04  0.31549778413E+04  0.50400001928E-02 0.  1.
        1   -1    0    0  501    0  0.00000000000E+00  0.00000000000E+00 -0.65446308062E+03  0.65446308064E+03  0.50400001928E-02 0. -1.
    10030    2    1    2    0    0  0.00000000000E+00  0.00000000000E+00  0.25005147607E+04  0.38094409220E+04  0.28738938863E+04 0.  0.
        4    1    3    3  502    0  0.11222264131E+04 -0.88476956720E+03  0.10509614245E+04  0.17739027138E+04  0.12699999809E+01 0.  1.
       -4    1    3    3    0  502 -0.11222264131E+04  0.88476956720E+03  0.14495533362E+04  0.20355382082E+04  0.12699999809E+01 0. -1.
</event>
<event>
 5   0  0.8234888E-06  0.2916108E+04  0.7818609E-02  0.8268101E-01
        1   -1    0    0  501    0  0.00000000000E+00  0.00000000000E+00  0.20080850246E+04  0.20080850246E+04  0.50400001928E-02 0. -1.
       -1   -1    0    0    0  501  0.00000000000E+00  0.00000000000E+00 -0.10586806450E+04  0.10586806450E+04  0.50400001928E-02 0.  1.
    10030    2    1    2    0    0  0.00000000000E+00  0.00000000000E+00  0.94940437953E+03  0.30667656696E+04  0.29161075077E+04 0.  0.
        3    1    3    3  502    0  0.48153315865E+03 -0.12184670475E+04 -0.19818586412E+03  0.13250712342E+04  0.10100000352E+00 0. -1.
       -3    1    3    3    0  502 -0.48153315865E+03  0.12184670475E+04  0.11475902437E+04  0.17416944354E+04  0.10100000352E+00 0.  1.
</event>
<event>
 5   0  0.1960961E-05  0.2318660E+04  0.7818609E-02  0.8470600E-01
       -2   -1    0    0    0  501  0.00000000000E+00  0.00000000000E+00  0.17494916741E+04  0.17494916741E+04  0.25500000920E-02 0. -1.
        2   -1    0    0  501    0  0.00000000000E+00  0.00000000000E+00 -0.76824964103E+03  0.76824964103E+03  0.25500000920E-02 0.  1.
    10030    2    1    2    0    0  0.00000000000E+00  0.00000000000E+00  0.98124203309E+03  0.25177413152E+04  0.23186602603E+04 0.  0.
        5    1    3    3  502    0  0.28263533383E+03  0.14767486410E+03 -0.71967920998E+03  0.78717904741E+03  0.46999998093E+01 0.  1.
       -5    1    3    3    0  502 -0.28263533383E+03 -0.14767486410E+03  0.17009212431E+04  0.17305622677E+04  0.46999998093E+01 0. -1.
</event>
<event>
 5   0  0.7305460E-06  0.1786733E+04  0.7818609E-02  0.8713387E-01
       -1   -1    0    0    0  501  0.00000000000E+00  0.00000000000E+00  0.76360397786E+03  0.76360397788E+03  0.50400001928E-02 0.  1.
        1   -1    0    0  501    0  0.00000000000E+00  0.00000000000E+00 -0.10451804020E+04  0.10451804020E+04  0.50400001928E-02 0. -1.
    10030    2    1    2    0    0  0.00000000000E+00  0.00000000000E+00 -0.28157642410E+03  0.18087843799E+04  0.17867332342E+04 0.  0.
        4    1    3    3  502    0  0.14172702696E+03 -0.79681829968E+03 -0.52373757954E+03  0.96400654458E+03  0.12699999809E+01 0. -1.
       -4    1    3    3    0  502 -0.14172702696E+03  0.79681829968E+03  0.24216115544E+03  0.84477783528E+03  0.12699999809E+01 0.  1.
</event>
<event>
 5   0  0.1937947E-05  0.2909642E+04  0.7818609E-02  0.8270014E-01
        2   -1    0    0  501    0  0.00000000000E+00  0.00000000000E+00  0.24951249087E+04  0.24951249087E+04  0.25500000920E-02 0.  1.
       -2   -1    0    0    0  501  0.00000000000E+00  0.00000000000E+00 -0.84825595872E+03  0.84825595873E+03  0.25500000920E-02 0. -1.
    10030    2    1    2    0    0  0.00000000000E+00  0.00000000000E+00  0.16468689499E+04  0.33433808674E+04  0.29096422952E+04 0.  0.
        3    1    3    3  502    0  0.92751979795E+02  0.84416749853E+03 -0.53387031691E+03  0.10031147595E+04  0.10100000352E+00 0. -1.
       -3    1    3    3    0  502 -0.92751979795E+02 -0.84416749853E+03  0.21807392668E+04  0.23402661078E+04  0.10100000352E+00 0.  1.
</event>
<event>
 5   0  0.7305460E-06  0.2823077E+04  0.7818609E-02  0.8296139E-01
       -1   -1    0    0    0  501  0.00000000000E+00  0.00000000000E+00  0.86523808890E+03  0.86523808891E+03  0.50400001928E-02 0.  1.
        1   -1    0    0  501    0  0.00000000000E+00  0.00000000000E+00 -0.23027661430E+04  0.23027661430E+04  0.50400001928E-02 0. -1.
    10030    2    1    2    0    0  0.00000000000E+00  0.00000000000E+00 -0.14375280541E+04  0.31680042319E+04  0.28230770282E+04 0.  0.
        4    1    3    3  502    0  0.63265875702E+03  0.65168131967E+03  0.49375985495E+03  0.10338017472E+04  0.12699999809E+01 0.  1.
       -4    1    3    3    0  502 -0.63265875702E+03 -0.65168131967E+03 -0.19312879091E+04  0.21342024847E+04  0.12699999809E+01 0. -1.
</event>
<event>
 5   0  0.6578125E-06  0.2922690E+04  0.7818609E-02  0.8266158E-01
        3   -1    0    0  501    0  0.00000000000E+00  0.00000000000E+00  0.13582650603E+04  0.13582650640E+04  0.10100000352E+00 0. -1.
       -3   -1    0    0    0  501  0.00000000000E+00  0.00000000000E+00 -0.15722481094E+04  0.15722481126E+04  0.10100000352E+00 0.  1.
    10030    2    1    2    0    0  0.00000000000E+00  0.00000000000E+00 -0.21398304910E+03  0.29305131767E+04  0.29226903246E+04 0.  0.
        2    1    3    3  502    0  0.15069856350E+03  0.22371685547E+03 -0.15470705383E+04  0.15704096724E+04  0.25500000920E-02 0.  1.
       -2    1    3    3    0  502 -0.15069856350E+03 -0.22371685547E+03  0.13330874892E+04  0.13601035043E+04  0.25500000920E-02 0. -1.
</event>
<event>
 5   0  0.8234888E-06  0.2852766E+04  0.7818609E-02  0.8287071E-01
        1   -1    0    0  501    0  0.00000000000E+00  0.00000000000E+00  0.10289283140E+04  0.10289283140E+04  0.50400001928E-02 0.  1.
       -1   -1    0    0    0  501  0.00000000000E+00  0.00000000000E+00 -0.19773671899E+04  0.19773671899E+04  0.50400001928E-02 0. -1.
    10030    2    1    2    0    0  0.00000000000E+00  0.00000000000E+00 -0.94843887595E+03  0.30062955039E+04  0.28527664390E+04 0.  0.
        3    1    3    3  502    0  0.94135973621E+03 -0.10301685319E+04 -0.78534330860E+03  0.16013024323E+04  0.10100000352E+00 0. -1.
       -3    1    3    3    0  502 -0.94135973621E+03  0.10301685319E+04 -0.16309556735E+03  0.14049930716E+04  0.10100000352E+00 0.  1.
</event>
<event>
 5   0  0.8234888E-06  0.2871990E+04  0.7818609E-02  0.8281260E-01
       -1   -1    0    0    0  501  0.00000000000E+00  0.00000000000E+00  0.98558533658E+03  0.98558533659E+03  0.50400001928E-02 0. -1.
        1   -1    0    0  501    0  0.00000000000E+00  0.00000000000E+00 -0.20922407808E+04  0.20922407808E+04  0.50400001928E-02 0.  1.
    10030    2    1    2    0    0  0.00000000000E+00  0.00000000000E+00 -0.11066554442E+04  0.30778261174E+04  0.28719901352E+04 0.  0.
        3    1    3    3  502    0  0.47308150567E+03  0.99660744365E+03  0.43182182970E+03  0.11846951551E+04  0.10100000352E+00 0. -1.
       -3    1    3    3    0  502 -0.47308150567E+03 -0.99660744365E+03 -0.15384772739E+04  0.18931309622E+04  0.10100000352E+00 0.  1.
</event>
<event>
 5   0  0.1829810E-05  0.2932366E+04  0.7818609E-02  0.8263312E-01
        2   -1    0    0  501    0  0.00000000000E+00  0.00000000000E+00  0.16172674477E+04  0.16172674477E+04  0.25500000920E-02 0.  1.
       -2   -1    0    0    0  501  0.00000000000E+00  0.00000000000E+00 -0.13292127793E+04  0.13292127793E+04  0.25500000920E-02 0. -1.
    10030    2    1    2    0    0  0.00000000000E+00  0.00000000000E+00  0.28805466841E+03  0.29464802270E+04  0.29323659793E+04 0.  0.
        4    1    3    3  502    0  0.13227561827E+04 -0.16073316913E+03 -0.47061282014E+03  0.14131514816E+04  0.12699999809E+01 0. -1.
       -4    1    3    3    0  502 -0.13227561827E+04  0.16073316913E+03  0.75866748855E+03  0.15333287454E+04  0.12699999809E+01 0.  1.
</event>
<event>
 5   0  0.1976233E-05  0.1481538E+04  0.7818609E-02  0.8896823E-01
        2   -1    0    0  501    0  0.00000000000E+00  0.00000000000E+00  0.83476811944E+03  0.83476811944E+03  0.25500000920E-02 0.  1.
       -2   -1    0    0    0  501  0.00000000000E+00  0.00000000000E+00 -0.65735484914E+03  0.65735484914E+03  0.25500000920E-02 0. -1.
    10030    2    1    2    0    0  0.00000000000E+00  0.00000000000E+00  0.17741327030E+03  0.14921229686E+04  0.14815382158E+04 0.  0.
        2    1    3    3  502    0 -0.71570770251E+02 -0.39348658640E+03  0.71668748059E+03  0.82072834341E+03  0.25500000920E-02 0.  1.
       -2    1    3    3    0  502  0.71570770251E+02  0.39348658640E+03 -0.53927421029E+03  0.67139462518E+03  0.25500000920E-02 0. -1.
</event>
<event>
 5   0  0.8234888E-06  0.1913350E+04  0.7818609E-02  0.8648240E-01
       -1   -1    0    0    0  501  0.00000000000E+00  0.00000000000E+00  0.49498206298E+03  0.49498206301E+03  0.50400001928E-02 0. -1.
        1   -1    0    0  501    0  0.00000000000E+00  0.00000000000E+00 -0.18490110313E+04  0.18490110313E+04  0.50400001928E-02 0.  1.
    10030    2    1    2    0    0  0.00000000000E+00  0.00000000000E+00 -0.13540289683E+04  0.23439930943E+04  0.19133502500E+04 0.  0.
        3    1    3    3  502    0 -0.72781627071E+03  0.59768492525E+03 -0.88304348457E+03  0.12910110765E+04  0.10100000352E+00 0.  1.
       -3    1    3    3    0  502  0.72781627071E+03 -0.59768492525E+03 -0.47098548376E+03  0.10529820178E+04  0.10100000352E+00 0. -1.
</event>
<event>
 5   0  0.1937947E-05  0.2955494E+04  0.7818609E-02  0.8256555E-01
       -2   -1    0    0    0  501  0.00000000000E+00  0.00000000000E+00  0.14739100895E+04  0.14739100895E+04  0.25500000920E-02 0. -1.
        2   -1    0    0  501    0  0.00000000000E+00  0.00000000000E+00 -0.14815934421E+04  0.14815934421E+04  0.25500000920E-02 0.  1.
    10030    2    1    2    0    0  0.00000000000E+00  0.00000000000E+00 -0.76833526057E+01  0.29555035317E+04  0.29554935446E+04 0.  0.
        3    1    3    3  502    0 -0.34681503308E+03  0.12911599306E+04 -0.63341578467E+03  0.14793884548E+04  0.10100000352E+00 0.  1.
       -3    1    3    3    0  502  0.34681503308E+03 -0.12911599306E+04  0.62573243206E+03  0.14761150769E+04  0.10100000352E+00 0. -1.
</event>
<event>
 5   0  0.8122088E-06  0.2972226E+04  0.7818609E-02  0.8251707E-01
        1   -1    0    0  501    0  0.00000000000E+00  0.00000000000E+00  0.25689629774E+04  0.25689629774E+04  0.50400001928E-02 0.  1.
       -1   -1    0    0    0  501  0.00000000000E+00  0.00000000000E+00 -0.85969796916E+03  0.85969796917E+03  0.50400001928E-02 0. -1.
    10030    2    1    2    0    0  0.00000000000E+00  0.00000000000E+00  0.17092650083E+04  0.34286609466E+04  0.29722262730E+04 0.  0.
        1    1    3    3  502    0  0.19759346733E+03 -0.69903842018E+03 -0.64093193815E+03  0.96875778220E+03  0.50400001928E-02 0. -1.
       -1    1    3    3    0  502 -0.19759346733E+03  0.69903842018E+03  0.23501969464E+04  0.24599031644E+04  0.50400001928E-02 0.  1.
</event>
<event>
 5   0  0.7305460E-06  0.1542690E+04  0.7818609E-02  0.8856550E-01
        1   -1    0    0  501    0  0.00000000000E+00  0.00000000000E+00  0.13505040125E+04  0.13505040125E+04  0.50400001928E-02 0. -1.
       -1   -1    0    0    0  501  0.00000000000E+00  0.00000000000E+00 -0.44055655429E+03  0.44055655432E+03  0.50400001928E-02 0.  1.
    10030    2    1    2    0    0  0.00000000000E+00  0.00000000000E+00  0.90994745819E+03  0.17910605668E+04  0.15426903699E+04 0.  0.
        4    1    3    3  502    0 -0.24439610409E+03  0.27500711404E+02 -0.39381515962E+03  0.46430349737E+03  0.12699999809E+01 0.  1.
       -4    1    3    3    0  502  0.24439610409E+03 -0.27500711404E+02  0.13037626178E+04  0.13267570694E+04  0.12699999809E+01 0. -1.
</event>
<event>
 5   0  0.7971153E-06  0.2207883E+04  0.7818609E-02  0.8515154E-01
       -1   -1    0    0    0  501  0.00000000000E+00  0.00000000000E+00  0.95893397842E+03  0.95893397844E+03  0.50400001928E-02 0.  1.
        1   -1    0    0  501    0  0.00000000000E+00  0.00000000000E+00 -0.12708761962E+04  0.12708761963E+04  0.50400001928E-02 0. -1.
    10030    2    1    2    0    0  0.00000000000E+00  0.00000000000E+00 -0.31194221782E+03  0.22298101747E+04  0.22078825757E+04 0.  0.
        5    1    3    3  502    0 -0.10747627421E+03 -0.37931708872E+03 -0.11973430544E+04  0.12605891810E+04  0.46999998093E+01 0. -1.
       -5    1    3    3    0  502  0.10747627421E+03  0.37931708872E+03  0.88540083655E+03  0.96922099373E+03  0.46999998093E+01 0.  1.
</event>
<event>
 5   0  0.1937947E-05  0.2070482E+04  0.7818609E-02  0.8574359E-01
       -2   -1    0    0    0  501  0.00000000000E+00  0.00000000000E+00  0.64539097742E+03  0.64539097743E+03  0.25500000920E-02 0.  1.
        2   -1    0    0  501    0  0.00000000000E+00  0.00000000000E+00 -0.16605801201E+04  0.16605801201E+04  0.25500000920E-02 0. -1.
    10030    2    1    2    0    0  0.00000000000E+00  0.00000000000E+00 -0.10151891427E+04  0.23059710975E+04  0.20704815158E+04 0.  0.
        3    1    3    3  502    0 -0.58915883452E+03 -0.41771559189E+03 -0.13336605938E+04  0.15166558732E+04  0.10100000352E+00 0. -1.
       -3    1    3    3    0  502  0.58915883452E+03  0.41771559189E+03  0.31847145113E+03  0.78931522435E+03  0.10100000352E+00 0.  1.
</event>
<event>
 5   0  0.8122088E-06  0.2868676E+04  0.7818609E-02  0.8282259E-01
       -1   -1    0    0    0  501  0.00000000000E+00  0.00000000000E+00  0.10469740275E+04  0.10469740275E+04  0.50400001928E-02 0.  1.
        1   -1    0    0  501    0  0.00000000000E+00  0.00000000000E+00 -0.19650212162E+04  0.19650212162E+04  0.50400001928E-02 0. -1.
    10030    2    1    2    0    0  0.00000000000E+00  0.00000000000E+00 -0.91804718869E+03  0.30119952437E+04  0.28686764731E+04 0.  0.
        1    1    3    3  502    0 -0.68684593678E+03 -0.12110376298E+02  0.86301816731E+03  0.11030432264E+04  0.50400001928E-02 0.  1.
       -1    1    3    3    0  502  0.68684593678E+03  0.12110376298E+02 -0.17810653560E+04  0.19089520173E+04  0.50400001928E-02 0. -1.
</event>
<event>
 5   0  0.1918901E-05  0.2901898E+04  0.7818609E-02  0.8272313E-01
        2   -1    0    0  501    0  0.00000000000E+00  0.00000000000E+00  0.22573902991E+04  0.22573902991E+04  0.25500000920E-02 0.  1.
       -2   -1    0    0    0  501  0.00000000000E+00  0.00000000000E+00 -0.93260464420E+03  0.93260464420E+03  0.25500000920E-02 0. -1.
    10030    2    1    2    0    0  0.00000000000E+00  0.00000000000E+00  0.13247856549E+04  0.31899949433E+04  0.29018977768E+04 0.  0.
        1    1    3    3  502    0  0.52005135713E+03  0.10866121626E+04 -0.22664673111E+03  0.12257847065E+04  0.50400001928E-02 0. -1.
       -1    1    3    3    0  502 -0.52005135713E+03 -0.10866121626E+04  0.15514323860E+04  0.19642102368E+04  0.50400001928E-02 0.  1.
</event>
<event>
 5   0  0.7305460E-06  0.2874160E+04  0.7818609E-02  0.8280607E-01
       -1   -1    0    0    0  501  0.00000000000E+00  0.00000000000E+00  0.11999164708E+04  0.11999164709E+04  0.50400001928E-02 0. -1.
        1   -1    0    0  501    0  0.00000000000E+00  0.00000000000E+00 -0.17211192191E+04  0.17211192191E+04  0.50400001928E-02 0.  1.
    10030    2    1    2    0    0  0.00000000000E+00  0.00000000000E+00 -0.52120274822E+03  0.29210356899E+04  0.28741602595E+04 0.  0.
        4    1    3    3  502    0  0.62297646069E+03 -0.12320888936E+04  0.14472000401E+03  0.13881960254E+04  0.12699999809E+01 0. -1.
       -4    1    3    3    0  502 -0.62297646069E+03  0.12320888936E+04 -0.66592275223E+03  0.15328396646E+04  0.12699999809E+01 0.  1.
</event>
<event>
 5   0  0.7971153E-06  0.2880827E+04  0.7818609E-02  0.8278605E-01
        1   -1    0    0  501    0  0.00000000000E+00  0.00000000000E+00  0.15590443544E+04  0.15590443544E+04  0.50400001928E-02 0.  1.
       -1   -1    0    0    0  501  0.00000000000E+00  0.00000000000E+00 -0.13308091051E+04  0.13308091051E+04  0.50400001928E-02 0. -1.
    10030    2    1    2    0    0  0.00000000000E+00  0.00000000000E+00  0.22823524935E+03  0.28898534595E+04  0.28808265634E+04 0.  0.
        5    1    3    3  502    0  0.86433220270E+03 -0.11159819568E+04 -0.17363037182E+03  0.14222009284E+04  0.46999998093E+01 0. -1.
       -5    1    3    3    0  502 -0.86433220270E+03  0.11159819568E+04  0.40186562117E+03  0.14676525311E+04  0.46999998093E+01 0.  1.
</event>
<event>
 5   0  0.8055928E-06  0.2903230E+04  0.7818609E-02  0.8271917E-01
        1   -1    0    0  501    0  0.00000000000E+00  0.00000000000E+00  0.11913116966E+04  0.11913116966E+04  0.50400001928E-02 0.  1.
       -1   -1    0    0    0  501  0.00000000000E+00  0.00000000000E+00 -0.17687953446E+04  0.17687953446E+04  0.50400001928E-02 0. -1.
    10030    2    1    2    0    0  0.00000000000E+00  0.00000000000E+00 -0.57748364803E+03  0.29601070412E+04  0.29032303270E+04 0.  0.
        2    1    3    3  502    0 -0.55666971206E+03  0.14190576492E+03 -0.16479631723E+04  0.17452223445E+04  0.25500000920E-02 0. -1.
       -2    1    3    3    0  502  0.55666971206E+03 -0.14190576492E+03  0.10704795242E+04  0.12148846967E+04  0.25500000920E-02 0.  1.
</event>
<event>
 5   0  0.7305460E-06  0.2926406E+04  0.7818609E-02  0.8265064E-01
        1   -1    0    0  501    0  0.00000000000E+00  0.00000000000E+00  0.19538972932E+04  0.19538972932E+04  0.50400001928E-02 0.  1.
       -1   -1    0    0    0  501  0.00000000000E+00  0.00000000000E+00 -0.10957394835E+04  0.10957394835E+04  0.50400001928E-02 0. -1.
    10030    2    1    2    0    0  0.00000000000E+00  0.00000000000E+00  0.85815780976E+03  0.30496367767E+04  0.29264055842E+04 0.  0.
        4    1    3    3  502    0 -0.15642881794E+03  0.11267686735E+04 -0.52993599117E+03  0.12549547348E+04  0.12699999809E+01 0. -1.
       -4    1    3    3    0  502  0.15642881794E+03 -0.11267686735E+04  0.13880938009E+04  0.17946820420E+04  0.12699999809E+01 0.  1.
</event>
<event>
 5   0  0.7971153E-06  0.2876183E+04  0.7818609E-02  0.8279999E-01
        1   -1    0    0  501    0  0.00000000000E+00  0.00000000000E+00  0.19035654639E+04  0.19035654639E+04  0.50400001928E-02 0. -1.
       -1   -1    0    0    0  501  0.00000000000E+00  0.00000000000E+00 -0.10864386137E+04  0.10864386137E+04  0.50400001928E-02 0.  1.
    10030    2    1    2    0    0  0.00000000000E+00  0.00000000000E+00  0.81712685018E+03  0.29900040777E+04  0.28761829036E+04 0.  0.
        5    1    3    3  502    0 -0.61253128675E+03 -0.19870964287E+03 -0.92817022765E+03  0.11296911794E+04  0.46999998093E+01 0.  1.
       -5    1    3    3    0  502  0.61253128675E+03  0.19870964287E+03  0.17452970778E+04  0.18603128982E+04  0.46999998093E+01 0. -1.
</event>
<event>
 5   0  0.1976233E-05  0.2944760E+04  0.7818609E-02  0.8259683E-01
       -2   -1    0    0    0  501  0.00000000000E+00  0.00000000000E+00  0.14618956854E+04  0.14618956854E+04  0.25500000920E-02 0.  1.
        2   -1    0    0  501    0  0.00000000000E+00  0.00000000000E+00 -0.14829395250E+04  0.14829395250E+04  0.25500000920E-02 0. -1.
    10030    2    1    2    0    0  0.00000000000E+00  0.00000000000E+00 -0.21043839602E+02  0.29448352104E+04  0.29447600196E+04 0.  0.
        2    1    3    3  502    0  0.22492225377E+03 -0.18152036065E+03 -0.14542911799E+04  0.14827348035E+04  0.25500000920E-02 0. -1.
       -2    1    3    3    0  502 -0.22492225377E+03  0.18152036065E+03  0.14332473403E+04  0.14621004069E+04  0.25500000920E-02 0.  1.
</event>
<event>
 5   0  0.7305460E-06  0.2835528E+04  0.7818609E-02  0.8292323E-01
        1   -1    0    0  501    0  0.00000000000E+00  0.00000000000E+00  0.12530899107E+04  0.12530899107E+04  0.50400001928E-02 0. -1.
       -1   -1    0    0    0  501  0.00000000000E+00  0.00000000000E+00 -0.16040784096E+04  0.16040784096E+04  0.50400001928E-02 0.  1.
    10030    2    1    2    0    0  0.00000000000E+00  0.00000000000E+00 -0.35098849892E+03  0.28571683203E+04  0.28355277964E+04 0.  0.
        4    1    3    3  502    0 -0.81379559751E+03 -0.90789741313E+02 -0.13417152665E+04  0.15718484408E+04  0.12699999809E+01 0.  1.
       -4    1    3    3    0  502  0.81379559751E+03  0.90789741313E+02  0.99072676761E+03  0.12853198795E+04  0.12699999809E+01 0. -1.
</event>
<event>
 5   0  0.8122088E-06  0.2243821E+04  0.7818609E-02  0.8500407E-01
        1   -1    0    0  501    0  0.00000000000E+00  0.00000000000E+00  0.14996635601E+04  0.14996635601E+04  0.50400001928E-02 0. -1.
       -1   -1    0    0    0  501  0.00000000000E+00  0.00000000000E+00 -0.83931060197E+03  0.83931060199E+03  0.50400001928E-02 0.  1.
    10030    2    1    2    0    0  0.00000000000E+00  0.00000000000E+00  0.66035295814E+03  0.23389741621E+04  0.22438213168E+04 0.  0.
        1    1    3    3  502    0 -0.59086061734E+03  0.35783363551E+03  0.12517030346E+04  0.14296578845E+04  0.50400001928E-02 0. -1.
       -1    1    3    3    0  502  0.59086061734E+03 -0.35783363551E+03 -0.59135007645E+03  0.90931627763E+03  0.50400001928E-02 0.  1.
</event>
<event>
 5   0  0.8122088E-06  0.1503552E+04  0.7818609E-02  0.8882094E-01
       -1   -1    0    0    0  501  0.00000000000E+00  0.00000000000E+00  0.50778907310E+03  0.50778907313E+03  0.50400001928E-02 0. -1.
        1   -1    0    0  501    0  0.00000000000E+00  0.00000000000E+00 -0.11129959895E+04  0.11129959895E+04  0.50400001928E-02 0.  1.
    10030    2    1    2    0    0  0.00000000000E+00  0.00000000000E+00 -0.60520691638E+03  0.16207850626E+04  0.15035520635E+04 0.  0.
        1    1    3    3  502    0 -0.40593736181E+03  0.54912581349E+03 -0.64150980058E+03  0.93694136690E+03  0.50400001928E-02 0.  1.
       -1    1    3    3    0  502  0.40593736181E+03 -0.54912581349E+03  0.36302884197E+02  0.68384369572E+03  0.50400001928E-02 0. -1.
</event>
<event>
 5   0  0.1829810E-05  0.2786975E+04  0.7818609E-02  0.8307324E-01
       -2   -1    0    0    0  501  0.00000000000E+00  0.00000000000E+00  0.15176840484E+04  0.15176840484E+04  0.25500000920E-02 0. -1.
        2   -1    0    0  501    0  0.00000000000E+00  0.00000000000E+00 -0.12794542612E+04  0.12794542612E+04  0.25500000920E-02 0.  1.
    10030    2    1    2    0    0  0.00000000000E+00  0.00000000000E+00  0.23822978722E+03  0.27971383097E+04  0.27869749356E+04 0.  0.
        4    1    3    3  502    0 -0.11944937587E+04  0.65397683812E+03  0.41566603848E+03  0.14238261526E+04  0.12699999809E+01 0.  1.
       -4    1    3    3    0  502  0.11944937587E+04 -0.65397683812E+03 -0.17743625126E+03  0.13733121570E+04  0.12699999809E+01 0. -1.
</event>
<event>
 5   0  0.8234888E-06  0.3014148E+04  0.7818609E-02  0.8239702E-01
        1   -1    0    0  501    0  0.00000000000E+00  0.00000000000E+00  0.12033852312E+04  0.12033852312E+04  0.50400001928E-02 0. -1.
       -1   -1    0    0    0  501  0.00000000000E+00  0.00000000000E+00 -0.18874024493E+04  0.18874024493E+04  0.50400001928E-02 0.  1.
    10030    2    1    2    0    0  0.00000000000E+00  0.00000000000E+00 -0.68401721815E+03  0.30907876805E+04  0.30141481270E+04 0.  0.
        3    1    3    3  502    0  0.37665492760E+03  0.63750371015E+03 -0.16880122988E+04  0.18432757379E+04  0.10100000352E+00 0.  1.
       -3    1    3    3    0  502 -0.37665492760E+03 -0.63750371015E+03  0.10039950806E+04  0.12475119426E+04  0.10100000352E+00 0. -1.
</event>
<event>
 5   0  0.1829810E-05  0.2510788E+04  0.7818609E-02  0.8399152E-01
        2   -1    0    0  501    0  0.00000000000E+00  0.00000000000E+00  0.10378047580E+04  0.10378047580E+04  0.25500000920E-02 0. -1.
       -2   -1    0    0    0  501  0.00000000000E+00  0.00000000000E+00 -0.15186035848E+04  0.15186035848E+04  0.25500000920E-02 0.  1.
    10030    2    1    2    0    0  0.00000000000E+00  0.00000000000E+00 -0.48079882685E+03  0.25564083428E+04  0.25107879447E+04 0.  0.
        4    1    3    3  502    0  0.70205687969E+03  0.80456532149E+03  0.43174933746E+03  0.11517891830E+04  0.12699999809E+01 0. -1.
       -4    1    3    3    0  502 -0.70205687969E+03 -0.80456532149E+03 -0.91254816431E+03  0.14046191598E+04  0.12699999809E+01 0.  1.
</event>
<event>
 5   0  0.1937947E-05  0.2880784E+04  0.7818609E-02  0.8278618E-01
        2   -1    0    0  501    0  0.00000000000E+00  0.00000000000E+00  0.27747320278E+04  0.27747320278E+04  0.25500000920E-02 0. -1.
       -2   -1    0    0    0  501  0.00000000000E+00  0.00000000000E+00 -0.74772209188E+03  0.74772209188E+03  0.25500000920E-02 0.  1.
    10030    2    1    2    0    0  0.00000000000E+00  0.00000000000E+00  0.20270099359E+04  0.35224541197E+04  0.28807835297E+04 0.  0.
        3    1    3    3  502    0 -0.11053858921E+04  0.40423561422E+03  0.20287812143E+04  0.23454717282E+04  0.10100000352E+00 0. -1.
       -3    1    3    3    0  502  0.11053858921E+04 -0.40423561422E+03 -0.17712783819E+01  0.11769823915E+04  0.10100000352E+00 0.  1.
</event>
<event>
 5   0  0.1918901E-05  0.2909098E+04  0.7818609E-02  0.8270176E-01
        2   -1    0    0  501    0  0.00000000000E+00  0.00000000000E+00  0.18220375862E+04  0.18220375862E+04  0.25500000920E-02 0. -1.
       -2   -1    0    0    0  501  0.00000000000E+00  0.00000000000E+00 -0.11611796113E+04  0.11611796113E+04  0.25500000920E-02 0.  1.
    10030    2    1    2    0    0  0.00000000000E+00  0.00000000000E+00  0.66085797490E+03  0.29832171974E+04  0.29090980705E+04 0.  0.
        1    1    3    3  502    0 -0.17834775317E+03 -0.13511585832E+04 -0.19072742029E+03  0.13761592883E+04  0.50400001928E-02 0.  1.
       -1    1    3    3    0  502  0.17834775317E+03  0.13511585832E+04  0.85158539519E+03  0.16070579091E+04  0.50400001928E-02 0. -1.
</event>
<event>
 5   0  0.1829810E-05  0.1655523E+04  0.7818609E-02  0.8787146E-01
        2   -1    0    0  501    0  0.00000000000E+00  0.00000000000E+00  0.13274126530E+04  0.13274126530E+04  0.25500000920E-02 0. -1.
       -2   -1    0    0    0  501  0.00000000000E+00  0.00000000000E+00 -0.51618400809E+03  0.51618400810E+03  0.25500000920E-02 0.  1.
    10030    2    1    2    0    0  0.00000000000E+00  0.00000000000E+00  0.81122864492E+03  0.18435966611E+04  0.16555231000E+04 0.  0.
        4    1    3    3  502    0  0.33793136075E+03  0.75420801845E+03  0.35385593105E+03  0.89902334370E+03  0.12699999809E+01 0. -1.
       -4    1    3    3    0  502 -0.33793136075E+03 -0.75420801845E+03  0.45737271387E+03  0.94457331741E+03  0.12699999809E+01 0.  1.
</event>
<event>
 5   0  0.8234888E-06  0.2828095E+04  0.7818609E-02  0.8294599E-01
       -1   -1    0    0    0  501  0.00000000000E+00  0.00000000000E+00  0.16033834253E+04  0.16033834253E+04  0.50400001928E-02 0.  1.
        1   -1    0    0  501    0  0.00000000000E+00  0.00000000000E+00 -0.12470689259E+04  0.12470689259E+04  0.50400001928E-02 0. -1.
    10030    2    1    2    0    0  0.00000000000E+00  0.00000000000E+00  0.35631449938E+03  0.28504523512E+04  0.28280945147E+04 0.  0.
        3    1    3    3  502    0 -0.27876235430E+03 -0.10426141340E+04  0.10990415975E+04  0.15403392892E+04  0.10100000352E+00 0.  1.
       -3    1    3    3    0  502  0.27876235430E+03  0.10426141340E+04 -0.74272709817E+03  0.13101130620E+04  0.10100000352E+00 0. -1.
</event>
<event>
 5   0  0.1937947E-05  0.2818700E+04  0.7818609E-02  0.8297486E-01
       -2   -1    0    0    0  501  0.00000000000E+00  0.00000000000E+00  0.85427175740E+03  0.85427175740E+03  0.25500000920E-02 0.  1.
        2   -1    0    0  501    0  0.00000000000E+00  0.00000000000E+00 -0.23251003873E+04  0.23251003873E+04  0.25500000920E-02 0. -1.
    10030    2    1    2    0    0  0.00000000000E+00  0.00000000000E+00 -0.14708286299E+04  0.31793721447E+04  0.28187001217E+04 0.  0.
        3    1    3    3  502    0  0.13578646785E+04  0.22741936906E+03 -0.39561737247E+03  0.14324905480E+04  0.10100000352E+00 0.  1.
       -3    1    3    3    0  502 -0.13578646785E+04 -0.22741936906E+03 -0.10752112575E+04  0.17468815967E+04  0.10100000352E+00 0. -1.
</event>
<event>
 5   0  0.8234888E-06  0.2901589E+04  0.7818609E-02  0.8272405E-01
        1   -1    0    0  501    0  0.00000000000E+00  0.00000000000E+00  0.14683882595E+04  0.14683882595E+04  0.50400001928E-02 0. -1.
       -1   -1    0    0    0  501  0.00000000000E+00  0.00000000000E+00 -0.14334111079E+04  0.14334111079E+04  0.50400001928E-02 0.  1.
    10030    2    1    2    0    0  0.00000000000E+00  0.00000000000E+00  0.34977151572E+02  0.29017993674E+04  0.29015885594E+04 0.  0.
        3    1    3    3  502    0  0.12948572372E+03  0.77264305659E+03 -0.12036898932E+04  0.14361800774E+04  0.10100000352E+00 0.  1.
       -3    1    3    3    0  502 -0.12948572372E+03 -0.77264305659E+03  0.12386670447E+04  0.14656192901E+04  0.10100000352E+00 0. -1.
</event>
<event>
 5   0  0.1829810E-05  0.2653272E+04  0.7818609E-02  0.8350328E-01
       -2   -1    0    0    0  501  0.00000000000E+00  0.00000000000E+00  0.12870525868E+04  0.12870525868E+04  0.25500000920E-02 0.  1.
        2   -1    0    0  501    0  0.00000000000E+00  0.00000000000E+00 -0.13674365164E+04  0.13674365164E+04  0.25500000920E-02 0. -1.
    10030    2    1    2    0    0  0.00000000000E+00  0.00000000000E+00 -0.80383929592E+02  0.26544891032E+04  0.26532717205E+04 0.  0.
        4    1    3    3  502    0 -0.77128062682E+03 -0.74730572698E+03  0.73902445549E+03  0.13036481172E+04  0.12699999809E+01 0.  1.
       -4    1    3    3    0  502  0.77128062682E+03  0.74730572698E+03 -0.81940838508E+03  0.13508409859E+04  0.12699999809E+01 0. -1.
</event>
<event>
 5   0  0.1976233E-05  0.2896312E+04  0.7818609E-02  0.8273976E-01
       -2   -1    0    0    0  501  0.00000000000E+00  0.00000000000E+00  0.80489500110E+03  0.80489500111E+03  0.25500000920E-02 0.  1.
        2   -1    0    0  501    0  0.00000000000E+00  0.00000000000E+00 -0.26055024061E+04  0.26055024061E+04  0.25500000920E-02 0. -1.
    10030    2    1    2    0    0  0.00000000000E+00  0.00000000000E+00 -0.18006074050E+04  0.34103974072E+04  0.28963120426E+04 0.  0.
        2    1    3    3  502    0  0.10546458776E+04  0.76313478927E+03 -0.15326289951E+03  0.13107792149E+04  0.25500000920E-02 0.  1.
       -2    1    3    3    0  502 -0.10546458776E+04 -0.76313478927E+03 -0.16473445055E+04  0.20996181923E+04  0.25500000920E-02 0. -1.
</event>
<event>
 5   0  0.1918901E-05  0.3017036E+04  0.7818609E-02  0.8238883E-01
        2   -1    0    0  501    0  0.00000000000E+00  0.00000000000E+00  0.14482830541E+04  0.14482830541E+04  0.25500000920E-02 0.  1.
       -2   -1    0    0    0  501  0.00000000000E+00  0.00000000000E+00 -0.15712581956E+04  0.15712581956E+04  0.25500000920E-02 0. -1.
    10030    2    1    2    0    0  0.00000000000E+00  0.00000000000E+00 -0.12297514145E+03  0.30195412497E+04  0.30170360411E+04 0.  0.
        1    1    3    3  502    0  0.15812044486E+03 -0.10417880879E+04 -0.11418755351E+04  0.15537709719E+04  0.50400001928E-02 0. -1.
       -1    1    3    3    0  502 -0.15812044486E+03  0.10417880879E+04  0.10189003937E+04  0.14657702779E+04  0.50400001928E-02 0.  1.
</event>
<event>
 5   0  0.1918901E-05  0.2833296E+04  0.7818609E-02  0.8293005E-01
       -2   -1    0    0    0  501  0.00000000000E+00  0.00000000000E+00  0.20879855794E+04  0.20879855794E+04  0.25500000920E-02 0.  1.
        2   -1    0    0  501    0  0.00000000000E+00  0.00000000000E+00 -0.96116129876E+03  0.96116129876E+03  0.25500000920E-02 0. -1.
    10030    2    1    2    0    0  0.00000000000E+00  0.00000000000E+00  0.11268242806E+04  0.30491468781E+04  0.28332955591E+04 0.  0.
        1    1    3    3  502    0  0.89766360514E+03 -0.72386032665E+03  0.14489729534E+04  0.18518359377E+04  0.50400001928E-02 0.  1.
       -1    1    3    3    0  502 -0.89766360514E+03  0.72386032665E+03 -0.32214867285E+03  0.11973109404E+04  0.50400001928E-02 0. -1.
</event>
<event>
 5   0  0.1976233E-05  0.3075794E+04  0.7818609E-02  0.8222413E-01
        2   -1    0    0  501    0  0.00000000000E+00  0.00000000000E+00  0.18240701474E+04  0.18240701474E+04  0.25500000920E-02 0. -1.
       -2   -1    0    0    0  501  0.00000000000E+00  0.00000000000E+00 -0.12966209305E+04  0.12966209305E+04  0.25500000920E-02 0.  1.
    10030    2    1    2    0    0  0.00000000000E+00  0.00000000000E+00  0.52744921686E+03  0.31206910779E+04  0.30757942271E+04 0.  0.
        2    1    3    3  502    0 -0.10236408276E+04  0.60998290303E+03  0.12501339144E+04  0.17270652824E+04  0.25500000920E-02 0. -1.
       -2    1    3    3    0  502  0.10236408276E+04 -0.60998290303E+03 -0.72268469752E+03  0.13936257955E+04  0.25500000920E-02 0.  1.
</event>
<event>
 5   0  0.8055928E-06  0.2866916E+04  0.7818609E-02  0.8282790E-01
       -1   -1    0    0    0  501  0.00000000000E+00  0.00000000000E+00  0.14519333585E+04  0.14519333585E+04  0.50400001928E-02 0. -1.
        1   -1    0    0  501    0  0.00000000000E+00  0.00000000000E+00 -0.14152177778E+04  0.14152177778E+04  0.50400001928E-02 0.  1.
    10030    2    1    2    0    0  0.00000000000E+00  0.00000000000E+00  0.36715580680E+02  0.28671511363E+04  0.28669160442E+04 0.  0.
        2    1    3    3  502    0 -0.93792490508E+03 -0.16247274222E+03  0.10902205523E+04  0.14473014102E+04  0.25500000920E-02 0. -1.
       -2    1    3    3    0  502  0.93792490508E+03  0.16247274222E+03 -0.10535049716E+04  0.14198497261E+04  0.25500000920E-02 0.  1.
</event>
<event>
 5   0  0.8055928E-06  0.2247695E+04  0.7818609E-02  0.8498834E-01
       -1   -1    0    0    0  501  0.00000000000E+00  0.00000000000E+00  0.76015650048E+03  0.76015650050E+03  0.50400001928E-02 0.  1.
        1   -1    0    0  501    0  0.00000000000E+00  0.00000000000E+00 -0.16615439521E+04  0.16615439521E+04  0.50400001928E-02 0. -1.
    10030    2    1    2    0    0  0.00000000000E+00  0.00000000000E+00 -0.90138745160E+03  0.24217004526E+04  0.22476952071E+04 0.  0.
        2    1    3    3  502    0  0.39246734251E+03  0.65668863933E+03 -0.13376901811E+04  0.15410014940E+04  0.25500000920E-02 0. -1.
       -2    1    3    3    0  502 -0.39246734251E+03 -0.65668863933E+03  0.43630272945E+03  0.88069895861E+03  0.25500000920E-02 0.  1.
</event>
<event>
 5   0  0.7305460E-06  0.1731705E+04  0.7818609E-02  0.8743486E-01
        1   -1    0    0  501    0  0.00000000000E+00  0.00000000000E+00  0.14431426709E+04  0.14431426709E+04  0.50400001928E-02 0.  1.
       -1   -1    0    0    0  501  0.00000000000E+00  0.00000000000E+00 -0.51949152314E+03  0.51949152316E+03  0.50400001928E-02 0. -1.
    10030    2    1    2    0    0  0.00000000000E+00  0.00000000000E+00  0.92365114775E+03  0.19626341941E+04  0.17317048065E+04 0.  0.
        4    1    3    3  502    0 -0.80641836627E+02  0.38228204078E+03  0.13375613075E+04  0.13934541718E+04  0.12699999809E+01 0.  1.
       -4    1    3    3    0  502  0.80641836627E+02 -0.38228204078E+03 -0.41391015977E+03  0.56918002230E+03  0.12699999809E+01 0. -1.
</event>
<event>
 5   0  0.7971153E-06  0.1796809E+04  0.7818609E-02  0.8707998E-01
       -1   -1    0    0    0  501  0.00000000000E+00  0.00000000000E+00  0.11439487343E+04  0.11439487343E+04  0.50400001928E-02 0.  1.
        1   -1    0    0  501    0  0.00000000000E+00  0.00000000000E+00 -0.70556557487E+03  0.70556557489E+03  0.50400001928E-02 0. -1.
    10030    2    1    2    0    0  0.00000000000E+00  0.00000000000E+00  0.43838315940E+03  0.18495143092E+04  0.17968092234E+04 0.  0.
        5    1    3    3  502    0 -0.57648055577E+03 -0.52230803523E+03 -0.24340524267E+03  0.81510963496E+03  0.46999998093E+01 0. -1.
       -5    1    3    3    0  502  0.57648055577E+03  0.52230803523E+03  0.68178840207E+03  0.10344046742E+04  0.46999998093E+01 0.  1.
</event>
<event>
 5   0  0.7971153E-06  0.2821417E+04  0.7818609E-02  0.8296650E-01
       -1   -1    0    0    0  501  0.00000000000E+00  0.00000000000E+00  0.78789843720E+03  0.78789843721E+03  0.50400001928E-02 0. -1.
        1   -1    0    0  501    0  0.00000000000E+00  0.00000000000E+00 -0.25258318981E+04  0.25258318981E+04  0.50400001928E-02 0.  1.
    10030    2    1    2    0    0  0.00000000000E+00  0.00000000000E+00 -0.17379334609E+04  0.33137303354E+04  0.28214173780E+04 0.  0.
        5    1    3    3  502    0 -0.19742879346E+03  0.13947845447E+04 -0.78049033516E+03  0.16104624516E+04  0.46999998093E+01 0.  1.
       -5    1    3    3    0  502  0.19742879346E+03 -0.13947845447E+04 -0.95744312579E+03  0.17032678838E+04  0.46999998093E+01 0. -1.
</event>
<event>
 5   0  0.1937947E-05  0.2897909E+04  0.7818609E-02  0.8273500E-01
       -2   -1    0    0    0  501  0.00000000000E+00  0.00000000000E+00  0.20088160086E+04  0.20088160086E+04  0.25500000920E-02 0. -1.
        2   -1    0    0  501    0  0.00000000000E+00  0.00000000000E+00 -0.10451278162E+04  0.10451278162E+04  0.25500000920E-02 0.  1.
    10030    2    1    2    0    0  0.00000000000E+00  0.00000000000E+00  0.96368819243E+03  0.30539438249E+04  0.28979092383E+04 0.  0.
        3    1    3    3  502    0  0.60771473888E+03  0.13153480964E+04  0.48544256203E+03  0.15281074274E+04  0.10100000352E+00 0. -1.
       -3    1    3    3    0  502 -0.60771473888E+03 -0.13153480964E+04  0.47824563040E+03  0.15258363974E+04  0.10100000352E+00 0.  1.
</event>
<event>
 5   0  0.1937947E-05  0.2834464E+04  0.7818609E-02  0.8292648E-01
       -2   -1    0    0    0  501  0.00000000000E+00  0.00000000000E+00  0.23153606097E+04  0.23153606097E+04  0.25500000920E-02 0. -1.
        2   -1    0    0  501    0  0.00000000000E+00  0.00000000000E+00 -0.86748766789E+03  0.86748766789E+03  0.25500000920E-02 0.  1.
    10030    2    1    2    0    0  0.00000000000E+00  0.00000000000E+00  0.14478729418E+04  0.31828482775E+04  0.28344641650E+04 0.  0.
        3    1    3    3  502    0  0.99951153846E+02 -0.29465196216E+03  0.22765344298E+04  0.22976986383E+04  0.10100000352E+00 0. -1.
       -3    1    3    3    0  502 -0.99951153846E+02  0.29465196216E+03 -0.82866148804E+03  0.88514963929E+03  0.10100000352E+00 0.  1.
</event>
<event>
 5   0  0.6578125E-06  0.2899200E+04  0.7818609E-02  0.8273116E-01
       -3   -1    0    0    0  501  0.00000000000E+00  0.00000000000E+00  0.92482016292E+03  0.92482016843E+03  0.10100000352E+00 0. -1.
        3   -1    0    0  501    0  0.00000000000E+00  0.00000000000E+00 -0.22721608832E+04  0.22721608854E+04  0.10100000352E+00 0.  1.
    10030    2    1    2    0    0  0.00000000000E+00  0.00000000000E+00 -0.13473407202E+04  0.31969810538E+04  0.28992000349E+04 0.  0.
        2    1    3    3  502    0 -0.18701413011E+03 -0.82928979027E+03  0.62108586284E+03  0.10528264293E+04  0.25500000920E-02 0. -1.
       -2    1    3    3    0  502  0.18701413011E+03  0.82928979027E+03 -0.19684265831E+04  0.21441546246E+04  0.25500000920E-02 0.  1.
</event>
<event>
 5   0  0.1918901E-05  0.2437981E+04  0.7818609E-02  0.8425419E-01
        2   -1    0    0  501    0  0.00000000000E+00  0.00000000000E+00  0.16029127473E+04  0.16029127473E+04  0.25500000920E-02 0. -1.
       -2   -1    0    0    0  501  0.00000000000E+00  0.00000000000E+00 -0.92702341914E+03  0.92702341914E+03  0.25500000920E-02 0.  1.
    10030    2    1    2    0    0  0.00000000000E+00  0.00000000000E+00  0.67588932819E+03  0.25299361665E+04  0.24379808495E+04 0.  0.
        1    1    3    3  502    0 -0.47541221732E+03  0.30466942907E+03 -0.78312558592E+03  0.96546668546E+03  0.50400001928E-02 0.  1.
       -1    1    3    3    0  502  0.47541221732E+03 -0.30466942907E+03  0.14590149141E+04  0.15644694810E+04  0.50400001928E-02 0. -1.
</event>
<event>
 5   0  0.8055928E-06  0.2495568E+04  0.7818609E-02  0.8404566E-01
        1   -1    0    0  501    0  0.00000000000E+00  0.00000000000E+00  0.18467082644E+04  0.18467082644E+04  0.50400001928E-02 0.  1.
       -1   -1    0    0    0  501  0.00000000000E+00  0.00000000000E+00 -0.84310262919E+03  0.84310262921E+03  0.50400001928E-02 0. -1.
    10030    2    1    2    0    0  0.00000000000E+00  0.00000000000E+00  0.10036056352E+04  0.26898108936E+04  0.24955677455E+04 0.  0.
        2    1    3    3  502    0  0.66109346938E+02  0.31736615992E+03  0.18005262576E+04  0.18294771191E+04  0.25500000920E-02 0.  1.
       -2    1    3    3    0  502 -0.66109346938E+02 -0.31736615992E+03 -0.79692062235E+03  0.86033377450E+03  0.25500000920E-02 0. -1.
</event>
<event>
 5   0  0.1937947E-05  0.2890560E+04  0.7818609E-02  0.8275692E-01
        2   -1    0    0  501    0  0.00000000000E+00  0.00000000000E+00  0.20243094130E+04  0.20243094130E+04  0.25500000920E-02 0.  1.
       -2   -1    0    0    0  501  0.00000000000E+00  0.00000000000E+00 -0.10318747709E+04  0.10318747709E+04  0.25500000920E-02 0. -1.
    10030    2    1    2    0    0  0.00000000000E+00  0.00000000000E+00  0.99243464213E+03  0.30561841839E+04  0.28905596771E+04 0.  0.
        3    1    3    3  502    0  0.36305880969E+03  0.61721966217E+03 -0.83112894230E+03  0.10970629606E+04  0.10100000352E+00 0. -1.
       -3    1    3    3    0  502 -0.36305880969E+03 -0.61721966217E+03  0.18235635844E+04  0.19591212232E+04  0.10100000352E+00 0.  1.
</event>
<event>
 5   0  0.1829810E-05  0.2662813E+04  0.7818609E-02  0.8347173E-01
        2   -1    0    0  501    0  0.00000000000E+00  0.00000000000E+00  0.15119086743E+04  0.15119086743E+04  0.25500000920E-02 0.  1.
       -2   -1    0    0    0  501  0.00000000000E+00  0.00000000000E+00 -0.11724535888E+04  0.11724535888E+04  0.25500000920E-02 0. -1.
    10030    2    1    2    0    0  0.00000000000E+00  0.00000000000E+00  0.33945508552E+03  0.26843622631E+04  0.26628126116E+04 0.  0.
        4    1    3    3  502    0  0.34814794935E+02  0.86262287887E+02 -0.11691730037E+04  0.11728684401E+04  0.12699999809E+01 0. -1.
       -4    1    3    3    0  502 -0.34814794935E+02 -0.86262287887E+02  0.15086280893E+04  0.15114938230E+04  0.12699999809E+01 0.  1.
</event>
<event>
 5   0  0.1960961E-05  0.2878685E+04  0.7818609E-02  0.8279248E-01
        2   -1    0    0  501    0  0.00000000000E+00  0.00000000000E+00  0.25266730535E+04  0.25266730535E+04  0.25500000920E-02 0. -1.
       -2   -1    0    0    0  501  0.00000000000E+00  0.00000000000E+00 -0.81993444595E+03  0.81993444595E+03  0.25500000920E-02 0.  1.
    10030    2    1    2    0    0  0.00000000000E+00  0.00000000000E+00  0.17067386076E+04  0.33466074995E+04  0.28786846095E+04 0.  0.
        5    1    3    3  502    0  0.86126075025E+03 -0.10784001306E+04  0.37833349086E+03  0.14310399163E+04  0.46999998093E+01 0. -1.
       -5    1    3    3    0  502 -0.86126075025E+03  0.10784001306E+04  0.13284051167E+04  0.19155675832E+04  0.46999998093E+01 0.  1.
</event>
<event>
 5   0  0.8122088E-06  0.2935763E+04  0.7818609E-02  0.8262316E-01
       -1   -1    0    0    0  501  0.00000000000E+00  0.00000000000E+00  0.83638864634E+03  0.83638864636E+03  0.50400001928E-02 0.  1.
        1   -1    0    0  501    0  0.00000000000E+00  0.00000000000E+00 -0.25761668238E+04  0.25761668238E+04  0.50400001928E-02 0. -1.
    10030    2    1    2    0    0  0.00000000000E+00  0.00000000000E+00 -0.17397781775E+04  0.34125554702E+04  0.29357633982E+04 0.  0.
        1    1    3    3  502    0 -0.13053224687E+04  0.46647097130E+03 -0.30853525610E+03  0.14200901093E+04  0.50400001928E-02 0.  1.
       -1    1    3    3    0  502  0.13053224687E+04 -0.46647097130E+03 -0.14312429214E+04  0.19924653609E+04  0.50400001928E-02 0. -1.
</event>
<event>
 5   0  0.8234888E-06  0.2676073E+04  0.7818609E-02  0.8342810E-01
        1   -1    0    0  501    0  0.00000000000E+00  0.00000000000E+00  0.14843098157E+04  0.14843098157E+04  0.50400001928E-02 0. -1.
       -1   -1    0    0    0  501  0.00000000000E+00  0.00000000000E+00 -0.12061780171E+04  0.12061780171E+04  0.50400001928E-02 0.  1.
    10030    2    1    2    0    0  0.00000000000E+00  0.00000000000E+00  0.27813179859E+03  0.26904878327E+04  0.26760731456E+04 0.  0.
        3    1    3    3  502    0 -0.20643829328E+03  0.72879221642E+02 -0.11880495113E+04  0.12080520690E+04  0.10100000352E+00 0.  1.
       -3    1    3    3    0  502  0.20643829328E+03 -0.72879221642E+02  0.14661813099E+04  0.14824357637E+04  0.10100000352E+00 0. -1.
</event>
<event>
 5   0  0.7305460E-06  0.2967309E+04  0.7818609E-02  0.8253128E-01
        1   -1    0    0  501    0  0.00000000000E+00  0.00000000000E+00  0.19776910602E+04  0.19776910602E+04  0.50400001928E-02 0. -1.
       -1   -1    0    0    0  501  0.00000000000E+00  0.00000000000E+00 -0.11130303805E+04  0.11130303805E+04  0.50400001928E-02 0.  1.
    10030    2    1    2    0    0  0.00000000000E+00  0.00000000000E+00  0.86466067965E+03  0.30907214407E+04  0.29673087020E+04 0.  0.
        4    1    3    3  502    0  0.13575811011E+04 -0.30398216220E+03  0.96932774596E+03  0.16955911928E+04  0.12699999809E+01 0.  1.
       -4    1    3    3    0  502 -0.13575811011E+04  0.30398216220E+03 -0.10466706631E+03  0.13951302479E+04  0.12699999809E+01 0. -1.
</event>
<event>
 5   0  0.7971153E-06  0.2851585E+04  0.7818609E-02  0.8287430E-01
        1   -1    0    0  501    0  0.00000000000E+00  0.00000000000E+00  0.18732816931E+04  0.18732816931E+04  0.50400001928E-02 0. -1.
       -1   -1    0    0    0  501  0.00000000000E+00  0.00000000000E+00 -0.10851996998E+04  0.10851996998E+04  0.50400001928E-02 0.  1.
    10030    2    1    2    0    0  0.00000000000E+00  0.00000000000E+00  0.78808199329E+03  0.29584813929E+04  0.28515853352E+04 0.  0.
        5    1    3    3  502    0  0.13890688201E+04  0.29786450949E+03  0.26856435333E+03  0.14458161553E+04  0.46999998093E+01 0.  1.
       -5    1    3    3    0  502 -0.13890688201E+04 -0.29786450949E+03  0.51951763997E+03  0.15126652377E+04  0.46999998093E+01 0. -1.
</event>
<event>
 5   0  0.1937947E-05  0.2321464E+04  0.7818609E-02  0.8469506E-01
        2   -1    0    0  501    0  0.00000000000E+00  0.00000000000E+00  0.11379373640E+04  0.11379373640E+04  0.25500000920E-02 0. -1.
       -2   -1    0    0    0  501  0.00000000000E+00  0.00000000000E+00 -0.11839835534E+04  0.11839835534E+04  0.25500000920E-02 0.  1.
    10030    2    1    2    0    0  0.00000000000E+00  0.00000000000E+00 -0.46046189419E+02  0.23219209174E+04  0.23214642998E+04 0.  0.
        3    1    3    3  502    0 -0.11807892300E+03  0.34082419281E+03 -0.11265058666E+04  0.11828437091E+04  0.10100000352E+00 0.  1.
       -3    1    3    3    0  502  0.11807892300E+03 -0.34082419281E+03  0.10804596771E+04  0.11390772083E+04  0.10100000352E+00 0. -1.
</event>
<event>
 5   0  0.8055928E-06  0.2906824E+04  0.7818609E-02  0.8270850E-01
        1   -1    0    0  501    0  0.00000000000E+00  0.00000000000E+00  0.73363632428E+03  0.73363632429E+03  0.50400001928E-02 0.  1.
       -1   -1    0    0    0  501  0.00000000000E+00  0.00000000000E+00 -0.28793645339E+04  0.28793645339E+04  0.50400001928E-02 0. -1.
    10030    2    1    2    0    0  0.00000000000E+00  0.00000000000E+00 -0.21457282096E+04  0.36130008582E+04  0.29068239802E+04 0.  0.
        2    1    3    3  502    0  0.12039102541E+04  0.55444838489E+03 -0.18140484506E+04  0.22466830423E+04  0.25500000920E-02 0. -1.
       -2    1    3    3    0  502 -0.12039102541E+04 -0.55444838489E+03 -0.33167975901E+03  0.13663178159E+04  0.25500000920E-02 0.  1.
</event>
<event>
 5   0  0.7305460E-06  0.2943126E+04  0.7818609E-02  0.8260161E-01
        1   -1    0    0  501    0  0.00000000000E+00  0.00000000000E+00  0.12932956851E+04  0.12932956851E+04  0.50400001928E-02 0.  1.
       -1   -1    0    0    0  501  0.00000000000E+00  0.00000000000E+00 -0.16744024090E+04  0.16744024090E+04  0.50400001928E-02 0. -1.
    10030    2    1    2    0    0  0.00000000000E+00  0.00000000000E+00 -0.38110672386E+03  0.29676980941E+04  0.29431258286E+04 0.  0.
        4    1    3    3  502    0 -0.42460735779E+03 -0.94457054678E+03 -0.12447440003E+04  0.16192264095E+04  0.12699999809E+01 0. -1.
       -4    1    3    3    0  502  0.42460735779E+03  0.94457054678E+03  0.86363727642E+03  0.13484716846E+04  0.12699999809E+01 0.  1.
</event>
<event>
 5   0  0.8234888E-06  0.2909343E+04  0.7818609E-02  0.8270103E-01
        1   -1    0    0  501    0  0.00000000000E+00  0.00000000000E+00  0.16643754611E+04  0.16643754611E+04  0.50400001928E-02 0.  1.
       -1   -1    0    0    0  501  0.00000000000E+00  0.00000000000E+00 -0.12713897343E+04  0.12713897344E+04  0.50400001928E-02 0. -1.
    10030    2    1    2    0    0  0.00000000000E+00  0.00000000000E+00  0.39298572671E+03  0.29357651954E+04  0.29093434829E+04 0.  0.
        3    1    3    3  502    0  0.86140564679E+03 -0.83576528323E+03 -0.63288791416E+03  0.13568605010E+04  0.10100000352E+00 0. -1.
       -3    1    3    3    0  502 -0.86140564679E+03  0.83576528323E+03  0.10258736409E+04  0.15789046945E+04  0.10100000352E+00 0.  1.
</event>
<event>
 5   0  0.7305460E-06  0.2913117E+04  0.7818609E-02  0.8268985E-01
        1   -1    0    0  501    0  0.00000000000E+00  0.00000000000E+00  0.25679943454E+04  0.25679943454E+04  0.50400001928E-02 0. -1.
       -1   -1    0    0    0  501  0.00000000000E+00  0.00000000000E+00 -0.82615561376E+03  0.82615561377E+03  0.50400001928E-02 0.  1.
    10030    2    1    2    0    0  0.00000000000E+00  0.00000000000E+00  0.17418387317E+04  0.33941499592E+04  0.29131171927E+04 0.  0.
        4    1    3    3  502    0  0.20920660624E+03 -0.59382325526E+03  0.24012622567E+04  0.24824293546E+04  0.12699999809E+01 0. -1.
       -4    1    3    3    0  502 -0.20920660624E+03  0.59382325526E+03 -0.65942352499E+03  0.91172060457E+03  0.12699999809E+01 0.  1.
</event>
<event>
 5   0  0.1976233E-05  0.2930590E+04  0.7818609E-02  0.8263834E-01
        2   -1    0    0  501    0  0.00000000000E+00  0.00000000000E+00  0.23054443054E+04  0.23054443054E+04  0.25500000920E-02 0.  1.
       -2   -1    0    0    0  501  0.00000000000E+00  0.00000000000E+00 -0.93131272588E+03  0.93131272588E+03  0.25500000920E-02 0. -1.
    10030    2    1    2    0    0  0.00000000000E+00  0.00000000000E+00  0.13741315795E+04  0.32367570312E+04  0.29305901251E+04 0.  0.
        2    1    3    3  502    0  0.38714278026E+03 -0.14117999860E+04  0.61694361624E+03  0.15886088752E+04  0.25500000920E-02 0.  1.
       -2    1    3    3    0  502 -0.38714278026E+03  0.14117999860E+04  0.75718796324E+03  0.16481481561E+04  0.25500000920E-02 0. -1.
</event>
<event>
 5   0  0.1960961E-05  0.2448160E+04  0.7818609E-02  0.8421690E-01
       -2   -1    0    0    0  501  0.00000000000E+00  0.00000000000E+00  0.84811757785E+03  0.84811757785E+03  0.25500000920E-02 0.  1.
        2   -1    0    0  501    0  0.00000000000E+00  0.00000000000E+00 -0.17667024682E+04  0.17667024682E+04  0.25500000920E-02 0. -1.
    10030    2    1    2    0    0  0.00000000000E+00  0.00000000000E+00 -0.91858489039E+03  0.26148200461E+04  0.24481596501E+04 0.  0.
        5    1    3    3  502    0  0.45101724848E+03 -0.45744728523E+03  0.65359678313E+03  0.91645262950E+03  0.46999998093E+01 0.  1.
       -5    1    3    3    0  502 -0.45101724848E+03  0.45744728523E+03 -0.15721816735E+04  0.16983674166E+04  0.46999998093E+01 0. -1.
</event>
<event>
 5   0  0.1937947E-05  0.2816967E+04  0.7818609E-02  0.8298020E-01
        2   -1    0    0  501    0  0.00000000000E+00  0.00000000000E+00  0.19665202323E+04  0.19665202323E+04  0.25500000920E-02 0. -1.
       -2   -1    0    0    0  501  0.00000000000E+00  0.00000000000E+00 -0.10087998731E+04  0.10087998731E+04  0.25500000920E-02 0.  1.
    10030    2    1    2    0    0  0.00000000000E+00  0.00000000000E+00  0.95772035926E+03  0.29753201054E+04  0.28169667096E+04 0.  0.
        3    1    3    3  502    0  0.12426646845E+04  0.47753991646E+03 -0.69586756273E+01  0.13312807079E+04  0.10100000352E+00 0.  1.
       -3    1    3    3    0  502 -0.12426646845E+04 -0.47753991646E+03  0.96467903488E+03  0.16440393975E+04  0.10100000352E+00 0. -1.
</event>
<event>
 5   0  0.1960961E-05  0.2885991E+04  0.7818609E-02  0.8277058E-01
       -2   -1    0    0    0  501  0.00000000000E+00  0.00000000000E+00  0.13529398342E+04  0.13529398342E+04  0.25500000920E-02 0. -1.
        2   -1    0    0  501    0  0.00000000000E+00  0.00000000000E+00 -0.15390456364E+04  0.15390456364E+04  0.25500000920E-02 0.  1.
    10030    2    1    2    0    0  0.00000000000E+00  0.00000000000E+00 -0.18610580223E+03  0.28919854707E+04  0.28859910937E+04 0.  0.
        5    1    3    3  502    0 -0.75492891407E+02 -0.53093980178E+03  0.12493630586E+04  0.13596052339E+04  0.46999998093E+01 0. -1.
       -5    1    3    3    0  502  0.75492891407E+02  0.53093980178E+03 -0.14354688608E+04  0.15323802368E+04  0.46999998093E+01 0.  1.
</event>
<event>
 5   0  0.7305460E-06  0.2859243E+04  0.7818609E-02  0.8285108E-01
        1   -1    0    0  501    0  0.00000000000E+00  0.00000000000E+00  0.16994191691E+04  0.16994191691E+04  0.50400001928E-02 0.  1.
       -1   -1    0    0    0  501  0.00000000000E+00  0.00000000000E+00 -0.12026565799E+04  0.12026565799E+04  0.50400001928E-02 0. -1.
    10030    2    1    2    0    0  0.00000000000E+00  0.00000000000E+00  0.49676258920E+03  0.29020757490E+04  0.28592430087E+04 0.  0.
        4    1    3    3  502    0  0.25160239167E+03  0.13994927090E+04  0.39869584414E+03  0.14767679557E+04  0.12699999809E+01 0.  1.
       -4    1    3    3    0  502 -0.25160239167E+03 -0.13994927090E+04  0.98066745057E+02  0.14253077932E+04  0.12699999809E+01 0. -1.
</event>
<event>
 5   0  0.7971153E-06  0.2924987E+04  0.7818609E-02  0.8265482E-01
        1   -1    0    0  501    0  0.00000000000E+00  0.00000000000E+00  0.12741751824E+04  0.12741751824E+04  0.50400001928E-02 0. -1.
       -1   -1    0    0    0  501  0.00000000000E+00  0.00000000000E+00 -0.16786450244E+04  0.16786450244E+04  0.50400001928E-02 0.  1.
    10030    2    1    2    0    0  0.00000000000E+00  0.00000000000E+00 -0.40446984201E+03  0.29528202068E+04  0.29249874052E+04 0.  0.
        5    1    3    3  502    0 -0.11976831789E+04  0.47429478490E+03 -0.90125805593E+03  0.15721605241E+04  0.46999998093E+01 0. -1.
       -5    1    3    3    0  502  0.11976831789E+04 -0.47429478490E+03  0.49678821392E+03  0.13806596828E+04  0.46999998093E+01 0.  1.
</event>
<event>
 5   0  0.8234888E-06  0.3055821E+04  0.7818609E-02  0.8227968E-01
       -1   -1    0    0    0  501  0.00000000000E+00  0.00000000000E+00  0.10952800811E+04  0.10952800811E+04  0.50400001928E-02 0. -1.
        1   -1    0    0  501    0  0.00000000000E+00  0.00000000000E+00 -0.21314276069E+04  0.21314276069E+04  0.50400001928E-02 0.  1.
    10030    2    1    2    0    0  0.00000000000E+00  0.00000000000E+00 -0.10361475258E+04  0.32267076881E+04  0.30558208077E+04 0.  0.
        3    1    3    3  502    0 -0.12694638575E+04  0.83092786977E+03 -0.70852230641E+03  0.16745099221E+04  0.10100000352E+00 0.  1.
       -3    1    3    3    0  502  0.12694638575E+04 -0.83092786977E+03 -0.32762521943E+03  0.15521977660E+04  0.10100000352E+00 0. -1.
</event>
<event>
 5   0  0.7971153E-06  0.2902324E+04  0.7818609E-02  0.8272186E-01
       -1   -1    0    0    0  501  0.00000000000E+00  0.00000000000E+00  0.13305195111E+04  0.13305195111E+04  0.50400001928E-02 0.  1.
        1   -1    0    0  501    0  0.00000000000E+00  0.00000000000E+00 -0.15827436089E+04  0.15827436089E+04  0.50400001928E-02 0. -1.
    10030    2    1    2    0    0  0.00000000000E+00  0.00000000000E+00 -0.25222409777E+03  0.29132631200E+04  0.29023240706E+04 0.  0.
        5    1    3    3  502    0 -0.12299707850E+04 -0.75565809406E+03 -0.27500140808E+03  0.14695220827E+04  0.46999998093E+01 0. -1.
       -5    1    3    3    0  502  0.12299707850E+04  0.75565809406E+03  0.22777310313E+02  0.14437410373E+04  0.46999998093E+01 0.  1.
</event>
<event>
 5   0  0.1976233E-05  0.1898265E+04  0.7818609E-02  0.8655721E-01
       -2   -1    0    0    0  501  0.00000000000E+00  0.00000000000E+00  0.87008516222E+03  0.87008516222E+03  0.25500000920E-02 0. -1.
        2   -1    0    0  501    0  0.00000000000E+00  0.00000000000E+00 -0.10353610755E+04  0.10353610755E+04  0.25500000920E-02 0.  1.
    10030    2    1    2    0    0  0.00000000000E+00  0.00000000000E+00 -0.16527591325E+03  0.19054462377E+04  0.18982647964E+04 0.  0.
        2    1    3    3  502    0 -0.72663537677E+03  0.39969078574E+03  0.38073667814E+03  0.91253060939E+03  0.25500000920E-02 0. -1.
       -2    1    3    3    0  502  0.72663537677E+03 -0.39969078574E+03 -0.54601259140E+03  0.99291562831E+03  0.25500000920E-02 0.  1.
</event>
<event>
 5   0  0.1937947E-05  0.2882878E+04  0.7818609E-02  0.8277990E-01
        2   -1    0    0  501    0  0.00000000000E+00  0.00000000000E+00  0.14671508337E+04  0.14671508337E+04  0.25500000920E-02 0. -1.
       -2   -1    0    0    0  501  0.00000000000E+00  0.00000000000E+00 -0.14161774759E+04  0.14161774759E+04  0.25500000920E-02 0.  1.
    10030    2    1    2    0    0  0.00000000000E+00  0.00000000000E+00  0.50973357763E+02  0.28833283096E+04  0.28828777043E+04 0.  0.
        3    1    3    3  502    0  0.40760763052E+03 -0.44974483821E+03  0.13331051044E+04  0.14647810859E+04  0.10100000352E+00 0. -1.
       -3    1    3    3    0  502 -0.40760763052E+03  0.44974483821E+03 -0.12821317467E+04  0.14185472237E+04  0.10100000352E+00 0.  1.
</event>
<event>
 5   0  0.1937947E-05  0.1664968E+04  0.7818609E-02  0.8781601E-01
       -2   -1    0    0    0  501  0.00000000000E+00  0.00000000000E+00  0.79786639355E+03  0.79786639356E+03  0.25500000920E-02 0. -1.
        2   -1    0    0  501    0  0.00000000000E+00  0.00000000000E+00 -0.86860324544E+03  0.86860324545E+03  0.25500000920E-02 0.  1.
    10030    2    1    2    0    0  0.00000000000E+00  0.00000000000E+00 -0.70736851893E+02  0.16664696390E+04  0.16649676740E+04 0.  0.
        3    1    3    3  502    0  0.22464514962E+03  0.31545782802E+03 -0.77295262847E+03  0.86454315136E+03  0.10100000352E+00 0.  1.
       -3    1    3    3    0  502 -0.22464514962E+03 -0.31545782802E+03  0.70221577658E+03  0.80192648764E+03  0.10100000352E+00 0. -1.
</event>
<event>
 5   0  0.8055928E-06  0.2872983E+04  0.7818609E-02  0.8280962E-01
        1   -1    0    0  501    0  0.00000000000E+00  0.00000000000E+00  0.21923248454E+04  0.21923248454E+04  0.50400001928E-02 0. -1.
       -1   -1    0    0    0  501  0.00000000000E+00  0.00000000000E+00 -0.94124171096E+03  0.94124171097E+03  0.50400001928E-02 0.  1.
    10030    2    1    2    0    0  0.00000000000E+00  0.00000000000E+00  0.12510831345E+04  0.31335665564E+04  0.28729828322E+04 0.  0.
        2    1    3    3  502    0 -0.40746338522E+03 -0.47426307528E+03  0.20361165893E+04  0.21299583658E+04  0.25500000920E-02 0. -1.
       -2    1    3    3    0  502  0.40746338522E+03  0.47426307528E+03 -0.78503345487E+03  0.10036081906E+04  0.25500000920E-02 0.  1.
</event>
<event>
 5   0  0.1829810E-05  0.2900109E+04  0.7818609E-02  0.8272845E-01
       -2   -1    0    0    0  501  0.00000000000E+00  0.00000000000E+00  0.11536861427E+04  0.11536861427E+04  0.25500000920E-02 0.  1.
        2   -1    0    0  501    0  0.00000000000E+00  0.00000000000E+00 -0.18225564102E+04  0.18225564102E+04  0.25500000920E-02 0. -1.
    10030    2    1    2    0    0  0.00000000000E+00  0.00000000000E+00 -0.66887026744E+03  0.29762425529E+04  0.29001090150E+04 0.  0.
        4    1    3    3  502    0  0.72552727590E+03  0.71835889575E+02  0.95190782919E+03  0.11990330901E+04  0.12699999809E+01 0.  1.
       -4    1    3    3    0  502 -0.72552727590E+03 -0.71835889575E+02 -0.16207780966E+04  0.17772094628E+04  0.12699999809E+01 0. -1.
</event>
<event>
 5   0  0.1918901E-05  0.2942712E+04  0.7818609E-02  0.8260282E-01
        2   -1    0    0  501    0  0.00000000000E+00  0.00000000000E+00  0.12853140228E+04  0.12853140228E+04  0.25500000920E-02 0.  1.
       -2   -1    0    0    0  501  0.00000000000E+00  0.00000000000E+00 -0.16843269185E+04  0.16843269185E+04  0.25500000920E-02 0. -1.
    10030    2    1    2    0    0  0.00000000000E+00  0.00000000000E+00 -0.39901289575E+03  0.29696409413E+04  0.29427123593E+04 0.  0.
        1    1    3    3  502    0  0.58610975929E+03  0.95052100311E+03 -0.11663310774E+04  0.16147269148E+04  0.50400001928E-02 0.  1.
       -1    1    3    3    0  502 -0.58610975929E+03 -0.95052100311E+03  0.76731818167E+03  0.13549140265E+04  0.50400001928E-02 0. -1.
</event>
<event>
 5   0  0.1937947E-05  0.3155678E+04  0.7818609E-02  0.8200622E-01
       -2   -1    0    0    0  501  0.00000000000E+00  0.00000000000E+00  0.16156061759E+04  0.16156061759E+04  0.25500000920E-02 0. -1.
        2   -1    0    0  501    0  0.00000000000E+00  0.00000000000E+00 -0.15409547133E+04  0.15409547133E+04  0.25500000920E-02 0.  1.
    10030    2    1    2    0    0  0.00000000000E+00  0.00000000000E+00  0.74651462591E+02  0.31565608892E+04  0.31556780264E+04 0.  0.
        3    1    3    3  502    0  0.10225658299E+04  0.10335051984E+04 -0.57587274825E+03  0.15637785342E+04  0.10100000352E+00 0.  1.
       -3    1    3    3    0  502 -0.10225658299E+04 -0.10335051984E+04  0.65052421084E+03  0.15927823551E+04  0.10100000352E+00 0. -1.
</event>
<event>
 5   0  0.1937947E-05  0.2919007E+04  0.7818609E-02  0.8267245E-01
        2   -1    0    0  501    0  0.00000000000E+00  0.00000000000E+00  0.13766614841E+04  0.13766614841E+04  0.25500000920E-02 0. -1.
       -2   -1    0    0    0  501  0.00000000000E+00  0.00000000000E+00 -0.15473309246E+04  0.15473309246E+04  0.25500000920E-02 0.  1.
    10030    2    1    2    0    0  0.00000000000E+00  0.00000000000E+00 -0.17066944054E+03  0.29239924087E+04  0.29190072882E+04 0.  0.
        3    1    3    3  502    0 -0.13244180674E+04 -0.59391217777E+03 -0.23835680964E+03  0.14709278946E+04  0.10100000352E+00 0.  1.
       -3    1    3    3    0  502  0.13244180674E+04  0.59391217777E+03  0.67687369095E+02  0.14530645141E+04  0.10100000352E+00 0. -1.
</event>
<event>
 5   0  0.1960961E-05  0.2897399E+04  0.7818609E-02  0.8273652E-01
        2   -1    0    0  501    0  0.00000000000E+00  0.00000000000E+00  0.23828808066E+04  0.23828808066E+04  0.25500000920E-02 0.  1.
       -2   -1    0    0    0  501  0.00000000000E+00  0.00000000000E+00 -0.88075350772E+03  0.88075350772E+03  0.25500000920E-02 0. -1.
    10030    2    1    2    0    0  0.00000000000E+00  0.00000000000E+00  0.15021272989E+04  0.32636343143E+04  0.28973992676E+04 0.  0.
        5    1    3    3  502    0 -0.12142966364E+04 -0.72776773111E+03  0.40471338593E+03  0.14724052453E+04  0.46999998093E+01 0. -1.
       -5    1    3    3    0  502  0.12142966364E+04  0.72776773111E+03  0.10974139130E+04  0.17912290691E+04  0.46999998093E+01 0.  1.
</event>
<event>
 5   0  0.8234888E-06  0.2932722E+04  0.7818609E-02  0.8263208E-01
        1   -1    0    0  501    0  0.00000000000E+00  0.00000000000E+00  0.13899514308E+04  0.13899514308E+04  0.50400001928E-02 0.  1.
       -1   -1    0    0    0  501  0.00000000000E+00  0.00000000000E+00 -0.15469711346E+04  0.15469711346E+04  0.50400001928E-02 0. -1.
    10030    2    1    2    0    0  0.00000000000E+00  0.00000000000E+00 -0.15701970383E+03  0.29369225654E+04  0.29327221088E+04 0.  0.
        3    1    3    3  502    0 -0.62582887764E+03 -0.95690321230E+03 -0.99791477501E+03  0.15176163712E+04  0.10100000352E+00 0. -1.
       -3    1    3    3    0  502  0.62582887764E+03  0.95690321230E+03  0.84089507119E+03  0.14193061942E+04  0.10100000352E+00 0.  1.
</event>
<event>
 5   0  0.8055928E-06  0.2794917E+04  0.7818609E-02  0.8304848E-01
        1   -1    0    0  501    0  0.00000000000E+00  0.00000000000E+00  0.13753100836E+04  0.13753100836E+04  0.50400001928E-02 0. -1.
       -1   -1    0    0    0  501  0.00000000000E+00  0.00000000000E+00 -0.14199633426E+04  0.14199633426E+04  0.50400001928E-02 0.  1.
    10030    2    1    2    0    0  0.00000000000E+00  0.00000000000E+00 -0.44653259036E+02  0.27952734262E+04  0.27949167454E+04 0.  0.
        2    1    3    3  502    0  0.68612105137E+02  0.36393020162E+03  0.13253382252E+04  0.13761083620E+04  0.25500000920E-02 0. -1.
       -2    1    3    3    0  502 -0.68612105137E+02 -0.36393020162E+03 -0.13699914843E+04  0.14191650642E+04  0.25500000920E-02 0.  1.
</event>
<event>
 5   0  0.7305460E-06  0.2943616E+04  0.7818609E-02  0.8260017E-01
       -1   -1    0    0    0  501  0.00000000000E+00  0.00000000000E+00  0.18832794598E+04  0.18832794598E+04  0.50400001928E-02 0. -1.
        1   -1    0    0  501    0  0.00000000000E+00  0.00000000000E+00 -0.11502379163E+04  0.11502379163E+04  0.50400001928E-02 0.  1.
    10030    2    1    2    0    0  0.00000000000E+00  0.00000000000E+00  0.73304154355E+03  0.30335173761E+04  0.29436164435E+04 0.  0.
        4    1    3    3  502    0 -0.42256331308E+03 -0.26282901299E+02  0.18191695557E+04  0.18677874691E+04  0.12699999809E+01 0. -1.
       -4    1    3    3    0  502  0.42256331308E+03  0.26282901299E+02 -0.10861280121E+04  0.11657299070E+04  0.12699999809E+01 0.  1.
</event>
<event>
 5   0  0.1937947E-05  0.3032078E+04  0.7818609E-02  0.8234630E-01
        2   -1    0    0  501    0  0.00000000000E+00  0.00000000000E+00  0.16715141252E+04  0.16715141252E+04  0.25500000920E-02 0.  1.
       -2   -1    0    0    0  501  0.00000000000E+00  0.00000000000E+00 -0.13750257635E+04  0.13750257635E+04  0.25500000920E-02 0. -1.
    10030    2    1    2    0    0  0.00000000000E+00  0.00000000000E+00  0.29648836168E+03  0.30465398887E+04  0.30320784860E+04 0.  0.
        3    1    3    3  502    0  0.49583220073E+03  0.14124791836E+04 -0.92540097816E+02  0.14998368895E+04  0.10100000352E+00 0. -1.
       -3    1    3    3    0  502 -0.49583220073E+03 -0.14124791836E+04  0.38902845950E+03  0.15467029992E+04  0.10100000352E+00 0.  1.
</event>
<event>
 5   0  0.1937947E-05  0.1429607E+04  0.7818609E-02  0.8932662E-01
        2   -1    0    0  501    0  0.00000000000E+00  0.00000000000E+00  0.10288656098E+04  0.10288656098E+04  0.25500000920E-02 0. -1.
       -2   -1    0    0    0  501  0.00000000000E+00  0.00000000000E+00 -0.49660910968E+03  0.49660910969E+03  0.25500000920E-02 0.  1.
    10030    2    1    2    0    0  0.00000000000E+00  0.00000000000E+00  0.53225650007E+03  0.15254747195E+04  0.14296069872E+04 0.  0.
        3    1    3    3  502    0  0.40408865646E+03  0.58014953380E+03  0.15379325562E+03  0.72354232739E+03  0.10100000352E+00 0. -1.
       -3    1    3    3    0  502 -0.40408865646E+03 -0.58014953380E+03  0.37846324445E+03  0.80193239207E+03  0.10100000352E+00 0.  1.
</event>
<event>
 5   0  0.1918901E-05  0.2998604E+04  0.7818609E-02  0.8244130E-01
       -2   -1    0    0    0  501  0.00000000000E+00  0.00000000000E+00  0.85430025054E+03  0.85430025054E+03  0.25500000920E-02 0. -1.
        2   -1    0    0  501    0  0.00000000000E+00  0.00000000000E+00 -0.26312833495E+04  0.26312833495E+04  0.25500000920E-02 0.  1.
    10030    2    1    2    0    0  0.00000000000E+00  0.00000000000E+00 -0.17769830989E+04  0.34855836000E+04  0.29986036915E+04 0.  0.
        1    1    3    3  502    0  0.24871378528E+03  0.45027984808E+03 -0.25254970904E+04  0.25773525258E+04  0.50400001928E-02 0.  1.
       -1    1    3    3    0  502 -0.24871378528E+03 -0.45027984808E+03  0.74851399152E+03  0.90823107417E+03  0.50400001928E-02 0. -1.
</event>
<event>
 5   0  0.8122088E-06  0.2752184E+04  0.7818609E-02  0.8318269E-01
        1   -1    0    0  501    0  0.00000000000E+00  0.00000000000E+00  0.13698443763E+04  0.13698443763E+04  0.50400001928E-02 0.  1.
       -1   -1    0    0    0  501  0.00000000000E+00  0.00000000000E+00 -0.13823680397E+04  0.13823680397E+04  0.50400001928E-02 0. -1.
    10030    2    1    2    0    0  0.00000000000E+00  0.00000000000E+00 -0.12523663404E+02  0.27522124160E+04  0.27521839221E+04 0.  0.
        1    1    3    3  502    0 -0.87250776162E+03  0.34314409787E+03 -0.10135514764E+04  0.13806897774E+04  0.50400001928E-02 0. -1.
       -1    1    3    3    0  502  0.87250776162E+03 -0.34314409787E+03  0.10010278130E+04  0.13715226387E+04  0.50400001928E-02 0.  1.
</event>
<event>
 5   0  0.1976233E-05  0.2846620E+04  0.7818609E-02  0.8288939E-01
        2   -1    0    0  501    0  0.00000000000E+00  0.00000000000E+00  0.19650601401E+04  0.19650601401E+04  0.25500000920E-02 0.  1.
       -2   -1    0    0    0  501  0.00000000000E+00  0.00000000000E+00 -0.10309153545E+04  0.10309153545E+04  0.25500000920E-02 0. -1.
    10030    2    1    2    0    0  0.00000000000E+00  0.00000000000E+00  0.93414478556E+03  0.29959754946E+04  0.28466195187E+04 0.  0.
        2    1    3    3  502    0  0.10314612498E+03 -0.94810339300E+03  0.15790441403E+04  0.18447003995E+04  0.25500000920E-02 0.  1.
       -2    1    3    3    0  502 -0.10314612498E+03  0.94810339300E+03 -0.64489935474E+03  0.11512750951E+04  0.25500000920E-02 0. -1.
</event>
<event>
 5   0  0.1937947E-05  0.3001957E+04  0.7818609E-02  0.8243172E-01
       -2   -1    0    0    0  501  0.00000000000E+00  0.00000000000E+00  0.17884604017E+04  0.17884604017E+04  0.25500000920E-02 0.  1.
        2   -1    0    0  501    0  0.00000000000E+00  0.00000000000E+00 -0.12597072629E+04  0.12597072629E+04  0.25500000920E-02 0. -1.
    10030    2    1    2    0    0  0.00000000000E+00  0.00000000000E+00  0.52875313881E+03  0.30481676647E+04  0.30019570667E+04 0.  0.
        3    1    3    3  502    0  0.10868636169E+04  0.74714280947E+03  0.99195517756E+03  0.16502939084E+04  0.10100000352E+00 0.  1.
       -3    1    3    3    0  502 -0.10868636169E+04 -0.74714280947E+03 -0.46320203875E+03  0.13978737563E+04  0.10100000352E+00 0. -1.
</event>
<event>
 5   0  0.8122088E-06  0.3007095E+04  0.7818609E-02  0.8241708E-01
        1   -1    0    0  501    0  0.00000000000E+00  0.00000000000E+00  0.13772457957E+04  0.13772457958E+04  0.50400001928E-02 0.  1.
       -1   -1    0    0    0  501  0.00000000000E+00  0.00000000000E+00 -0.16414313728E+04  0.16414313728E+04  0.50400001928E-02 0. -1.
    10030    2    1    2    0    0  0.00000000000E+00  0.00000000000E+00 -0.26418557702E+03  0.30186771685E+04  0.30070945826E+04 0.  0.
        1    1    3    3  502    0  0.72834149049E+03  0.11065240607E+04  0.58182695371E+03  0.14468584685E+04  0.50400001928E-02 0.  1.
       -1    1    3    3    0  502 -0.72834149049E+03 -0.11065240607E+04 -0.84601253073E+03  0.15718187001E+04  0.50400001928E-02 0. -1.
</event>
<event>
 5   0  0.1829810E-05  0.2905208E+04  0.7818609E-02  0.8271330E-01
        2   -1    0    0  501    0  0.00000000000E+00  0.00000000000E+00  0.16431728332E+04  0.16431728332E+04  0.25500000920E-02 0. -1.
       -2   -1    0    0    0  501  0.00000000000E+00  0.00000000000E+00 -0.12841366593E+04  0.12841366593E+04  0.25500000920E-02 0.  1.
    10030    2    1    2    0    0  0.00000000000E+00  0.00000000000E+00  0.35903617390E+03  0.29273094925E+04  0.29052080632E+04 0.  0.
        4    1    3    3  502    0 -0.11108635305E+04 -0.91287113360E+03  0.38774297795E+03  0.14891936475E+04  0.12699999809E+01 0. -1.
       -4    1    3    3    0  502  0.11108635305E+04  0.91287113360E+03 -0.28706804057E+02  0.14381158450E+04  0.12699999809E+01 0.  1.
</event>
<event>
 5   0  0.6578125E-06  0.2813815E+04  0.7818609E-02  0.8298992E-01
       -3   -1    0    0    0  501  0.00000000000E+00  0.00000000000E+00  0.16731482157E+04  0.16731482187E+04  0.10100000352E+00 0.  1.
        3   -1    0    0  501    0  0.00000000000E+00  0.00000000000E+00 -0.11830328077E+04  0.11830328120E+04  0.10100000352E+00 0. -1.
    10030    2    1    2    0    0  0.00000000000E+00  0.00000000000E+00  0.49011540797E+03  0.28561810307E+04  0.28138153755E+04 0.  0.
        4    1    3    3  502    0 -0.35720475012E+03 -0.63698839443E+03 -0.97556097633E+03  0.12186345964E+04  0.12699999809E+01 0. -1.
       -4    1    3    3    0  502  0.35720475012E+03  0.63698839443E+03  0.14656763843E+04  0.16375464343E+04  0.12699999809E+01 0.  1.
</event>
<event>
 5   0  0.1960961E-05  0.2708524E+04  0.7818609E-02  0.8332244E-01
        2   -1    0    0  501    0  0.00000000000E+00  0.00000000000E+00  0.14375736040E+04  0.14375736040E+04  0.25500000920E-02 0.  1.
       -2   -1    0    0    0  501  0.00000000000E+00  0.00000000000E+00 -0.12757788218E+04  0.12757788218E+04  0.25500000920E-02 0. -1.
    10030    2    1    2    0    0  0.00000000000E+00  0.00000000000E+00  0.16179478212E+03  0.27133524258E+04  0.27085242910E+04 0.  0.
        5    1    3    3  502    0 -0.26562641411E+03 -0.11550045486E+04 -0.57556528465E+03  0.13175319298E+04  0.46999998093E+01 0. -1.
       -5    1    3    3    0  502  0.26562641411E+03  0.11550045486E+04  0.73736006677E+03  0.13958204960E+04  0.46999998093E+01 0.  1.
</event>
<event>
 5   0  0.1829810E-05  0.2927200E+04  0.7818609E-02  0.8264830E-01
        2   -1    0    0  501    0  0.00000000000E+00  0.00000000000E+00  0.24768019677E+04  0.24768019677E+04  0.25500000920E-02 0. -1.
       -2   -1    0    0    0  501  0.00000000000E+00  0.00000000000E+00 -0.86487521228E+03  0.86487521228E+03  0.25500000920E-02 0.  1.
    10030    2    1    2    0    0  0.00000000000E+00  0.00000000000E+00  0.16119267554E+04  0.33416771800E+04  0.29271997729E+04 0.  0.
        4    1    3    3  502    0 -0.85011951814E+03 -0.78969680498E+03  0.18243525273E+04  0.21620795535E+04  0.12699999809E+01 0. -1.
       -4    1    3    3    0  502  0.85011951814E+03  0.78969680498E+03 -0.21242577189E+03  0.11795976265E+04  0.12699999809E+01 0.  1.
</event>
<event>
 5   0  0.1937947E-05  0.1784858E+04  0.7818609E-02  0.8714394E-01
       -2   -1    0    0    0  501  0.00000000000E+00  0.00000000000E+00  0.47295258997E+03  0.47295258998E+03  0.25500000920E-02 0.  1.
        2   -1    0    0  501    0  0.00000000000E+00  0.00000000000E+00 -0.16839513097E+04  0.16839513097E+04  0.25500000920E-02 0. -1.
    10030    2    1    2    0    0  0.00000000000E+00  0.00000000000E+00 -0.12109987197E+04  0.21569038997E+04  0.17848575667E+04 0.  0.
        3    1    3    3  502    0  0.33267643033E+03 -0.34205757071E+03  0.30585809529E+03  0.56676818332E+03  0.10100000352E+00 0.  1.
       -3    1    3    3    0  502 -0.33267643033E+03  0.34205757071E+03 -0.15168568150E+04  0.15901357164E+04  0.10100000352E+00 0. -1.
</event>
<event>
 5   0  0.1937947E-05  0.2816008E+04  0.7818609E-02  0.8298316E-01
        2   -1    0    0  501    0  0.00000000000E+00  0.00000000000E+00  0.17173515721E+04  0.17173515721E+04  0.25500000920E-02 0.  1.
       -2   -1    0    0    0  501  0.00000000000E+00  0.00000000000E+00 -0.11543790172E+04  0.11543790172E+04  0.25500000920E-02 0. -1.
    10030    2    1    2    0    0  0.00000000000E+00  0.00000000000E+00  0.56297255496E+03  0.28717305893E+04  0.28160075426E+04 0.  0.
        3    1    3    3  502    0  0.14938155714E+03 -0.82439447857E+03 -0.87251251254E+03  0.12096359786E+04  0.10100000352E+00 0. -1.
       -3    1    3    3    0  502 -0.14938155714E+03  0.82439447857E+03  0.14354850675E+04  0.16620946108E+04  0.10100000352E+00 0.  1.
</event>
<event>
 5   0  0.1829810E-05  0.1886260E+04  0.7818609E-02  0.8661726E-01
        2   -1    0    0  501    0  0.00000000000E+00  0.00000000000E+00  0.16188018976E+04  0.16188018976E+04  0.25500000920E-02 0.  1.
       -2   -1    0    0    0  501  0.00000000000E+00  0.00000000000E+00 -0.54947696467E+03  0.54947696467E+03  0.25500000920E-02 0. -1.
    10030    2    1    2    0    0  0.00000000000E+00  0.00000000000E+00  0.10693249330E+04  0.21682788623E+04  0.18862601656E+04 0.  0.
        4    1    3    3  502    0 -0.93786297725E+03 -0.42558687484E+02  0.43124128977E+03  0.10331354552E+04  0.12699999809E+01 0. -1.
       -4    1    3    3    0  502  0.93786297725E+03  0.42558687484E+02  0.63808364320E+03  0.11351434071E+04  0.12699999809E+01 0.  1.
</event>
<event>
 5   0  0.1937947E-05  0.2929080E+04  0.7818609E-02  0.8264278E-01
       -2   -1    0    0    0  501  0.00000000000E+00  0.00000000000E+00  0.10928760051E+04  0.10928760051E+04  0.25500000920E-02 0. -1.
        2   -1    0    0  501    0  0.00000000000E+00  0.00000000000E+00 -0.19625985027E+04  0.19625985027E+04  0.25500000920E-02 0.  1.
    10030    2    1    2    0    0  0.00000000000E+00  0.00000000000E+00 -0.86972249762E+03  0.30554745079E+04  0.29290795901E+04 0.  0.
        3    1    3    3  502    0  0.20931315834E+03  0.10016326300E+04  0.65810937042E+03  0.12166297208E+04  0.10100000352E+00 0. -1.
       -3    1    3    3    0  502 -0.20931315834E+03 -0.10016326300E+04 -0.15278318680E+04  0.18388447871E+04  0.10100000352E+00 0.  1.
</event>
<event>
 5   0  0.7971153E-06  0.1555205E+04  0.7818609E-02  0.8848550E-01
        1   -1    0    0  501    0  0.00000000000E+00  0.00000000000E+00  0.23295845856E+04  0.23295845856E+04  0.50400001928E-02 0.  1.
       -1   -1    0    0    0  501  0.00000000000E+00  0.00000000000E+00 -0.25955953201E+03  0.25955953206E+03  0.50400001928E-02 0. -1.
    10030    2    1    2    0    0  0.00000000000E+00  0.00000000000E+00  0.20700250536E+04  0.25891441176E+04  0.15552053046E+04 0.  0.
        5    1    3    3  502    0 -0.84900596175E+02  0.52239086391E+03  0.19834417628E+04  0.20528428197E+04  0.46999998093E+01 0.  1.
       -5    1    3    3    0  502  0.84900596175E+02 -0.52239086391E+03  0.86583290760E+02  0.53630129794E+03  0.46999998093E+01 0. -1.
</event>
<event>
 5   0  0.1918901E-05  0.2340380E+04  0.7818609E-02  0.8462168E-01
        2   -1    0    0  501    0  0.00000000000E+00  0.00000000000E+00  0.23621486836E+04  0.23621486837E+04  0.25500000920E-02 0. -1.
       -2   -1    0    0    0  501  0.00000000000E+00  0.00000000000E+00 -0.57970274058E+03  0.57970274059E+03  0.25500000920E-02 0.  1.
    10030    2    1    2    0    0  0.00000000000E+00  0.00000000000E+00  0.17824459431E+04  0.29418514242E+04  0.23403795125E+04 0.  0.
        1    1    3    3  502    0 -0.10444263383E+04 -0.41608939574E+03  0.12992872656E+04  0.17181688392E+04  0.50400001928E-02 0. -1.
       -1    1    3    3    0  502  0.10444263383E+04  0.41608939574E+03  0.48315867748E+03  0.12236825851E+04  0.50400001928E-02 0.  1.
</event>
<event>
 5   0  0.8234888E-06  0.2937274E+04  0.7818609E-02  0.8261873E-01
        1   -1    0    0  501    0  0.00000000000E+00  0.00000000000E+00  0.30772471180E+04  0.30772471180E+04  0.50400001928E-02 0.  1.
       -1   -1    0    0    0  501  0.00000000000E+00  0.00000000000E+00 -0.70091686838E+03  0.70091686840E+03  0.50400001928E-02 0. -1.
    10030    2    1    2    0    0  0.00000000000E+00  0.00000000000E+00  0.23763302496E+04  0.37781639864E+04  0.29372738471E+04 0.  0.
        3    1    3    3  502    0 -0.26225779667E+03  0.13182326728E+04  0.19495507980E+04  0.23679663967E+04  0.10100000352E+00 0. -1.
       -3    1    3    3    0  502  0.26225779667E+03 -0.13182326728E+04  0.42677945157E+03  0.14101975897E+04  0.10100000352E+00 0.  1.
</event>
<event>
 5   0  0.1829810E-05  0.2916188E+04  0.7818609E-02  0.8268077E-01
        2   -1    0    0  501    0  0.00000000000E+00  0.00000000000E+00  0.64050811845E+03  0.64050811845E+03  0.25500000920E-02 0. -1.
       -2   -1    0    0    0  501  0.00000000000E+00  0.00000000000E+00 -0.33192997138E+04  0.33192997138E+04  0.25500000920E-02 0.  1.
    10030    2    1    2    0    0  0.00000000000E+00  0.00000000000E+00 -0.26787915953E+04  0.39598078322E+04  0.29161882067E+04 0.  0.
        4    1    3    3  502    0 -0.17899805118E+03 -0.35492942706E+03 -0.32443015420E+04  0.32685637991E+04  0.12699999809E+01 0.  1.
       -4    1    3    3    0  502  0.17899805118E+03  0.35492942706E+03  0.56550994672E+03  0.69124403307E+03  0.12699999809E+01 0. -1.
</event>
<event>
 5   0  0.1829810E-05  0.2871429E+04  0.7818609E-02  0.8281429E-01
        2   -1    0    0  501    0  0.00000000000E+00  0.00000000000E+00  0.22708795976E+04  0.22708795976E+04  0.25500000920E-02 0. -1.
       -2   -1    0    0    0  501  0.00000000000E+00  0.00000000000E+00 -0.90769919047E+03  0.90769919047E+03  0.25500000920E-02 0.  1.
    10030    2    1    2    0    0  0.00000000000E+00  0.00000000000E+00  0.13631804072E+04  0.31785787881E+04  0.28714286148E+04 0.  0.
        4    1    3    3  502    0 -0.52702282095E+03  0.16068357754E+03  0.21491896609E+04  0.22186910729E+04  0.12699999809E+01 0. -1.
       -4    1    3    3    0  502  0.52702282095E+03 -0.16068357754E+03 -0.78600925371E+03  0.95988771516E+03  0.12699999809E+01 0.  1.
</event>
<event>
 5   0  0.1829810E-05  0.2800674E+04  0.7818609E-02  0.8303059E-01
        2   -1    0    0  501    0  0.00000000000E+00  0.00000000000E+00  0.19463529336E+04  0.19463529336E+04  0.25500000920E-02 0. -1.
       -2   -1    0    0    0  501  0.00000000000E+00  0.00000000000E+00 -0.10074966468E+04  0.10074966468E+04  0.25500000920E-02 0.  1.
    10030    2    1    2    0    0  0.00000000000E+00  0.00000000000E+00  0.93885628679E+03  0.29538495803E+04  0.28006742431E+04 0.  0.
        4    1    3    3  502    0 -0.83552463587E+02  0.13975044800E+04  0.50181003638E+03  0.14872171029E+04  0.12699999809E+01 0.  1.
       -4    1    3    3    0  502  0.83552463587E+02 -0.13975044800E+04  0.43704625041E+03  0.14666324774E+04  0.12699999809E+01 0. -1.
</event>
<event>
 5   0  0.1918901E-05  0.2866728E+04  0.7818609E-02  0.8282846E-01
       -2   -1    0    0    0  501  0.00000000000E+00  0.00000000000E+00  0.13670451610E+04  0.13670451610E+04  0.25500000920E-02 0. -1.
        2   -1    0    0  501    0  0.00000000000E+00  0.00000000000E+00 -0.15029002251E+04  0.15029002251E+04  0.25500000920E-02 0.  1.
    10030    2    1    2    0    0  0.00000000000E+00  0.00000000000E+00 -0.13585506414E+03  0.28699453861E+04  0.28667280863E+04 0.  0.
        1    1    3    3  502    0  0.57052680957E+03 -0.13039242793E+04 -0.23786229404E+03  0.14430169221E+04  0.50400001928E-02 0.  1.
       -1    1    3    3    0  502 -0.57052680957E+03  0.13039242793E+04  0.10200722990E+03  0.14269284640E+04  0.50400001928E-02 0. -1.
</event>
<event>
 5   0  0.7305460E-06  0.1467516E+04  0.7818609E-02  0.8906346E-01
       -1   -1    0    0    0  501  0.00000000000E+00  0.00000000000E+00  0.72193476359E+03  0.72193476361E+03  0.50400001928E-02 0.  1.
        1   -1    0    0  501    0  0.00000000000E+00  0.00000000000E+00 -0.74577517345E+03  0.74577517346E+03  0.50400001928E-02 0. -1.
    10030    2    1    2    0    0  0.00000000000E+00  0.00000000000E+00 -0.23840409856E+02  0.14677099371E+04  0.14675163012E+04 0.  0.
        4    1    3    3  502    0 -0.60783850991E+03  0.20939717248E+03  0.34179944704E+03  0.72810940447E+03  0.12699999809E+01 0.  1.
       -4    1    3    3    0  502  0.60783850991E+03 -0.20939717248E+03 -0.36563985690E+03  0.73960053260E+03  0.12699999809E+01 0. -1.
</event>
<event>
 5   0  0.7971153E-06  0.2887572E+04  0.7818609E-02  0.8276585E-01
       -1   -1    0    0    0  501  0.00000000000E+00  0.00000000000E+00  0.10409793323E+04  0.10409793323E+04  0.50400001928E-02 0.  1.
        1   -1    0    0  501    0  0.00000000000E+00  0.00000000000E+00 -0.20024580649E+04  0.20024580649E+04  0.50400001928E-02 0. -1.
    10030    2    1    2    0    0  0.00000000000E+00  0.00000000000E+00 -0.96147873265E+03  0.30434373972E+04  0.28875716160E+04 0.  0.
        5    1    3    3  502    0  0.30322885618E+03 -0.83347221404E+03  0.71999651795E+03  0.11423838001E+04  0.46999998093E+01 0.  1.
       -5    1    3    3    0  502 -0.30322885618E+03  0.83347221404E+03 -0.16814752506E+04  0.19010535971E+04  0.46999998093E+01 0. -1.
</event>
<event>
 5   0  0.1829810E-05  0.2779647E+04  0.7818609E-02  0.8309615E-01
       -2   -1    0    0    0  501  0.00000000000E+00  0.00000000000E+00  0.22187922220E+04  0.22187922220E+04  0.25500000920E-02 0. -1.
        2   -1    0    0  501    0  0.00000000000E+00  0.00000000000E+00 -0.87056806298E+03  0.87056806298E+03  0.25500000920E-02 0.  1.
    10030    2    1    2    0    0  0.00000000000E+00  0.00000000000E+00  0.13482241590E+04  0.30893602850E+04  0.27796472056E+04 0.  0.
        4    1    3    3  502    0 -0.47006094296E+03  0.10512638089E+04 -0.19072482651E+03  0.11672576658E+04  0.12699999809E+01 0.  1.
       -4    1    3    3    0  502  0.47006094296E+03 -0.10512638089E+04  0.15389489855E+04  0.19221026192E+04  0.12699999809E+01 0. -1.
</event>
<event>
 5   0  0.1918901E-05  0.2926135E+04  0.7818609E-02  0.8265144E-01
       -2   -1    0    0    0  501  0.00000000000E+00  0.00000000000E+00  0.10653068310E+04  0.10653068310E+04  0.25500000920E-02 0.  1.
        2   -1    0    0  501    0  0.00000000000E+00  0.00000000000E+00 -0.20093430220E+04  0.20093430220E+04  0.25500000920E-02 0. -1.
    10030    2    1    2    0    0  0.00000000000E+00  0.00000000000E+00 -0.94403619100E+03  0.30746498530E+04  0.29261352308E+04 0.  0.
        1    1    3    3  502    0 -0.39610883175E+03  0.14019427659E+04 -0.33018132787E+03  0.14937755637E+04  0.50400001928E-02 0. -1.
       -1    1    3    3    0  502  0.39610883175E+03 -0.14019427659E+04 -0.61385486314E+03  0.15808742893E+04  0.50400001928E-02 0.  1.
</event>
<event>
 5   0  0.1976233E-05  0.2852879E+04  0.7818609E-02  0.8287037E-01
       -2   -1    0    0    0  501  0.00000000000E+00  0.00000000000E+00  0.12496104375E+04  0.12496104375E+04  0.25500000920E-02 0. -1.
        2   -1    0    0  501    0  0.00000000000E+00  0.00000000000E+00 -0.16282913093E+04  0.16282913093E+04  0.25500000920E-02 0.  1.
    10030    2    1    2    0    0  0.00000000000E+00  0.00000000000E+00 -0.37868087182E+03  0.28779017469E+04  0.28528791180E+04 0.  0.
        2    1    3    3  502    0 -0.86455718653E+02  0.10940234377E+04  0.72989737459E+03  0.13179954670E+04  0.25500000920E-02 0. -1.
       -2    1    3    3    0  502  0.86455718653E+02 -0.10940234377E+04 -0.11085782464E+04  0.15599062799E+04  0.25500000920E-02 0.  1.
</event>
<event>
 5   0  0.1960961E-05  0.2867118E+04  0.7818609E-02  0.8282729E-01
        2   -1    0    0  501    0  0.00000000000E+00  0.00000000000E+00  0.21118433674E+04  0.21118433674E+04  0.25500000920E-02 0. -1.
       -2   -1    0    0    0  501  0.00000000000E+00  0.00000000000E+00 -0.97312652102E+03  0.97312652102E+03  0.25500000920E-02 0.  1.
    10030    2    1    2    0    0  0.00000000000E+00  0.00000000000E+00  0.11387168464E+04  0.30849698885E+04  0.28671175693E+04 0.  0.
        5    1    3    3  502    0  0.52750763394E+03  0.99291296245E+02 -0.86090825548E+03  0.10145482639E+04  0.46999998093E+01 0.  1.
       -5    1    3    3    0  502 -0.52750763394E+03 -0.99291296245E+02  0.19996251019E+04  0.20704216246E+04  0.46999998093E+01 0. -1.
</event>
<event>
 5   0  0.1976233E-05  0.2240980E+04  0.7818609E-02  0.8501562E-01
       -2   -1    0    0    0  501  0.00000000000E+00  0.00000000000E+00  0.90485002156E+03  0.90485002157E+03  0.25500000920E-02 0. -1.
        2   -1    0    0  501    0  0.00000000000E+00  0.00000000000E+00 -0.13875208473E+04  0.13875208473E+04  0.25500000920E-02 0.  1.
    10030    2    1    2    0    0  0.00000000000E+00  0.00000000000E+00 -0.48267082569E+03  0.22923708688E+04  0.22409803824E+04 0.  0.
        2    1    3    3  502    0 -0.66962964747E+03  0.46108605470E+03 -0.10300512906E+04  0.13122537391E+04  0.25500000920E-02 0.  1.
       -2    1    3    3    0  502  0.66962964747E+03 -0.46108605470E+03  0.54738046488E+03  0.98011712971E+03  0.25500000920E-02 0. -1.
</event>
<event>
 5   0  0.8234888E-06  0.2855685E+04  0.7818609E-02  0.8286186E-01
       -1   -1    0    0    0  501  0.00000000000E+00  0.00000000000E+00  0.10281912130E+04  0.10281912130E+04  0.50400001928E-02 0.  1.
        1   -1    0    0  501    0  0.00000000000E+00  0.00000000000E+00 -0.19828360443E+04  0.19828360443E+04  0.50400001928E-02 0. -1.
    10030    2    1    2    0    0  0.00000000000E+00  0.00000000000E+00 -0.95464483133E+03  0.30110272574E+04  0.28556852751E+04 0.  0.
        3    1    3    3  502    0  0.21502830213E+03 -0.13213234552E+04 -0.10009257654E+04  0.16715218341E+04  0.10100000352E+00 0. -1.
       -3    1    3    3    0  502 -0.21502830213E+03  0.13213234552E+04  0.46280934053E+02  0.13395054233E+04  0.10100000352E+00 0.  1.
</event>
<event>
 5   0  0.1918901E-05  0.1656348E+04  0.7818609E-02  0.8786660E-01
        2   -1    0    0  501    0  0.00000000000E+00  0.00000000000E+00  0.10660039689E+04  0.10660039689E+04  0.25500000920E-02 0.  1.
       -2   -1    0    0    0  501  0.00000000000E+00  0.00000000000E+00 -0.64340461143E+03  0.64340461144E+03  0.25500000920E-02 0. -1.
    10030    2    1    2    0    0  0.00000000000E+00  0.00000000000E+00  0.42259935748E+03  0.17094085804E+04  0.16563476319E+04 0.  0.
        1    1    3    3  502    0  0.42952116328E+03  0.58630034120E+03 -0.19845242835E+03  0.75340552569E+03  0.50400001928E-02 0. -1.
       -1    1    3    3    0  502 -0.42952116328E+03 -0.58630034120E+03  0.62105178583E+03  0.95600305466E+03  0.50400001928E-02 0.  1.
</event>
<event>
 5   0  0.8055928E-06  0.2923533E+04  0.7818609E-02  0.8265910E-01
        1   -1    0    0  501    0  0.00000000000E+00  0.00000000000E+00  0.24530459767E+04  0.24530459767E+04  0.50400001928E-02 0.  1.
       -1   -1    0    0    0  501  0.00000000000E+00  0.00000000000E+00 -0.87106443230E+03  0.87106443232E+03  0.50400001928E-02 0. -1.
    10030    2    1    2    0    0  0.00000000000E+00  0.00000000000E+00  0.15819815444E+04  0.33241104091E+04  0.29235328636E+04 0.  0.
        2    1    3    3  502    0  0.56047881375E+01 -0.12743082866E+04  0.16052642596E+04  0.20495771189E+04  0.25500000920E-02 0.  1.
       -2    1    3    3    0  502 -0.56047881375E+01  0.12743082866E+04 -0.23282715211E+02  0.12745332902E+04  0.25500000920E-02 0. -1.
</event>
<event>
 5   0  0.7305460E-06  0.2845435E+04  0.7818609E-02  0.8289300E-01
       -1   -1    0    0    0  501  0.00000000000E+00  0.00000000000E+00  0.15636003828E+04  0.15636003828E+04  0.50400001928E-02 0. -1.
        1   -1    0    0  501    0  0.00000000000E+00  0.00000000000E+00 -0.12945283380E+04  0.12945283380E+04  0.50400001928E-02 0.  1.
    10030    2    1    2    0    0  0.00000000000E+00  0.00000000000E+00  0.26907204478E+03  0.28581287207E+04  0.28454349437E+04 0.  0.
        4    1    3    3  502    0  0.80996483321E+03 -0.11121706854E+03 -0.10350083495E+04  0.13189602586E+04  0.12699999809E+01 0.  1.
       -4    1    3    3    0  502 -0.80996483321E+03  0.11121706854E+03  0.13040803942E+04  0.15391684622E+04  0.12699999809E+01 0. -1.
</event>
<event>
 5   0  0.1937947E-05  0.2015478E+04  0.7818609E-02  0.8599418E-01
       -2   -1    0    0    0  501  0.00000000000E+00  0.00000000000E+00  0.13957844205E+04  0.13957844205E+04  0.25500000920E-02 0.  1.
        2   -1    0    0  501    0  0.00000000000E+00  0.00000000000E+00 -0.72757528787E+03  0.72757528787E+03  0.25500000920E-02 0. -1.
    10030    2    1    2    0    0  0.00000000000E+00  0.00000000000E+00  0.66820913267E+03  0.21233597084E+04  0.20154783567E+04 0.  0.
        3    1    3    3  502    0 -0.95724554904E+03  0.30519540131E+03  0.41621860315E+03  0.10875206710E+04  0.10100000352E+00 0.  1.
       -3    1    3    3    0  502  0.95724554904E+03 -0.30519540131E+03  0.25199052951E+03  0.10358390374E+04  0.10100000352E+00 0. -1.
</event>
<event>
 5   0  0.1960961E-05  0.2925350E+04  0.7818609E-02  0.8265375E-01
        2   -1    0    0  501    0  0.00000000000E+00  0.00000000000E+00  0.22417835164E+04  0.22417835165E+04  0.25500000920E-02 0. -1.
       -2   -1    0    0    0  501  0.00000000000E+00  0.00000000000E+00 -0.95433724016E+03  0.95433724016E+03  0.25500000920E-02 0.  1.
    10030    2    1    2    0    0  0.00000000000E+00  0.00000000000E+00  0.12874462763E+04  0.31961207566E+04  0.29253495477E+04 0.  0.
        5    1    3    3  502    0  0.76084815306E+03 -0.43629766471E+03 -0.63515582844E+03  0.10829083898E+04  0.46999998093E+01 0.  1.
       -5    1    3    3    0  502 -0.76084815306E+03  0.43629766471E+03  0.19226021047E+04  0.21132123668E+04  0.46999998093E+01 0. -1.
</event>
<event>
 5   0  0.1960961E-05  0.2747990E+04  0.7818609E-02  0.8319600E-01
        2   -1    0    0  501    0  0.00000000000E+00  0.00000000000E+00  0.14280095400E+04  0.14280095400E+04  0.25500000920E-02 0.  1.
       -2   -1    0    0    0  501  0.00000000000E+00  0.00000000000E+00 -0.13220238108E+04  0.13220238108E+04  0.25500000920E-02 0. -1.
    10030    2    1    2    0    0  0.00000000000E+00  0.00000000000E+00  0.10598572923E+03  0.27500333508E+04  0.27479902576E+04 0.  0.
        5    1    3    3  502    0 -0.49770233995E+03  0.11325022898E+04  0.65141024825E+03  0.13980795604E+04  0.46999998093E+01 0.  1.
       -5    1    3    3    0  502  0.49770233995E+03 -0.11325022898E+04 -0.54542451902E+03  0.13519537905E+04  0.46999998093E+01 0. -1.
</event>
<event>
 5   0  0.1918901E-05  0.2966089E+04  0.7818609E-02  0.8253481E-01
        2   -1    0    0  501    0  0.00000000000E+00  0.00000000000E+00  0.11894188290E+04  0.11894188290E+04  0.25500000920E-02 0. -1.
       -2   -1    0    0    0  501  0.00000000000E+00  0.00000000000E+00 -0.18491556725E+04  0.18491556725E+04  0.25500000920E-02 0.  1.
    10030    2    1    2    0    0  0.00000000000E+00  0.00000000000E+00 -0.65973684351E+03  0.30385745014E+04  0.29660887205E+04 0.  0.
        1    1    3    3  502    0  0.17323735372E+03  0.14540253098E+04 -0.89136803345E+02  0.14670194791E+04  0.50400001928E-02 0. -1.
       -1    1    3    3    0  502 -0.17323735372E+03 -0.14540253098E+04 -0.57060004016E+03  0.15715550223E+04  0.50400001928E-02 0.  1.
</event>
<event>
 5   0  0.7305460E-06  0.2862110E+04  0.7818609E-02  0.8284241E-01
        1   -1    0    0  501    0  0.00000000000E+00  0.00000000000E+00  0.20490918414E+04  0.20490918414E+04  0.50400001928E-02 0.  1.
       -1   -1    0    0    0  501  0.00000000000E+00  0.00000000000E+00 -0.99942728699E+03  0.99942728701E+03  0.50400001928E-02 0. -1.
    10030    2    1    2    0    0  0.00000000000E+00  0.00000000000E+00  0.10496645544E+04  0.30485191284E+04  0.28621099209E+04 0.  0.
        4    1    3    3  502    0  0.12776043644E+03 -0.10329946291E+04 -0.52122952968E+03  0.11640800954E+04  0.12699999809E+01 0. -1.
       -4    1    3    3    0  502 -0.12776043644E+03  0.10329946291E+04  0.15708940841E+04  0.18844390331E+04  0.12699999809E+01 0.  1.
</event>
<event>
 5   0  0.6578125E-06  0.2874280E+04  0.7818609E-02  0.8280571E-01
       -3   -1    0    0    0  501  0.00000000000E+00  0.00000000000E+00  0.14829870037E+04  0.14829870072E+04  0.10100000352E+00 0. -1.
        3   -1    0    0  501    0  0.00000000000E+00  0.00000000000E+00 -0.13927108395E+04  0.13927108432E+04  0.10100000352E+00 0.  1.
    10030    2    1    2    0    0  0.00000000000E+00  0.00000000000E+00  0.90276164233E+02  0.28756978503E+04  0.28742804909E+04 0.  0.
        4    1    3    3  502    0 -0.97771528680E+03 -0.32790410469E+03  0.10465923065E+04  0.14692873623E+04  0.12699999809E+01 0. -1.
       -4    1    3    3    0  502  0.97771528680E+03  0.32790410469E+03 -0.95631614231E+03  0.14064104880E+04  0.12699999809E+01 0.  1.
</event>
<event>
 5   0  0.1960961E-05  0.2317565E+04  0.7818609E-02  0.8471028E-01
       -2   -1    0    0    0  501  0.00000000000E+00  0.00000000000E+00  0.88478961438E+03  0.88478961438E+03  0.25500000920E-02 0.  1.
        2   -1    0    0  501    0  0.00000000000E+00  0.00000000000E+00 -0.15176222249E+04  0.15176222249E+04  0.25500000920E-02 0. -1.
    10030    2    1    2    0    0  0.00000000000E+00  0.00000000000E+00 -0.63283261051E+03  0.24024118393E+04  0.23175645692E+04 0.  0.
        5    1    3    3  502    0 -0.40038822752E+03 -0.70012354171E+03 -0.11789052886E+04  0.14283989204E+04  0.46999998093E+01 0. -1.
       -5    1    3    3    0  502  0.40038822752E+03  0.70012354171E+03  0.54607267806E+03  0.97401291887E+03  0.46999998093E+01 0.  1.
</event>
<event>
 5   0  0.1976233E-05  0.2879436E+04  0.7818609E-02  0.8279022E-01
        2   -1    0    0  501    0  0.00000000000E+00  0.00000000000E+00  0.18355375275E+04  0.18355375276E+04  0.25500000920E-02 0. -1.
       -2   -1    0    0    0  501  0.00000000000E+00  0.00000000000E+00 -0.11292539029E+04  0.11292539029E+04  0.25500000920E-02 0.  1.
    10030    2    1    2    0    0  0.00000000000E+00  0.00000000000E+00  0.70628362465E+03  0.29647914305E+04  0.28794359982E+04 0.  0.
        2    1    3    3  502    0  0.71004079141E+03  0.10581805528E+04 -0.33670670577E+03  0.13180574394E+04  0.25500000920E-02 0.  1.
       -2    1    3    3    0  502 -0.71004079141E+03 -0.10581805528E+04  0.10429903304E+04  0.16467339910E+04  0.25500000920E-02 0. -1.
</event>
<event>
 5   0  0.1937947E-05  0.2831098E+04  0.7818609E-02  0.8293678E-01
        2   -1    0    0  501    0  0.00000000000E+00  0.00000000000E+00  0.16693565644E+04  0.16693565644E+04  0.25500000920E-02 0. -1.
       -2   -1    0    0    0  501  0.00000000000E+00  0.00000000000E+00 -0.12003297879E+04  0.12003297879E+04  0.25500000920E-02 0.  1.
    10030    2    1    2    0    0  0.00000000000E+00  0.00000000000E+00  0.46902677647E+03  0.28696863523E+04  0.28310976040E+04 0.  0.
        3    1    3    3  502    0  0.11384695638E+03  0.42073405656E+03 -0.11306175328E+04  0.12117236861E+04  0.10100000352E+00 0.  1.
       -3    1    3    3    0  502 -0.11384695638E+03 -0.42073405656E+03  0.15996443093E+04  0.16579626661E+04  0.10100000352E+00 0. -1.
</event>
<event>
 5   0  0.8122088E-06  0.3114459E+04  0.7818609E-02  0.8211781E-01
        1   -1    0    0  501    0  0.00000000000E+00  0.00000000000E+00  0.17211624752E+04  0.17211624752E+04  0.50400001928E-02 0.  1.
       -1   -1    0    0    0  501  0.00000000000E+00  0.00000000000E+00 -0.14089099995E+04  0.14089099995E+04  0.50400001928E-02 0. -1.
    10030    2    1    2    0    0  0.00000000000E+00  0.00000000000E+00  0.31225247570E+03  0.31300724747E+04  0.31144585546E+04 0.  0.
        1    1    3    3  502    0  0.11767454861E+03  0.11359446808E+04  0.12200862873E+04  0.16711756837E+04  0.50400001928E-02 0.  1.
       -1    1    3    3    0  502 -0.11767454861E+03 -0.11359446808E+04 -0.90783381158E+03  0.14588967910E+04  0.50400001928E-02 0. -1.
</event>
<event>
 5   0  0.1937947E-05  0.2905155E+04  0.7818609E-02  0.8271345E-01
        2   -1    0    0  501    0  0.00000000000E+00  0.00000000000E+00  0.24027495315E+04  0.24027495315E+04  0.25500000920E-02 0. -1.
       -2   -1    0    0    0  501  0.00000000000E+00  0.00000000000E+00 -0.87815266095E+03  0.87815266096E+03  0.25500000920E-02 0.  1.
    10030    2    1    2    0    0  0.00000000000E+00  0.00000000000E+00  0.15245968705E+04  0.32809021925E+04  0.29051546566E+04 0.  0.
        3    1    3    3  502    0 -0.66325574741E+03  0.57740192269E+03  0.20679813034E+04  0.22471866519E+04  0.10100000352E+00 0. -1.
       -3    1    3    3    0  502  0.66325574741E+03 -0.57740192269E+03 -0.54338443287E+03  0.10337155406E+04  0.10100000352E+00 0.  1.
</event>
<event>
 5   0  0.1960961E-05  0.2695247E+04  0.7818609E-02  0.8336549E-01
       -2   -1    0    0    0  501  0.00000000000E+00  0.00000000000E+00  0.79744393036E+03  0.79744393037E+03  0.25500000920E-02 0. -1.
        2   -1    0    0  501    0  0.00000000000E+00  0.00000000000E+00 -0.22773870834E+04  0.22773870834E+04  0.25500000920E-02 0.  1.
    10030    2    1    2    0    0  0.00000000000E+00  0.00000000000E+00 -0.14799431531E+04  0.30748310138E+04  0.26952465615E+04 0.  0.
        5    1    3    3  502    0  0.23796907835E+03 -0.35311823882E+02  0.77273843401E+03  0.80933490259E+03  0.46999998093E+01 0. -1.
       -5    1    3    3    0  502 -0.23796907835E+03  0.35311823882E+02 -0.22526815871E+04  0.22654961112E+04  0.46999998093E+01 0.  1.
</event>
<event>
 5   0  0.8122088E-06  0.2897082E+04  0.7818609E-02  0.8273746E-01
        1   -1    0    0  501    0  0.00000000000E+00  0.00000000000E+00  0.18612607585E+04  0.18612607585E+04  0.50400001928E-02 0. -1.
       -1   -1    0    0    0  501  0.00000000000E+00  0.00000000000E+00 -0.11273382486E+04  0.11273382486E+04  0.50400001928E-02 0.  1.
    10030    2    1    2    0    0  0.00000000000E+00  0.00000000000E+00  0.73392250993E+03  0.29885990071E+04  0.28970815961E+04 0.  0.
        1    1    3    3  502    0 -0.49651422570E+03 -0.12629204409E+04  0.88969935896E+03  0.16226704427E+04  0.50400001928E-02 0. -1.
       -1    1    3    3    0  502  0.49651422570E+03  0.12629204409E+04 -0.15577684903E+03  0.13659285644E+04  0.50400001928E-02 0.  1.
</event>
<event>
 5   0  0.8055928E-06  0.1873053E+04  0.7818609E-02  0.8668387E-01
       -1   -1    0    0    0  501  0.00000000000E+00  0.00000000000E+00  0.52850519966E+03  0.52850519968E+03  0.50400001928E-02 0.  1.
        1   -1    0    0  501    0  0.00000000000E+00  0.00000000000E+00 -0.16595522798E+04  0.16595522798E+04  0.50400001928E-02 0. -1.
    10030    2    1    2    0    0  0.00000000000E+00  0.00000000000E+00 -0.11310470801E+04  0.21880574795E+04  0.18730531322E+04 0.  0.
        2    1    3    3  502    0  0.46735219675E+03 -0.60882312214E+02  0.37987540974E+03  0.60533466667E+03  0.25500000920E-02 0.  1.
       -2    1    3    3    0  502 -0.46735219675E+03  0.60882312214E+02 -0.15109224899E+04  0.15827228128E+04  0.25500000920E-02 0. -1.
</event>
<event>
 5   0  0.1829810E-05  0.2809393E+04  0.7818609E-02  0.8300358E-01
       -2   -1    0    0    0  501  0.00000000000E+00  0.00000000000E+00  0.12765305591E+04  0.12765305591E+04  0.25500000920E-02 0.  1.
        2   -1    0    0  501    0  0.00000000000E+00  0.00000000000E+00 -0.15457309498E+04  0.15457309498E+04  0.25500000920E-02 0. -1.
    10030    2    1    2    0    0  0.00000000000E+00  0.00000000000E+00 -0.26920039073E+03  0.28222615089E+04  0.28093933819E+04 0.  0.
        4    1    3    3  502    0 -0.41436181994E+02  0.12659168236E+03  0.12701713378E+04  0.12771371311E+04  0.12699999809E+01 0.  1.
       -4    1    3    3    0  502  0.41436181994E+02 -0.12659168236E+03 -0.15393717286E+04  0.15451243778E+04  0.12699999809E+01 0. -1.
</event>
<event>
 5   0  0.1829810E-05  0.2924927E+04  0.7818609E-02  0.8265500E-01
       -2   -1    0    0    0  501  0.00000000000E+00  0.00000000000E+00  0.15054646873E+04  0.15054646873E+04  0.25500000920E-02 0.  1.
        2   -1    0    0  501    0  0.00000000000E+00  0.00000000000E+00 -0.14206901411E+04  0.14206901411E+04  0.25500000920E-02 0. -1.
    10030    2    1    2    0    0  0.00000000000E+00  0.00000000000E+00  0.84774546159E+02  0.29261548284E+04  0.29249265557E+04 0.  0.
        4    1    3    3  502    0 -0.90431942340E+03 -0.63387086786E+03 -0.91677043327E+03  0.14352893565E+04  0.12699999809E+01 0. -1.
       -4    1    3    3    0  502  0.90431942340E+03  0.63387086786E+03  0.10015449794E+04  0.14908654719E+04  0.12699999809E+01 0.  1.
</event>
<event>
 5   0  0.1976233E-05  0.2668524E+04  0.7818609E-02  0.8345291E-01
       -2   -1    0    0    0  501  0.00000000000E+00  0.00000000000E+00  0.14148532819E+04  0.14148532819E+04  0.25500000920E-02 0.  1.
        2   -1    0    0  501    0  0.00000000000E+00  0.00000000000E+00 -0.12582613182E+04  0.12582613182E+04  0.25500000920E-02 0. -1.
    10030    2    1    2    0    0  0.00000000000E+00  0.00000000000E+00  0.15659196371E+03  0.26731146000E+04  0.26685240531E+04 0.  0.
        2    1    3    3  502    0 -0.66808780479E+03 -0.24055895311E+03  0.12098609416E+04  0.14028447608E+04  0.25500000920E-02 0.  1.
       -2    1    3    3    0  502  0.66808780479E+03  0.24055895311E+03 -0.10532689779E+04  0.12702698393E+04  0.25500000920E-02 0. -1.
</event>
<event>
 5   0  0.1918901E-05  0.2934128E+04  0.7818609E-02  0.8262795E-01
        2   -1    0    0  501    0  0.00000000000E+00  0.00000000000E+00  0.14687894540E+04  0.14687894540E+04  0.25500000920E-02 0.  1.
       -2   -1    0    0    0  501  0.00000000000E+00  0.00000000000E+00 -0.14653408157E+04  0.14653408157E+04  0.25500000920E-02 0. -1.
    10030    2    1    2    0    0  0.00000000000E+00  0.00000000000E+00  0.34486382890E+01  0.29341302697E+04  0.29341282430E+04 0.  0.
        1    1    3    3  502    0  0.80137966853E+03 -0.36441292831E+03 -0.11718483815E+04  0.14656857729E+04  0.50400001928E-02 0. -1.
       -1    1    3    3    0  502 -0.80137966853E+03  0.36441292831E+03  0.11752970198E+04  0.14684444968E+04  0.50400001928E-02 0.  1.
</event>
<event>
 5   0  0.1829810E-05  0.2588263E+04  0.7818609E-02  0.8372199E-01
        2   -1    0    0  501    0  0.00000000000E+00  0.00000000000E+00  0.17579770620E+04  0.17579770620E+04  0.25500000920E-02 0.  1.
       -2   -1    0    0    0  501  0.00000000000E+00  0.00000000000E+00 -0.95267264179E+03  0.95267264180E+03  0.25500000920E-02 0. -1.
    10030    2    1    2    0    0  0.00000000000E+00  0.00000000000E+00  0.80530442018E+03  0.27106497038E+04  0.25882632415E+04 0.  0.
        4    1    3    3  502    0 -0.35987444660E+03  0.62025418310E+03  0.15308803115E+04  0.16905090978E+04  0.12699999809E+01 0.  1.
       -4    1    3    3    0  502  0.35987444660E+03 -0.62025418310E+03 -0.72557589128E+03  0.10201406059E+04  0.12699999809E+01 0. -1.
</event>
<event>
 5   0  0.1937947E-05  0.1740497E+04  0.7818609E-02  0.8738599E-01
       -2   -1    0    0    0  501  0.00000000000E+00  0.00000000000E+00  0.88087225489E+03  0.88087225489E+03  0.25500000920E-02 0. -1.
        2   -1    0    0  501    0  0.00000000000E+00  0.00000000000E+00 -0.85975268150E+03  0.85975268151E+03  0.25500000920E-02 0.  1.
    10030    2    1    2    0    0  0.00000000000E+00  0.00000000000E+00  0.21119573382E+02  0.17406249364E+04  0.17404968063E+04 0.  0.
        3    1    3    3  502    0 -0.71762528115E+03  0.41928266420E+02 -0.47997428285E+03  0.86436065741E+03  0.10100000352E+00 0.  1.
       -3    1    3    3    0  502  0.71762528115E+03 -0.41928266420E+02  0.50109385623E+03  0.87626427899E+03  0.10100000352E+00 0. -1.
</event>
<event>
 5   0  0.8234888E-06  0.2824658E+04  0.7818609E-02  0.8295654E-01
       -1   -1    0    0    0  501  0.00000000000E+00  0.00000000000E+00  0.11261734238E+04  0.11261734238E+04  0.50400001928E-02 0.  1.
        1   -1    0    0  501    0  0.00000000000E+00  0.00000000000E+00 -0.17711952271E+04  0.17711952271E+04  0.50400001928E-02 0. -1.
    10030    2    1    2    0    0  0.00000000000E+00  0.00000000000E+00 -0.64502180337E+03  0.28973686509E+04  0.28246578505E+04 0.  0.
        3    1    3    3  502    0 -0.21850015052E+03 -0.12133545933E+04  0.38421029443E+03  0.12913517125E+04  0.10100000352E+00 0.  1.
       -3    1    3    3    0  502  0.21850015052E+03  0.12133545933E+04 -0.10292320978E+04  0.16060169384E+04  0.10100000352E+00 0. -1.
</event>
<event>
 5   0  0.8234888E-06  0.2836456E+04  0.7818609E-02  0.8292039E-01
        1   -1    0    0  501    0  0.00000000000E+00  0.00000000000E+00  0.31097993672E+04  0.31097993672E+04  0.50400001928E-02 0.  1.
       -1   -1    0    0    0  501  0.00000000000E+00  0.00000000000E+00 -0.64678466753E+03  0.64678466755E+03  0.50400001928E-02 0. -1.
    10030    2    1    2    0    0  0.00000000000E+00  0.00000000000E+00  0.24630146997E+04  0.37565840348E+04  0.28364559224E+04 0.  0.
        3    1    3    3  502    0 -0.89238214385E+02  0.12284372768E+04  0.21626878481E+04  0.24888230834E+04  0.10100000352E+00 0.  1.
       -3    1    3    3    0  502  0.89238214385E+02 -0.12284372768E+04  0.30032685161E+03  0.12677609514E+04  0.10100000352E+00 0. -1.
</event>
<event>
 5   0  0.7305460E-06  0.2917926E+04  0.7818609E-02  0.8267564E-01
       -1   -1    0    0    0  501  0.00000000000E+00  0.00000000000E+00  0.93702678842E+03  0.93702678844E+03  0.50400001928E-02 0. -1.
        1   -1    0    0  501    0  0.00000000000E+00  0.00000000000E+00 -0.22716251324E+04  0.22716251324E+04  0.50400001928E-02 0.  1.
    10030    2    1    2    0    0  0.00000000000E+00  0.00000000000E+00 -0.13345983440E+04  0.32086519209E+04  0.29179263886E+04 0.  0.
        4    1    3    3  502    0  0.41766077243E+03 -0.51912129095E+03 -0.20945569431E+04  0.21979758498E+04  0.12699999809E+01 0.  1.
       -4    1    3    3    0  502 -0.41766077243E+03  0.51912129095E+03  0.75995859905E+03  0.10106760711E+04  0.12699999809E+01 0. -1.
</event>
<event>
 5   0  0.8122088E-06  0.2710176E+04  0.7818609E-02  0.8331711E-01
       -1   -1    0    0    0  501  0.00000000000E+00  0.00000000000E+00  0.13026393378E+04  0.13026393378E+04  0.50400001928E-02 0. -1.
        1   -1    0    0  501    0  0.00000000000E+00  0.00000000000E+00 -0.14096479933E+04  0.14096479933E+04  0.50400001928E-02 0.  1.
    10030    2    1    2    0    0  0.00000000000E+00  0.00000000000E+00 -0.10700865548E+03  0.27122873312E+04  0.27101755874E+04 0.  0.
        1    1    3    3  502    0  0.22476405037E+03  0.11898425322E+04  0.55526135290E+03  0.13321258573E+04  0.50400001928E-02 0. -1.
       -1    1    3    3    0  502 -0.22476405037E+03 -0.11898425322E+04 -0.66227000838E+03  0.13801614738E+04  0.50400001928E-02 0.  1.
</event>
<event>
 5   0  0.1918901E-05  0.2944997E+04  0.7818609E-02  0.8259614E-01
       -2   -1    0    0    0  501  0.00000000000E+00  0.00000000000E+00  0.94987231728E+03  0.94987231729E+03  0.25500000920E-02 0.  1.
        2   -1    0    0  501    0  0.00000000000E+00  0.00000000000E+00 -0.22826767439E+04  0.22826767439E+04  0.25500000920E-02 0. -1.
    10030    2    1    2    0    0  0.00000000000E+00  0.00000000000E+00 -0.13328044266E+04  0.32325490611E+04  0.29449967391E+04 0.  0.
        1    1    3    3  502    0  0.86557174008E+03 -0.44777608550E+03 -0.18780574375E+04  0.21158491436E+04  0.50400001928E-02 0. -1.
       -1    1    3    3    0  502 -0.86557174008E+03  0.44777608550E+03  0.54525301089E+03  0.11166999176E+04  0.50400001928E-02 0.  1.
</event>
<event>
 5   0  0.1829810E-05  0.1439764E+04  0.7818609E-02  0.8925528E-01
       -2   -1    0    0    0  501  0.00000000000E+00  0.00000000000E+00  0.35696247245E+03  0.35696247246E+03  0.25500000920E-02 0. -1.
        2   -1    0    0  501    0  0.00000000000E+00  0.00000000000E+00 -0.14517782660E+04  0.14517782660E+04  0.25500000920E-02 0.  1.
    10030    2    1    2    0    0  0.00000000000E+00  0.00000000000E+00 -0.10948157936E+04  0.18087407385E+04  0.14397643686E+04 0.  0.
        4    1    3    3  502    0 -0.31481364151E+03 -0.84019451521E+02 -0.13538368328E+04  0.13924951274E+04  0.12699999809E+01 0.  1.
       -4    1    3    3    0  502  0.31481364151E+03  0.84019451521E+02  0.25902103920E+03  0.41624561110E+03  0.12699999809E+01 0. -1.
</event>
<event>
 5   0  0.1976233E-05  0.2930896E+04  0.7818609E-02  0.8263744E-01
       -2   -1    0    0    0  501  0.00000000000E+00  0.00000000000E+00  0.87454509340E+03  0.87454509340E+03  0.25500000920E-02 0. -1.
        2   -1    0    0  501    0  0.00000000000E+00  0.00000000000E+00 -0.24556049896E+04  0.24556049896E+04  0.25500000920E-02 0.  1.
    10030    2    1    2    0    0  0.00000000000E+00  0.00000000000E+00 -0.15810598962E+04  0.33301500830E+04  0.29308956276E+04 0.  0.
        2    1    3    3  502    0 -0.14471421508E+04  0.49152870250E+02 -0.53418419747E+03  0.15433694199E+04  0.25500000920E-02 0.  1.
       -2    1    3    3    0  502  0.14471421508E+04 -0.49152870250E+02 -0.10468756987E+04  0.17867806631E+04  0.25500000920E-02 0. -1.
</event>
<event>
 5   0  0.7971153E-06  0.1655295E+04  0.7818609E-02  0.8787280E-01
       -1   -1    0    0    0  501  0.00000000000E+00  0.00000000000E+00  0.34439377988E+03  0.34439377992E+03  0.50400001928E-02 0.  1.
        1   -1    0    0  501    0  0.00000000000E+00  0.00000000000E+00 -0.19890034853E+04  0.19890034854E+04  0.50400001928E-02 0. -1.
    10030    2    1    2    0    0  0.00000000000E+00  0.00000000000E+00 -0.16446097055E+04  0.23333972653E+04  0.16552950535E+04 0.  0.
        5    1    3    3  502    0 -0.70825127738E+03 -0.55041442793E+01 -0.21873454029E+03  0.74129417685E+03  0.46999998093E+01 0.  1.
       -5    1    3    3    0  502  0.70825127738E+03  0.55041442793E+01 -0.14258751652E+04  0.15921030884E+04  0.46999998093E+01 0. -1.
</event>
<event>
 5   0  0.8234888E-06  0.2991506E+04  0.7818609E-02  0.8246161E-01
       -1   -1    0    0    0  501  0.00000000000E+00  0.00000000000E+00  0.12043966842E+04  0.12043966842E+04  0.50400001928E-02 0. -1.
        1   -1    0    0  501    0  0.00000000000E+00  0.00000000000E+00 -0.18575917260E+04  0.18575917260E+04  0.50400001928E-02 0.  1.
    10030    2    1    2    0    0  0.00000000000E+00  0.00000000000E+00 -0.65319504180E+03  0.30619884102E+04  0.29915061861E+04 0.  0.
        3    1    3    3  502    0  0.14096778414E+04  0.49315772679E+03 -0.24169042283E+03  0.15128814992E+04  0.10100000352E+00 0. -1.
       -3    1    3    3    0  502 -0.14096778414E+04 -0.49315772679E+03 -0.41150461896E+03  0.15491069110E+04  0.10100000352E+00 0.  1.
</event>
<event>
 5   0  0.1918901E-05  0.2864167E+04  0.7818609E-02  0.8283619E-01
       -2   -1    0    0    0  501  0.00000000000E+00  0.00000000000E+00  0.84374776021E+03  0.84374776021E+03  0.25500000920E-02 0.  1.
        2   -1    0    0  501    0  0.00000000000E+00  0.00000000000E+00 -0.24306596912E+04  0.24306596912E+04  0.25500000920E-02 0. -1.
    10030    2    1    2    0    0  0.00000000000E+00  0.00000000000E+00 -0.15869119309E+04  0.32744074514E+04  0.28641673626E+04 0.  0.
        1    1    3    3  502    0 -0.11983438607E+04  0.77408497819E+02 -0.16855018542E+04  0.20695256907E+04  0.50400001928E-02 0. -1.
       -1    1    3    3    0  502  0.11983438607E+04 -0.77408497819E+02  0.98589923254E+02  0.12048817606E+04  0.50400001928E-02 0.  1.
</event>
<event>
 5   0  0.7305460E-06  0.2060442E+04  0.7818609E-02  0.8578872E-01
       -1   -1    0    0    0  501  0.00000000000E+00  0.00000000000E+00  0.79615976883E+03  0.79615976885E+03  0.50400001928E-02 0. -1.
        1   -1    0    0  501    0  0.00000000000E+00  0.00000000000E+00 -0.13330928675E+04  0.13330928675E+04  0.50400001928E-02 0.  1.
    10030    2    1    2    0    0  0.00000000000E+00  0.00000000000E+00 -0.53693309868E+03  0.21292526364E+04  0.20604416121E+04 0.  0.
        4    1    3    3  502    0 -0.52548267684E+03  0.72750235579E+03 -0.79128904806E+03  0.11964663354E+04  0.12699999809E+01 0.  1.
       -4    1    3    3    0  502  0.52548267684E+03 -0.72750235579E+03  0.25435594938E+03  0.93278630094E+03  0.12699999809E+01 0. -1.
</event>
<event>
 5   0  0.8234888E-06  0.2745425E+04  0.7818609E-02  0.8320415E-01
        1   -1    0    0  501    0  0.00000000000E+00  0.00000000000E+00  0.14705719895E+04  0.14705719895E+04  0.50400001928E-02 0. -1.
       -1   -1    0    0    0  501  0.00000000000E+00  0.00000000000E+00 -0.12813652427E+04  0.12813652428E+04  0.50400001928E-02 0.  1.
    10030    2    1    2    0    0  0.00000000000E+00  0.00000000000E+00  0.18920674671E+03  0.27519372322E+04  0.27454251651E+04 0.  0.
        3    1    3    3  502    0 -0.11617187517E+04  0.71826547517E+03 -0.42995951882E+02  0.13665081094E+04  0.10100000352E+00 0.  1.
       -3    1    3    3    0  502  0.11617187517E+04 -0.71826547517E+03  0.23220269859E+03  0.13854291228E+04  0.10100000352E+00 0. -1.
</event>
<event>
 5   0  0.8122088E-06  0.3001929E+04  0.7818609E-02  0.8243180E-01
       -1   -1    0    0    0  501  0.00000000000E+00  0.00000000000E+00  0.19112427296E+04  0.19112427296E+04  0.50400001928E-02 0. -1.
        1   -1    0    0  501    0  0.00000000000E+00  0.00000000000E+00 -0.11787587587E+04  0.11787587587E+04  0.50400001928E-02 0.  1.
    10030    2    1    2    0    0  0.00000000000E+00  0.00000000000E+00  0.73248397086E+03  0.30900014883E+04  0.30019287850E+04 0.  0.
        1    1    3    3  502    0  0.48812291130E+03  0.95827545157E+03 -0.71153919140E+03  0.12895130238E+04  0.50400001928E-02 0.  1.
       -1    1    3    3    0  502 -0.48812291130E+03 -0.95827545157E+03  0.14440231623E+04  0.18004884645E+04  0.50400001928E-02 0. -1.
</event>
<event>
 5   0  0.7971153E-06  0.2711243E+04  0.7818609E-02  0.8331366E-01
       -1   -1    0    0    0  501  0.00000000000E+00  0.00000000000E+00  0.16013931771E+04  0.16013931771E+04  0.50400001928E-02 0. -1.
        1   -1    0    0  501    0  0.00000000000E+00  0.00000000000E+00 -0.11475692352E+04  0.11475692352E+04  0.50400001928E-02 0.  1.
    10030    2    1    2    0    0  0.00000000000E+00  0.00000000000E+00  0.45382394189E+03  0.27489624123E+04  0.27112429205E+04 0.  0.
        5    1    3    3  502    0  0.68717330775E+02 -0.66427502449E+03  0.14230294032E+04  0.15719472485E+04  0.46999998093E+01 0. -1.
       -5    1    3    3    0  502 -0.68717330775E+02  0.66427502449E+03 -0.96920546130E+03  0.11770151638E+04  0.46999998093E+01 0.  1.
</event>
<event>
 5   0  0.8234888E-06  0.2661900E+04  0.7818609E-02  0.8347474E-01
       -1   -1    0    0    0  501  0.00000000000E+00  0.00000000000E+00  0.90728482649E+03  0.90728482650E+03  0.50400001928E-02 0. -1.
        1   -1    0    0  501    0  0.00000000000E+00  0.00000000000E+00 -0.19524499772E+04  0.19524499772E+04  0.50400001928E-02 0.  1.
    10030    2    1    2    0    0  0.00000000000E+00  0.00000000000E+00 -0.10451651507E+04  0.28597348037E+04  0.26619002527E+04 0.  0.
        3    1    3    3  502    0 -0.12328990983E+04  0.50078309678E+03 -0.54899278067E+03  0.14395197046E+04  0.10100000352E+00 0.  1.
       -3    1    3    3    0  502  0.12328990983E+04 -0.50078309678E+03 -0.49617237000E+03  0.14202150990E+04  0.10100000352E+00 0. -1.
</event>
<event>
 5   0  0.1829810E-05  0.2742703E+04  0.7818609E-02  0.8321281E-01
        2   -1    0    0  501    0  0.00000000000E+00  0.00000000000E+00  0.21705596652E+04  0.21705596652E+04  0.25500000920E-02 0.  1.
       -2   -1    0    0    0  501  0.00000000000E+00  0.00000000000E+00 -0.86641469716E+03  0.86641469716E+03  0.25500000920E-02 0. -1.
    10030    2    1    2    0    0  0.00000000000E+00  0.00000000000E+00  0.13041449680E+04  0.30369743623E+04  0.27427028968E+04 0.  0.
        4    1    3    3  502    0  0.12831311904E+04  0.92238404951E+02  0.12605655401E+03  0.12926041323E+04  0.12699999809E+01 0. -1.
       -4    1    3    3    0  502 -0.12831311904E+04 -0.92238404951E+02  0.11780884140E+04  0.17443702300E+04  0.12699999809E+01 0.  1.
</event>
<event>
 5   0  0.1918901E-05  0.2193290E+04  0.7818609E-02  0.8521226E-01
        2   -1    0    0  501    0  0.00000000000E+00  0.00000000000E+00  0.11882356358E+04  0.11882356358E+04  0.25500000920E-02 0. -1.
       -2   -1    0    0    0  501  0.00000000000E+00  0.00000000000E+00 -0.10121138523E+04  0.10121138523E+04  0.25500000920E-02 0.  1.
    10030    2    1    2    0    0  0.00000000000E+00  0.00000000000E+00  0.17612178351E+03  0.22003494881E+04  0.21932895357E+04 0.  0.
        1    1    3    3  502    0  0.58469175357E+03 -0.89765594634E+03  0.32329187365E+03  0.11190032530E+04  0.50400001928E-02 0. -1.
       -1    1    3    3    0  502 -0.58469175357E+03  0.89765594634E+03 -0.14717009014E+03  0.10813462351E+04  0.50400001928E-02 0.  1.
</event>
<event>
 5   0  0.7305460E-06  0.2742122E+04  0.7818609E-02  0.8321466E-01
       -1   -1    0    0    0  501  0.00000000000E+00  0.00000000000E+00  0.16272958584E+04  0.16272958585E+04  0.50400001928E-02 0. -1.
        1   -1    0    0  501    0  0.00000000000E+00  0.00000000000E+00 -0.11551726330E+04  0.11551726330E+04  0.50400001928E-02 0.  1.
    10030    2    1    2    0    0  0.00000000000E+00  0.00000000000E+00  0.47212322549E+03  0.27824684914E+04  0.27421215447E+04 0.  0.
        4    1    3    3  502    0  0.39378179135E+03  0.89614042005E+03  0.12102260866E+04  0.15565283631E+04  0.12699999809E+01 0. -1.
       -4    1    3    3    0  502 -0.39378179135E+03 -0.89614042005E+03 -0.73810286111E+03  0.12259401283E+04  0.12699999809E+01 0.  1.
</event>
<event>
 5   0  0.1960961E-05  0.1477701E+04  0.7818609E-02  0.8899419E-01
       -2   -1    0    0    0  501  0.00000000000E+00  0.00000000000E+00  0.76112926431E+03  0.76112926432E+03  0.25500000920E-02 0. -1.
        2   -1    0    0  501    0  0.00000000000E+00  0.00000000000E+00 -0.71722363332E+03  0.71722363332E+03  0.25500000920E-02 0.  1.
    10030    2    1    2    0    0  0.00000000000E+00  0.00000000000E+00  0.43905630994E+02  0.14783528976E+04  0.14777007767E+04 0.  0.
        5    1    3    3  502    0 -0.35258154924E+03  0.64790005253E+03 -0.20369274580E+02  0.73791952426E+03  0.46999998093E+01 0. -1.
       -5    1    3    3    0  502  0.35258154924E+03 -0.64790005253E+03  0.64274905574E+02  0.74043337338E+03  0.46999998093E+01 0.  1.
</event>
<event>
 5   0  0.7305460E-06  0.2511579E+04  0.7818609E-02  0.8398872E-01
       -1   -1    0    0    0  501  0.00000000000E+00  0.00000000000E+00  0.87435821252E+03  0.87435821253E+03  0.50400001928E-02 0. -1.
        1   -1    0    0  501    0  0.00000000000E+00  0.00000000000E+00 -0.18036172775E+04  0.18036172775E+04  0.50400001928E-02 0.  1.
    10030    2    1    2    0    0  0.00000000000E+00  0.00000000000E+00 -0.92925906497E+03  0.26779754900E+04  0.25115792473E+04 0.  0.
        4    1    3    3  502    0  0.56233115606E+03 -0.24966402798E+03 -0.16318987495E+04  0.17440308476E+04  0.12699999809E+01 0. -1.
       -4    1    3    3    0  502 -0.56233115606E+03  0.24966402798E+03  0.70263968452E+03  0.93394464242E+03  0.12699999809E+01 0.  1.
</event>
<event>
 5   0  0.8122088E-06  0.2833368E+04  0.7818609E-02  0.8292983E-01
        1   -1    0    0  501    0  0.00000000000E+00  0.00000000000E+00  0.25667756979E+04  0.25667756979E+04  0.50400001928E-02 0.  1.
       -1   -1    0    0    0  501  0.00000000000E+00  0.00000000000E+00 -0.78191224701E+03  0.78191224702E+03  0.50400001928E-02 0. -1.
    10030    2    1    2    0    0  0.00000000000E+00  0.00000000000E+00  0.17848634509E+04  0.33486879450E+04  0.28333678572E+04 0.  0.
        1    1    3    3  502    0  0.62868540982E+03 -0.35236634725E+03  0.23339254373E+04  0.24426656207E+04  0.50400001928E-02 0.  1.
       -1    1    3    3    0  502 -0.62868540982E+03  0.35236634725E+03 -0.54906198642E+03  0.90602232431E+03  0.50400001928E-02 0. -1.
</event>
<event>
 5   0  0.8122088E-06  0.1678480E+04  0.7818609E-02  0.8773734E-01
       -1   -1    0    0    0  501  0.00000000000E+00  0.00000000000E+00  0.39512350953E+03  0.39512350956E+03  0.50400001928E-02 0.  1.
        1   -1    0    0  501    0  0.00000000000E+00  0.00000000000E+00 -0.17825399020E+04  0.17825399020E+04  0.50400001928E-02 0. -1.
    10030    2    1    2    0    0  0.00000000000E+00  0.00000000000E+00 -0.13874163924E+04  0.21776634115E+04  0.16784795763E+04 0.  0.
        1    1    3    3  502    0 -0.79126611054E+02 -0.82135606873E+03 -0.89232778907E+03  0.12153747140E+04  0.50400001928E-02 0. -1.
       -1    1    3    3    0  502  0.79126611054E+02  0.82135606873E+03 -0.49508860336E+03  0.96228869755E+03  0.50400001928E-02 0.  1.
</event>
<event>
 5   0  0.8234888E-06  0.2049768E+04  0.7818609E-02  0.8583700E-01
        1   -1    0    0  501    0  0.00000000000E+00  0.00000000000E+00  0.82334418620E+03  0.82334418622E+03  0.50400001928E-02 0. -1.
       -1   -1    0    0    0  501  0.00000000000E+00  0.00000000000E+00 -0.12757567256E+04  0.12757567257E+04  0.50400001928E-02 0.  1.
    10030    2    1    2    0    0  0.00000000000E+00  0.00000000000E+00 -0.45241253945E+03  0.20991009119E+04  0.20497676777E+04 0.  0.
        3    1    3    3  502    0 -0.41734534429E+03  0.90928069678E+03  0.14464281256E+01  0.10004851944E+04  0.10100000352E+00 0.  1.
       -3    1    3    3    0  502  0.41734534429E+03 -0.90928069678E+03 -0.45385896757E+03  0.10986157174E+04  0.10100000352E+00 0. -1.
</event>
<event>
 5   0  0.1960961E-05  0.2438397E+04  0.7818609E-02  0.8425267E-01
       -2   -1    0    0    0  501  0.00000000000E+00  0.00000000000E+00  0.59905119434E+03  0.59905119434E+03  0.25500000920E-02 0.  1.
        2   -1    0    0  501    0  0.00000000000E+00  0.00000000000E+00 -0.24813324030E+04  0.24813324030E+04  0.25500000920E-02 0. -1.
    10030    2    1    2    0    0  0.00000000000E+00  0.00000000000E+00 -0.18822812087E+04  0.30803835974E+04  0.24383971289E+04 0.  0.
        5    1    3    3  502    0 -0.10856286585E+04 -0.30182875026E+03 -0.15292562809E+04  0.18995623289E+04  0.46999998093E+01 0. -1.
       -5    1    3    3    0  502  0.10856286585E+04  0.30182875026E+03 -0.35302492781E+03  0.11808212685E+04  0.46999998093E+01 0.  1.
</event>
<event>
 5   0  0.1918901E-05  0.2932058E+04  0.7818609E-02  0.8263403E-01
        2   -1    0    0  501    0  0.00000000000E+00  0.00000000000E+00  0.20554794623E+04  0.20554794623E+04  0.25500000920E-02 0.  1.
       -2   -1    0    0    0  501  0.00000000000E+00  0.00000000000E+00 -0.10456155298E+04  0.10456155298E+04  0.25500000920E-02 0. -1.
    10030    2    1    2    0    0  0.00000000000E+00  0.00000000000E+00  0.10098639325E+04  0.31010949921E+04  0.29320581487E+04 0.  0.
        1    1    3    3  502    0  0.61486964622E+03  0.24910911059E+03 -0.87777109160E+03  0.11002736569E+04  0.50400001928E-02 0. -1.
       -1    1    3    3    0  502 -0.61486964622E+03 -0.24910911059E+03  0.18876350241E+04  0.20008213352E+04  0.50400001928E-02 0.  1.
</event>
<event>
 5   0  0.7305460E-06  0.2759310E+04  0.7818609E-02  0.8316013E-01
        1   -1    0    0  501    0  0.00000000000E+00  0.00000000000E+00  0.14425076480E+04  0.14425076480E+04  0.50400001928E-02 0.  1.
       -1   -1    0    0    0  501  0.00000000000E+00  0.00000000000E+00 -0.13195410782E+04  0.13195410782E+04  0.50400001928E-02 0. -1.
    10030    2    1    2    0    0  0.00000000000E+00  0.00000000000E+00  0.12296656984E+03  0.27620487262E+04  0.27593101291E+04 0.  0.
        4    1    3    3  502    0 -0.11389047450E+04 -0.58993450344E+03  0.57023937925E+03  0.14036742140E+04  0.12699999809E+01 0. -1.
       -4    1    3    3    0  502  0.11389047450E+04  0.58993450344E+03 -0.44727280942E+03  0.13583745122E+04  0.12699999809E+01 0.  1.
</event>
<event>
 5   0  0.8234888E-06  0.2904155E+04  0.7818609E-02  0.8271642E-01
        1   -1    0    0  501    0  0.00000000000E+00  0.00000000000E+00  0.79409676290E+03  0.79409676292E+03  0.50400001928E-02 0.  1.
       -1   -1    0    0    0  501  0.00000000000E+00  0.00000000000E+00 -0.26552542897E+04  0.26552542897E+04  0.50400001928E-02 0. -1.
    10030    2    1    2    0    0  0.00000000000E+00  0.00000000000E+00 -0.18611575268E+04  0.34493510526E+04  0.29041548417E+04 0.  0.
        3    1    3    3  502    0  0.14505158860E+04 -0.32494151132E+02 -0.86054680492E+03  0.16868885616E+04  0.10100000352E+00 0.  1.
       -3    1    3    3    0  502 -0.14505158860E+04  0.32494151132E+02 -0.10006107219E+04  0.17624624911E+04  0.10100000352E+00 0. -1.
</event>
<event>
 5   0  0.1960961E-05  0.2019809E+04  0.7818609E-02  0.8597415E-01
       -2   -1    0    0    0  501  0.00000000000E+00  0.00000000000E+00  0.58908347268E+03  0.58908347268E+03  0.25500000920E-02 0.  1.
        2   -1    0    0  501    0  0.00000000000E+00  0.00000000000E+00 -0.17313464171E+04  0.17313464171E+04  0.25500000920E-02 0. -1.
    10030    2    1    2    0    0  0.00000000000E+00  0.00000000000E+00 -0.11422629444E+04  0.23204298898E+04  0.20198094562E+04 0.  0.
        5    1    3    3  502    0 -0.56407644670E+03  0.49333092713E+03  0.20662953033E+03  0.77735158982E+03  0.46999998093E+01 0.  1.
       -5    1    3    3    0  502  0.56407644670E+03 -0.49333092713E+03 -0.13488924748E+04  0.15430783000E+04  0.46999998093E+01 0. -1.
</event>
<event>
 5   0  0.8234888E-06  0.3002244E+04  0.7818609E-02  0.8243090E-01
        1   -1    0    0  501    0  0.00000000000E+00  0.00000000000E+00  0.10871950608E+04  0.10871950608E+04  0.50400001928E-02 0. -1.
       -1   -1    0    0    0  501  0.00000000000E+00  0.00000000000E+00 -0.20726434881E+04  0.20726434881E+04  0.50400001928E-02 0.  1.
    10030    2    1    2    0    0  0.00000000000E+00  0.00000000000E+00 -0.98544842737E+03  0.31598385489E+04  0.30022443359E+04 0.  0.
        3    1    3    3  502    0  0.12515075306E+04 -0.52433031887E+03  0.18298423711E+03  0.13691883083E+04  0.10100000352E+00 0. -1.
       -3    1    3    3    0  502 -0.12515075306E+04  0.52433031887E+03 -0.11684326645E+04  0.17906502406E+04  0.10100000352E+00 0.  1.
</event>
<event>
 5   0  0.8234888E-06  0.2733922E+04  0.7818609E-02  0.8324082E-01
        1   -1    0    0  501    0  0.00000000000E+00  0.00000000000E+00  0.15889254206E+04  0.15889254206E+04  0.50400001928E-02 0. -1.
       -1   -1    0    0    0  501  0.00000000000E+00  0.00000000000E+00 -0.11760036798E+04  0.11760036798E+04  0.50400001928E-02 0.  1.
    10030    2    1    2    0    0  0.00000000000E+00  0.00000000000E+00  0.41292174079E+03  0.27649291005E+04  0.27339218289E+04 0.  0.
        3    1    3    3  502    0  0.31598756475E+02  0.10616505271E+04  0.10767330562E+04  0.15124332738E+04  0.10100000352E+00 0. -1.
       -3    1    3    3    0  502 -0.31598756475E+02 -0.10616505271E+04 -0.66381131545E+03  0.12524958267E+04  0.10100000352E+00 0.  1.
</event>
<event>
 5   0  0.1829810E-05  0.2799980E+04  0.7818609E-02  0.8303274E-01
        2   -1    0    0  501    0  0.00000000000E+00  0.00000000000E+00  0.17127452094E+04  0.17127452094E+04  0.25500000920E-02 0.  1.
       -2   -1    0    0    0  501  0.00000000000E+00  0.00000000000E+00 -0.11443456657E+04  0.11443456657E+04  0.25500000920E-02 0. -1.
    10030    2    1    2    0    0  0.00000000000E+00  0.00000000000E+00  0.56839954372E+03  0.28570908752E+04  0.27999803977E+04 0.  0.
        4    1    3    3  502    0  0.13055219809E+04 -0.15462363221E+03 -0.20694383267E+03  0.13308356296E+04  0.12699999809E+01 0.  1.
       -4    1    3    3    0  502 -0.13055219809E+04  0.15462363221E+03  0.77534337639E+03  0.15262552455E+04  0.12699999809E+01 0. -1.
</event>
<event>
 5   0  0.1976233E-05  0.2905875E+04  0.7818609E-02  0.8271132E-01
        2   -1    0    0  501    0  0.00000000000E+00  0.00000000000E+00  0.13707447700E+04  0.13707447700E+04  0.25500000920E-02 0.  1.
       -2   -1    0    0    0  501  0.00000000000E+00  0.00000000000E+00 -0.15400589053E+04  0.15400589053E+04  0.25500000920E-02 0. -1.
    10030    2    1    2    0    0  0.00000000000E+00  0.00000000000E+00 -0.16931413535E+03  0.29108036753E+04  0.29058752141E+04 0.  0.
        2    1    3    3  502    0 -0.13834391244E+03  0.11735223975E+04  0.76219611622E+03  0.14061425160E+04  0.25500000920E-02 0.  1.
       -2    1    3    3    0  502  0.13834391244E+03 -0.11735223975E+04 -0.93151025158E+03  0.15046611593E+04  0.25500000920E-02 0. -1.
</event>
<event>
 5   0  0.8055928E-06  0.2997579E+04  0.7818609E-02  0.8244423E-01
       -1   -1    0    0    0  501  0.00000000000E+00  0.00000000000E+00  0.12583772159E+04  0.12583772159E+04  0.50400001928E-02 0. -1.
        1   -1    0    0  501    0  0.00000000000E+00  0.00000000000E+00 -0.17851320362E+04  0.17851320363E+04  0.50400001928E-02 0.  1.
    10030    2    1    2    0    0  0.00000000000E+00  0.00000000000E+00 -0.52675482039E+03  0.30435092521E+04  0.29975786774E+04 0.  0.
        2    1    3    3  502    0 -0.50369509338E+03  0.12524282377E+04  0.39781841713E+03  0.14073182763E+04  0.25500000920E-02 0.  1.
       -2    1    3    3    0  502  0.50369509338E+03 -0.12524282377E+04 -0.92457323753E+03  0.16361909758E+04  0.25500000920E-02 0. -1.
</event>
<event>
 5   0  0.1976233E-05  0.2798460E+04  0.7818609E-02  0.8303747E-01
        2   -1    0    0  501    0  0.00000000000E+00  0.00000000000E+00  0.22720210742E+04  0.22720210742E+04  0.25500000920E-02 0. -1.
       -2   -1    0    0    0  501  0.00000000000E+00  0.00000000000E+00 -0.86171959448E+03  0.86171959448E+03  0.25500000920E-02 0.  1.
    10030    2    1    2    0    0  0.00000000000E+00  0.00000000000E+00  0.14103014798E+04  0.31337406687E+04  0.27984603472E+04 0.  0.
        2    1    3    3  502    0 -0.49803990580E+01  0.12361042097E+04  0.14393446474E+04  0.18972852805E+04  0.25500000920E-02 0. -1.
       -2    1    3    3    0  502  0.49803990580E+01 -0.12361042097E+04 -0.29043167634E+02  0.12364553882E+04  0.25500000920E-02 0.  1.
</event>
<event>
 5   0  0.8055928E-06  0.2932300E+04  0.7818609E-02  0.8263332E-01
        1   -1    0    0  501    0  0.00000000000E+00  0.00000000000E+00  0.19288293121E+04  0.19288293121E+04  0.50400001928E-02 0. -1.
       -1   -1    0    0    0  501  0.00000000000E+00  0.00000000000E+00 -0.11144564561E+04  0.11144564561E+04  0.50400001928E-02 0.  1.
    10030    2    1    2    0    0  0.00000000000E+00  0.00000000000E+00  0.81437285595E+03  0.30432857682E+04  0.29323003118E+04 0.  0.
        2    1    3    3  502    0  0.59939300931E+03  0.16321666522E+03  0.17854895896E+04  0.18904720929E+04  0.25500000920E-02 0. -1.
       -2    1    3    3    0  502 -0.59939300931E+03 -0.16321666522E+03 -0.97111673369E+03  0.11528136753E+04  0.25500000920E-02 0.  1.
</event>
<event>
 5   0  0.8122088E-06  0.1732805E+04  0.7818609E-02  0.8742872E-01
        1   -1    0    0  501    0  0.00000000000E+00  0.00000000000E+00  0.77280453630E+03  0.77280453632E+03  0.50400001928E-02 0. -1.
       -1   -1    0    0    0  501  0.00000000000E+00  0.00000000000E+00 -0.97133690326E+03  0.97133690327E+03  0.50400001928E-02 0.  1.
    10030    2    1    2    0    0  0.00000000000E+00  0.00000000000E+00 -0.19853236696E+03  0.17441414396E+04  0.17328053152E+04 0.  0.
        1    1    3    3  502    0  0.63726516729E+03  0.53815714869E+03 -0.33517859053E+03  0.89892418907E+03  0.50400001928E-02 0. -1.
       -1    1    3    3    0  502 -0.63726516729E+03 -0.53815714869E+03  0.13664622357E+03  0.84521725051E+03  0.50400001928E-02 0.  1.
</event>
<event>
 5   0  0.1976233E-05  0.2800591E+04  0.7818609E-02  0.8303085E-01
        2   -1    0    0  501    0  0.00000000000E+00  0.00000000000E+00  0.17147625687E+04  0.17147625687E+04  0.25500000920E-02 0.  1.
       -2   -1    0    0    0  501  0.00000000000E+00  0.00000000000E+00 -0.11434981353E+04  0.11434981353E+04  0.25500000920E-02 0. -1.
    10030    2    1    2    0    0  0.00000000000E+00  0.00000000000E+00  0.57126443341E+03  0.28582607040E+04  0.28005912232E+04 0.  0.
        2    1    3    3  502    0 -0.14213306965E+02 -0.13939318572E+03  0.17075900994E+04  0.17133290478E+04  0.25500000920E-02 0.  1.
       -2    1    3    3    0  502  0.14213306965E+02  0.13939318572E+03 -0.11363256660E+04  0.11449316563E+04  0.25500000920E-02 0. -1.
</event>
<event>
 5   0  0.1829810E-05  0.3066111E+04  0.7818609E-02  0.8225100E-01
       -2   -1    0    0    0  501  0.00000000000E+00  0.00000000000E+00  0.14506163765E+04  0.14506163765E+04  0.25500000920E-02 0. -1.
        2   -1    0    0  501    0  0.00000000000E+00  0.00000000000E+00 -0.16201799490E+04  0.16201799490E+04  0.25500000920E-02 0.  1.
    10030    2    1    2    0    0  0.00000000000E+00  0.00000000000E+00 -0.16956357251E+03  0.30707963254E+04  0.30661112614E+04 0.  0.
        4    1    3    3  502    0 -0.74587696162E+02  0.76758287392E+03 -0.14117633817E+04  0.16086715798E+04  0.12699999809E+01 0.  1.
       -4    1    3    3    0  502  0.74587696162E+02 -0.76758287392E+03  0.12421998092E+04  0.14621247456E+04  0.12699999809E+01 0. -1.
</event>
<event>
 5   0  0.1918901E-05  0.2976413E+04  0.7818609E-02  0.8250498E-01
       -2   -1    0    0    0  501  0.00000000000E+00  0.00000000000E+00  0.12665327873E+04  0.12665327873E+04  0.25500000920E-02 0.  1.
        2   -1    0    0  501    0  0.00000000000E+00  0.00000000000E+00 -0.17486788926E+04  0.17486788926E+04  0.25500000920E-02 0. -1.
    10030    2    1    2    0    0  0.00000000000E+00  0.00000000000E+00 -0.48214610534E+03  0.30152116799E+04  0.29764133798E+04 0.  0.
        1    1    3    3  502    0 -0.88045106042E+03 -0.26462562780E+03 -0.14266006251E+04  0.16971771081E+04  0.50400001928E-02 0. -1.
       -1    1    3    3    0  502  0.88045106042E+03  0.26462562780E+03  0.94445451972E+03  0.13180345718E+04  0.50400001928E-02 0.  1.
</event>
<event>
 5   0  0.1918901E-05  0.2222276E+04  0.7818609E-02  0.8509213E-01
        2   -1    0    0  501    0  0.00000000000E+00  0.00000000000E+00  0.15849340332E+04  0.15849340332E+04  0.25500000920E-02 0. -1.
       -2   -1    0    0    0  501  0.00000000000E+00  0.00000000000E+00 -0.77897707696E+03  0.77897707697E+03  0.25500000920E-02 0.  1.
    10030    2    1    2    0    0  0.00000000000E+00  0.00000000000E+00  0.80595695624E+03  0.23639111102E+04  0.22222756628E+04 0.  0.
        1    1    3    3  502    0  0.62795838942E+03 -0.91664247656E+03  0.39459508505E+03  0.11790973030E+04  0.50400001928E-02 0. -1.
       -1    1    3    3    0  502 -0.62795838942E+03  0.91664247656E+03  0.41136187119E+03  0.11848138072E+04  0.50400001928E-02 0.  1.
</event>
<event>
 5   0  0.8055928E-06  0.2884057E+04  0.7818609E-02  0.8277637E-01
       -1   -1    0    0    0  501  0.00000000000E+00  0.00000000000E+00  0.13721495484E+04  0.13721495484E+04  0.50400001928E-02 0. -1.
        1   -1    0    0  501    0  0.00000000000E+00  0.00000000000E+00 -0.15154665949E+04  0.15154665950E+04  0.50400001928E-02 0.  1.
    10030    2    1    2    0    0  0.00000000000E+00  0.00000000000E+00 -0.14331704657E+03  0.28876161433E+04  0.28840574223E+04 0.  0.
        2    1    3    3  502    0  0.12415680589E+04 -0.49977367565E+03  0.46582958114E+03  0.14171316701E+04  0.25500000920E-02 0. -1.
       -2    1    3    3    0  502 -0.12415680589E+04  0.49977367565E+03 -0.60914662772E+03  0.14704844732E+04  0.25500000920E-02 0.  1.
</event>
<event>
 5   0  0.1960961E-05  0.2916946E+04  0.7818609E-02  0.8267853E-01
       -2   -1    0    0    0  501  0.00000000000E+00  0.00000000000E+00  0.11482833623E+04  0.11482833623E+04  0.25500000920E-02 0. -1.
        2   -1    0    0  501    0  0.00000000000E+00  0.00000000000E+00 -0.18524549117E+04  0.18524549117E+04  0.25500000920E-02 0.  1.
    10030    2    1    2    0    0  0.00000000000E+00  0.00000000000E+00 -0.70417154946E+03  0.30007382740E+04  0.29169457688E+04 0.  0.
        5    1    3    3  502    0 -0.46998368132E+03  0.66119399853E+02 -0.17707824910E+04  0.18332891632E+04  0.46999998093E+01 0.  1.
       -5    1    3    3    0  502  0.46998368132E+03 -0.66119399853E+02  0.10666109415E+04  0.11674491108E+04  0.46999998093E+01 0. -1.
</event>
<event>
 5   0  0.1918901E-05  0.1563375E+04  0.7818609E-02  0.8843369E-01
       -2   -1    0    0    0  501  0.00000000000E+00  0.00000000000E+00  0.45476687629E+03  0.45476687629E+03  0.25500000920E-02 0. -1.
        2   -1    0    0  501    0  0.00000000000E+00  0.00000000000E+00 -0.13436234147E+04  0.13436234147E+04  0.25500000920E-02 0.  1.
    10030    2    1    2    0    0  0.00000000000E+00  0.00000000000E+00 -0.88885653843E+03  0.17983902910E+04  0.15633750967E+04 0.  0.
        1    1    3    3  502    0  0.58860512130E+03 -0.21063248754E+03  0.95383837363E+02  0.63239237035E+03  0.50400001928E-02 0. -1.
       -1    1    3    3    0  502 -0.58860512130E+03  0.21063248754E+03 -0.98424037580E+03  0.11659979207E+04  0.50400001928E-02 0.  1.
</event>
<event>
 5   0  0.1960961E-05  0.2736874E+04  0.7818609E-02  0.8323139E-01
       -2   -1    0    0    0  501  0.00000000000E+00  0.00000000000E+00  0.99493087187E+03  0.99493087187E+03  0.25500000920E-02 0.  1.
        2   -1    0    0  501    0  0.00000000000E+00  0.00000000000E+00 -0.18821604198E+04  0.18821604198E+04  0.25500000920E-02 0. -1.
    10030    2    1    2    0    0  0.00000000000E+00  0.00000000000E+00 -0.88722954788E+03  0.28770912916E+04  0.27368737694E+04 0.  0.
        5    1    3    3  502    0 -0.40321988535E+03 -0.35931388313E+03  0.87814252430E+03  0.10309457432E+04  0.46999998093E+01 0.  1.
       -5    1    3    3    0  502  0.40321988535E+03  0.35931388313E+03 -0.17653720722E+04  0.18461455484E+04  0.46999998093E+01 0. -1.
</event>
<event>
 5   0  0.1829810E-05  0.2997783E+04  0.7818609E-02  0.8244364E-01
       -2   -1    0    0    0  501  0.00000000000E+00  0.00000000000E+00  0.12150713109E+04  0.12150713109E+04  0.25500000920E-02 0. -1.
        2   -1    0    0  501    0  0.00000000000E+00  0.00000000000E+00 -0.18490071572E+04  0.18490071572E+04  0.25500000920E-02 0.  1.
    10030    2    1    2    0    0  0.00000000000E+00  0.00000000000E+00 -0.63393584632E+03  0.30640784680E+04  0.29977828809E+04 0.  0.
        4    1    3    3  502    0  0.89497710517E+03 -0.12015608419E+04 -0.36200437057E+03  0.15413569518E+04  0.12699999809E+01 0.  1.
       -4    1    3    3    0  502 -0.89497710517E+03  0.12015608419E+04 -0.27193147575E+03  0.15227215162E+04  0.12699999809E+01 0. -1.
</event>
<event>
 5   0  0.8122088E-06  0.2930046E+04  0.7818609E-02  0.8263994E-01
       -1   -1    0    0    0  501  0.00000000000E+00  0.00000000000E+00  0.25323881331E+04  0.25323881331E+04  0.50400001928E-02 0. -1.
        1   -1    0    0  501    0  0.00000000000E+00  0.00000000000E+00 -0.84753667722E+03  0.84753667724E+03  0.50400001928E-02 0.  1.
    10030    2    1    2    0    0  0.00000000000E+00  0.00000000000E+00  0.16848514559E+04  0.33799248103E+04  0.29300456132E+04 0.  0.
        1    1    3    3  502    0 -0.10964775329E+04  0.94946721642E+03  0.10803483468E+04  0.18085639402E+04  0.50400001928E-02 0. -1.
       -1    1    3    3    0  502  0.10964775329E+04 -0.94946721642E+03  0.60450310907E+03  0.15713608701E+04  0.50400001928E-02 0.  1.
</event>
<event>
 5   0  0.1937947E-05  0.2905519E+04  0.7818609E-02  0.8271237E-01
        2   -1    0    0  501    0  0.00000000000E+00  0.00000000000E+00  0.11242422494E+04  0.11242422494E+04  0.25500000920E-02 0. -1.
       -2   -1    0    0    0  501  0.00000000000E+00  0.00000000000E+00 -0.18772734701E+04  0.18772734701E+04  0.25500000920E-02 0.  1.
    10030    2    1    2    0    0  0.00000000000E+00  0.00000000000E+00 -0.75303122071E+03  0.30015157194E+04  0.29055189888E+04 0.  0.
        3    1    3    3  502    0 -0.14211560212E+04 -0.18174235495E+03 -0.12816592757E+03  0.14384509847E+04  0.10100000352E+00 0. -1.
       -3    1    3    3    0  502  0.14211560212E+04  0.18174235495E+03 -0.62486529314E+03  0.15630647347E+04  0.10100000352E+00 0.  1.
</event>
<event>
 5   0  0.1918901E-05  0.2857540E+04  0.7818609E-02  0.8285624E-01
        2   -1    0    0  501    0  0.00000000000E+00  0.00000000000E+00  0.16339503620E+04  0.16339503620E+04  0.25500000920E-02 0. -1.
       -2   -1    0    0    0  501  0.00000000000E+00  0.00000000000E+00 -0.12493548353E+04  0.12493548353E+04  0.25500000920E-02 0.  1.
    10030    2    1    2    0    0  0.00000000000E+00  0.00000000000E+00  0.38459552671E+03  0.28833051973E+04  0.28575400508E+04 0.  0.
        1    1    3    3  502    0  0.11385589432E+04  0.83601796494E+03 -0.24444253252E+02  0.14127420240E+04  0.50400001928E-02 0.  1.
       -1    1    3    3    0  502 -0.11385589432E+04 -0.83601796494E+03  0.40903977996E+03  0.14705631733E+04  0.50400001928E-02 0. -1.
</event>
<event>
 5   0  0.7305460E-06  0.2903251E+04  0.7818609E-02  0.8271911E-01
        1   -1    0    0  501    0  0.00000000000E+00  0.00000000000E+00  0.21091861850E+04  0.21091861850E+04  0.50400001928E-02 0.  1.
       -1   -1    0    0    0  501  0.00000000000E+00  0.00000000000E+00 -0.99906634375E+03  0.99906634377E+03  0.50400001928E-02 0. -1.
    10030    2    1    2    0    0  0.00000000000E+00  0.00000000000E+00  0.11101198413E+04  0.31082525288E+04  0.29032512328E+04 0.  0.
        4    1    3    3  502    0 -0.12254142917E+04  0.77789642114E+03  0.57782869935E+03  0.15622581883E+04  0.12699999809E+01 0.  1.
       -4    1    3    3    0  502  0.12254142917E+04 -0.77789642114E+03  0.53229114194E+03  0.15459943405E+04  0.12699999809E+01 0. -1.
</event>
<event>
 5   0  0.1937947E-05  0.2989477E+04  0.7818609E-02  0.8246742E-01
        2   -1    0    0  501    0  0.00000000000E+00  0.00000000000E+00  0.14545070477E+04  0.14545070477E+04  0.25500000920E-02 0.  1.
       -2   -1    0    0    0  501  0.00000000000E+00  0.00000000000E+00 -0.15360822620E+04  0.15360822620E+04  0.25500000920E-02 0. -1.
    10030    2    1    2    0    0  0.00000000000E+00  0.00000000000E+00 -0.81575214338E+02  0.29905893097E+04  0.29894765268E+04 0.  0.
        3    1    3    3  502    0 -0.99738692698E+02 -0.53901678011E+03  0.13503254200E+04  0.14573488417E+04  0.10100000352E+00 0.  1.
       -3    1    3    3    0  502  0.99738692698E+02  0.53901678011E+03 -0.14319006344E+04  0.15332404681E+04  0.10100000352E+00 0. -1.
</event>
<event>
 5   0  0.1918901E-05  0.2878374E+04  0.7818609E-02  0.8279341E-01
       -2   -1    0    0    0  501  0.00000000000E+00  0.00000000000E+00  0.12025468859E+04  0.12025468859E+04  0.25500000920E-02 0. -1.
        2   -1    0    0  501    0  0.00000000000E+00  0.00000000000E+00 -0.17223941566E+04  0.17223941566E+04  0.25500000920E-02 0.  1.
    10030    2    1    2    0    0  0.00000000000E+00  0.00000000000E+00 -0.51984727076E+03  0.29249410425E+04  0.28783743532E+04 0.  0.
        1    1    3    3  502    0  0.54252335315E+03  0.27979927195E+03  0.10644806534E+04  0.12270852793E+04  0.50400001928E-02 0. -1.
       -1    1    3    3    0  502 -0.54252335315E+03 -0.27979927195E+03 -0.15843279241E+04  0.16978557632E+04  0.50400001928E-02 0.  1.
</event>
<event>
 5   0  0.8055928E-06  0.2888344E+04  0.7818609E-02  0.8276354E-01
       -1   -1    0    0    0  501  0.00000000000E+00  0.00000000000E+00  0.10546736322E+04  0.10546736322E+04  0.50400001928E-02 0. -1.
        1   -1    0    0  501    0  0.00000000000E+00  0.00000000000E+00 -0.19775152449E+04  0.19775152449E+04  0.50400001928E-02 0.  1.
    10030    2    1    2    0    0  0.00000000000E+00  0.00000000000E+00 -0.92284161263E+03  0.30321888771E+04  0.28883442912E+04 0.  0.
        2    1    3    3  502    0  0.46731918550E+03  0.12598548645E+04  0.94093653678E+02  0.13470245419E+04  0.25500000920E-02 0. -1.
       -2    1    3    3    0  502 -0.46731918550E+03 -0.12598548645E+04 -0.10169352663E+04  0.16851643352E+04  0.25500000920E-02 0.  1.
</event>
<event>
 5   0  0.1960961E-05  0.2902107E+04  0.7818609E-02  0.8272251E-01
        2   -1    0    0  501    0  0.00000000000E+00  0.00000000000E+00  0.14107502281E+04  0.14107502281E+04  0.25500000920E-02 0. -1.
       -2   -1    0    0    0  501  0.00000000000E+00  0.00000000000E+00 -0.14925084951E+04  0.14925084951E+04  0.25500000920E-02 0.  1.
    10030    2    1    2    0    0  0.00000000000E+00  0.00000000000E+00 -0.81758267028E+02  0.29032587232E+04  0.29021073033E+04 0.  0.
        5    1    3    3  502    0 -0.88275936898E+03 -0.33508745769E+03  0.10613687511E+04  0.14205891115E+04  0.46999998093E+01 0. -1.
       -5    1    3    3    0  502  0.88275936898E+03  0.33508745769E+03 -0.11431270182E+04  0.14826696117E+04  0.46999998093E+01 0.  1.
</event>
<event>
 5   0  0.8122088E-06  0.3025327E+04  0.7818609E-02  0.8236536E-01
        1   -1    0    0  501    0  0.00000000000E+00  0.00000000000E+00  0.19108489948E+04  0.19108489948E+04  0.50400001928E-02 0.  1.
       -1   -1    0    0    0  501  0.00000000000E+00  0.00000000000E+00 -0.11974521125E+04  0.11974521125E+04  0.50400001928E-02 0. -1.
    10030    2    1    2    0    0  0.00000000000E+00  0.00000000000E+00  0.71339688227E+03  0.31083011073E+04  0.30253265380E+04 0.  0.
        1    1    3    3  502    0 -0.46729698953E+03  0.11117325183E+04 -0.58149146328E+03  0.13388233605E+04  0.50400001928E-02 0.  1.
       -1    1    3    3    0  502  0.46729698953E+03 -0.11117325183E+04  0.12948883456E+04  0.17694777467E+04  0.50400001928E-02 0. -1.
</event>
<event>
 5   0  0.1918901E-05  0.2798138E+04  0.7818609E-02  0.8303847E-01
        2   -1    0    0  501    0  0.00000000000E+00  0.00000000000E+00  0.17597119510E+04  0.17597119510E+04  0.25500000920E-02 0.  1.
       -2   -1    0    0    0  501  0.00000000000E+00  0.00000000000E+00 -0.11123374870E+04  0.11123374870E+04  0.25500000920E-02 0. -1.
    10030    2    1    2    0    0  0.00000000000E+00  0.00000000000E+00  0.64737446400E+03  0.28720494381E+04  0.27981376446E+04 0.  0.
        1    1    3    3  502    0 -0.10209081303E+04 -0.90295128553E+03  0.64797438044E+03  0.15091206818E+04  0.50400001928E-02 0.  1.
       -1    1    3    3    0  502  0.10209081303E+04  0.90295128553E+03 -0.59991644058E+00  0.13629287562E+04  0.50400001928E-02 0. -1.
</event>
<event>
 5   0  0.1976233E-05  0.2901312E+04  0.7818609E-02  0.8272487E-01
       -2   -1    0    0    0  501  0.00000000000E+00  0.00000000000E+00  0.75420351163E+03  0.75420351164E+03  0.25500000920E-02 0. -1.
        2   -1    0    0  501    0  0.00000000000E+00  0.00000000000E+00 -0.27902319713E+04  0.27902319713E+04  0.25500000920E-02 0.  1.
    10030    2    1    2    0    0  0.00000000000E+00  0.00000000000E+00 -0.20360284597E+04  0.35444354830E+04  0.29013119453E+04 0.  0.
        2    1    3    3  502    0  0.53143296967E+03 -0.53417007790E+03  0.49638120833E+03  0.90230425986E+03  0.25500000920E-02 0. -1.
       -2    1    3    3    0  502 -0.53143296967E+03  0.53417007790E+03 -0.25324096680E+04  0.26421312231E+04  0.25500000920E-02 0.  1.
</event>
<event>
 5   0  0.6578125E-06  0.2922964E+04  0.7818609E-02  0.8266078E-01
        3   -1    0    0  501    0  0.00000000000E+00  0.00000000000E+00  0.16506124114E+04  0.16506124145E+04  0.10100000352E+00 0.  1.
       -3   -1    0    0    0  501  0.00000000000E+00  0.00000000000E+00 -0.12940228963E+04  0.12940229002E+04  0.10100000352E+00 0. -1.
    10030    2    1    2    0    0  0.00000000000E+00  0.00000000000E+00  0.35658951510E+03  0.29446353147E+04  0.29229644292E+04 0.  0.
        2    1    3    3  502    0 -0.72621367060E+03  0.10975745502E+04 -0.46192780317E+03  0.13947879710E+04  0.25500000920E-02 0. -1.
       -2    1    3    3    0  502  0.72621367060E+03 -0.10975745502E+04  0.81851731828E+03  0.15498473437E+04  0.25500000920E-02 0.  1.
</event>
<event>
 5   0  0.8234888E-06  0.2122946E+04  0.7818609E-02  0.8551202E-01
       -1   -1    0    0    0  501  0.00000000000E+00  0.00000000000E+00  0.11906431670E+04  0.11906431670E+04  0.50400001928E-02 0. -1.
        1   -1    0    0  501    0  0.00000000000E+00  0.00000000000E+00 -0.94631643923E+03  0.94631643924E+03  0.50400001928E-02 0.  1.
    10030    2    1    2    0    0  0.00000000000E+00  0.00000000000E+00  0.24432672778E+03  0.21369596063E+04  0.21229462567E+04 0.  0.
        3    1    3    3  502    0  0.32523862459E+03 -0.89557601920E+03 -0.34878024506E+03  0.10146350273E+04  0.10100000352E+00 0.  1.
       -3    1    3    3    0  502 -0.32523862459E+03  0.89557601920E+03  0.59310697284E+03  0.11223245790E+04  0.10100000352E+00 0. -1.
</event>
<event>
 5   0  0.1918901E-05  0.2676803E+04  0.7818609E-02  0.8342571E-01
       -2   -1    0    0    0  501  0.00000000000E+00  0.00000000000E+00  0.87618074932E+03  0.87618074933E+03  0.25500000920E-02 0. -1.
        2   -1    0    0  501    0  0.00000000000E+00  0.00000000000E+00 -0.20444616974E+04  0.20444616974E+04  0.25500000920E-02 0.  1.
    10030    2    1    2    0    0  0.00000000000E+00  0.00000000000E+00 -0.11682809481E+04  0.29206424467E+04  0.26768025568E+04 0.  0.
        1    1    3    3  502    0  0.72550719590E+03  0.92268432124E+03  0.11757016270E+03  0.11796312098E+04  0.50400001928E-02 0. -1.
       -1    1    3    3    0  502 -0.72550719590E+03 -0.92268432124E+03 -0.12858511108E+04  0.17410112369E+04  0.50400001928E-02 0.  1.
</event>
<event>
 5   0  0.1960961E-05  0.2866370E+04  0.7818609E-02  0.8282954E-01
        2   -1    0    0  501    0  0.00000000000E+00  0.00000000000E+00  0.13766479031E+04  0.13766479031E+04  0.25500000920E-02 0. -1.
       -2   -1    0    0    0  501  0.00000000000E+00  0.00000000000E+00 -0.14920435272E+04  0.14920435272E+04  0.25500000920E-02 0.  1.
    10030    2    1    2    0    0  0.00000000000E+00  0.00000000000E+00 -0.11539562410E+03  0.28686914303E+04  0.28663695456E+04 0.  0.
        5    1    3    3  502    0  0.20668415388E+03  0.11034327412E+04 -0.94932596135E+03  0.14702122380E+04  0.46999998093E+01 0.  1.
       -5    1    3    3    0  502 -0.20668415388E+03 -0.11034327412E+04  0.83393033725E+03  0.13984791923E+04  0.46999998093E+01 0. -1.
</event>
<event>
 5   0  0.7971153E-06  0.2826522E+04  0.7818609E-02  0.8295081E-01
       -1   -1    0    0    0  501  0.00000000000E+00  0.00000000000E+00  0.99797117033E+03  0.99797117035E+03  0.50400001928E-02 0. -1.
        1   -1    0    0  501    0  0.00000000000E+00  0.00000000000E+00 -0.20013674645E+04  0.20013674646E+04  0.50400001928E-02 0.  1.
    10030    2    1    2    0    0  0.00000000000E+00  0.00000000000E+00 -0.10033962942E+04  0.29993386349E+04  0.28265222666E+04 0.  0.
        5    1    3    3  502    0  0.77593468740E+03  0.96472409857E+03  0.22152818722E+03  0.12577217710E+04  0.46999998093E+01 0. -1.
       -5    1    3    3    0  502 -0.77593468740E+03 -0.96472409857E+03 -0.12249244814E+04  0.17416168639E+04  0.46999998093E+01 0.  1.
</event>
<event>
 5   0  0.1918901E-05  0.2758078E+04  0.7818609E-02  0.8316403E-01
       -2   -1    0    0    0  501  0.00000000000E+00  0.00000000000E+00  0.21089699076E+04  0.21089699076E+04  0.25500000920E-02 0.  1.
        2   -1    0    0  501    0  0.00000000000E+00  0.00000000000E+00 -0.90174299852E+03  0.90174299853E+03  0.25500000920E-02 0. -1.
    10030    2    1    2    0    0  0.00000000000E+00  0.00000000000E+00  0.12072269091E+04  0.30107129061E+04  0.27580782065E+04 0.  0.
        1    1    3    3  502    0  0.54102089418E+02  0.71973219619E+03  0.18863259255E+04  0.20196947709E+04  0.50400001928E-02 0.  1.
       -1    1    3    3    0  502 -0.54102089418E+02 -0.71973219619E+03 -0.67909901640E+03  0.99101813526E+03  0.50400001928E-02 0. -1.
</event>
<event>
 5   0  0.8122088E-06  0.2851665E+04  0.7818609E-02  0.8287406E-01
        1   -1    0    0  501    0  0.00000000000E+00  0.00000000000E+00  0.17095743276E+04  0.17095743276E+04  0.50400001928E-02 0.  1.
       -1   -1    0    0    0  501  0.00000000000E+00  0.00000000000E+00 -0.11891839691E+04  0.11891839691E+04  0.50400001928E-02 0. -1.
    10030    2    1    2    0    0  0.00000000000E+00  0.00000000000E+00  0.52039035843E+03  0.28987582967E+04  0.28516650465E+04 0.  0.
        1    1    3    3  502    0  0.41144282758E+03  0.27255365219E+03  0.16199811904E+04  0.16934904047E+04  0.50400001928E-02 0.  1.
       -1    1    3    3    0  502 -0.41144282758E+03 -0.27255365219E+03 -0.10995908320E+04  0.12052678920E+04  0.50400001928E-02 0. -1.
</event>
<event>
 5   0  0.1937947E-05  0.2918285E+04  0.7818609E-02  0.8267458E-01
       -2   -1    0    0    0  501  0.00000000000E+00  0.00000000000E+00  0.15138756979E+04  0.15138756979E+04  0.25500000920E-02 0.  1.
        2   -1    0    0  501    0  0.00000000000E+00  0.00000000000E+00 -0.14063878273E+04  0.14063878273E+04  0.25500000920E-02 0. -1.
    10030    2    1    2    0    0  0.00000000000E+00  0.00000000000E+00  0.10748787059E+03  0.29202635253E+04  0.29182846699E+04 0.  0.
        3    1    3    3  502    0 -0.14421284602E+04  0.22217422418E+03  0.54424046461E+02  0.14601567959E+04  0.10100000352E+00 0.  1.
       -3    1    3    3    0  502  0.14421284602E+04 -0.22217422418E+03  0.53063824129E+02  0.14601067294E+04  0.10100000352E+00 0. -1.
</event>
<event>
 5   0  0.1829810E-05  0.2962068E+04  0.7818609E-02  0.8254646E-01
        2   -1    0    0  501    0  0.00000000000E+00  0.00000000000E+00  0.21678082584E+04  0.21678082584E+04  0.25500000920E-02 0. -1.
       -2   -1    0    0    0  501  0.00000000000E+00  0.00000000000E+00 -0.10118340855E+04  0.10118340855E+04  0.25500000920E-02 0.  1.
    10030    2    1    2    0    0  0.00000000000E+00  0.00000000000E+00  0.11559741728E+04  0.31796423439E+04  0.29620683900E+04 0.  0.
        4    1    3    3  502    0  0.11516484867E+03  0.11842945837E+04  0.15246026114E+04  0.19339677709E+04  0.12699999809E+01 0. -1.
       -4    1    3    3    0  502 -0.11516484867E+03 -0.11842945837E+04 -0.36862843859E+03  0.12456745730E+04  0.12699999809E+01 0.  1.
</event>
<event>
 5   0  0.1976233E-05  0.2815541E+04  0.7818609E-02  0.8298460E-01
        2   -1    0    0  501    0  0.00000000000E+00  0.00000000000E+00  0.15464031642E+04  0.15464031642E+04  0.25500000920E-02 0. -1.
       -2   -1    0    0    0  501  0.00000000000E+00  0.00000000000E+00 -0.12815660983E+04  0.12815660983E+04  0.25500000920E-02 0.  1.
    10030    2    1    2    0    0  0.00000000000E+00  0.00000000000E+00  0.26483706593E+03  0.28279692625E+04  0.28155410631E+04 0.  0.
        2    1    3    3  502    0 -0.13645257014E+04  0.16524052433E+03  0.43803627175E+03  0.14426054887E+04  0.25500000920E-02 0.  1.
       -2    1    3    3    0  502  0.13645257014E+04 -0.16524052433E+03 -0.17319920582E+03  0.13853637737E+04  0.25500000920E-02 0. -1.
</event>
<event>
 5   0  0.1976233E-05  0.2064250E+04  0.7818609E-02  0.8577157E-01
       -2   -1    0    0    0  501  0.00000000000E+00  0.00000000000E+00  0.11315614112E+04  0.11315614112E+04  0.25500000920E-02 0. -1.
        2   -1    0    0  501    0  0.00000000000E+00  0.00000000000E+00 -0.94142641934E+03  0.94142641934E+03  0.25500000920E-02 0.  1.
    10030    2    1    2    0    0  0.00000000000E+00  0.00000000000E+00  0.19013499185E+03  0.20729878305E+04  0.20642497985E+04 0.  0.
        2    1    3    3  502    0  0.45101760877E+03  0.92705914498E+03  0.14453314336E+03  0.10410309175E+04  0.25500000920E-02 0. -1.
       -2    1    3    3    0  502 -0.45101760877E+03 -0.92705914498E+03  0.45601848489E+02  0.10319569130E+04  0.25500000920E-02 0.  1.
</event>
<event>
 5   0  0.1918901E-05  0.2800484E+04  0.7818609E-02  0.8303118E-01
       -2   -1    0    0    0  501  0.00000000000E+00  0.00000000000E+00  0.13190433099E+04  0.13190433099E+04  0.25500000920E-02 0. -1.
        2   -1    0    0  501    0  0.00000000000E+00  0.00000000000E+00 -0.14864389491E+04  0.14864389491E+04  0.25500000920E-02 0.  1.
    10030    2    1    2    0    0  0.00000000000E+00  0.00000000000E+00 -0.16739563919E+03  0.28054822590E+04  0.28004837806E+04 0.  0.
        1    1    3    3  502    0  0.11686005585E+04  0.73910428310E+03  0.13754687122E+03  0.13895400492E+04  0.50400001928E-02 0. -1.
       -1    1    3    3    0  502 -0.11686005585E+04 -0.73910428310E+03 -0.30494251040E+03  0.14159422097E+04  0.50400001928E-02 0.  1.
</event>
<event>
 5   0  0.7971153E-06  0.2859923E+04  0.7818609E-02  0.8284902E-01
        1   -1    0    0  501    0  0.00000000000E+00  0.00000000000E+00  0.17923627752E+04  0.17923627752E+04  0.50400001928E-02 0.  1.
       -1   -1    0    0    0  501  0.00000000000E+00  0.00000000000E+00 -0.11408349392E+04  0.11408349392E+04  0.50400001928E-02 0. -1.
    10030    2    1    2    0    0  0.00000000000E+00  0.00000000000E+00  0.65152783601E+03  0.29331977144E+04  0.28599231302E+04 0.  0.
        5    1    3    3  502    0  0.14183639471E+04 -0.11994426941E+03  0.18579359150E+03  0.14355083639E+04  0.46999998093E+01 0.  1.
       -5    1    3    3    0  502 -0.14183639471E+04  0.11994426941E+03  0.46573424451E+03  0.14976893505E+04  0.46999998093E+01 0. -1.
</event>
<event>
 5   0  0.8122088E-06  0.2918061E+04  0.7818609E-02  0.8267524E-01
        1   -1    0    0  501    0  0.00000000000E+00  0.00000000000E+00  0.72858307190E+03  0.72858307192E+03  0.50400001928E-02 0. -1.
       -1   -1    0    0    0  501  0.00000000000E+00  0.00000000000E+00 -0.29217954288E+04  0.29217954288E+04  0.50400001928E-02 0.  1.
    10030    2    1    2    0    0  0.00000000000E+00  0.00000000000E+00 -0.21932123569E+04  0.36503785007E+04  0.29180614723E+04 0.  0.
        1    1    3    3  502    0 -0.48954421900E+03  0.84925064850E+03  0.25529367524E+03  0.10129437630E+04  0.50400001928E-02 0. -1.
       -1    1    3    3    0  502  0.48954421900E+03 -0.84925064850E+03 -0.24485060322E+04  0.26374347377E+04  0.50400001928E-02 0.  1.
</event>
<event>
 5   0  0.1918901E-05  0.2884625E+04  0.7818609E-02  0.8277467E-01
        2   -1    0    0  501    0  0.00000000000E+00  0.00000000000E+00  0.13368936982E+04  0.13368936982E+04  0.25500000920E-02 0.  1.
       -2   -1    0    0    0  501  0.00000000000E+00  0.00000000000E+00 -0.15560435943E+04  0.15560435943E+04  0.25500000920E-02 0. -1.
    10030    2    1    2    0    0  0.00000000000E+00  0.00000000000E+00 -0.21914989612E+03  0.28929372925E+04  0.28846246726E+04 0.  0.
        1    1    3    3  502    0 -0.51512128330E+03 -0.49839782120E+03  0.11456365903E+04  0.13513820784E+04  0.50400001928E-02 0.  1.
       -1    1    3    3    0  502  0.51512128330E+03  0.49839782120E+03 -0.13647864864E+04  0.15415552141E+04  0.50400001928E-02 0. -1.
</event>
<event>
 5   0  0.8055928E-06  0.2861471E+04  0.7818609E-02  0.8284434E-01
        1   -1    0    0  501    0  0.00000000000E+00  0.00000000000E+00  0.16725207478E+04  0.16725207478E+04  0.50400001928E-02 0.  1.
       -1   -1    0    0    0  501  0.00000000000E+00  0.00000000000E+00 -0.12239034975E+04  0.12239034975E+04  0.50400001928E-02 0. -1.
    10030    2    1    2    0    0  0.00000000000E+00  0.00000000000E+00  0.44861725030E+03  0.28964242454E+04  0.28614709455E+04 0.  0.
        2    1    3    3  502    0 -0.37315400185E+03  0.39578156640E+03  0.15637706955E+04  0.16556768240E+04  0.25500000920E-02 0.  1.
       -2    1    3    3    0  502  0.37315400185E+03 -0.39578156640E+03 -0.11151534452E+04  0.12407474214E+04  0.25500000920E-02 0. -1.
</event>
<event>
 5   0  0.8234888E-06  0.3015906E+04  0.7818609E-02  0.8239203E-01
       -1   -1    0    0    0  501  0.00000000000E+00  0.00000000000E+00  0.21038118788E+04  0.21038118788E+04  0.50400001928E-02 0.  1.
        1   -1    0    0  501    0  0.00000000000E+00  0.00000000000E+00 -0.10808583859E+04  0.10808583859E+04  0.50400001928E-02 0. -1.
    10030    2    1    2    0    0  0.00000000000E+00  0.00000000000E+00  0.10229534929E+04  0.31846702647E+04  0.30159063060E+04 0.  0.
        3    1    3    3  502    0 -0.12010991943E+04  0.36994808933E+03 -0.36847389562E+03  0.13096846511E+04  0.10100000352E+00 0. -1.
       -3    1    3    3    0  502  0.12010991943E+04 -0.36994808933E+03  0.13914273886E+04  0.18749856136E+04  0.10100000352E+00 0.  1.
</event>
<event>
 5   0  0.7305460E-06  0.2864122E+04  0.7818609E-02  0.8283633E-01
       -1   -1    0    0    0  501  0.00000000000E+00  0.00000000000E+00  0.11662232925E+04  0.11662232925E+04  0.50400001928E-02 0.  1.
        1   -1    0    0  501    0  0.00000000000E+00  0.00000000000E+00 -0.17584953818E+04  0.17584953818E+04  0.50400001928E-02 0. -1.
    10030    2    1    2    0    0  0.00000000000E+00  0.00000000000E+00 -0.59227208923E+03  0.29247186743E+04  0.28641216972E+04 0.  0.
        4    1    3    3  502    0  0.10730906631E+04 -0.89683727071E+03  0.18532865650E+02  0.13986371014E+04  0.12699999809E+01 0.  1.
       -4    1    3    3    0  502 -0.10730906631E+04  0.89683727071E+03 -0.61080495488E+03  0.15260815729E+04  0.12699999809E+01 0. -1.
</event>
<event>
 5   0  0.1918901E-05  0.2866217E+04  0.7818609E-02  0.8283000E-01
        2   -1    0    0  501    0  0.00000000000E+00  0.00000000000E+00  0.16695921311E+04  0.16695921311E+04  0.25500000920E-02 0. -1.
       -2   -1    0    0    0  501  0.00000000000E+00  0.00000000000E+00 -0.12301211348E+04  0.12301211348E+04  0.25500000920E-02 0.  1.
    10030    2    1    2    0    0  0.00000000000E+00  0.00000000000E+00  0.43947099626E+03  0.28997132659E+04  0.28662174147E+04 0.  0.
        1    1    3    3  502    0  0.72199764142E+03 -0.12130985020E+04 -0.29952314727E+02  0.14120147701E+04  0.50400001928E-02 0.  1.
       -1    1    3    3    0  502 -0.72199764142E+03  0.12130985020E+04  0.46942331099E+03  0.14876984959E+04  0.50400001928E-02 0. -1.
</event>
<event>
 5   0  0.8055928E-06  0.2824507E+04  0.7818609E-02  0.8295700E-01
       -1   -1    0    0    0  501  0.00000000000E+00  0.00000000000E+00  0.13872706365E+04  0.13872706365E+04  0.50400001928E-02 0. -1.
        1   -1    0    0  501    0  0.00000000000E+00  0.00000000000E+00 -0.14376864991E+04  0.14376864991E+04  0.50400001928E-02 0.  1.
    10030    2    1    2    0    0  0.00000000000E+00  0.00000000000E+00 -0.50415862657E+02  0.28249571356E+04  0.28245072241E+04 0.  0.
        2    1    3    3  502    0 -0.19129772069E+03 -0.10589534093E+04 -0.93994812903E+03  0.14288035646E+04  0.25500000920E-02 0.  1.
       -2    1    3    3    0  502  0.19129772069E+03  0.10589534093E+04  0.88953226638E+03  0.13961535710E+04  0.25500000920E-02 0. -1.
</event>
<event>
 5   0  0.7971153E-06  0.2572374E+04  0.7818609E-02  0.8377646E-01
       -1   -1    0    0    0  501  0.00000000000E+00  0.00000000000E+00  0.11093891449E+04  0.11093891449E+04  0.50400001928E-02 0. -1.
        1   -1    0    0  501    0  0.00000000000E+00  0.00000000000E+00 -0.14911599436E+04  0.14911599436E+04  0.50400001928E-02 0.  1.
    10030    2    1    2    0    0  0.00000000000E+00  0.00000000000E+00 -0.38177079869E+03  0.26005490885E+04  0.25723737324E+04 0.  0.
        5    1    3    3  502    0  0.12522250494E+04  0.27054406743E+03 -0.30612029244E+03  0.13171914782E+04  0.46999998093E+01 0. -1.
       -5    1    3    3    0  502 -0.12522250494E+04 -0.27054406743E+03 -0.75650506253E+02  0.12833576103E+04  0.46999998093E+01 0.  1.
</event>
<event>
 5   0  0.7971153E-06  0.2891874E+04  0.7818609E-02  0.8275299E-01
        1   -1    0    0  501    0  0.00000000000E+00  0.00000000000E+00  0.20418404937E+04  0.20418404937E+04  0.50400001928E-02 0.  1.
       -1   -1    0    0    0  501  0.00000000000E+00  0.00000000000E+00 -0.10239454620E+04  0.10239454620E+04  0.50400001928E-02 0. -1.
    10030    2    1    2    0    0  0.00000000000E+00  0.00000000000E+00  0.10178950317E+04  0.30657859557E+04  0.28918736539E+04 0.  0.
        5    1    3    3  502    0 -0.96722344038E+03 -0.92266745504E+03  0.10933470481E+04  0.17269239340E+04  0.46999998093E+01 0.  1.
       -5    1    3    3    0  502  0.96722344038E+03  0.92266745504E+03 -0.75452016426E+02  0.13388620216E+04  0.46999998093E+01 0. -1.
</event>
<event>
 5   0  0.1918901E-05  0.1475257E+04  0.7818609E-02  0.8901075E-01
       -2   -1    0    0    0  501  0.00000000000E+00  0.00000000000E+00  0.27618720202E+03  0.27618720203E+03  0.25500000920E-02 0.  1.
        2   -1    0    0  501    0  0.00000000000E+00  0.00000000000E+00 -0.19700256346E+04  0.19700256346E+04  0.25500000920E-02 0. -1.
    10030    2    1    2    0    0  0.00000000000E+00  0.00000000000E+00 -0.16938384326E+04  0.22462128366E+04  0.14752570867E+04 0.  0.
        1    1    3    3  502    0 -0.11706114306E+03 -0.48535524662E+03 -0.16736493334E+04  0.17465323123E+04  0.50400001928E-02 0. -1.
       -1    1    3    3    0  502  0.11706114306E+03  0.48535524662E+03 -0.20189099158E+02  0.49968052432E+03  0.50400001928E-02 0.  1.
</event>
<event>
 5   0  0.7971153E-06  0.1445296E+04  0.7818609E-02  0.8921668E-01
       -1   -1    0    0    0  501  0.00000000000E+00  0.00000000000E+00  0.45465149839E+03  0.45465149841E+03  0.50400001928E-02 0. -1.
        1   -1    0    0  501    0  0.00000000000E+00  0.00000000000E+00 -0.11486170105E+04  0.11486170105E+04  0.50400001928E-02 0.  1.
    10030    2    1    2    0    0  0.00000000000E+00  0.00000000000E+00 -0.69396551215E+03  0.16032685090E+04  0.14452964332E+04 0.  0.
        5    1    3    3  502    0 -0.55067892048E+03  0.21144095977E+03 -0.81003287584E+03  0.10020628238E+04  0.46999998093E+01 0.  1.
       -5    1    3    3    0  502  0.55067892048E+03 -0.21144095977E+03  0.11606736369E+03  0.60120568514E+03  0.46999998093E+01 0. -1.
</event>
<event>
 5   0  0.1976233E-05  0.1567372E+04  0.7818609E-02  0.8840847E-01
        2   -1    0    0  501    0  0.00000000000E+00  0.00000000000E+00  0.10377220363E+04  0.10377220363E+04  0.25500000920E-02 0.  1.
       -2   -1    0    0    0  501  0.00000000000E+00  0.00000000000E+00 -0.59183843595E+03  0.59183843596E+03  0.25500000920E-02 0. -1.
    10030    2    1    2    0    0  0.00000000000E+00  0.00000000000E+00  0.44588360034E+03  0.16295604723E+04  0.15673720515E+04 0.  0.
        2    1    3    3  502    0  0.15439227743E+03 -0.34166777441E+03 -0.49254169365E+03  0.61900820947E+03  0.25500000920E-02 0. -1.
       -2    1    3    3    0  502 -0.15439227743E+03  0.34166777441E+03  0.93842529399E+03  0.10105522628E+04  0.25500000920E-02 0.  1.
</event>
<event>
 5   0  0.8055928E-06  0.3026066E+04  0.7818609E-02  0.8236326E-01
        1   -1    0    0  501    0  0.00000000000E+00  0.00000000000E+00  0.20326202955E+04  0.20326202955E+04  0.50400001928E-02 0.  1.
       -1   -1    0    0    0  501  0.00000000000E+00  0.00000000000E+00 -0.11262651402E+04  0.11262651402E+04  0.50400001928E-02 0. -1.
    10030    2    1    2    0    0  0.00000000000E+00  0.00000000000E+00  0.90635515536E+03  0.31588854357E+04  0.30260663457E+04 0.  0.
        2    1    3    3  502    0 -0.67920990439E+03  0.95556913158E+03 -0.54527133395E+03  0.12929653078E+04  0.25500000920E-02 0. -1.
       -2    1    3    3    0  502  0.67920990439E+03 -0.95556913158E+03  0.14516264893E+04  0.18659201280E+04  0.25500000920E-02 0.  1.
</event>
<event>
 5   0  0.1960961E-05  0.2356791E+04  0.7818609E-02  0.8455860E-01
       -2   -1    0    0    0  501  0.00000000000E+00  0.00000000000E+00  0.61387494400E+03  0.61387494400E+03  0.25500000920E-02 0. -1.
        2   -1    0    0  501    0  0.00000000000E+00  0.00000000000E+00 -0.22620494691E+04  0.22620494691E+04  0.25500000920E-02 0.  1.
    10030    2    1    2    0    0  0.00000000000E+00  0.00000000000E+00 -0.16481745251E+04  0.28759244131E+04  0.23567906069E+04 0.  0.
        5    1    3    3  502    0 -0.78003772823E+03  0.42406142146E+03 -0.17695468612E+04  0.19797992653E+04  0.46999998093E+01 0.  1.
       -5    1    3    3    0  502  0.78003772823E+03 -0.42406142146E+03  0.12137233613E+03  0.89612514785E+03  0.46999998093E+01 0. -1.
</event>
<event>
 5   0  0.1829810E-05  0.2890017E+04  0.7818609E-02  0.8275854E-01
        2   -1    0    0  501    0  0.00000000000E+00  0.00000000000E+00  0.14378911429E+04  0.14378911429E+04  0.25500000920E-02 0. -1.
       -2   -1    0    0    0  501  0.00000000000E+00  0.00000000000E+00 -0.14521611245E+04  0.14521611246E+04  0.25500000920E-02 0.  1.
    10030    2    1    2    0    0  0.00000000000E+00  0.00000000000E+00 -0.14269981658E+02  0.28900522674E+04  0.28900170374E+04 0.  0.
        4    1    3    3  502    0  0.68446053198E+03 -0.86955477868E+03  0.92208905340E+03  0.14404379779E+04  0.12699999809E+01 0. -1.
       -4    1    3    3    0  502 -0.68446053198E+03  0.86955477868E+03 -0.93635903506E+03  0.14496142895E+04  0.12699999809E+01 0.  1.
</event>
<event>
 5   0  0.1829810E-05  0.2254699E+04  0.7818609E-02  0.8496000E-01
       -2   -1    0    0    0  501  0.00000000000E+00  0.00000000000E+00  0.94433077418E+03  0.94433077418E+03  0.25500000920E-02 0. -1.
        2   -1    0    0  501    0  0.00000000000E+00  0.00000000000E+00 -0.13458388490E+04  0.13458388490E+04  0.25500000920E-02 0.  1.
    10030    2    1    2    0    0  0.00000000000E+00  0.00000000000E+00 -0.40150807478E+03  0.22901696231E+04  0.22546991304E+04 0.  0.
        4    1    3    3  502    0 -0.86840577961E+03  0.44470932761E+03 -0.77445860937E+03  0.12456655790E+04  0.12699999809E+01 0.  1.
       -4    1    3    3    0  502  0.86840577961E+03 -0.44470932761E+03  0.37295053459E+03  0.10445040442E+04  0.12699999809E+01 0. -1.
</event>
<event>
 5   0  0.6578125E-06  0.2922902E+04  0.7818609E-02  0.8266096E-01
        3   -1    0    0  501    0  0.00000000000E+00  0.00000000000E+00  0.12098856922E+04  0.12098856964E+04  0.10100000352E+00 0. -1.
       -3   -1    0    0    0  501  0.00000000000E+00  0.00000000000E+00 -0.17653231697E+04  0.17653231726E+04  0.10100000352E+00 0.  1.
    10030    2    1    2    0    0  0.00000000000E+00  0.00000000000E+00 -0.55543747753E+03  0.29752088691E+04  0.29229021576E+04 0.  0.
        2    1    3    3  502    0 -0.89486944253E+03 -0.10651417130E+04 -0.73352804355E+03  0.15726988200E+04  0.25500000920E-02 0.  1.
       -2    1    3    3    0  502  0.89486944253E+03  0.10651417130E+04  0.17809056602E+03  0.14025100490E+04  0.25500000920E-02 0. -1.
</event>
<event>
 5   0  0.6578125E-06  0.2858155E+04  0.7818609E-02  0.8285438E-01
        3   -1    0    0  501    0  0.00000000000E+00  0.00000000000E+00  0.26355875188E+04  0.26355875207E+04  0.10100000352E+00 0. -1.
       -3   -1    0    0    0  501  0.00000000000E+00  0.00000000000E+00 -0.77487918519E+03  0.77487919177E+03  0.10100000352E+00 0.  1.
    10030    2    1    2    0    0  0.00000000000E+00  0.00000000000E+00  0.18607083336E+04  0.34104667125E+04  0.28581545959E+04 0.  0.
        3    1    3    3  502    0  0.48106807967E+03  0.10531038440E+04 -0.69270965862E+02  0.11598502836E+04  0.10100000352E+00 0.  1.
       -3    1    3    3    0  502 -0.48106807967E+03 -0.10531038440E+04  0.19299792995E+04  0.22506164289E+04  0.10100000352E+00 0. -1.
</event>
<event>
 5   0  0.7971153E-06  0.2869132E+04  0.7818609E-02  0.8282121E-01
        1   -1    0    0  501    0  0.00000000000E+00  0.00000000000E+00  0.18956955281E+04  0.18956955281E+04  0.50400001928E-02 0.  1.
       -1   -1    0    0    0  501  0.00000000000E+00  0.00000000000E+00 -0.10856063557E+04  0.10856063557E+04  0.50400001928E-02 0. -1.
    10030    2    1    2    0    0  0.00000000000E+00  0.00000000000E+00  0.81008917241E+03  0.29813018838E+04  0.28691316552E+04 0.  0.
        5    1    3    3  502    0 -0.16207395276E+03  0.59480200647E+03  0.17510241521E+04  0.18563849451E+04  0.46999998093E+01 0.  1.
       -5    1    3    3    0  502  0.16207395276E+03 -0.59480200647E+03 -0.94093497967E+03  0.11249169387E+04  0.46999998093E+01 0. -1.
</event>
<event>
 5   0  0.1829810E-05  0.2907066E+04  0.7818609E-02  0.8270778E-01
        2   -1    0    0  501    0  0.00000000000E+00  0.00000000000E+00  0.23449243319E+04  0.23449243319E+04  0.25500000920E-02 0. -1.
       -2   -1    0    0    0  501  0.00000000000E+00  0.00000000000E+00 -0.90099234078E+03  0.90099234078E+03  0.25500000920E-02 0.  1.
    10030    2    1    2    0    0  0.00000000000E+00  0.00000000000E+00  0.14439319911E+04  0.32459166727E+04  0.29070664683E+04 0.  0.
        4    1    3    3  502    0  0.36609412890E+03 -0.11088162621E+04 -0.24452617764E+03  0.11930184738E+04  0.12699999809E+01 0.  1.
       -4    1    3    3    0  502 -0.36609412890E+03  0.11088162621E+04  0.16884581688E+04  0.20528981989E+04  0.12699999809E+01 0. -1.
</event>
<event>
 5   0  0.1960961E-05  0.1714032E+04  0.7818609E-02  0.8753402E-01
       -2   -1    0    0    0  501  0.00000000000E+00  0.00000000000E+00  0.39763884541E+03  0.39763884542E+03  0.25500000920E-02 0. -1.
        2   -1    0    0  501    0  0.00000000000E+00  0.00000000000E+00 -0.18470933387E+04  0.18470933387E+04  0.25500000920E-02 0.  1.
    10030    2    1    2    0    0  0.00000000000E+00  0.00000000000E+00 -0.14494544933E+04  0.22447321841E+04  0.17140315780E+04 0.  0.
        5    1    3    3  502    0 -0.54958777584E+03 -0.63983635048E+03 -0.92341320929E+03  0.12506603551E+04  0.46999998093E+01 0.  1.
       -5    1    3    3    0  502  0.54958777584E+03  0.63983635048E+03 -0.52604128399E+03  0.99407182900E+03  0.46999998093E+01 0. -1.
</event>
<event>
 5   0  0.8234888E-06  0.2448760E+04  0.7818609E-02  0.8421471E-01
       -1   -1    0    0    0  501  0.00000000000E+00  0.00000000000E+00  0.67279350716E+03  0.67279350718E+03  0.50400001928E-02 0.  1.
        1   -1    0    0  501    0  0.00000000000E+00  0.00000000000E+00 -0.22281820957E+04  0.22281820957E+04  0.50400001928E-02 0. -1.
    10030    2    1    2    0    0  0.00000000000E+00  0.00000000000E+00 -0.15553885886E+04  0.29009756029E+04  0.24487600510E+04 0.  0.
        3    1    3    3  502    0  0.14840438843E+03 -0.10799605684E+04 -0.14381075974E+04  0.18045753417E+04  0.10100000352E+00 0. -1.
       -3    1    3    3    0  502 -0.14840438843E+03  0.10799605684E+04 -0.11728099114E+03  0.10964002613E+04  0.10100000352E+00 0.  1.
</event>
<event>
 5   0  0.1829810E-05  0.1514513E+04  0.7818609E-02  0.8874859E-01
       -2   -1    0    0    0  501  0.00000000000E+00  0.00000000000E+00  0.43753468231E+03  0.43753468232E+03  0.25500000920E-02 0. -1.
        2   -1    0    0  501    0  0.00000000000E+00  0.00000000000E+00 -0.13106098891E+04  0.13106098891E+04  0.25500000920E-02 0.  1.
    10030    2    1    2    0    0  0.00000000000E+00  0.00000000000E+00 -0.87307520680E+03  0.17481445714E+04  0.15145128345E+04 0.  0.
        4    1    3    3  502    0 -0.25609118405E+03  0.12827792247E+03  0.37259736234E+03  0.46996630439E+03  0.12699999809E+01 0. -1.
       -4    1    3    3    0  502  0.25609118405E+03 -0.12827792247E+03 -0.12456725691E+04  0.12781782670E+04  0.12699999809E+01 0.  1.
</event>
<event>
 5   0  0.1918901E-05  0.2875999E+04  0.7818609E-02  0.8280054E-01
        2   -1    0    0  501    0  0.00000000000E+00  0.00000000000E+00  0.13744199247E+04  0.13744199247E+04  0.25500000920E-02 0. -1.
       -2   -1    0    0    0  501  0.00000000000E+00  0.00000000000E+00 -0.15045201481E+04  0.15045201481E+04  0.25500000920E-02 0.  1.
    10030    2    1    2    0    0  0.00000000000E+00  0.00000000000E+00 -0.13010022341E+03  0.28789400727E+04  0.28759989350E+04 0.  0.
        1    1    3    3  502    0 -0.59249556855E+03  0.65544347078E+03 -0.12007522515E+04  0.14907927796E+04  0.50400001928E-02 0.  1.
       -1    1    3    3    0  502  0.59249556855E+03 -0.65544347078E+03  0.10706520281E+04  0.13881472931E+04  0.50400001928E-02 0. -1.
</event>
<event>
 5   0  0.8234888E-06  0.2833544E+04  0.7818609E-02  0.8292929E-01
        1   -1    0    0  501    0  0.00000000000E+00  0.00000000000E+00  0.18461321191E+04  0.18461321191E+04  0.50400001928E-02 0. -1.
       -1   -1    0    0    0  501  0.00000000000E+00  0.00000000000E+00 -0.10872697013E+04  0.10872697014E+04  0.50400001928E-02 0.  1.
    10030    2    1    2    0    0  0.00000000000E+00  0.00000000000E+00  0.75886241776E+03  0.29334018205E+04  0.28335444361E+04 0.  0.
        3    1    3    3  502    0  0.27716538530E+03 -0.90569754646E+03  0.14701916782E+04  0.17488774335E+04  0.10100000352E+00 0. -1.
       -3    1    3    3    0  502 -0.27716538530E+03  0.90569754646E+03 -0.71132926043E+03  0.11845243870E+04  0.10100000352E+00 0.  1.
</event>
<event>
 5   0  0.1937947E-05  0.2846081E+04  0.7818609E-02  0.8289103E-01
        2   -1    0    0  501    0  0.00000000000E+00  0.00000000000E+00  0.15107363398E+04  0.15107363398E+04  0.25500000920E-02 0.  1.
       -2   -1    0    0    0  501  0.00000000000E+00  0.00000000000E+00 -0.13404347999E+04  0.13404347999E+04  0.25500000920E-02 0. -1.
    10030    2    1    2    0    0  0.00000000000E+00  0.00000000000E+00  0.17030153997E+03  0.28511711397E+04  0.28460805072E+04 0.  0.
        3    1    3    3  502    0 -0.38175076114E+03  0.33929381554E+03 -0.12454529592E+04  0.13461081014E+04  0.10100000352E+00 0. -1.
       -3    1    3    3    0  502  0.38175076114E+03 -0.33929381554E+03  0.14157544992E+04  0.15050630382E+04  0.10100000352E+00 0.  1.
</event>
<event>
 5   0  0.8234888E-06  0.2681032E+04  0.7818609E-02  0.8341186E-01
       -1   -1    0    0    0  501  0.00000000000E+00  0.00000000000E+00  0.15341841248E+04  0.15341841248E+04  0.50400001928E-02 0.  1.
        1   -1    0    0  501    0  0.00000000000E+00  0.00000000000E+00 -0.11712957474E+04  0.11712957474E+04  0.50400001928E-02 0. -1.
    10030    2    1    2    0    0  0.00000000000E+00  0.00000000000E+00  0.36288837740E+03  0.27054798722E+04  0.26810321454E+04 0.  0.
        3    1    3    3  502    0  0.20498598854E+03  0.78711954833E+03 -0.89382709880E+03  0.12085128595E+04  0.10100000352E+00 0. -1.
       -3    1    3    3    0  502 -0.20498598854E+03 -0.78711954833E+03  0.12567154762E+04  0.14969670127E+04  0.10100000352E+00 0.  1.
</event>
<event>
 5   0  0.7971153E-06  0.2892941E+04  0.7818609E-02  0.8274981E-01
       -1   -1    0    0    0  501  0.00000000000E+00  0.00000000000E+00  0.15607158708E+04  0.15607158708E+04  0.50400001928E-02 0. -1.
        1   -1    0    0  501    0  0.00000000000E+00  0.00000000000E+00 -0.13405877442E+04  0.13405877442E+04  0.50400001928E-02 0.  1.
    10030    2    1    2    0    0  0.00000000000E+00  0.00000000000E+00  0.22012812660E+03  0.29013036150E+04  0.28929407658E+04 0.  0.
        5    1    3    3  502    0 -0.49976020348E+02  0.12991996603E+04 -0.52567465695E+03  0.14024169476E+04  0.46999998093E+01 0.  1.
       -5    1    3    3    0  502  0.49976020348E+02 -0.12991996603E+04  0.74580278355E+03  0.14988866674E+04  0.46999998093E+01 0. -1.
</event>
<event>
 5   0  0.8122088E-06  0.2994937E+04  0.7818609E-02  0.8245178E-01
       -1   -1    0    0    0  501  0.00000000000E+00  0.00000000000E+00  0.21269588876E+04  0.21269588876E+04  0.50400001928E-02 0.  1.
        1   -1    0    0  501    0  0.00000000000E+00  0.00000000000E+00 -0.10542809414E+04  0.10542809415E+04  0.50400001928E-02 0. -1.
    10030    2    1    2    0    0  0.00000000000E+00  0.00000000000E+00  0.10726779461E+04  0.31812398290E+04  0.29949372070E+04 0.  0.
        1    1    3    3  502    0  0.93408743355E+02  0.66232678814E+02  0.21223016877E+04  0.21253885327E+04  0.50400001928E-02 0.  1.
       -1    1    3    3    0  502 -0.93408743355E+02 -0.66232678814E+02 -0.10496237416E+04  0.10558512964E+04  0.50400001928E-02 0. -1.
</event>
<event>
 5   0  0.8122088E-06  0.2817410E+04  0.7818609E-02  0.8297884E-01
       -1   -1    0    0    0  501  0.00000000000E+00  0.00000000000E+00  0.93608147816E+03  0.93608147817E+03  0.50400001928E-02 0. -1.
        1   -1    0    0  501    0  0.00000000000E+00  0.00000000000E+00 -0.21199541846E+04  0.21199541847E+04  0.50400001928E-02 0.  1.
    10030    2    1    2    0    0  0.00000000000E+00  0.00000000000E+00 -0.11838727065E+04  0.30560356628E+04  0.28174100495E+04 0.  0.
        1    1    3    3  502    0  0.27236837317E+03 -0.77083101923E+03 -0.18363085657E+04  0.20100731677E+04  0.50400001928E-02 0.  1.
       -1    1    3    3    0  502 -0.27236837317E+03  0.77083101923E+03  0.65243585920E+03  0.10459624952E+04  0.50400001928E-02 0. -1.
</event>
<event>
 5   0  0.1937947E-05  0.2847367E+04  0.7818609E-02  0.8288712E-01
        2   -1    0    0  501    0  0.00000000000E+00  0.00000000000E+00  0.12550258396E+04  0.12550258396E+04  0.25500000920E-02 0.  1.
       -2   -1    0    0    0  501  0.00000000000E+00  0.00000000000E+00 -0.16150060183E+04  0.16150060183E+04  0.25500000920E-02 0. -1.
    10030    2    1    2    0    0  0.00000000000E+00  0.00000000000E+00 -0.35998017868E+03  0.28700318579E+04  0.28473667021E+04 0.  0.
        3    1    3    3  502    0  0.33098115609E+02  0.12620065370E+04  0.48336578141E+03  0.13518130320E+04  0.10100000352E+00 0. -1.
       -3    1    3    3    0  502 -0.33098115609E+02 -0.12620065370E+04 -0.84334596009E+03  0.15182188259E+04  0.10100000352E+00 0.  1.
</event>
<event>
 5   0  0.8122088E-06  0.2424069E+04  0.7818609E-02  0.8430547E-01
        1   -1    0    0  501    0  0.00000000000E+00  0.00000000000E+00  0.14110757224E+04  0.14110757225E+04  0.50400001928E-02 0.  1.
       -1   -1    0    0    0  501  0.00000000000E+00  0.00000000000E+00 -0.10410694446E+04  0.10410694446E+04  0.50400001928E-02 0. -1.
    10030    2    1    2    0    0  0.00000000000E+00  0.00000000000E+00  0.37000627788E+03  0.24521451670E+04  0.24240691563E+04 0.  0.
        1    1    3    3  502    0  0.62079528023E+03  0.10128028110E+04  0.42835437598E+03  0.12627920594E+04  0.50400001928E-02 0.  1.
       -1    1    3    3    0  502 -0.62079528023E+03 -0.10128028110E+04 -0.58348098100E+02  0.11893531076E+04  0.50400001928E-02 0. -1.
</event>
<event>
 5   0  0.8055928E-06  0.2813855E+04  0.7818609E-02  0.8298980E-01
        1   -1    0    0  501    0  0.00000000000E+00  0.00000000000E+00  0.13613788793E+04  0.13613788793E+04  0.50400001928E-02 0. -1.
       -1   -1    0    0    0  501  0.00000000000E+00  0.00000000000E+00 -0.14540004821E+04  0.14540004821E+04  0.50400001928E-02 0.  1.
    10030    2    1    2    0    0  0.00000000000E+00  0.00000000000E+00 -0.92621602843E+02  0.28153793615E+04  0.28138553956E+04 0.  0.
        2    1    3    3  502    0 -0.29445205733E+03 -0.13509600872E+04 -0.30654852654E+03  0.14162510972E+04  0.25500000920E-02 0.  1.
       -2    1    3    3    0  502  0.29445205733E+03  0.13509600872E+04  0.21392692369E+03  0.13991282643E+04  0.25500000920E-02 0. -1.
</event>
<event>
 5   0  0.7971153E-06  0.2887284E+04  0.7818609E-02  0.8276671E-01
       -1   -1    0    0    0  501  0.00000000000E+00  0.00000000000E+00  0.13464913186E+04  0.13464913186E+04  0.50400001928E-02 0.  1.
        1   -1    0    0  501    0  0.00000000000E+00  0.00000000000E+00 -0.15478018899E+04  0.15478018900E+04  0.50400001928E-02 0. -1.
    10030    2    1    2    0    0  0.00000000000E+00  0.00000000000E+00 -0.20131057133E+03  0.28942932086E+04  0.28872837116E+04 0.  0.
        5    1    3    3  502    0 -0.85307734139E+03  0.40774193497E+02 -0.12673865091E+04  0.15282977912E+04  0.46999998093E+01 0. -1.
       -5    1    3    3    0  502  0.85307734139E+03 -0.40774193497E+02  0.10660759377E+04  0.13659954174E+04  0.46999998093E+01 0.  1.
</event>
<event>
 5   0  0.1829810E-05  0.3054455E+04  0.7818609E-02  0.8228350E-01
        2   -1    0    0  501    0  0.00000000000E+00  0.00000000000E+00  0.11203578253E+04  0.11203578253E+04  0.25500000920E-02 0. -1.
       -2   -1    0    0    0  501  0.00000000000E+00  0.00000000000E+00 -0.20818561517E+04  0.20818561517E+04  0.25500000920E-02 0.  1.
    10030    2    1    2    0    0  0.00000000000E+00  0.00000000000E+00 -0.96149832641E+03  0.32022139770E+04  0.30544549961E+04 0.  0.
        4    1    3    3  502    0  0.46055324912E+03 -0.84584281686E+03  0.76185722652E+03  0.12280013895E+04  0.12699999809E+01 0. -1.
       -4    1    3    3    0  502 -0.46055324912E+03  0.84584281686E+03 -0.17233555529E+04  0.19742125875E+04  0.12699999809E+01 0.  1.
</event>
<event>
 5   0  0.1937947E-05  0.2916827E+04  0.7818609E-02  0.8267889E-01
       -2   -1    0    0    0  501  0.00000000000E+00  0.00000000000E+00  0.11903231395E+04  0.11903231395E+04  0.25500000920E-02 0.  1.
        2   -1    0    0  501    0  0.00000000000E+00  0.00000000000E+00 -0.17868843915E+04  0.17868843915E+04  0.25500000920E-02 0. -1.
    10030    2    1    2    0    0  0.00000000000E+00  0.00000000000E+00 -0.59656125200E+03  0.29772075310E+04  0.29168269327E+04 0.  0.
        3    1    3    3  502    0 -0.65855568620E+03  0.12566022876E+04 -0.64324869162E+03  0.15577271232E+04  0.10100000352E+00 0. -1.
       -3    1    3    3    0  502  0.65855568620E+03 -0.12566022876E+04  0.46687439617E+02  0.14194804078E+04  0.10100000352E+00 0.  1.
</event>
<event>
 5   0  0.7305460E-06  0.1726769E+04  0.7818609E-02  0.8746242E-01
       -1   -1    0    0    0  501  0.00000000000E+00  0.00000000000E+00  0.41433738751E+03  0.41433738754E+03  0.50400001928E-02 0. -1.
        1   -1    0    0  501    0  0.00000000000E+00  0.00000000000E+00 -0.17990970990E+04  0.17990970990E+04  0.50400001928E-02 0.  1.
    10030    2    1    2    0    0  0.00000000000E+00  0.00000000000E+00 -0.13847597115E+04  0.22134344865E+04  0.17267694599E+04 0.  0.
        4    1    3    3  502    0 -0.23462884616E+03 -0.12242737259E+03  0.36106159985E+03  0.44766756505E+03  0.12699999809E+01 0. -1.
       -4    1    3    3    0  502  0.23462884616E+03  0.12242737259E+03 -0.17458213113E+04  0.17657669215E+04  0.12699999809E+01 0.  1.
</event>
<event>
 5   0  0.8055928E-06  0.2890720E+04  0.7818609E-02  0.8275644E-01
        1   -1    0    0  501    0  0.00000000000E+00  0.00000000000E+00  0.21590161372E+04  0.21590161372E+04  0.50400001928E-02 0. -1.
       -1   -1    0    0    0  501  0.00000000000E+00  0.00000000000E+00 -0.96760041420E+03  0.96760041421E+03  0.50400001928E-02 0.  1.
    10030    2    1    2    0    0  0.00000000000E+00  0.00000000000E+00  0.11914157230E+04  0.31266165515E+04  0.28907195704E+04 0.  0.
        2    1    3    3  502    0 -0.70619305770E+03 -0.61724293692E+02 -0.76666206073E+03  0.10441691618E+04  0.25500000920E-02 0.  1.
       -2    1    3    3    0  502  0.70619305770E+03  0.61724293692E+02  0.19580777838E+04  0.20824473896E+04  0.25500000920E-02 0. -1.
</event>
<event>
 5   0  0.7305460E-06  0.2871281E+04  0.7818609E-02  0.8281474E-01
       -1   -1    0    0    0  501  0.00000000000E+00  0.00000000000E+00  0.78895301374E+03  0.78895301376E+03  0.50400001928E-02 0. -1.
        1   -1    0    0  501    0  0.00000000000E+00  0.00000000000E+00 -0.26124028577E+04  0.26124028577E+04  0.50400001928E-02 0.  1.
    10030    2    1    2    0    0  0.00000000000E+00  0.00000000000E+00 -0.18234498440E+04  0.34013558715E+04  0.28712806256E+04 0.  0.
        4    1    3    3  502    0  0.75496535486E+03 -0.79779074187E+03  0.18339741771E+03  0.11135883353E+04  0.12699999809E+01 0.  1.
       -4    1    3    3    0  502 -0.75496535486E+03  0.79779074187E+03 -0.20068472617E+04  0.22877675361E+04  0.12699999809E+01 0. -1.
</event>
<event>
 5   0  0.8122088E-06  0.2546420E+04  0.7818609E-02  0.8386632E-01
        1   -1    0    0  501    0  0.00000000000E+00  0.00000000000E+00  0.14910102802E+04  0.14910102802E+04  0.50400001928E-02 0. -1.
       -1   -1    0    0    0  501  0.00000000000E+00  0.00000000000E+00 -0.10872247627E+04  0.10872247628E+04  0.50400001928E-02 0.  1.
    10030    2    1    2    0    0  0.00000000000E+00  0.00000000000E+00  0.40378551745E+03  0.25782350430E+04  0.25464196812E+04 0.  0.
        1    1    3    3  502    0  0.12530188619E+04 -0.66490829952E+02  0.42042737155E+03  0.13233429161E+04  0.50400001928E-02 0. -1.
       -1    1    3    3    0  502 -0.12530188619E+04  0.66490829952E+02 -0.16641854103E+02  0.12548921269E+04  0.50400001928E-02 0.  1.
</event>
<event>
 5   0  0.7305460E-06  0.2910811E+04  0.7818609E-02  0.8269668E-01
        1   -1    0    0  501    0  0.00000000000E+00  0.00000000000E+00  0.17176713764E+04  0.17176713764E+04  0.50400001928E-02 0.  1.
       -1   -1    0    0    0  501  0.00000000000E+00  0.00000000000E+00 -0.12331845034E+04  0.12331845034E+04  0.50400001928E-02 0. -1.
    10030    2    1    2    0    0  0.00000000000E+00  0.00000000000E+00  0.48448687300E+03  0.29508558798E+04  0.29108113806E+04 0.  0.
        4    1    3    3  502    0 -0.61534880641E+03  0.78149883973E+03 -0.83482739945E+03  0.12985888456E+04  0.12699999809E+01 0. -1.
       -4    1    3    3    0  502  0.61534880641E+03 -0.78149883973E+03  0.13193142724E+04  0.16522670342E+04  0.12699999809E+01 0.  1.
</event>
<event>
 5   0  0.1829810E-05  0.2757089E+04  0.7818609E-02  0.8316716E-01
       -2   -1    0    0    0  501  0.00000000000E+00  0.00000000000E+00  0.91786114421E+03  0.91786114421E+03  0.25500000920E-02 0.  1.
        2   -1    0    0  501    0  0.00000000000E+00  0.00000000000E+00 -0.20704497550E+04  0.20704497550E+04  0.25500000920E-02 0. -1.
    10030    2    1    2    0    0  0.00000000000E+00  0.00000000000E+00 -0.11525886108E+04  0.29883108992E+04  0.27570893211E+04 0.  0.
        4    1    3    3  502    0 -0.75580962315E+03 -0.55060466304E+03  0.52155388924E+03  0.10707164675E+04  0.12699999809E+01 0.  1.
       -4    1    3    3    0  502  0.75580962315E+03  0.55060466304E+03 -0.16741425000E+04  0.19175944318E+04  0.12699999809E+01 0. -1.
</event>
<event>
 5   0  0.1829810E-05  0.2847310E+04  0.7818609E-02  0.8288729E-01
       -2   -1    0    0    0  501  0.00000000000E+00  0.00000000000E+00  0.64462502861E+03  0.64462502861E+03  0.25500000920E-02 0. -1.
        2   -1    0    0  501    0  0.00000000000E+00  0.00000000000E+00 -0.31441436351E+04  0.31441436351E+04  0.25500000920E-02 0.  1.
    10030    2    1    2    0    0  0.00000000000E+00  0.00000000000E+00 -0.24995186065E+04  0.37887686637E+04  0.28473100855E+04 0.  0.
        4    1    3    3  502    0  0.84760602022E+03  0.27947101466E+02 -0.27713457697E+04  0.28982022004E+04  0.12699999809E+01 0.  1.
       -4    1    3    3    0  502 -0.84760602022E+03 -0.27947101466E+02  0.27182716326E+03  0.89056646332E+03  0.12699999809E+01 0. -1.
</event>
<event>
 5   0  0.8122088E-06  0.3027089E+04  0.7818609E-02  0.8236037E-01
       -1   -1    0    0    0  501  0.00000000000E+00  0.00000000000E+00  0.19336141311E+04  0.19336141311E+04  0.50400001928E-02 0.  1.
        1   -1    0    0  501    0  0.00000000000E+00  0.00000000000E+00 -0.11847333534E+04  0.11847333534E+04  0.50400001928E-02 0. -1.
    10030    2    1    2    0    0  0.00000000000E+00  0.00000000000E+00  0.74888077770E+03  0.31183474845E+04  0.30270891323E+04 0.  0.
        1    1    3    3  502    0 -0.14389261289E+04  0.24696476381E+02  0.85729143245E+03  0.16751319114E+04  0.50400001928E-02 0. -1.
       -1    1    3    3    0  502  0.14389261289E+04 -0.24696476381E+02 -0.10841065475E+03  0.14432155731E+04  0.50400001928E-02 0.  1.
</event>
<event>
 5   0  0.7305460E-06  0.2902574E+04  0.7818609E-02  0.8272112E-01
        1   -1    0    0  501    0  0.00000000000E+00  0.00000000000E+00  0.20015597650E+04  0.20015597650E+04  0.50400001928E-02 0.  1.
       -1   -1    0    0    0  501  0.00000000000E+00  0.00000000000E+00 -0.10522961794E+04  0.10522961794E+04  0.50400001928E-02 0. -1.
    10030    2    1    2    0    0  0.00000000000E+00  0.00000000000E+00  0.94926358564E+03  0.30538559444E+04  0.29025738189E+04 0.  0.
        4    1    3    3  502    0  0.97492995267E+03  0.10528691535E+04  0.70323549325E+03  0.15979873713E+04  0.12699999809E+01 0.  1.
       -4    1    3    3    0  502 -0.97492995267E+03 -0.10528691535E+04  0.24602809239E+03  0.14558685731E+04  0.12699999809E+01 0. -1.
</event>
<event>
 5   0  0.1829810E-05  0.2526247E+04  0.7818609E-02  0.8393694E-01
        2   -1    0    0  501    0  0.00000000000E+00  0.00000000000E+00  0.14425417223E+04  0.14425417223E+04  0.25500000920E-02 0.  1.
       -2   -1    0    0    0  501  0.00000000000E+00  0.00000000000E+00 -0.11060210165E+04  0.11060210165E+04  0.25500000920E-02 0. -1.
    10030    2    1    2    0    0  0.00000000000E+00  0.00000000000E+00  0.33652070577E+03  0.25485627388E+04  0.25262473846E+04 0.  0.
        4    1    3    3  502    0  0.72383949448E+03 -0.77370953057E+03  0.86201931778E+03  0.13658876120E+04  0.12699999809E+01 0.  1.
       -4    1    3    3    0  502 -0.72383949448E+03  0.77370953057E+03 -0.52549861201E+03  0.11826751268E+04  0.12699999809E+01 0. -1.
</event>
<event>
 5   0  0.1829810E-05  0.2909578E+04  0.7818609E-02  0.8270033E-01
        2   -1    0    0  501    0  0.00000000000E+00  0.00000000000E+00  0.27627651256E+04  0.27627651256E+04  0.25500000920E-02 0.  1.
       -2   -1    0    0    0  501  0.00000000000E+00  0.00000000000E+00 -0.76604833647E+03  0.76604833647E+03  0.25500000920E-02 0. -1.
    10030    2    1    2    0    0  0.00000000000E+00  0.00000000000E+00  0.19967167891E+04  0.35288134620E+04  0.29095784083E+04 0.  0.
        4    1    3    3  502    0 -0.84315029520E+03  0.41532180022E+03  0.23450956871E+04  0.25264342486E+04  0.12699999809E+01 0.  1.
       -4    1    3    3    0  502  0.84315029520E+03 -0.41532180022E+03 -0.34837889800E+03  0.10023792134E+04  0.12699999809E+01 0. -1.
</event>
<event>
 5   0  0.1960961E-05  0.2994905E+04  0.7818609E-02  0.8245187E-01
       -2   -1    0    0    0  501  0.00000000000E+00  0.00000000000E+00  0.17521305811E+04  0.17521305811E+04  0.25500000920E-02 0.  1.
        2   -1    0    0  501    0  0.00000000000E+00  0.00000000000E+00 -0.12797927143E+04  0.12797927143E+04  0.25500000920E-02 0. -1.
    10030    2    1    2    0    0  0.00000000000E+00  0.00000000000E+00  0.47233786688E+03  0.30319232954E+04  0.29949049749E+04 0.  0.
        5    1    3    3  502    0 -0.10053579885E+04 -0.14391849648E+03 -0.87783454876E+03  0.13424130526E+04  0.46999998093E+01 0. -1.
       -5    1    3    3    0  502  0.10053579885E+04  0.14391849648E+03  0.13501724156E+04  0.16895102428E+04  0.46999998093E+01 0.  1.
</event>
<event>
 5   0  0.1918901E-05  0.3049592E+04  0.7818609E-02  0.8229710E-01
       -2   -1    0    0    0  501  0.00000000000E+00  0.00000000000E+00  0.87989931606E+03  0.87989931607E+03  0.25500000920E-02 0.  1.
        2   -1    0    0  501    0  0.00000000000E+00  0.00000000000E+00 -0.26423507908E+04  0.26423507908E+04  0.25500000920E-02 0. -1.
    10030    2    1    2    0    0  0.00000000000E+00  0.00000000000E+00 -0.17624514747E+04  0.35222501068E+04  0.30495918767E+04 0.  0.
        1    1    3    3  502    0  0.10904411039E+04  0.13133681986E+03 -0.21028387115E+04  0.23723915798E+04  0.50400001928E-02 0.  1.
       -1    1    3    3    0  502 -0.10904411039E+04 -0.13133681986E+03  0.34038723679E+03  0.11498585270E+04  0.50400001928E-02 0. -1.
</event>
<event>
 5   0  0.6578125E-06  0.2018431E+04  0.7818609E-02  0.8598052E-01
        3   -1    0    0  501    0  0.00000000000E+00  0.00000000000E+00  0.90183026496E+03  0.90183027062E+03  0.10100000352E+00 0.  1.
       -3   -1    0    0    0  501  0.00000000000E+00  0.00000000000E+00 -0.11293876510E+04  0.11293876555E+04  0.10100000352E+00 0. -1.
    10030    2    1    2    0    0  0.00000000000E+00  0.00000000000E+00 -0.22755738606E+03  0.20312179262E+04  0.20184310490E+04 0.  0.
        2    1    3    3  502    0 -0.67256348811E+03 -0.15357762321E+03  0.62749364176E+03  0.93256420816E+03  0.25500000920E-02 0.  1.
       -2    1    3    3    0  502  0.67256348811E+03  0.15357762321E+03 -0.85505102781E+03  0.10986537180E+04  0.25500000920E-02 0. -1.
</event>
<event>
 5   0  0.1960961E-05  0.2818568E+04  0.7818609E-02  0.8297527E-01
        2   -1    0    0  501    0  0.00000000000E+00  0.00000000000E+00  0.15249207070E+04  0.15249207070E+04  0.25500000920E-02 0.  1.
       -2   -1    0    0    0  501  0.00000000000E+00  0.00000000000E+00 -0.13024163420E+04  0.13024163420E+04  0.25500000920E-02 0. -1.
    10030    2    1    2    0    0  0.00000000000E+00  0.00000000000E+00  0.22250436496E+03  0.28273370490E+04  0.28185681819E+04 0.  0.
        5    1    3    3  502    0 -0.12064165513E+04  0.46809611708E+02  0.84044394590E+03  0.14710540952E+04  0.46999998093E+01 0.  1.
       -5    1    3    3    0  502  0.12064165513E+04 -0.46809611708E+02 -0.61793958094E+03  0.13562829537E+04  0.46999998093E+01 0. -1.
</event>
<event>
 5   0  0.8055928E-06  0.2901036E+04  0.7818609E-02  0.8272569E-01
        1   -1    0    0  501    0  0.00000000000E+00  0.00000000000E+00  0.17779903271E+04  0.17779903272E+04  0.50400001928E-02 0.  1.
       -1   -1    0    0    0  501  0.00000000000E+00  0.00000000000E+00 -0.11833601739E+04  0.11833601739E+04  0.50400001928E-02 0. -1.
    10030    2    1    2    0    0  0.00000000000E+00  0.00000000000E+00  0.59463015321E+03  0.29613505011E+04  0.29010363271E+04 0.  0.
        2    1    3    3  502    0 -0.80691113637E+03 -0.12047795623E+04  0.25907196515E+03  0.14729961503E+04  0.25500000920E-02 0.  1.
       -2    1    3    3    0  502  0.80691113637E+03  0.12047795623E+04  0.33555818807E+03  0.14883543507E+04  0.25500000920E-02 0. -1.
</event>
<event>
 5   0  0.1960961E-05  0.2999585E+04  0.7818609E-02  0.8243849E-01
        2   -1    0    0  501    0  0.00000000000E+00  0.00000000000E+00  0.18581783333E+04  0.18581783333E+04  0.25500000920E-02 0.  1.
       -2   -1    0    0    0  501  0.00000000000E+00  0.00000000000E+00 -0.12105283226E+04  0.12105283226E+04  0.25500000920E-02 0. -1.
    10030    2    1    2    0    0  0.00000000000E+00  0.00000000000E+00  0.64765001064E+03  0.30687066559E+04  0.29995849719E+04 0.  0.
        5    1    3    3  502    0 -0.26765263204E+03 -0.55393606373E+03  0.17231425540E+04  0.18296790553E+04  0.46999998093E+01 0.  1.
       -5    1    3    3    0  502  0.26765263204E+03  0.55393606373E+03 -0.10754925433E+04  0.12390276006E+04  0.46999998093E+01 0. -1.
</event>
<event>
 5   0  0.8234888E-06  0.2887640E+04  0.7818609E-02  0.8276564E-01
        1   -1    0    0  501    0  0.00000000000E+00  0.00000000000E+00  0.24874463153E+04  0.24874463153E+04  0.50400001928E-02 0.  1.
       -1   -1    0    0    0  501  0.00000000000E+00  0.00000000000E+00 -0.83805492775E+03  0.83805492777E+03  0.50400001928E-02 0. -1.
    10030    2    1    2    0    0  0.00000000000E+00  0.00000000000E+00  0.16493913875E+04  0.33255012431E+04  0.28876403114E+04 0.  0.
        3    1    3    3  502    0  0.41478889837E+03 -0.10334021244E+04 -0.23370862237E+03  0.11378002950E+04  0.10100000352E+00 0. -1.
       -3    1    3    3    0  502 -0.41478889837E+03  0.10334021244E+04  0.18831000099E+04  0.21877009481E+04  0.10100000352E+00 0.  1.
</event>
<event>
 5   0  0.7305460E-06  0.2876046E+04  0.7818609E-02  0.8280040E-01
       -1   -1    0    0    0  501  0.00000000000E+00  0.00000000000E+00  0.20244163566E+04  0.20244163566E+04  0.50400001928E-02 0.  1.
        1   -1    0    0  501    0  0.00000000000E+00  0.00000000000E+00 -0.10214847746E+04  0.10214847746E+04  0.50400001928E-02 0. -1.
    10030    2    1    2    0    0  0.00000000000E+00  0.00000000000E+00  0.10029315820E+04  0.30459011312E+04  0.28760462345E+04 0.  0.
        4    1    3    3  502    0  0.74034291121E+03  0.54120598881E+03  0.16745361156E+04  0.19092104033E+04  0.12699999809E+01 0.  1.
       -4    1    3    3    0  502 -0.74034291121E+03 -0.54120598881E+03 -0.67160453364E+03  0.11366907280E+04  0.12699999809E+01 0. -1.
</event>
<event>
 5   0  0.8234888E-06  0.1512710E+04  0.7818609E-02  0.8876045E-01
       -1   -1    0    0    0  501  0.00000000000E+00  0.00000000000E+00  0.71655483092E+03  0.71655483093E+03  0.50400001928E-02 0. -1.
        1   -1    0    0  501    0  0.00000000000E+00  0.00000000000E+00 -0.79836579698E+03  0.79836579700E+03  0.50400001928E-02 0.  1.
    10030    2    1    2    0    0  0.00000000000E+00  0.00000000000E+00 -0.81810966066E+02  0.15149206279E+04  0.15127099771E+04 0.  0.
        3    1    3    3  502    0  0.14113756863E+03 -0.31860812722E+03 -0.71318518007E+03  0.79376574837E+03  0.10100000352E+00 0.  1.
       -3    1    3    3    0  502 -0.14113756863E+03  0.31860812722E+03  0.63137421401E+03  0.72115487956E+03  0.10100000352E+00 0. -1.
</event>
<event>
 5   0  0.8234888E-06  0.2380688E+04  0.7818609E-02  0.8446769E-01
        1   -1    0    0  501    0  0.00000000000E+00  0.00000000000E+00  0.83949555624E+03  0.83949555626E+03  0.50400001928E-02 0.  1.
       -1   -1    0    0    0  501  0.00000000000E+00  0.00000000000E+00 -0.16878219540E+04  0.16878219540E+04  0.50400001928E-02 0. -1.
    10030    2    1    2    0    0  0.00000000000E+00  0.00000000000E+00 -0.84832639773E+03  0.25273175102E+04  0.23806881611E+04 0.  0.
        3    1    3    3  502    0  0.40934715526E+03  0.88161963883E+03 -0.11535781049E+04  0.15084961834E+04  0.10100000352E+00 0. -1.
       -3    1    3    3    0  502 -0.40934715526E+03 -0.88161963883E+03  0.30525170715E+03  0.10188213268E+04  0.10100000352E+00 0.  1.
</event>
<event>
 5   0  0.1976233E-05  0.2916067E+04  0.7818609E-02  0.8268113E-01
       -2   -1    0    0    0  501  0.00000000000E+00  0.00000000000E+00  0.14302517746E+04  0.14302517746E+04  0.25500000920E-02 0.  1.
        2   -1    0    0  501    0  0.00000000000E+00  0.00000000000E+00 -0.14863546185E+04  0.14863546185E+04  0.25500000920E-02 0. -1.
    10030    2    1    2    0    0  0.00000000000E+00  0.00000000000E+00 -0.56102843875E+02  0.29166063931E+04  0.29160667556E+04 0.  0.
        2    1    3    3  502    0  0.10905670785E+04  0.95946564359E+03  0.98267068105E+02  0.14558733772E+04  0.25500000920E-02 0. -1.
       -2    1    3    3    0  502 -0.10905670785E+04 -0.95946564359E+03 -0.15436991198E+03  0.14607330159E+04  0.25500000920E-02 0.  1.
</event>
<event>
 5   0  0.7971153E-06  0.2973150E+04  0.7818609E-02  0.8251440E-01
        1   -1    0    0  501    0  0.00000000000E+00  0.00000000000E+00  0.18760658462E+04  0.18760658463E+04  0.50400001928E-02 0. -1.
       -1   -1    0    0    0  501  0.00000000000E+00  0.00000000000E+00 -0.11779467785E+04  0.11779467785E+04  0.50400001928E-02 0.  1.
    10030    2    1    2    0    0  0.00000000000E+00  0.00000000000E+00  0.69811906777E+03  0.30540126247E+04  0.29731503291E+04 0.  0.
        5    1    3    3  502    0  0.32969038974E+03  0.83226102661E+03 -0.87003371675E+03  0.12483328594E+04  0.46999998093E+01 0.  1.
       -5    1    3    3    0  502 -0.32969038974E+03 -0.83226102661E+03  0.15681527845E+04  0.18056797654E+04  0.46999998093E+01 0. -1.
</event>
<event>
 5   0  0.8055928E-06  0.2815957E+04  0.7818609E-02  0.8298331E-01
       -1   -1    0    0    0  501  0.00000000000E+00  0.00000000000E+00  0.15123386565E+04  0.15123386565E+04  0.50400001928E-02 0.  1.
        1   -1    0    0  501    0  0.00000000000E+00  0.00000000000E+00 -0.13108202543E+04  0.13108202543E+04  0.50400001928E-02 0. -1.
    10030    2    1    2    0    0  0.00000000000E+00  0.00000000000E+00  0.20151840219E+03  0.28231589109E+04  0.28159574872E+04 0.  0.
        2    1    3    3  502    0 -0.92582960119E+03 -0.68023383319E+03 -0.71527915175E+03  0.13533302565E+04  0.25500000920E-02 0. -1.
       -2    1    3    3    0  502  0.92582960119E+03  0.68023383319E+03  0.91679755394E+03  0.14698286544E+04  0.25500000920E-02 0.  1.
</event>
<event>
 5   0  0.8234888E-06  0.2918617E+04  0.7818609E-02  0.8267360E-01
       -1   -1    0    0    0  501  0.00000000000E+00  0.00000000000E+00  0.16330465968E+04  0.16330465968E+04  0.50400001928E-02 0.  1.
        1   -1    0    0  501    0  0.00000000000E+00  0.00000000000E+00 -0.13040544153E+04  0.13040544154E+04  0.50400001928E-02 0. -1.
    10030    2    1    2    0    0  0.00000000000E+00  0.00000000000E+00  0.32899218148E+03  0.29371010122E+04  0.29186172240E+04 0.  0.
        3    1    3    3  502    0  0.72236461503E+03  0.12607732491E+04  0.28653083381E+02  0.14533343841E+04  0.10100000352E+00 0. -1.
       -3    1    3    3    0  502 -0.72236461503E+03 -0.12607732491E+04  0.30033909810E+03  0.14837666281E+04  0.10100000352E+00 0.  1.
</event>
<event>
 5   0  0.1918901E-05  0.2783759E+04  0.7818609E-02  0.8308328E-01
       -2   -1    0    0    0  501  0.00000000000E+00  0.00000000000E+00  0.15057393987E+04  0.15057393987E+04  0.25500000920E-02 0.  1.
        2   -1    0    0  501    0  0.00000000000E+00  0.00000000000E+00 -0.12866296656E+04  0.12866296656E+04  0.25500000920E-02 0. -1.
    10030    2    1    2    0    0  0.00000000000E+00  0.00000000000E+00  0.21910973304E+03  0.27923690643E+04  0.27837593136E+04 0.  0.
        1    1    3    3  502    0  0.50749897925E+03  0.56192649646E+02 -0.11892920200E+04  0.12942674904E+04  0.50400001928E-02 0. -1.
       -1    1    3    3    0  502 -0.50749897925E+03 -0.56192649646E+02  0.14084017530E+04  0.14981015739E+04  0.50400001928E-02 0.  1.
</event>
<event>
 5   0  0.1976233E-05  0.2465591E+04  0.7818609E-02  0.8415348E-01
        2   -1    0    0  501    0  0.00000000000E+00  0.00000000000E+00  0.10486948129E+04  0.10486948129E+04  0.25500000920E-02 0. -1.
       -2   -1    0    0    0  501  0.00000000000E+00  0.00000000000E+00 -0.14492151422E+04  0.14492151422E+04  0.25500000920E-02 0.  1.
    10030    2    1    2    0    0  0.00000000000E+00  0.00000000000E+00 -0.40052032933E+03  0.24979099550E+04  0.24655907222E+04 0.  0.
        2    1    3    3  502    0  0.46534773944E+03  0.16400354951E+03 -0.13448206909E+04  0.14324763082E+04  0.25500000920E-02 0.  1.
       -2    1    3    3    0  502 -0.46534773944E+03 -0.16400354951E+03  0.94430036160E+03  0.10654336468E+04  0.25500000920E-02 0. -1.
</event>
<event>
 5   0  0.8234888E-06  0.1623203E+04  0.7818609E-02  0.8806419E-01
       -1   -1    0    0    0  501  0.00000000000E+00  0.00000000000E+00  0.51810797818E+03  0.51810797820E+03  0.50400001928E-02 0.  1.
        1   -1    0    0  501    0  0.00000000000E+00  0.00000000000E+00 -0.12713500683E+04  0.12713500683E+04  0.50400001928E-02 0. -1.
    10030    2    1    2    0    0  0.00000000000E+00  0.00000000000E+00 -0.75324209015E+03  0.17894580465E+04  0.16232025302E+04 0.  0.
        3    1    3    3  502    0 -0.25967597175E+03 -0.74002909963E+03 -0.60687188427E+03  0.99164921858E+03  0.10100000352E+00 0. -1.
       -3    1    3    3    0  502  0.25967597175E+03  0.74002909963E+03 -0.14637020588E+03  0.79780882796E+03  0.10100000352E+00 0.  1.
</event>
<event>
 5   0  0.1918901E-05  0.2858866E+04  0.7818609E-02  0.8285222E-01
       -2   -1    0    0    0  501  0.00000000000E+00  0.00000000000E+00  0.18621061634E+04  0.18621061634E+04  0.25500000920E-02 0.  1.
        2   -1    0    0  501    0  0.00000000000E+00  0.00000000000E+00 -0.10972942126E+04  0.10972942126E+04  0.25500000920E-02 0. -1.
    10030    2    1    2    0    0  0.00000000000E+00  0.00000000000E+00  0.76481195089E+03  0.29594003760E+04  0.28588657305E+04 0.  0.
        1    1    3    3  502    0  0.11011801941E+04 -0.88757839371E+03  0.16803640566E+03  0.14242996379E+04  0.50400001928E-02 0.  1.
       -1    1    3    3    0  502 -0.11011801941E+04  0.88757839371E+03  0.59677554523E+03  0.15351007381E+04  0.50400001928E-02 0. -1.
</event>
<event>
 5   0  0.8122088E-06  0.2746934E+04  0.7818609E-02  0.8319935E-01
       -1   -1    0    0    0  501  0.00000000000E+00  0.00000000000E+00  0.96217102648E+03  0.96217102650E+03  0.50400001928E-02 0. -1.
        1   -1    0    0  501    0  0.00000000000E+00  0.00000000000E+00 -0.19605789664E+04  0.19605789664E+04  0.50400001928E-02 0.  1.
    10030    2    1    2    0    0  0.00000000000E+00  0.00000000000E+00 -0.99840793994E+03  0.29227499929E+04  0.27469344926E+04 0.  0.
        1    1    3    3  502    0  0.97569025757E+02 -0.87099586624E+03  0.62595664159E+03  0.10770214626E+04  0.50400001928E-02 0. -1.
       -1    1    3    3    0  502 -0.97569025757E+02  0.87099586624E+03 -0.16243645815E+04  0.18457285303E+04  0.50400001928E-02 0.  1.
</event>
<event>
 5   0  0.8234888E-06  0.2872897E+04  0.7818609E-02  0.8280987E-01
       -1   -1    0    0    0  501  0.00000000000E+00  0.00000000000E+00  0.14308086668E+04  0.14308086668E+04  0.50400001928E-02 0.  1.
        1   -1    0    0  501    0  0.00000000000E+00  0.00000000000E+00 -0.14421107660E+04  0.14421107660E+04  0.50400001928E-02 0. -1.
    10030    2    1    2    0    0  0.00000000000E+00  0.00000000000E+00 -0.11302099215E+02  0.28729194328E+04  0.28728972014E+04 0.  0.
        3    1    3    3  502    0 -0.58250942916E+02  0.14148627098E+04  0.23550411271E+03  0.14355110091E+04  0.10100000352E+00 0. -1.
       -3    1    3    3    0  502  0.58250942916E+02 -0.14148627098E+04 -0.24680621193E+03  0.14374084237E+04  0.10100000352E+00 0.  1.
</event>
<event>
 5   0  0.1829810E-05  0.2918683E+04  0.7818609E-02  0.8267340E-01
        2   -1    0    0  501    0  0.00000000000E+00  0.00000000000E+00  0.18063692732E+04  0.18063692732E+04  0.25500000920E-02 0. -1.
       -2   -1    0    0    0  501  0.00000000000E+00  0.00000000000E+00 -0.11789826195E+04  0.11789826195E+04  0.25500000920E-02 0.  1.
    10030    2    1    2    0    0  0.00000000000E+00  0.00000000000E+00  0.62738665369E+03  0.29853518927E+04  0.29186832493E+04 0.  0.
        4    1    3    3  502    0  0.98585676129E+03  0.38726373088E+03 -0.71312474487E+03  0.12768849853E+04  0.12699999809E+01 0.  1.
       -4    1    3    3    0  502 -0.98585676129E+03 -0.38726373088E+03  0.13405113986E+04  0.17084669074E+04  0.12699999809E+01 0. -1.
</event>
<event>
 5   0  0.1960961E-05  0.2937970E+04  0.7818609E-02  0.8261669E-01
        2   -1    0    0  501    0  0.00000000000E+00  0.00000000000E+00  0.20761682242E+04  0.20761682242E+04  0.25500000920E-02 0. -1.
       -2   -1    0    0    0  501  0.00000000000E+00  0.00000000000E+00 -0.10393748227E+04  0.10393748227E+04  0.25500000920E-02 0.  1.
    10030    2    1    2    0    0  0.00000000000E+00  0.00000000000E+00  0.10367934015E+04  0.31155430469E+04  0.29379700338E+04 0.  0.
        5    1    3    3  502    0  0.54711281253E+03 -0.29576783037E+03  0.19296532029E+04  0.20274108150E+04  0.46999998093E+01 0. -1.
       -5    1    3    3    0  502 -0.54711281253E+03  0.29576783037E+03 -0.89285980140E+03  0.10881322319E+04  0.46999998093E+01 0.  1.
</event>
<event>
 5   0  0.1918901E-05  0.2497744E+04  0.7818609E-02  0.8403790E-01
        2   -1    0    0  501    0  0.00000000000E+00  0.00000000000E+00  0.11459854648E+04  0.11459854648E+04  0.25500000920E-02 0. -1.
       -2   -1    0    0    0  501  0.00000000000E+00  0.00000000000E+00 -0.13609959122E+04  0.13609959122E+04  0.25500000920E-02 0.  1.
    10030    2    1    2    0    0  0.00000000000E+00  0.00000000000E+00 -0.21501044743E+03  0.25069813770E+04  0.24977442087E+04 0.  0.
        1    1    3    3  502    0  0.43987879831E+03 -0.64229509912E+03 -0.10876642789E+04  0.13375537130E+04  0.50400001928E-02 0.  1.
       -1    1    3    3    0  502 -0.43987879831E+03  0.64229509912E+03  0.87265383149E+03  0.11694276639E+04  0.50400001928E-02 0. -1.
</event>
<event>
 5   0  0.1960961E-05  0.2845523E+04  0.7818609E-02  0.8289273E-01
        2   -1    0    0  501    0  0.00000000000E+00  0.00000000000E+00  0.15870541352E+04  0.15870541352E+04  0.25500000920E-02 0.  1.
       -2   -1    0    0    0  501  0.00000000000E+00  0.00000000000E+00 -0.12754760801E+04  0.12754760801E+04  0.25500000920E-02 0. -1.
    10030    2    1    2    0    0  0.00000000000E+00  0.00000000000E+00  0.31157805506E+03  0.28625302154E+04  0.28455225090E+04 0.  0.
        5    1    3    3  502    0 -0.11673618288E+04  0.78077692504E+03  0.38492500030E+03  0.14562058892E+04  0.46999998093E+01 0. -1.
       -5    1    3    3    0  502  0.11673618288E+04 -0.78077692504E+03 -0.73346945240E+02  0.14063243261E+04  0.46999998093E+01 0.  1.
</event>
<event>
 5   0  0.1829810E-05  0.2919990E+04  0.7818609E-02  0.8266955E-01
        2   -1    0    0  501    0  0.00000000000E+00  0.00000000000E+00  0.19816101319E+04  0.19816101319E+04  0.25500000920E-02 0. -1.
       -2   -1    0    0    0  501  0.00000000000E+00  0.00000000000E+00 -0.10756836151E+04  0.10756836151E+04  0.25500000920E-02 0.  1.
    10030    2    1    2    0    0  0.00000000000E+00  0.00000000000E+00  0.90592651677E+03  0.30572937471E+04  0.29199901031E+04 0.  0.
        4    1    3    3  502    0  0.16792077162E+03  0.12709042780E+04  0.11845228769E+04  0.17454200435E+04  0.12699999809E+01 0. -1.
       -4    1    3    3    0  502 -0.16792077162E+03 -0.12709042780E+04 -0.27859636016E+03  0.13118737036E+04  0.12699999809E+01 0.  1.
</event>
<event>
 5   0  0.8234888E-06  0.2880707E+04  0.7818609E-02  0.8278641E-01
       -1   -1    0    0    0  501  0.00000000000E+00  0.00000000000E+00  0.10883113881E+04  0.10883113881E+04  0.50400001928E-02 0.  1.
        1   -1    0    0  501    0  0.00000000000E+00  0.00000000000E+00 -0.19062720984E+04  0.19062720984E+04  0.50400001928E-02 0. -1.
    10030    2    1    2    0    0  0.00000000000E+00  0.00000000000E+00 -0.81796071031E+03  0.29945834865E+04  0.28807066032E+04 0.  0.
        3    1    3    3  502    0  0.31998000358E+03 -0.62750741403E+03  0.89705476947E+03  0.11405525095E+04  0.10100000352E+00 0.  1.
       -3    1    3    3    0  502 -0.31998000358E+03  0.62750741403E+03 -0.17150154798E+04  0.18540309769E+04  0.10100000352E+00 0. -1.
</event>
<event>
 5   0  0.8234888E-06  0.2924206E+04  0.7818609E-02  0.8265712E-01
       -1   -1    0    0    0  501  0.00000000000E+00  0.00000000000E+00  0.12296058707E+04  0.12296058707E+04  0.50400001928E-02 0. -1.
        1   -1    0    0  501    0  0.00000000000E+00  0.00000000000E+00 -0.17385613349E+04  0.17385613349E+04  0.50400001928E-02 0.  1.
    10030    2    1    2    0    0  0.00000000000E+00  0.00000000000E+00 -0.50895546419E+03  0.29681672057E+04  0.29242060284E+04 0.  0.
        3    1    3    3  502    0 -0.23853587975E+03 -0.52620118949E+03  0.11088291407E+04  0.12503156126E+04  0.10100000352E+00 0. -1.
       -3    1    3    3    0  502  0.23853587975E+03  0.52620118949E+03 -0.16177846049E+04  0.17178515930E+04  0.10100000352E+00 0.  1.
</event>
<event>
 5   0  0.1937947E-05  0.2935586E+04  0.7818609E-02  0.8262368E-01
        2   -1    0    0  501    0  0.00000000000E+00  0.00000000000E+00  0.15820122248E+04  0.15820122248E+04  0.25500000920E-02 0.  1.
       -2   -1    0    0    0  501  0.00000000000E+00  0.00000000000E+00 -0.13618204477E+04  0.13618204477E+04  0.25500000920E-02 0. -1.
    10030    2    1    2    0    0  0.00000000000E+00  0.00000000000E+00  0.22019177710E+03  0.29438326724E+04  0.29355862080E+04 0.  0.
        3    1    3    3  502    0 -0.11498762791E+04 -0.48892300982E+03 -0.66223345174E+03  0.14141479136E+04  0.10100000352E+00 0.  1.
       -3    1    3    3    0  502  0.11498762791E+04  0.48892300982E+03  0.88242522884E+03  0.15296847588E+04  0.10100000352E+00 0. -1.
</event>
<event>
 5   0  0.1829810E-05  0.1623344E+04  0.7818609E-02  0.8806334E-01
       -2   -1    0    0    0  501  0.00000000000E+00  0.00000000000E+00  0.77204296701E+03  0.77204296701E+03  0.25500000920E-02 0.  1.
        2   -1    0    0  501    0  0.00000000000E+00  0.00000000000E+00 -0.85333508741E+03  0.85333508742E+03  0.25500000920E-02 0. -1.
    10030    2    1    2    0    0  0.00000000000E+00  0.00000000000E+00 -0.81292120406E+02  0.16253780544E+04  0.16233438979E+04 0.  0.
        4    1    3    3  502    0 -0.31491248446E+03  0.74802298711E+03 -0.50732298643E+02  0.81319348321E+03  0.12699999809E+01 0.  1.
       -4    1    3    3    0  502  0.31491248446E+03 -0.74802298711E+03 -0.30559821763E+02  0.81218457121E+03  0.12699999809E+01 0. -1.
</event>
<event>
 5   0  0.8055928E-06  0.2435824E+04  0.7818609E-02  0.8426212E-01
       -1   -1    0    0    0  501  0.00000000000E+00  0.00000000000E+00  0.86400781459E+03  0.86400781461E+03  0.50400001928E-02 0.  1.
        1   -1    0    0  501    0  0.00000000000E+00  0.00000000000E+00 -0.17167776289E+04  0.17167776289E+04  0.50400001928E-02 0. -1.
    10030    2    1    2    0    0  0.00000000000E+00  0.00000000000E+00 -0.85276981429E+03  0.25807854435E+04  0.24358237106E+04 0.  0.
        2    1    3    3  502    0 -0.69043969500E+03  0.51529445490E+03  0.48570325156E+03  0.98901112039E+03  0.25500000920E-02 0.  1.
       -2    1    3    3    0  502  0.69043969500E+03 -0.51529445490E+03 -0.13384730658E+04  0.15917743231E+04  0.25500000920E-02 0. -1.
</event>
<event>
 5   0  0.8122088E-06  0.2858027E+04  0.7818609E-02  0.8285476E-01
        1   -1    0    0  501    0  0.00000000000E+00  0.00000000000E+00  0.25452053303E+04  0.25452053303E+04  0.50400001928E-02 0.  1.
       -1   -1    0    0    0  501  0.00000000000E+00  0.00000000000E+00 -0.80232415008E+03  0.80232415010E+03  0.50400001928E-02 0. -1.
    10030    2    1    2    0    0  0.00000000000E+00  0.00000000000E+00  0.17428811802E+04  0.33475294804E+04  0.28580270842E+04 0.  0.
        1    1    3    3  502    0 -0.71059746385E+03  0.10483498157E+04  0.16466901537E+04  0.20773960995E+04  0.50400001928E-02 0.  1.
       -1    1    3    3    0  502  0.71059746385E+03 -0.10483498157E+04  0.96191026519E+02  0.12701333809E+04  0.50400001928E-02 0. -1.
</event>
<event>
 5   0  0.8055928E-06  0.2844552E+04  0.7818609E-02  0.8289569E-01
        1   -1    0    0  501    0  0.00000000000E+00  0.00000000000E+00  0.11205684037E+04  0.11205684037E+04  0.50400001928E-02 0. -1.
       -1   -1    0    0    0  501  0.00000000000E+00  0.00000000000E+00 -0.18052164141E+04  0.18052164141E+04  0.50400001928E-02 0.  1.
    10030    2    1    2    0    0  0.00000000000E+00  0.00000000000E+00 -0.68464801042E+03  0.29257848179E+04  0.28445516171E+04 0.  0.
        2    1    3    3  502    0 -0.11671747087E+04 -0.15051000819E+02 -0.11781465030E+04  0.16584789766E+04  0.25500000920E-02 0.  1.
       -2    1    3    3    0  502  0.11671747087E+04  0.15051000819E+02  0.49349849259E+03  0.12673058413E+04  0.25500000920E-02 0. -1.
</event>
<event>
 5   0  0.1829810E-05  0.2780608E+04  0.7818609E-02  0.8309314E-01
        2   -1    0    0  501    0  0.00000000000E+00  0.00000000000E+00  0.16377477690E+04  0.16377477690E+04  0.25500000920E-02 0. -1.
       -2   -1    0    0    0  501  0.00000000000E+00  0.00000000000E+00 -0.11802461154E+04  0.11802461154E+04  0.25500000920E-02 0.  1.
    10030    2    1    2    0    0  0.00000000000E+00  0.00000000000E+00  0.45750165359E+03  0.28179938843E+04  0.27806081653E+04 0.  0.
        4    1    3    3  502    0 -0.23194658971E+03 -0.10115937196E+04 -0.70879427109E+03  0.12567863803E+04  0.12699999809E+01 0.  1.
       -4    1    3    3    0  502  0.23194658971E+03  0.10115937196E+04  0.11662959247E+04  0.15612075041E+04  0.12699999809E+01 0. -1.
</event>
<event>
 5   0  0.1829810E-05  0.1852006E+04  0.7818609E-02  0.8679122E-01
        2   -1    0    0  501    0  0.00000000000E+00  0.00000000000E+00  0.86125134594E+03  0.86125134594E+03  0.25500000920E-02 0.  1.
       -2   -1    0    0    0  501  0.00000000000E+00  0.00000000000E+00 -0.99562317434E+03  0.99562317435E+03  0.25500000920E-02 0. -1.
    10030    2    1    2    0    0  0.00000000000E+00  0.00000000000E+00 -0.13437182841E+03  0.18568745203E+04  0.18520062624E+04 0.  0.
        4    1    3    3  502    0  0.14151929912E+02  0.91531353368E+03  0.72755487512E+02  0.91831046815E+03  0.12699999809E+01 0.  1.
       -4    1    3    3    0  502 -0.14151929912E+02 -0.91531353368E+03 -0.20712731592E+03  0.93856405213E+03  0.12699999809E+01 0. -1.
</event>
<event>
 5   0  0.1960961E-05  0.2914898E+04  0.7818609E-02  0.8268459E-01
        2   -1    0    0  501    0  0.00000000000E+00  0.00000000000E+00  0.28401584764E+04  0.28401584764E+04  0.25500000920E-02 0.  1.
       -2   -1    0    0    0  501  0.00000000000E+00  0.00000000000E+00 -0.74790101666E+03  0.74790101667E+03  0.25500000920E-02 0. -1.
    10030    2    1    2    0    0  0.00000000000E+00  0.00000000000E+00  0.20922574598E+04  0.35880594931E+04  0.29148978795E+04 0.  0.
        5    1    3    3  502    0  0.11541326259E+04  0.88971561265E+03  0.10180770415E+04  0.17776723382E+04  0.46999998093E+01 0. -1.
       -5    1    3    3    0  502 -0.11541326259E+04 -0.88971561265E+03  0.10741804182E+04  0.18103871549E+04  0.46999998093E+01 0.  1.
</event>
<event>
 5   0  0.8234888E-06  0.2848767E+04  0.7818609E-02  0.8288286E-01
        1   -1    0    0  501    0  0.00000000000E+00  0.00000000000E+00  0.11074848298E+04  0.11074848298E+04  0.50400001928E-02 0.  1.
       -1   -1    0    0    0  501  0.00000000000E+00  0.00000000000E+00 -0.18319597952E+04  0.18319597952E+04  0.50400001928E-02 0. -1.
    10030    2    1    2    0    0  0.00000000000E+00  0.00000000000E+00 -0.72447496538E+03  0.29394446250E+04  0.28487665274E+04 0.  0.
        3    1    3    3  502    0  0.38678438400E+02 -0.20556110735E+03 -0.18160265580E+04  0.18280327842E+04  0.10100000352E+00 0. -1.
       -3    1    3    3    0  502 -0.38678438400E+02  0.20556110735E+03  0.10915515926E+04  0.11114118408E+04  0.10100000352E+00 0.  1.
</event>
<event>
 5   0  0.8055928E-06  0.2875291E+04  0.7818609E-02  0.8280267E-01
        1   -1    0    0  501    0  0.00000000000E+00  0.00000000000E+00  0.16767812555E+04  0.16767812555E+04  0.50400001928E-02 0.  1.
       -1   -1    0    0    0  501  0.00000000000E+00  0.00000000000E+00 -0.12326143415E+04  0.12326143415E+04  0.50400001928E-02 0. -1.
    10030    2    1    2    0    0  0.00000000000E+00  0.00000000000E+00  0.44416691404E+03  0.29093955970E+04  0.28752910274E+04 0.  0.
        2    1    3    3  502    0 -0.53537225022E+03 -0.93458744323E+03 -0.74144411906E+03  0.13075995247E+04  0.25500000920E-02 0. -1.
       -2    1    3    3    0  502  0.53537225022E+03  0.93458744323E+03  0.11856110331E+04  0.16017960723E+04  0.25500000920E-02 0.  1.
</event>
<event>
 5   0  0.1918901E-05  0.2822942E+04  0.7818609E-02  0.8296181E-01
        2   -1    0    0  501    0  0.00000000000E+00  0.00000000000E+00  0.21154405631E+04  0.21154405631E+04  0.25500000920E-02 0. -1.
       -2   -1    0    0    0  501  0.00000000000E+00  0.00000000000E+00 -0.94176620291E+03  0.94176620291E+03  0.25500000920E-02 0.  1.
    10030    2    1    2    0    0  0.00000000000E+00  0.00000000000E+00  0.11736743602E+04  0.30572067660E+04  0.28229420303E+04 0.  0.
        1    1    3    3  502    0 -0.10134655423E+04 -0.65077569107E+03 -0.21019125415E+03  0.12226208607E+04  0.50400001928E-02 0.  1.
       -1    1    3    3    0  502  0.10134655423E+04  0.65077569107E+03  0.13838656144E+04  0.18345859054E+04  0.50400001928E-02 0. -1.
</event>
<event>
 5   0  0.7305460E-06  0.2428878E+04  0.7818609E-02  0.8428770E-01
        1   -1    0    0  501    0  0.00000000000E+00  0.00000000000E+00  0.10794613795E+04  0.10794613795E+04  0.50400001928E-02 0.  1.
       -1   -1    0    0    0  501  0.00000000000E+00  0.00000000000E+00 -0.13662946448E+04  0.13662946448E+04  0.50400001928E-02 0. -1.
    10030    2    1    2    0    0  0.00000000000E+00  0.00000000000E+00 -0.28683326529E+03  0.24457560243E+04  0.24288781790E+04 0.  0.
        4    1    3    3  502    0  0.11200940027E+04  0.41464853815E+03  0.77921402157E+02  0.11969199401E+04  0.12699999809E+01 0.  1.
       -4    1    3    3    0  502 -0.11200940027E+04 -0.41464853815E+03 -0.36475466745E+03  0.12488360843E+04  0.12699999809E+01 0. -1.
</event>
<event>
 5   0  0.1829810E-05  0.2859317E+04  0.7818609E-02  0.8285086E-01
       -2   -1    0    0    0  501  0.00000000000E+00  0.00000000000E+00  0.12130850775E+04  0.12130850775E+04  0.25500000920E-02 0.  1.
        2   -1    0    0  501    0  0.00000000000E+00  0.00000000000E+00 -0.16848965314E+04  0.16848965314E+04  0.25500000920E-02 0. -1.
    10030    2    1    2    0    0  0.00000000000E+00  0.00000000000E+00 -0.47181145385E+03  0.28979816089E+04  0.28593165892E+04 0.  0.
        4    1    3    3  502    0 -0.41096139608E+03 -0.48327267888E+03 -0.15344331012E+04  0.16604000441E+04  0.12699999809E+01 0. -1.
       -4    1    3    3    0  502  0.41096139608E+03  0.48327267888E+03  0.10626216474E+04  0.12375815648E+04  0.12699999809E+01 0.  1.
</event>
<event>
 5   0  0.1976233E-05  0.3047365E+04  0.7818609E-02  0.8230333E-01
        2   -1    0    0  501    0  0.00000000000E+00  0.00000000000E+00  0.17293158600E+04  0.17293158600E+04  0.25500000920E-02 0. -1.
       -2   -1    0    0    0  501  0.00000000000E+00  0.00000000000E+00 -0.13425014680E+04  0.13425014680E+04  0.25500000920E-02 0.  1.
    10030    2    1    2    0    0  0.00000000000E+00  0.00000000000E+00  0.38681439202E+03  0.30718173279E+04  0.30473654724E+04 0.  0.
        2    1    3    3  502    0  0.75828117890E+03 -0.11376636145E+04 -0.48455183883E+03  0.14505376006E+04  0.25500000920E-02 0.  1.
       -2    1    3    3    0  502 -0.75828117890E+03  0.11376636145E+04  0.87136623085E+03  0.16212797274E+04  0.25500000920E-02 0. -1.
</event>
<event>
 5   0  0.7305460E-06  0.2894208E+04  0.7818609E-02  0.8274603E-01
        1   -1    0    0  501    0  0.00000000000E+00  0.00000000000E+00  0.17549093862E+04  0.17549093862E+04  0.50400001928E-02 0. -1.
       -1   -1    0    0    0  501  0.00000000000E+00  0.00000000000E+00 -0.11932869536E+04  0.11932869536E+04  0.50400001928E-02 0.  1.
    10030    2    1    2    0    0  0.00000000000E+00  0.00000000000E+00  0.56162243258E+03  0.29481963398E+04  0.28942083375E+04 0.  0.
        4    1    3    3  502    0 -0.48064916458E+03  0.11141105066E+04 -0.52246885941E+03  0.13210757595E+04  0.12699999809E+01 0.  1.
       -4    1    3    3    0  502  0.48064916458E+03 -0.11141105066E+04  0.10840912920E+04  0.16271205803E+04  0.12699999809E+01 0. -1.
</event>
<event>
 5   0  0.1829810E-05  0.2700019E+04  0.7818609E-02  0.8334999E-01
       -2   -1    0    0    0  501  0.00000000000E+00  0.00000000000E+00  0.12274438750E+04  0.12274438750E+04  0.25500000920E-02 0.  1.
        2   -1    0    0  501    0  0.00000000000E+00  0.00000000000E+00 -0.14848142321E+04  0.14848142321E+04  0.25500000920E-02 0. -1.
    10030    2    1    2    0    0  0.00000000000E+00  0.00000000000E+00 -0.25737035703E+03  0.27122581071E+04  0.27000193590E+04 0.  0.
        4    1    3    3  502    0 -0.92775994288E+03 -0.80996460294E+03  0.42676185211E+03  0.13034218277E+04  0.12699999809E+01 0.  1.
       -4    1    3    3    0  502  0.92775994288E+03  0.80996460294E+03 -0.68413220914E+03  0.14088362794E+04  0.12699999809E+01 0. -1.
</event>
<event>
 5   0  0.8234888E-06  0.2892677E+04  0.7818609E-02  0.8275060E-01
        1   -1    0    0  501    0  0.00000000000E+00  0.00000000000E+00  0.11965971446E+04  0.11965971446E+04  0.50400001928E-02 0.  1.
       -1   -1    0    0    0  501  0.00000000000E+00  0.00000000000E+00 -0.17482033971E+04  0.17482033971E+04  0.50400001928E-02 0. -1.
    10030    2    1    2    0    0  0.00000000000E+00  0.00000000000E+00 -0.55160625247E+03  0.29448005417E+04  0.28926770945E+04 0.  0.
        3    1    3    3  502    0 -0.12593345464E+04  0.34020945815E+03  0.36013639233E+03  0.13532790572E+04  0.10100000352E+00 0.  1.
       -3    1    3    3    0  502  0.12593345464E+04 -0.34020945815E+03 -0.91174264479E+03  0.15915214846E+04  0.10100000352E+00 0. -1.
</event>
<event>
 5   0  0.1960961E-05  0.2852490E+04  0.7818609E-02  0.8287155E-01
       -2   -1    0    0    0  501  0.00000000000E+00  0.00000000000E+00  0.87184843113E+03  0.87184843113E+03  0.25500000920E-02 0.  1.
        2   -1    0    0  501    0  0.00000000000E+00  0.00000000000E+00 -0.23331751032E+04  0.23331751032E+04  0.25500000920E-02 0. -1.
    10030    2    1    2    0    0  0.00000000000E+00  0.00000000000E+00 -0.14613266720E+04  0.32050235343E+04  0.28524901775E+04 0.  0.
        5    1    3    3  502    0  0.11364700394E+04 -0.38060254553E+03 -0.15993432491E+04  0.19985853413E+04  0.46999998093E+01 0.  1.
       -5    1    3    3    0  502 -0.11364700394E+04  0.38060254553E+03  0.13801657703E+03  0.12064381930E+04  0.46999998093E+01 0. -1.
</event>
<event>
 5   0  0.1960961E-05  0.2897208E+04  0.7818609E-02  0.8273709E-01
       -2   -1    0    0    0  501  0.00000000000E+00  0.00000000000E+00  0.19066249085E+04  0.19066249085E+04  0.25500000920E-02 0.  1.
        2   -1    0    0  501    0  0.00000000000E+00  0.00000000000E+00 -0.11006114275E+04  0.11006114275E+04  0.25500000920E-02 0. -1.
    10030    2    1    2    0    0  0.00000000000E+00  0.00000000000E+00  0.80601348098E+03  0.30072363360E+04  0.28972077331E+04 0.  0.
        5    1    3    3  502    0  0.88596146591E+02 -0.12724721391E+04 -0.30965111793E+03  0.13126082915E+04  0.46999998093E+01 0. -1.
       -5    1    3    3    0  502 -0.88596146591E+02  0.12724721391E+04  0.11156645989E+04  0.16946280445E+04  0.46999998093E+01 0.  1.
</event>
<event>
 5   0  0.1918901E-05  0.1553943E+04  0.7818609E-02  0.8849353E-01
       -2   -1    0    0    0  501  0.00000000000E+00  0.00000000000E+00  0.26502694054E+03  0.26502694056E+03  0.25500000920E-02 0. -1.
        2   -1    0    0  501    0  0.00000000000E+00  0.00000000000E+00 -0.22778227645E+04  0.22778227645E+04  0.25500000920E-02 0.  1.
    10030    2    1    2    0    0  0.00000000000E+00  0.00000000000E+00 -0.20127958239E+04  0.25428497050E+04  0.15539425966E+04 0.  0.
        1    1    3    3  502    0 -0.15509831280E+03 -0.68143000852E+03 -0.15620034621E+04  0.17112151118E+04  0.50400001928E-02 0.  1.
       -1    1    3    3    0  502  0.15509831280E+03  0.68143000852E+03 -0.45079236178E+03  0.83163459320E+03  0.50400001928E-02 0. -1.
</event>
<event>
 5   0  0.7305460E-06  0.2894365E+04  0.7818609E-02  0.8274556E-01
        1   -1    0    0  501    0  0.00000000000E+00  0.00000000000E+00  0.10625095209E+04  0.10625095209E+04  0.50400001928E-02 0. -1.
       -1   -1    0    0    0  501  0.00000000000E+00  0.00000000000E+00 -0.19711234636E+04  0.19711234636E+04  0.50400001928E-02 0.  1.
    10030    2    1    2    0    0  0.00000000000E+00  0.00000000000E+00 -0.90861394263E+03  0.30336329845E+04  0.28943651787E+04 0.  0.
        4    1    3    3  502    0 -0.11027433305E+04 -0.73666816445E+03  0.15288930325E+03  0.13349530289E+04  0.12699999809E+01 0. -1.
       -4    1    3    3    0  502  0.11027433305E+04  0.73666816445E+03 -0.10615032459E+04  0.16986799556E+04  0.12699999809E+01 0.  1.
</event>
<event>
 5   0  0.8234888E-06  0.3000643E+04  0.7818609E-02  0.8243547E-01
       -1   -1    0    0    0  501  0.00000000000E+00  0.00000000000E+00  0.10105316804E+04  0.10105316804E+04  0.50400001928E-02 0. -1.
        1   -1    0    0  501    0  0.00000000000E+00  0.00000000000E+00 -0.22275056135E+04  0.22275056135E+04  0.50400001928E-02 0.  1.
    10030    2    1    2    0    0  0.00000000000E+00  0.00000000000E+00 -0.12169739331E+04  0.32380372939E+04  0.30006432581E+04 0.  0.
        3    1    3    3  502    0 -0.46742114986E+03  0.28962468321E+03 -0.21148471534E+04  0.21851644059E+04  0.10100000352E+00 0.  1.
       -3    1    3    3    0  502  0.46742114986E+03 -0.28962468321E+03  0.89787322023E+03  0.10528728880E+04  0.10100000352E+00 0. -1.
</event>
<event>
 5   0  0.8234888E-06  0.2768726E+04  0.7818609E-02  0.8313044E-01
       -1   -1    0    0    0  501  0.00000000000E+00  0.00000000000E+00  0.12810593361E+04  0.12810593361E+04  0.50400001928E-02 0. -1.
        1   -1    0    0  501    0  0.00000000000E+00  0.00000000000E+00 -0.14959966355E+04  0.14959966355E+04  0.50400001928E-02 0.  1.
    10030    2    1    2    0    0  0.00000000000E+00  0.00000000000E+00 -0.21493729936E+03  0.27770559716E+04  0.27687256684E+04 0.  0.
        3    1    3    3  502    0 -0.13583199052E+04  0.98789298766E+02  0.14160924592E+03  0.13692499695E+04  0.10100000352E+00 0.  1.
       -3    1    3    3    0  502  0.13583199052E+04 -0.98789298766E+02 -0.35654654528E+03  0.14078060021E+04  0.10100000352E+00 0. -1.
</event>
<event>
 5   0  0.1829810E-05  0.2657083E+04  0.7818609E-02  0.8349066E-01
        2   -1    0    0  501    0  0.00000000000E+00  0.00000000000E+00  0.22442665843E+04  0.22442665843E+04  0.25500000920E-02 0.  1.
       -2   -1    0    0    0  501  0.00000000000E+00  0.00000000000E+00 -0.78645852926E+03  0.78645852926E+03  0.25500000920E-02 0. -1.
    10030    2    1    2    0    0  0.00000000000E+00  0.00000000000E+00  0.14578080550E+04  0.30307251136E+04  0.26570830602E+04 0.  0.
        4    1    3    3  502    0 -0.86953893002E+03  0.90195945778E+03  0.12330949184E+04  0.17578832455E+04  0.12699999809E+01 0.  1.
       -4    1    3    3    0  502  0.86953893002E+03 -0.90195945778E+03  0.22471313668E+03  0.12728418680E+04  0.12699999809E+01 0. -1.
</event>
<event>
 5   0  0.7971153E-06  0.2866323E+04  0.7818609E-02  0.8282968E-01
       -1   -1    0    0    0  501  0.00000000000E+00  0.00000000000E+00  0.12757719582E+04  0.12757719582E+04  0.50400001928E-02 0.  1.
        1   -1    0    0  501    0  0.00000000000E+00  0.00000000000E+00 -0.16099677515E+04  0.16099677515E+04  0.50400001928E-02 0. -1.
    10030    2    1    2    0    0  0.00000000000E+00  0.00000000000E+00 -0.33419579329E+03  0.28857397097E+04  0.28663228786E+04 0.  0.
        5    1    3    3  502    0 -0.12905444568E+04 -0.17829135582E+03 -0.76833411413E+03  0.15124986623E+04  0.46999998093E+01 0. -1.
       -5    1    3    3    0  502  0.12905444568E+04  0.17829135582E+03  0.43413832084E+03  0.13732410474E+04  0.46999998093E+01 0.  1.
</event>
<event>
 5   0  0.7305460E-06  0.2908451E+04  0.7818609E-02  0.8270367E-01
       -1   -1    0    0    0  501  0.00000000000E+00  0.00000000000E+00  0.14545798646E+04  0.14545798646E+04  0.50400001928E-02 0.  1.
        1   -1    0    0  501    0  0.00000000000E+00  0.00000000000E+00 -0.14538715421E+04  0.14538715422E+04  0.50400001928E-02 0. -1.
    10030    2    1    2    0    0  0.00000000000E+00  0.00000000000E+00  0.70832244430E+00  0.29084514068E+04  0.29084513205E+04 0.  0.
        4    1    3    3  502    0  0.10550415201E+04  0.45655779272E+03 -0.89027094387E+03  0.14540088011E+04  0.12699999809E+01 0. -1.
       -4    1    3    3    0  502 -0.10550415201E+04 -0.45655779272E+03  0.89097926631E+03  0.14544426057E+04  0.12699999809E+01 0.  1.
</event>
<event>
 5   0  0.8055928E-06  0.2779846E+04  0.7818609E-02  0.8309553E-01
       -1   -1    0    0    0  501  0.00000000000E+00  0.00000000000E+00  0.11252848648E+04  0.11252848648E+04  0.50400001928E-02 0.  1.
        1   -1    0    0  501    0  0.00000000000E+00  0.00000000000E+00 -0.17167970947E+04  0.17167970947E+04  0.50400001928E-02 0. -1.
    10030    2    1    2    0    0  0.00000000000E+00  0.00000000000E+00 -0.59151222985E+03  0.28420819595E+04  0.27798458854E+04 0.  0.
        2    1    3    3  502    0  0.82006634861E+03  0.61923673152E+03 -0.12526170056E+04  0.16201889731E+04  0.25500000920E-02 0.  1.
       -2    1    3    3    0  502 -0.82006634861E+03 -0.61923673152E+03  0.66110477572E+03  0.12218929864E+04  0.25500000920E-02 0. -1.
</event>
<event>
 5   0  0.1937947E-05  0.3034853E+04  0.7818609E-02  0.8233848E-01
       -2   -1    0    0    0  501  0.00000000000E+00  0.00000000000E+00  0.14156367463E+04  0.14156367463E+04  0.25500000920E-02 0. -1.
        2   -1    0    0  501    0  0.00000000000E+00  0.00000000000E+00 -0.16265349804E+04  0.16265349804E+04  0.25500000920E-02 0.  1.
    10030    2    1    2    0    0  0.00000000000E+00  0.00000000000E+00 -0.21089823407E+03  0.30421717267E+04  0.30348526734E+04 0.  0.
        3    1    3    3  502    0  0.93686750246E+03  0.64295758133E+03  0.90269374809E+03  0.14511964655E+04  0.10100000352E+00 0. -1.
       -3    1    3    3    0  502 -0.93686750246E+03 -0.64295758133E+03 -0.11135919822E+04  0.15909752611E+04  0.10100000352E+00 0.  1.
</event>
<event>
 5   0  0.1829810E-05  0.2883569E+04  0.7818609E-02  0.8277783E-01
       -2   -1    0    0    0  501  0.00000000000E+00  0.00000000000E+00  0.11945826210E+04  0.11945826210E+04  0.25500000920E-02 0.  1.
        2   -1    0    0  501    0  0.00000000000E+00  0.00000000000E+00 -0.17401409491E+04  0.17401409491E+04  0.25500000920E-02 0. -1.
    10030    2    1    2    0    0  0.00000000000E+00  0.00000000000E+00 -0.54555832804E+03  0.29347235701E+04  0.28835687166E+04 0.  0.
        4    1    3    3  502    0 -0.11198298948E+04 -0.75875864042E+03 -0.78063745463E+03  0.15617714674E+04  0.12699999809E+01 0. -1.
       -4    1    3    3    0  502  0.11198298948E+04  0.75875864042E+03  0.23507912658E+03  0.13729521027E+04  0.12699999809E+01 0.  1.
</event>
<event>
 5   0  0.1918901E-05  0.2827522E+04  0.7818609E-02  0.8294775E-01
        2   -1    0    0  501    0  0.00000000000E+00  0.00000000000E+00  0.24328053638E+04  0.24328053638E+04  0.25500000920E-02 0.  1.
       -2   -1    0    0    0  501  0.00000000000E+00  0.00000000000E+00 -0.82156982233E+03  0.82156982234E+03  0.25500000920E-02 0. -1.
    10030    2    1    2    0    0  0.00000000000E+00  0.00000000000E+00  0.16112355414E+04  0.32543751861E+04  0.28275215087E+04 0.  0.
        1    1    3    3  502    0  0.66068172284E+03  0.92555613075E+03  0.17724034555E+04  0.21058415181E+04  0.50400001928E-02 0.  1.
       -1    1    3    3    0  502 -0.66068172284E+03 -0.92555613075E+03 -0.16116791408E+03  0.11485336680E+04  0.50400001928E-02 0. -1.
</event>
<event>
 5   0  0.1937947E-05  0.2218225E+04  0.7818609E-02  0.8510881E-01
        2   -1    0    0  501    0  0.00000000000E+00  0.00000000000E+00  0.12973629135E+04  0.12973629135E+04  0.25500000920E-02 0. -1.
       -2   -1    0    0    0  501  0.00000000000E+00  0.00000000000E+00 -0.94817759192E+03  0.94817759192E+03  0.25500000920E-02 0.  1.
    10030    2    1    2    0    0  0.00000000000E+00  0.00000000000E+00  0.34918532154E+03  0.22455405054E+04  0.22182249148E+04 0.  0.
        3    1    3    3  502    0 -0.93299759938E+03 -0.59779130551E+03  0.22305140659E+03  0.11303056691E+04  0.10100000352E+00 0. -1.
       -3    1    3    3    0  502  0.93299759938E+03  0.59779130551E+03  0.12613391495E+03  0.11152348363E+04  0.10100000352E+00 0.  1.
</event>
<event>
 5   0  0.7971153E-06  0.2852936E+04  0.7818609E-02  0.8287020E-01
        1   -1    0    0  501    0  0.00000000000E+00  0.00000000000E+00  0.14434785344E+04  0.14434785344E+04  0.50400001928E-02 0.  1.
       -1   -1    0    0    0  501  0.00000000000E+00  0.00000000000E+00 -0.14096580239E+04  0.14096580239E+04  0.50400001928E-02 0. -1.
    10030    2    1    2    0    0  0.00000000000E+00  0.00000000000E+00  0.33820510456E+02  0.28531365583E+04  0.28529361005E+04 0.  0.
        5    1    3    3  502    0 -0.33861677374E+03 -0.11824706090E+04 -0.70556070638E+03  0.14180042528E+04  0.46999998093E+01 0.  1.
       -5    1    3    3    0  502  0.33861677374E+03  0.11824706090E+04  0.73938121684E+03  0.14351323055E+04  0.46999998093E+01 0. -1.
</event>
<event>
 5   0  0.7305460E-06  0.2578261E+04  0.7818609E-02  0.8375623E-01
       -1   -1    0    0    0  501  0.00000000000E+00  0.00000000000E+00  0.65749664970E+03  0.65749664972E+03  0.50400001928E-02 0.  1.
        1   -1    0    0  501    0  0.00000000000E+00  0.00000000000E+00 -0.25275524752E+04  0.25275524752E+04  0.50400001928E-02 0. -1.
    10030    2    1    2    0    0  0.00000000000E+00  0.00000000000E+00 -0.18700558255E+04  0.31850491249E+04  0.25782608746E+04 0.  0.
        4    1    3    3  502    0 -0.10007790947E+04 -0.81002318908E+03 -0.85535699283E+03  0.15457469267E+04  0.12699999809E+01 0. -1.
       -4    1    3    3    0  502  0.10007790947E+04  0.81002318908E+03 -0.10146988326E+04  0.16393021982E+04  0.12699999809E+01 0.  1.
</event>
<event>
 5   0  0.7971153E-06  0.3133461E+04  0.7818609E-02  0.8206614E-01
       -1   -1    0    0    0  501  0.00000000000E+00  0.00000000000E+00  0.14286790723E+04  0.14286790723E+04  0.50400001928E-02 0.  1.
        1   -1    0    0  501    0  0.00000000000E+00  0.00000000000E+00 -0.17181213657E+04  0.17181213657E+04  0.50400001928E-02 0. -1.
    10030    2    1    2    0    0  0.00000000000E+00  0.00000000000E+00 -0.28944229332E+03  0.31468004380E+04  0.31334607314E+04 0.  0.
        5    1    3    3  502    0 -0.65111280999E+03  0.66988304245E+03  0.11183816067E+04  0.14572201927E+04  0.46999998093E+01 0.  1.
       -5    1    3    3    0  502  0.65111280999E+03 -0.66988304245E+03 -0.14078239000E+04  0.16895802453E+04  0.46999998093E+01 0. -1.
</event>
<event>
 5   0  0.8122088E-06  0.2837385E+04  0.7818609E-02  0.8291755E-01
        1   -1    0    0  501    0  0.00000000000E+00  0.00000000000E+00  0.17027276794E+04  0.17027276794E+04  0.50400001928E-02 0. -1.
       -1   -1    0    0    0  501  0.00000000000E+00  0.00000000000E+00 -0.11820380413E+04  0.11820380414E+04  0.50400001928E-02 0.  1.
    10030    2    1    2    0    0  0.00000000000E+00  0.00000000000E+00  0.52068963804E+03  0.28847657207E+04  0.28373853394E+04 0.  0.
        1    1    3    3  502    0  0.71925406388E+03  0.39765561894E+03  0.14360425728E+04  0.16545919952E+04  0.50400001928E-02 0. -1.
       -1    1    3    3    0  502 -0.71925406388E+03 -0.39765561894E+03 -0.91535293479E+03  0.12301737255E+04  0.50400001928E-02 0.  1.
</event>
<event>
 5   0  0.1829810E-05  0.2866465E+04  0.7818609E-02  0.8282926E-01
        2   -1    0    0  501    0  0.00000000000E+00  0.00000000000E+00  0.11776041778E+04  0.11776041778E+04  0.25500000920E-02 0.  1.
       -2   -1    0    0    0  501  0.00000000000E+00  0.00000000000E+00 -0.17443516613E+04  0.17443516613E+04  0.25500000920E-02 0. -1.
    10030    2    1    2    0    0  0.00000000000E+00  0.00000000000E+00 -0.56674748350E+03  0.29219558391E+04  0.28664652825E+04 0.  0.
        4    1    3    3  502    0 -0.23241730030E+03  0.12141086358E+04  0.45597860939E+03  0.13175718904E+04  0.12699999809E+01 0. -1.
       -4    1    3    3    0  502  0.23241730030E+03 -0.12141086358E+04 -0.10227260929E+04  0.16043839488E+04  0.12699999809E+01 0.  1.
</event>
<event>
 5   0  0.1918901E-05  0.2859201E+04  0.7818609E-02  0.8285121E-01
       -2   -1    0    0    0  501  0.00000000000E+00  0.00000000000E+00  0.70678502696E+03  0.70678502696E+03  0.25500000920E-02 0.  1.
        2   -1    0    0  501    0  0.00000000000E+00  0.00000000000E+00 -0.28916262284E+04  0.28916262284E+04  0.25500000920E-02 0. -1.
    10030    2    1    2    0    0  0.00000000000E+00  0.00000000000E+00 -0.21848412014E+04  0.35984112553E+04  0.28592013723E+04 0.  0.
        1    1    3    3  502    0  0.10544822298E+04  0.96525094348E+03 -0.10788677883E+04  0.17909767898E+04  0.50400001928E-02 0. -1.
       -1    1    3    3    0  502 -0.10544822298E+04 -0.96525094348E+03 -0.11059734131E+04  0.18074344656E+04  0.50400001928E-02 0.  1.
</event>
<event>
 5   0  0.1976233E-05  0.1467470E+04  0.7818609E-02  0.8906378E-01
       -2   -1    0    0    0  501  0.00000000000E+00  0.00000000000E+00  0.65384406193E+03  0.65384406193E+03  0.25500000920E-02 0. -1.
        2   -1    0    0  501    0  0.00000000000E+00  0.00000000000E+00 -0.82338807320E+03  0.82338807321E+03  0.25500000920E-02 0.  1.
    10030    2    1    2    0    0  0.00000000000E+00  0.00000000000E+00 -0.16954401127E+03  0.14772321351E+04  0.14674704799E+04 0.  0.
        2    1    3    3  502    0 -0.39065606611E+03 -0.18770560114E+03 -0.68075918721E+03  0.80701835522E+03  0.25500000920E-02 0.  1.
       -2    1    3    3    0  502  0.39065606611E+03  0.18770560114E+03  0.51121517594E+03  0.67021377992E+03  0.25500000920E-02 0. -1.
</event>
<event>
 5   0  0.8234888E-06  0.2177535E+04  0.7818609E-02  0.8527837E-01
       -1   -1    0    0    0  501  0.00000000000E+00  0.00000000000E+00  0.16981501332E+04  0.16981501332E+04  0.50400001928E-02 0.  1.
        1   -1    0    0  501    0  0.00000000000E+00  0.00000000000E+00 -0.69806218522E+03  0.69806218524E+03  0.50400001928E-02 0. -1.
    10030    2    1    2    0    0  0.00000000000E+00  0.00000000000E+00  0.10000879479E+04  0.23962123184E+04  0.21775347463E+04 0.  0.
        3    1    3    3  502    0 -0.63380412735E+03 -0.33689800709E+03  0.14009189060E+04  0.15740971159E+04  0.10100000352E+00 0.  1.
       -3    1    3    3    0  502  0.63380412735E+03  0.33689800709E+03 -0.40083095805E+03  0.82211520248E+03  0.10100000352E+00 0. -1.
</event>
<event>
 5   0  0.1937947E-05  0.2884748E+04  0.7818609E-02  0.8277430E-01
        2   -1    0    0  501    0  0.00000000000E+00  0.00000000000E+00  0.26996485458E+04  0.26996485458E+04  0.25500000920E-02 0. -1.
       -2   -1    0    0    0  501  0.00000000000E+00  0.00000000000E+00 -0.77063481810E+03  0.77063481810E+03  0.25500000920E-02 0.  1.
    10030    2    1    2    0    0  0.00000000000E+00  0.00000000000E+00  0.19290137277E+04  0.34702833639E+04  0.28847482844E+04 0.  0.
        3    1    3    3  502    0 -0.59516482947E+03 -0.13070876091E+04  0.11247510696E+04  0.18242160428E+04  0.10100000352E+00 0. -1.
       -3    1    3    3    0  502  0.59516482947E+03  0.13070876091E+04  0.80426265810E+03  0.16460673211E+04  0.10100000352E+00 0.  1.
</event>
<event>
 5   0  0.1960961E-05  0.2869602E+04  0.7818609E-02  0.8281980E-01
       -2   -1    0    0    0  501  0.00000000000E+00  0.00000000000E+00  0.19194093096E+04  0.19194093096E+04  0.25500000920E-02 0. -1.
        2   -1    0    0  501    0  0.00000000000E+00  0.00000000000E+00 -0.10725458335E+04  0.10725458335E+04  0.25500000920E-02 0.  1.
    10030    2    1    2    0    0  0.00000000000E+00  0.00000000000E+00  0.84686347614E+03  0.29919551430E+04  0.28696023820E+04 0.  0.
        5    1    3    3  502    0 -0.92037756323E+02  0.53179143407E+03  0.18095356123E+04  0.18883099058E+04  0.46999998093E+01 0. -1.
       -5    1    3    3    0  502  0.92037756323E+02 -0.53179143407E+03 -0.96267213620E+03  0.11036452373E+04  0.46999998093E+01 0.  1.
</event>
<event>
 5   0  0.1918901E-05  0.2941901E+04  0.7818609E-02  0.8260519E-01
        2   -1    0    0  501    0  0.00000000000E+00  0.00000000000E+00  0.17358441942E+04  0.17358441942E+04  0.25500000920E-02 0.  1.
       -2   -1    0    0    0  501  0.00000000000E+00  0.00000000000E+00 -0.12464802064E+04  0.12464802064E+04  0.25500000920E-02 0. -1.
    10030    2    1    2    0    0  0.00000000000E+00  0.00000000000E+00  0.48936398780E+03  0.29823244007E+04  0.29419010382E+04 0.  0.
        1    1    3    3  502    0  0.16061677816E+03  0.26933391987E+03  0.17015639998E+04  0.17302192218E+04  0.50400001928E-02 0.  1.
       -1    1    3    3    0  502 -0.16061677816E+03 -0.26933391987E+03 -0.12122000120E+04  0.12521051789E+04  0.50400001928E-02 0. -1.
</event>
<event>
 5   0  0.8234888E-06  0.2905412E+04  0.7818609E-02  0.8271269E-01
        1   -1    0    0  501    0  0.00000000000E+00  0.00000000000E+00  0.20793060377E+04  0.20793060377E+04  0.50400001928E-02 0. -1.
       -1   -1    0    0    0  501  0.00000000000E+00  0.00000000000E+00 -0.10149324117E+04  0.10149324117E+04  0.50400001928E-02 0.  1.
    10030    2    1    2    0    0  0.00000000000E+00  0.00000000000E+00  0.10643736260E+04  0.30942384494E+04  0.29054122541E+04 0.  0.
        3    1    3    3  502    0  0.45441719180E+03 -0.98431254710E+02  0.19979224606E+04  0.20513112550E+04  0.10100000352E+00 0. -1.
       -3    1    3    3    0  502 -0.45441719180E+03  0.98431254710E+02 -0.93354883459E+03  0.10429271944E+04  0.10100000352E+00 0.  1.
</event>
<event>
 5   0  0.7305460E-06  0.3175843E+04  0.7818609E-02  0.8195226E-01
       -1   -1    0    0    0  501  0.00000000000E+00  0.00000000000E+00  0.11685908175E+04  0.11685908175E+04  0.50400001928E-02 0. -1.
        1   -1    0    0  501    0  0.00000000000E+00  0.00000000000E+00 -0.21577228751E+04  0.21577228751E+04  0.50400001928E-02 0.  1.
    10030    2    1    2    0    0  0.00000000000E+00  0.00000000000E+00 -0.98913205767E+03  0.33263136926E+04  0.31758432824E+04 0.  0.
        4    1    3    3  502    0 -0.78035122874E+03 -0.31786661701E+03 -0.19042574753E+04  0.20823509242E+04  0.12699999809E+01 0.  1.
       -4    1    3    3    0  502  0.78035122874E+03  0.31786661701E+03  0.91512541761E+03  0.12439627684E+04  0.12699999809E+01 0. -1.
</event>
<event>
 5   0  0.8234888E-06  0.1949659E+04  0.7818609E-02  0.8630525E-01
       -1   -1    0    0    0  501  0.00000000000E+00  0.00000000000E+00  0.60826286815E+03  0.60826286817E+03  0.50400001928E-02 0.  1.
        1   -1    0    0  501    0  0.00000000000E+00  0.00000000000E+00 -0.15623051030E+04  0.15623051030E+04  0.50400001928E-02 0. -1.
    10030    2    1    2    0    0  0.00000000000E+00  0.00000000000E+00 -0.95404223482E+03  0.21705679712E+04  0.19496586192E+04 0.  0.
        3    1    3    3  502    0  0.37309222993E+03 -0.77480386836E+03  0.34098606868E+02  0.86062859100E+03  0.10100000352E+00 0.  1.
       -3    1    3    3    0  502 -0.37309222993E+03  0.77480386836E+03 -0.98814084169E+03  0.13099393802E+04  0.10100000352E+00 0. -1.
</event>
<event>
 5   0  0.1829810E-05  0.2885245E+04  0.7818609E-02  0.8277281E-01
       -2   -1    0    0    0  501  0.00000000000E+00  0.00000000000E+00  0.11414760392E+04  0.11414760392E+04  0.25500000920E-02 0.  1.
        2   -1    0    0  501    0  0.00000000000E+00  0.00000000000E+00 -0.18232186226E+04  0.18232186226E+04  0.25500000920E-02 0. -1.
    10030    2    1    2    0    0  0.00000000000E+00  0.00000000000E+00 -0.68174258343E+03  0.29646946618E+04  0.28852454814E+04 0.  0.
        4    1    3    3  502    0  0.89919646141E+03 -0.92875604510E+03  0.31708640302E+03  0.13310475076E+04  0.12699999809E+01 0. -1.
       -4    1    3    3    0  502 -0.89919646141E+03  0.92875604510E+03 -0.99882898645E+03  0.16336471543E+04  0.12699999809E+01 0.  1.
</event>
<event>
 5   0  0.1960961E-05  0.2893772E+04  0.7818609E-02  0.8274733E-01
       -2   -1    0    0    0  501  0.00000000000E+00  0.00000000000E+00  0.20785377096E+04  0.20785377096E+04  0.25500000920E-02 0. -1.
        2   -1    0    0  501    0  0.00000000000E+00  0.00000000000E+00 -0.10071881085E+04  0.10071881085E+04  0.25500000920E-02 0.  1.
    10030    2    1    2    0    0  0.00000000000E+00  0.00000000000E+00  0.10713496011E+04  0.30857258181E+04  0.28937715626E+04 0.  0.
        5    1    3    3  502    0 -0.53953665624E+03 -0.65267604726E+02  0.19655548710E+04  0.20393105954E+04  0.46999998093E+01 0. -1.
       -5    1    3    3    0  502  0.53953665624E+03  0.65267604726E+02 -0.89420526986E+03  0.10464152227E+04  0.46999998093E+01 0.  1.
</event>
<event>
 5   0  0.1976233E-05  0.2207709E+04  0.7818609E-02  0.8515226E-01
       -2   -1    0    0    0  501  0.00000000000E+00  0.00000000000E+00  0.76886056452E+03  0.76886056452E+03  0.25500000920E-02 0. -1.
        2   -1    0    0  501    0  0.00000000000E+00  0.00000000000E+00 -0.15848062819E+04  0.15848062819E+04  0.25500000920E-02 0.  1.
    10030    2    1    2    0    0  0.00000000000E+00  0.00000000000E+00 -0.81594571733E+03  0.23536668464E+04  0.22077092676E+04 0.  0.
        2    1    3    3  502    0 -0.12416256111E+03 -0.41780683100E+03  0.67323369543E+03  0.80201153252E+03  0.25500000920E-02 0. -1.
       -2    1    3    3    0  502  0.12416256111E+03  0.41780683100E+03 -0.14891794128E+04  0.15516553139E+04  0.25500000920E-02 0.  1.
</event>
<event>
 5   0  0.1937947E-05  0.2858900E+04  0.7818609E-02  0.8285212E-01
        2   -1    0    0  501    0  0.00000000000E+00  0.00000000000E+00  0.15157858173E+04  0.15157858173E+04  0.25500000920E-02 0.  1.
       -2   -1    0    0    0  501  0.00000000000E+00  0.00000000000E+00 -0.13480318269E+04  0.13480318269E+04  0.25500000920E-02 0. -1.
    10030    2    1    2    0    0  0.00000000000E+00  0.00000000000E+00  0.16775399037E+03  0.28638176442E+04  0.28589001553E+04 0.  0.
        3    1    3    3  502    0 -0.89094099591E+03  0.69343395926E+03 -0.79438703291E+03  0.13804627059E+04  0.10100000352E+00 0. -1.
       -3    1    3    3    0  502  0.89094099591E+03 -0.69343395926E+03  0.96214102329E+03  0.14833549383E+04  0.10100000352E+00 0.  1.
</event>
<event>
 5   0  0.1976233E-05  0.2089342E+04  0.7818609E-02  0.8565953E-01
       -2   -1    0    0    0  501  0.00000000000E+00  0.00000000000E+00  0.67652429582E+03  0.67652429583E+03  0.25500000920E-02 0. -1.
        2   -1    0    0  501    0  0.00000000000E+00  0.00000000000E+00 -0.16131538020E+04  0.16131538020E+04  0.25500000920E-02 0.  1.
    10030    2    1    2    0    0  0.00000000000E+00  0.00000000000E+00 -0.93662950622E+03  0.22896780979E+04  0.20893422314E+04 0.  0.
        2    1    3    3  502    0 -0.21835266923E+03  0.31332490009E+03 -0.15339110696E+04  0.15807382929E+04  0.25500000920E-02 0.  1.
       -2    1    3    3    0  502  0.21835266923E+03 -0.31332490009E+03  0.59728156336E+03  0.70893980500E+03  0.25500000920E-02 0. -1.
</event>
<event>
 5   0  0.1937947E-05  0.2839540E+04  0.7818609E-02  0.8291097E-01
        2   -1    0    0  501    0  0.00000000000E+00  0.00000000000E+00  0.30012988309E+04  0.30012988309E+04  0.25500000920E-02 0. -1.
       -2   -1    0    0    0  501  0.00000000000E+00  0.00000000000E+00 -0.67162480102E+03  0.67162480103E+03  0.25500000920E-02 0.  1.
    10030    2    1    2    0    0  0.00000000000E+00  0.00000000000E+00  0.23296740298E+04  0.36729236319E+04  0.28395399135E+04 0.  0.
        3    1    3    3  502    0  0.13231590982E+04 -0.21660943198E+03  0.56079252476E+03  0.14533264985E+04  0.10100000352E+00 0.  1.
       -3    1    3    3    0  502 -0.13231590982E+04  0.21660943198E+03  0.17688815051E+04  0.22195971334E+04  0.10100000352E+00 0. -1.
</event>
<event>
 5   0  0.1937947E-05  0.2980959E+04  0.7818609E-02  0.8249189E-01
       -2   -1    0    0    0  501  0.00000000000E+00  0.00000000000E+00  0.10827251707E+04  0.10827251707E+04  0.25500000920E-02 0.  1.
        2   -1    0    0  501    0  0.00000000000E+00  0.00000000000E+00 -0.20517947027E+04  0.20517947027E+04  0.25500000920E-02 0. -1.
    10030    2    1    2    0    0  0.00000000000E+00  0.00000000000E+00 -0.96906953197E+03  0.31345198734E+04  0.29809594225E+04 0.  0.
        3    1    3    3  502    0 -0.17086845214E+03  0.13935915603E+04  0.41470526100E+02  0.14046399110E+04  0.10100000352E+00 0.  1.
       -3    1    3    3    0  502  0.17086845214E+03 -0.13935915603E+04 -0.10105400581E+04  0.17298799623E+04  0.10100000352E+00 0. -1.
</event>
<event>
 5   0  0.1829810E-05  0.2970811E+04  0.7818609E-02  0.8252115E-01
        2   -1    0    0  501    0  0.00000000000E+00  0.00000000000E+00  0.16417517287E+04  0.16417517287E+04  0.25500000920E-02 0.  1.
       -2   -1    0    0    0  501  0.00000000000E+00  0.00000000000E+00 -0.13439480934E+04  0.13439480934E+04  0.25500000920E-02 0. -1.
    10030    2    1    2    0    0  0.00000000000E+00  0.00000000000E+00  0.29780363535E+03  0.29856998221E+04  0.29708107349E+04 0.  0.
        4    1    3    3  502    0 -0.64397199928E+03 -0.13118642384E+04 -0.11840067008E+03  0.14661882715E+04  0.12699999809E+01 0. -1.
       -4    1    3    3    0  502  0.64397199928E+03  0.13118642384E+04  0.41620430543E+03  0.15195115506E+04  0.12699999809E+01 0.  1.
</event>
<event>
 5   0  0.7971153E-06  0.2966952E+04  0.7818609E-02  0.8253231E-01
        1   -1    0    0  501    0  0.00000000000E+00  0.00000000000E+00  0.19261991117E+04  0.19261991117E+04  0.50400001928E-02 0.  1.
       -1   -1    0    0    0  501  0.00000000000E+00  0.00000000000E+00 -0.11425099313E+04  0.11425099313E+04  0.50400001928E-02 0. -1.
    10030    2    1    2    0    0  0.00000000000E+00  0.00000000000E+00  0.78368918034E+03  0.30687090430E+04  0.29669523858E+04 0.  0.
        5    1    3    3  502    0  0.77335593009E+03  0.37340805219E+02  0.17006308078E+04  0.18685933117E+04  0.46999998093E+01 0.  1.
       -5    1    3    3    0  502 -0.77335593009E+03 -0.37340805219E+02 -0.91694162744E+03  0.12001157313E+04  0.46999998093E+01 0. -1.
</event>
<event>
 5   0  0.8055928E-06  0.1588156E+04  0.7818609E-02  0.8827857E-01
       -1   -1    0    0    0  501  0.00000000000E+00  0.00000000000E+00  0.68592892052E+03  0.68592892054E+03  0.50400001928E-02 0.  1.
        1   -1    0    0  501    0  0.00000000000E+00  0.00000000000E+00 -0.91927879299E+03  0.91927879301E+03  0.50400001928E-02 0. -1.
    10030    2    1    2    0    0  0.00000000000E+00  0.00000000000E+00 -0.23334987247E+03  0.16052077135E+04  0.15881560505E+04 0.  0.
        2    1    3    3  502    0 -0.53018339468E+03  0.58877739236E+03 -0.63128200776E+02  0.79481974025E+03  0.25500000920E-02 0.  1.
       -2    1    3    3    0  502  0.53018339468E+03 -0.58877739236E+03 -0.17022167170E+03  0.81038797330E+03  0.25500000920E-02 0. -1.
</event>
<event>
 5   0  0.8055928E-06  0.2803019E+04  0.7818609E-02  0.8302332E-01
        1   -1    0    0  501    0  0.00000000000E+00  0.00000000000E+00  0.23256482841E+04  0.23256482841E+04  0.50400001928E-02 0. -1.
       -1   -1    0    0    0  501  0.00000000000E+00  0.00000000000E+00 -0.84459389154E+03  0.84459389155E+03  0.50400001928E-02 0.  1.
    10030    2    1    2    0    0  0.00000000000E+00  0.00000000000E+00  0.14810543925E+04  0.31702421756E+04  0.28030186119E+04 0.  0.
        2    1    3    3  502    0 -0.82502693608E+03 -0.13201044958E+03  0.20131683789E+04  0.21796658289E+04  0.25500000920E-02 0. -1.
       -2    1    3    3    0  502  0.82502693608E+03  0.13201044958E+03 -0.53211398639E+03  0.99057634666E+03  0.25500000920E-02 0.  1.
</event>
<event>
 5   0  0.8234888E-06  0.2889046E+04  0.7818609E-02  0.8276144E-01
        1   -1    0    0  501    0  0.00000000000E+00  0.00000000000E+00  0.19989175744E+04  0.19989175744E+04  0.50400001928E-02 0.  1.
       -1   -1    0    0    0  501  0.00000000000E+00  0.00000000000E+00 -0.10438883880E+04  0.10438883881E+04  0.50400001928E-02 0. -1.
    10030    2    1    2    0    0  0.00000000000E+00  0.00000000000E+00  0.95502918637E+03  0.30428059625E+04  0.28890461018E+04 0.  0.
        3    1    3    3  502    0  0.11686026838E+04 -0.83073325426E+03  0.29238451961E+03  0.14632971980E+04  0.10100000352E+00 0. -1.
       -3    1    3    3    0  502 -0.11686026838E+04  0.83073325426E+03  0.66264466676E+03  0.15795087644E+04  0.10100000352E+00 0.  1.
</event>
<event>
 5   0  0.1918901E-05  0.2015149E+04  0.7818609E-02  0.8599571E-01
       -2   -1    0    0    0  501  0.00000000000E+00  0.00000000000E+00  0.11281393229E+04  0.11281393229E+04  0.25500000920E-02 0.  1.
        2   -1    0    0  501    0  0.00000000000E+00  0.00000000000E+00 -0.89989452771E+03  0.89989452772E+03  0.25500000920E-02 0. -1.
    10030    2    1    2    0    0  0.00000000000E+00  0.00000000000E+00  0.22824479521E+03  0.20280338506E+04  0.20151490299E+04 0.  0.
        1    1    3    3  502    0  0.39729718472E+03 -0.61337747021E+03  0.81219242434E+03  0.10925811220E+04  0.50400001928E-02 0.  1.
       -1    1    3    3    0  502 -0.39729718472E+03  0.61337747021E+03 -0.58394762913E+03  0.93545272865E+03  0.50400001928E-02 0. -1.
</event>
<event>
 5   0  0.8234888E-06  0.1874050E+04  0.7818609E-02  0.8667882E-01
       -1   -1    0    0    0  501  0.00000000000E+00  0.00000000000E+00  0.82198073854E+03  0.82198073855E+03  0.50400001928E-02 0.  1.
        1   -1    0    0  501    0  0.00000000000E+00  0.00000000000E+00 -0.10681713615E+04  0.10681713615E+04  0.50400001928E-02 0. -1.
    10030    2    1    2    0    0  0.00000000000E+00  0.00000000000E+00 -0.24619062296E+03  0.18901521001E+04  0.18740504632E+04 0.  0.
        3    1    3    3  502    0  0.97813115704E+01 -0.41058687817E+03  0.72636363772E+03  0.83443478054E+03  0.10100000352E+00 0.  1.
       -3    1    3    3    0  502 -0.97813115704E+01  0.41058687817E+03 -0.97255426068E+03  0.10557173195E+04  0.10100000352E+00 0. -1.
</event>
<event>
 5   0  0.1937947E-05  0.2915109E+04  0.7818609E-02  0.8268396E-01
       -2   -1    0    0    0  501  0.00000000000E+00  0.00000000000E+00  0.70676286186E+03  0.70676286186E+03  0.25500000920E-02 0.  1.
        2   -1    0    0  501    0  0.00000000000E+00  0.00000000000E+00 -0.30059089821E+04  0.30059089821E+04  0.25500000920E-02 0. -1.
    10030    2    1    2    0    0  0.00000000000E+00  0.00000000000E+00 -0.22991461202E+04  0.37126718440E+04  0.29151088039E+04 0.  0.
        3    1    3    3  502    0 -0.82662713701E+02 -0.64706816348E+03  0.51047290024E+03  0.82831933727E+03  0.10100000352E+00 0.  1.
       -3    1    3    3    0  502  0.82662713701E+02  0.64706816348E+03 -0.28096190205E+04  0.28843525067E+04  0.10100000352E+00 0. -1.
</event>
<event>
 5   0  0.8122088E-06  0.2771242E+04  0.7818609E-02  0.8312252E-01
        1   -1    0    0  501    0  0.00000000000E+00  0.00000000000E+00  0.10405332522E+04  0.10405332522E+04  0.50400001928E-02 0.  1.
       -1   -1    0    0    0  501  0.00000000000E+00  0.00000000000E+00 -0.18451557867E+04  0.18451557867E+04  0.50400001928E-02 0. -1.
    10030    2    1    2    0    0  0.00000000000E+00  0.00000000000E+00 -0.80462253453E+03  0.28856890389E+04  0.27712422857E+04 0.  0.
        1    1    3    3  502    0  0.17759631035E+03  0.87827718695E+03 -0.15028576784E+04  0.17497121101E+04  0.50400001928E-02 0. -1.
       -1    1    3    3    0  502 -0.17759631035E+03 -0.87827718695E+03  0.69823514388E+03  0.11359769288E+04  0.50400001928E-02 0.  1.
</event>
<event>
 5   0  0.1829810E-05  0.2273604E+04  0.7818609E-02  0.8488402E-01
        2   -1    0    0  501    0  0.00000000000E+00  0.00000000000E+00  0.83567507072E+03  0.83567507072E+03  0.25500000920E-02 0.  1.
       -2   -1    0    0    0  501  0.00000000000E+00  0.00000000000E+00 -0.15464369215E+04  0.15464369215E+04  0.25500000920E-02 0. -1.
    10030    2    1    2    0    0  0.00000000000E+00  0.00000000000E+00 -0.71076185078E+03  0.23821119922E+04  0.22736039970E+04 0.  0.
        4    1    3    3  502    0 -0.82912667098E+03 -0.15277370590E+03  0.44359196313E+03  0.95266273382E+03  0.12699999809E+01 0.  1.
       -4    1    3    3    0  502  0.82912667098E+03  0.15277370590E+03 -0.11543538139E+04  0.14294492584E+04  0.12699999809E+01 0. -1.
</event>
<event>
 5   0  0.1829810E-05  0.2460819E+04  0.7818609E-02  0.8417078E-01
        2   -1    0    0  501    0  0.00000000000E+00  0.00000000000E+00  0.13158002180E+04  0.13158002180E+04  0.25500000920E-02 0.  1.
       -2   -1    0    0    0  501  0.00000000000E+00  0.00000000000E+00 -0.11505603498E+04  0.11505603498E+04  0.25500000920E-02 0. -1.
    10030    2    1    2    0    0  0.00000000000E+00  0.00000000000E+00  0.16523986829E+03  0.24663605678E+04  0.24608190174E+04 0.  0.
        4    1    3    3  502    0  0.42943412192E+03  0.33318617491E+03  0.11889531803E+04  0.13073017900E+04  0.12699999809E+01 0.  1.
       -4    1    3    3    0  502 -0.42943412192E+03 -0.33318617491E+03 -0.10237133120E+04  0.11590587778E+04  0.12699999809E+01 0. -1.
</event>
<event>
 5   0  0.7971153E-06  0.1708278E+04  0.7818609E-02  0.8756657E-01
        1   -1    0    0  501    0  0.00000000000E+00  0.00000000000E+00  0.13279410970E+04  0.13279410970E+04  0.50400001928E-02 0.  1.
       -1   -1    0    0    0  501  0.00000000000E+00  0.00000000000E+00 -0.54938689220E+03  0.54938689222E+03  0.50400001928E-02 0. -1.
    10030    2    1    2    0    0  0.00000000000E+00  0.00000000000E+00  0.77855420484E+03  0.18773279893E+04  0.17082780012E+04 0.  0.
        5    1    3    3  502    0 -0.38290603086E+03  0.29783436108E+02  0.12276809645E+04  0.12863618162E+04  0.46999998093E+01 0.  1.
       -5    1    3    3    0  502  0.38290603086E+03 -0.29783436108E+02 -0.44912675964E+03  0.59096617311E+03  0.46999998093E+01 0. -1.
</event>
<event>
 5   0  0.8234888E-06  0.1487188E+04  0.7818609E-02  0.8893017E-01
        1   -1    0    0  501    0  0.00000000000E+00  0.00000000000E+00  0.13518096533E+04  0.13518096533E+04  0.50400001928E-02 0.  1.
       -1   -1    0    0    0  501  0.00000000000E+00  0.00000000000E+00 -0.40903116869E+03  0.40903116872E+03  0.50400001928E-02 0. -1.
    10030    2    1    2    0    0  0.00000000000E+00  0.00000000000E+00  0.94277848459E+03  0.17608408220E+04  0.14871883302E+04 0.  0.
        3    1    3    3  502    0  0.34381761713E+03  0.47961476783E+03 -0.64288892338E+02  0.59361094266E+03  0.10100000352E+00 0. -1.
       -3    1    3    3    0  502 -0.34381761713E+03 -0.47961476783E+03  0.10070673769E+04  0.11672298793E+04  0.10100000352E+00 0.  1.
</event>
<event>
 5   0  0.8055928E-06  0.2880701E+04  0.7818609E-02  0.8278643E-01
        1   -1    0    0  501    0  0.00000000000E+00  0.00000000000E+00  0.13081054770E+04  0.13081054770E+04  0.50400001928E-02 0. -1.
       -1   -1    0    0    0  501  0.00000000000E+00  0.00000000000E+00 -0.15859652019E+04  0.15859652019E+04  0.50400001928E-02 0.  1.
    10030    2    1    2    0    0  0.00000000000E+00  0.00000000000E+00 -0.27785972490E+03  0.28940706789E+04  0.28807011417E+04 0.  0.
        2    1    3    3  502    0  0.39903612686E+03 -0.41120972653E+03 -0.14665342421E+04  0.15744986355E+04  0.25500000920E-02 0.  1.
       -2    1    3    3    0  502 -0.39903612686E+03  0.41120972653E+03  0.11886745173E+04  0.13195720434E+04  0.25500000920E-02 0. -1.
</event>
<event>
 5   0  0.1829810E-05  0.2891052E+04  0.7818609E-02  0.8275545E-01
       -2   -1    0    0    0  501  0.00000000000E+00  0.00000000000E+00  0.11537316868E+04  0.11537316868E+04  0.25500000920E-02 0. -1.
        2   -1    0    0  501    0  0.00000000000E+00  0.00000000000E+00 -0.18111188434E+04  0.18111188434E+04  0.25500000920E-02 0.  1.
    10030    2    1    2    0    0  0.00000000000E+00  0.00000000000E+00 -0.65738715657E+03  0.29648505302E+04  0.28910518489E+04 0.  0.
        4    1    3    3  502    0  0.14024382636E+04  0.28606847139E+03 -0.12135621636E+03  0.14364529918E+04  0.12699999809E+01 0. -1.
       -4    1    3    3    0  502 -0.14024382636E+04 -0.28606847139E+03 -0.53603094022E+03  0.15283975384E+04  0.12699999809E+01 0.  1.
</event>
<event>
 5   0  0.8234888E-06  0.2667048E+04  0.7818609E-02  0.8345777E-01
        1   -1    0    0  501    0  0.00000000000E+00  0.00000000000E+00  0.10773399188E+04  0.10773399188E+04  0.50400001928E-02 0. -1.
       -1   -1    0    0    0  501  0.00000000000E+00  0.00000000000E+00 -0.16506271058E+04  0.16506271059E+04  0.50400001928E-02 0.  1.
    10030    2    1    2    0    0  0.00000000000E+00  0.00000000000E+00 -0.57328718704E+03  0.27279670247E+04  0.26670481602E+04 0.  0.
        3    1    3    3  502    0 -0.10098440077E+04  0.38220110971E+03  0.51380658777E+03  0.11957674640E+04  0.10100000352E+00 0. -1.
       -3    1    3    3    0  502  0.10098440077E+04 -0.38220110971E+03 -0.10870937748E+04  0.15321995606E+04  0.10100000352E+00 0.  1.
</event>
<event>
 5   0  0.1976233E-05  0.2862013E+04  0.7818609E-02  0.8284270E-01
       -2   -1    0    0    0  501  0.00000000000E+00  0.00000000000E+00  0.96333365440E+03  0.96333365440E+03  0.25500000920E-02 0.  1.
        2   -1    0    0  501    0  0.00000000000E+00  0.00000000000E+00 -0.21257223070E+04  0.21257223070E+04  0.25500000920E-02 0. -1.
    10030    2    1    2    0    0  0.00000000000E+00  0.00000000000E+00 -0.11623886526E+04  0.30890559614E+04  0.28620131644E+04 0.  0.
        2    1    3    3  502    0  0.72268815973E+03  0.11654807968E+04 -0.10224754601E+04  0.17105787707E+04  0.25500000920E-02 0. -1.
       -2    1    3    3    0  502 -0.72268815973E+03 -0.11654807968E+04 -0.13991319245E+03  0.13784771908E+04  0.25500000920E-02 0.  1.
</event>
<event>
 5   0  0.1829810E-05  0.2845391E+04  0.7818609E-02  0.8289313E-01
        2   -1    0    0  501    0  0.00000000000E+00  0.00000000000E+00  0.22242492388E+04  0.22242492388E+04  0.25500000920E-02 0.  1.
       -2   -1    0    0    0  501  0.00000000000E+00  0.00000000000E+00 -0.90999808264E+03  0.90999808264E+03  0.25500000920E-02 0. -1.
    10030    2    1    2    0    0  0.00000000000E+00  0.00000000000E+00  0.13142511562E+04  0.31342473214E+04  0.28453910400E+04 0.  0.
        4    1    3    3  502    0  0.55325523390E+03 -0.33514532482E+03  0.20529036308E+04  0.21524006767E+04  0.12699999809E+01 0.  1.
       -4    1    3    3    0  502 -0.55325523390E+03  0.33514532482E+03 -0.73865247467E+03  0.98184664476E+03  0.12699999809E+01 0. -1.
</event>
<event>
 5   0  0.7971153E-06  0.2841360E+04  0.7818609E-02  0.8290541E-01
       -1   -1    0    0    0  501  0.00000000000E+00  0.00000000000E+00  0.24511029606E+04  0.24511029606E+04  0.50400001928E-02 0. -1.
        1   -1    0    0  501    0  0.00000000000E+00  0.00000000000E+00 -0.82343836169E+03  0.82343836170E+03  0.50400001928E-02 0.  1.
    10030    2    1    2    0    0  0.00000000000E+00  0.00000000000E+00  0.16276645989E+04  0.32745413223E+04  0.28413603828E+04 0.  0.
        5    1    3    3  502    0  0.18867877099E+03  0.36808763080E+01 -0.80892031327E+03  0.83065479635E+03  0.46999998093E+01 0.  1.
       -5    1    3    3    0  502 -0.18867877099E+03 -0.36808763080E+01  0.24365849122E+04  0.24438865260E+04  0.46999998093E+01 0. -1.
</event>
<event>
 5   0  0.6578125E-06  0.2804615E+04  0.7818609E-02  0.8301837E-01
        4   -1    0    0  501    0  0.00000000000E+00  0.00000000000E+00  0.10449665252E+04  0.10449672970E+04  0.12699999809E+01 0. -1.
       -4   -1    0    0    0  501  0.00000000000E+00  0.00000000000E+00 -0.18818440184E+04  0.18818444470E+04  0.12699999809E+01 0.  1.
    10030    2    1    2    0    0  0.00000000000E+00  0.00000000000E+00 -0.83687749322E+03  0.29268117439E+04  0.28046145984E+04 0.  0.
        3    1    3    3  502    0 -0.60347403010E+03 -0.10508089268E+04  0.31806256482E+03  0.12528144759E+04  0.10100000352E+00 0. -1.
       -3    1    3    3    0  502  0.60347403010E+03  0.10508089268E+04 -0.11549400580E+04  0.16739972681E+04  0.10100000352E+00 0.  1.
</event>
<event>
 5   0  0.1976233E-05  0.3147319E+04  0.7818609E-02  0.8202870E-01
        2   -1    0    0  501    0  0.00000000000E+00  0.00000000000E+00  0.78898173816E+03  0.78898173816E+03  0.25500000920E-02 0. -1.
       -2   -1    0    0    0  501  0.00000000000E+00  0.00000000000E+00 -0.31387354789E+04  0.31387354789E+04  0.25500000920E-02 0.  1.
    10030    2    1    2    0    0  0.00000000000E+00  0.00000000000E+00 -0.23497537407E+04  0.39277172171E+04  0.31473194778E+04 0.  0.
        2    1    3    3  502    0 -0.18421135516E+03 -0.11043955817E+04  0.20510640019E+03  0.11382847006E+04  0.25500000920E-02 0. -1.
       -2    1    3    3    0  502  0.18421135516E+03  0.11043955817E+04 -0.25548601409E+04  0.27894325165E+04  0.25500000920E-02 0.  1.
</event>
<event>
 5   0  0.1937947E-05  0.1587093E+04  0.7818609E-02  0.8828517E-01
        2   -1    0    0  501    0  0.00000000000E+00  0.00000000000E+00  0.10409301744E+04  0.10409301744E+04  0.25500000920E-02 0.  1.
       -2   -1    0    0    0  501  0.00000000000E+00  0.00000000000E+00 -0.60495523047E+03  0.60495523048E+03  0.25500000920E-02 0. -1.
    10030    2    1    2    0    0  0.00000000000E+00  0.00000000000E+00  0.43597494395E+03  0.16458854049E+04  0.15870931335E+04 0.  0.
        3    1    3    3  502    0 -0.13289060377E+03  0.25815566201E+02  0.10288668792E+04  0.10377347549E+04  0.10100000352E+00 0.  1.
       -3    1    3    3    0  502  0.13289060377E+03 -0.25815566201E+02 -0.59289193529E+03  0.60815065006E+03  0.10100000352E+00 0. -1.
</event>
<event>
 5   0  0.1960961E-05  0.2394131E+04  0.7818609E-02  0.8441704E-01
       -2   -1    0    0    0  501  0.00000000000E+00  0.00000000000E+00  0.55425786169E+03  0.55425786170E+03  0.25500000920E-02 0.  1.
        2   -1    0    0  501    0  0.00000000000E+00  0.00000000000E+00 -0.25853774556E+04  0.25853774556E+04  0.25500000920E-02 0. -1.
    10030    2    1    2    0    0  0.00000000000E+00  0.00000000000E+00 -0.20311195939E+04  0.31396353173E+04  0.23941309740E+04 0.  0.
        5    1    3    3  502    0 -0.63578705065E+03 -0.77359165790E+03 -0.15535059082E+03  0.10133237997E+04  0.46999998093E+01 0.  1.
       -5    1    3    3    0  502  0.63578705065E+03  0.77359165790E+03 -0.18757690030E+04  0.21263115176E+04  0.46999998093E+01 0. -1.
</event>
<event>
 5   0  0.8055928E-06  0.2923410E+04  0.7818609E-02  0.8265946E-01
        1   -1    0    0  501    0  0.00000000000E+00  0.00000000000E+00  0.22184450174E+04  0.22184450175E+04  0.50400001928E-02 0.  1.
       -1   -1    0    0    0  501  0.00000000000E+00  0.00000000000E+00 -0.96309872596E+03  0.96309872598E+03  0.50400001928E-02 0. -1.
    10030    2    1    2    0    0  0.00000000000E+00  0.00000000000E+00  0.12553462915E+04  0.31815437434E+04  0.29234100430E+04 0.  0.
        2    1    3    3  502    0  0.65612211150E+03  0.11123300073E+04  0.13728259614E+04  0.18847878901E+04  0.25500000920E-02 0.  1.
       -2    1    3    3    0  502 -0.65612211150E+03 -0.11123300073E+04 -0.11747966995E+03  0.12967558533E+04  0.25500000920E-02 0. -1.
</event>
<event>
 5   0  0.1976233E-05  0.2917357E+04  0.7818609E-02  0.8267732E-01
        2   -1    0    0  501    0  0.00000000000E+00  0.00000000000E+00  0.18800195610E+04  0.18800195610E+04  0.25500000920E-02 0. -1.
       -2   -1    0    0    0  501  0.00000000000E+00  0.00000000000E+00 -0.11317667186E+04  0.11317667186E+04  0.25500000920E-02 0.  1.
    10030    2    1    2    0    0  0.00000000000E+00  0.00000000000E+00  0.74825284236E+03  0.30117862796E+04  0.29173574135E+04 0.  0.
        2    1    3    3  502    0  0.65921344244E+03 -0.90716608028E+03  0.13371829149E+04  0.17451563849E+04  0.25500000920E-02 0. -1.
       -2    1    3    3    0  502 -0.65921344244E+03  0.90716608028E+03 -0.58893007250E+03  0.12666298947E+04  0.25500000920E-02 0.  1.
</event>
<event>
 5   0  0.8055928E-06  0.2976868E+04  0.7818609E-02  0.8250367E-01
       -1   -1    0    0    0  501  0.00000000000E+00  0.00000000000E+00  0.12521757978E+04  0.12521757978E+04  0.50400001928E-02 0. -1.
        1   -1    0    0  501    0  0.00000000000E+00  0.00000000000E+00 -0.17692688130E+04  0.17692688130E+04  0.50400001928E-02 0.  1.
    10030    2    1    2    0    0  0.00000000000E+00  0.00000000000E+00 -0.51709301526E+03  0.30214446108E+04  0.29768678758E+04 0.  0.
        2    1    3    3  502    0  0.61541417007E+03  0.49953935257E+03 -0.15372375626E+04  0.17295587556E+04  0.25500000920E-02 0.  1.
       -2    1    3    3    0  502 -0.61541417007E+03 -0.49953935257E+03  0.10201445473E+04  0.12918858552E+04  0.25500000920E-02 0. -1.
</event>
<event>
 5   0  0.1960961E-05  0.3284524E+04  0.7818609E-02  0.8166845E-01
       -2   -1    0    0    0  501  0.00000000000E+00  0.00000000000E+00  0.94805817739E+03  0.94805817739E+03  0.25500000920E-02 0. -1.
        2   -1    0    0  501    0  0.00000000000E+00  0.00000000000E+00 -0.28447874104E+04  0.28447874104E+04  0.25500000920E-02 0.  1.
    10030    2    1    2    0    0  0.00000000000E+00  0.00000000000E+00 -0.18967292330E+04  0.37928455878E+04  0.32845236899E+04 0.  0.
        5    1    3    3  502    0  0.51434976904E+03 -0.63340823151E+03 -0.25941507759E+04  0.27194488432E+04  0.46999998093E+01 0.  1.
       -5    1    3    3    0  502 -0.51434976904E+03  0.63340823151E+03  0.69742154294E+03  0.10733967445E+04  0.46999998093E+01 0. -1.
</event>
<event>
 5   0  0.8122088E-06  0.2666380E+04  0.7818609E-02  0.8345997E-01
        1   -1    0    0  501    0  0.00000000000E+00  0.00000000000E+00  0.10340217049E+04  0.10340217049E+04  0.50400001928E-02 0. -1.
       -1   -1    0    0    0  501  0.00000000000E+00  0.00000000000E+00 -0.17189145476E+04  0.17189145476E+04  0.50400001928E-02 0.  1.
    10030    2    1    2    0    0  0.00000000000E+00  0.00000000000E+00 -0.68489284276E+03  0.27529362525E+04  0.26663795312E+04 0.  0.
        1    1    3    3  502    0  0.13223682570E+04  0.15439889978E+03 -0.27018790246E+03  0.13584911962E+04  0.50400001928E-02 0.  1.
       -1    1    3    3    0  502 -0.13223682570E+04 -0.15439889978E+03 -0.41470494030E+03  0.13944450563E+04  0.50400001928E-02 0. -1.
</event>
<event>
 5   0  0.8055928E-06  0.2914280E+04  0.7818609E-02  0.8268641E-01
       -1   -1    0    0    0  501  0.00000000000E+00  0.00000000000E+00  0.10748213671E+04  0.10748213671E+04  0.50400001928E-02 0. -1.
        1   -1    0    0  501    0  0.00000000000E+00  0.00000000000E+00 -0.19754511844E+04  0.19754511844E+04  0.50400001928E-02 0.  1.
    10030    2    1    2    0    0  0.00000000000E+00  0.00000000000E+00 -0.90062981730E+03  0.30502725515E+04  0.29142801119E+04 0.  0.
        2    1    3    3  502    0 -0.11374769949E+04  0.41100651486E+03  0.40030621193E+03  0.12739801146E+04  0.25500000920E-02 0. -1.
       -2    1    3    3    0  502  0.11374769949E+04 -0.41100651486E+03 -0.13009360292E+04  0.17762924369E+04  0.25500000920E-02 0.  1.
</event>
<event>
 5   0  0.8122088E-06  0.2781077E+04  0.7818609E-02  0.8309167E-01
        1   -1    0    0  501    0  0.00000000000E+00  0.00000000000E+00  0.15706517450E+04  0.15706517450E+04  0.50400001928E-02 0. -1.
       -1   -1    0    0    0  501  0.00000000000E+00  0.00000000000E+00 -0.12310793582E+04  0.12310793582E+04  0.50400001928E-02 0.  1.
    10030    2    1    2    0    0  0.00000000000E+00  0.00000000000E+00  0.33957238677E+03  0.28017311032E+04  0.27810767283E+04 0.  0.
        1    1    3    3  502    0 -0.26854412407E+02 -0.66419613296E+03  0.14002165346E+04  0.15499948407E+04  0.50400001928E-02 0. -1.
       -1    1    3    3    0  502  0.26854412407E+02  0.66419613296E+03 -0.10606441478E+04  0.12517362625E+04  0.50400001928E-02 0.  1.
</event>
<event>
 5   0  0.1960961E-05  0.2932289E+04  0.7818609E-02  0.8263335E-01
       -2   -1    0    0    0  501  0.00000000000E+00  0.00000000000E+00  0.99165815763E+03  0.99165815763E+03  0.25500000920E-02 0.  1.
        2   -1    0    0  501    0  0.00000000000E+00  0.00000000000E+00 -0.21676620388E+04  0.21676620388E+04  0.25500000920E-02 0. -1.
    10030    2    1    2    0    0  0.00000000000E+00  0.00000000000E+00 -0.11760038812E+04  0.31593201965E+04  0.29322890334E+04 0.  0.
        5    1    3    3  502    0 -0.86293134437E+03  0.10312030478E+04  0.41648712553E+02  0.13452832178E+04  0.46999998093E+01 0. -1.
       -5    1    3    3    0  502  0.86293134437E+03 -0.10312030478E+04 -0.12176525937E+04  0.18140369786E+04  0.46999998093E+01 0.  1.
</event>
<event>
 5   0  0.7971153E-06  0.2891742E+04  0.7818609E-02  0.8275339E-01
        1   -1    0    0  501    0  0.00000000000E+00  0.00000000000E+00  0.88485100762E+03  0.88485100764E+03  0.50400001928E-02 0.  1.
       -1   -1    0    0    0  501  0.00000000000E+00  0.00000000000E+00 -0.23625937885E+04  0.23625937885E+04  0.50400001928E-02 0. -1.
    10030    2    1    2    0    0  0.00000000000E+00  0.00000000000E+00 -0.14777427809E+04  0.32474447962E+04  0.28917423775E+04 0.  0.
        5    1    3    3  502    0 -0.62671428100E+03 -0.13007608158E+04 -0.65355310473E+03  0.15848984954E+04  0.46999998093E+01 0.  1.
       -5    1    3    3    0  502  0.62671428100E+03  0.13007608158E+04 -0.82418967619E+03  0.16625463008E+04  0.46999998093E+01 0. -1.
</event>
<event>
 5   0  0.8234888E-06  0.2367114E+04  0.7818609E-02  0.8451919E-01
        1   -1    0    0  501    0  0.00000000000E+00  0.00000000000E+00  0.20264199350E+04  0.20264199350E+04  0.50400001928E-02 0.  1.
       -1   -1    0    0    0  501  0.00000000000E+00  0.00000000000E+00 -0.69127163371E+03  0.69127163372E+03  0.50400001928E-02 0. -1.
    10030    2    1    2    0    0  0.00000000000E+00  0.00000000000E+00  0.13351483013E+04  0.27176915688E+04  0.23671135326E+04 0.  0.
        3    1    3    3  502    0 -0.12345684395E+03  0.85080634415E+03 -0.26634555631E+03  0.90002944014E+03  0.10100000352E+00 0. -1.
       -3    1    3    3    0  502  0.12345684395E+03 -0.85080634415E+03  0.16014938576E+04  0.18176621286E+04  0.10100000352E+00 0.  1.
</event>
<event>
 5   0  0.1918901E-05  0.2821739E+04  0.7818609E-02  0.8296551E-01
       -2   -1    0    0    0  501  0.00000000000E+00  0.00000000000E+00  0.10734036688E+04  0.10734036688E+04  0.25500000920E-02 0. -1.
        2   -1    0    0  501    0  0.00000000000E+00  0.00000000000E+00 -0.18544302408E+04  0.18544302408E+04  0.25500000920E-02 0.  1.
    10030    2    1    2    0    0  0.00000000000E+00  0.00000000000E+00 -0.78102657199E+03  0.29278339096E+04  0.28217386300E+04 0.  0.
        1    1    3    3  502    0  0.98666128980E+03 -0.10075074536E+04 -0.34433773854E+03  0.14515992036E+04  0.50400001928E-02 0.  1.
       -1    1    3    3    0  502 -0.98666128980E+03  0.10075074536E+04 -0.43668883345E+03  0.14762347060E+04  0.50400001928E-02 0. -1.
</event>
<event>
 5   0  0.8234888E-06  0.2808850E+04  0.7818609E-02  0.8300526E-01
       -1   -1    0    0    0  501  0.00000000000E+00  0.00000000000E+00  0.21630751452E+04  0.21630751452E+04  0.50400001928E-02 0.  1.
        1   -1    0    0  501    0  0.00000000000E+00  0.00000000000E+00 -0.91185413307E+03  0.91185413309E+03  0.50400001928E-02 0. -1.
    10030    2    1    2    0    0  0.00000000000E+00  0.00000000000E+00  0.12512210121E+04  0.30749292783E+04  0.28088495946E+04 0.  0.
        3    1    3    3  502    0 -0.12334987851E+04 -0.66909529900E+03  0.68754962414E+03  0.15626683167E+04  0.10100000352E+00 0. -1.
       -3    1    3    3    0  502  0.12334987851E+04  0.66909529900E+03  0.56367138796E+03  0.15122609616E+04  0.10100000352E+00 0.  1.
</event>
<event>
 5   0  0.1937947E-05  0.2758524E+04  0.7818609E-02  0.8316262E-01
       -2   -1    0    0    0  501  0.00000000000E+00  0.00000000000E+00  0.12836941341E+04  0.12836941341E+04  0.25500000920E-02 0.  1.
        2   -1    0    0  501    0  0.00000000000E+00  0.00000000000E+00 -0.14819444153E+04  0.14819444153E+04  0.25500000920E-02 0. -1.
    10030    2    1    2    0    0  0.00000000000E+00  0.00000000000E+00 -0.19825028111E+03  0.27656385494E+04  0.27585237740E+04 0.  0.
        3    1    3    3  502    0 -0.12033866862E+04  0.27308022557E+03  0.51862232532E+03  0.13385370568E+04  0.10100000352E+00 0.  1.
       -3    1    3    3    0  502  0.12033866862E+04 -0.27308022557E+03 -0.71687260643E+03  0.14271014926E+04  0.10100000352E+00 0. -1.
</event>
<event>
 5   0  0.8122088E-06  0.3010980E+04  0.7818609E-02  0.8240602E-01
       -1   -1    0    0    0  501  0.00000000000E+00  0.00000000000E+00  0.12591220422E+04  0.12591220422E+04  0.50400001928E-02 0.  1.
        1   -1    0    0  501    0  0.00000000000E+00  0.00000000000E+00 -0.18000643719E+04  0.18000643719E+04  0.50400001928E-02 0. -1.
    10030    2    1    2    0    0  0.00000000000E+00  0.00000000000E+00 -0.54094232972E+03  0.30591864141E+04  0.30109803906E+04 0.  0.
        1    1    3    3  502    0  0.50789099442E+03  0.14069323933E+04 -0.97186464577E+02  0.14989520441E+04  0.50400001928E-02 0. -1.
       -1    1    3    3    0  502 -0.50789099442E+03 -0.14069323933E+04 -0.44375586514E+03  0.15602343700E+04  0.50400001928E-02 0.  1.
</event>
<event>
 5   0  0.8122088E-06  0.2215229E+04  0.7818609E-02  0.8512116E-01
        1   -1    0    0  501    0  0.00000000000E+00  0.00000000000E+00  0.10836226046E+04  0.10836226046E+04  0.50400001928E-02 0.  1.
       -1   -1    0    0    0  501  0.00000000000E+00  0.00000000000E+00 -0.11321372569E+04  0.11321372569E+04  0.50400001928E-02 0. -1.
    10030    2    1    2    0    0  0.00000000000E+00  0.00000000000E+00 -0.48514652269E+02  0.22157598616E+04  0.22152286773E+04 0.  0.
        1    1    3    3  502    0  0.38906306744E+03  0.83323034133E+03  0.59327766957E+03  0.10943588376E+04  0.50400001928E-02 0.  1.
       -1    1    3    3    0  502 -0.38906306744E+03 -0.83323034133E+03 -0.64179232184E+03  0.11214010240E+04  0.50400001928E-02 0. -1.
</event>
<event>
 5   0  0.1918901E-05  0.2911363E+04  0.7818609E-02  0.8269505E-01
        2   -1    0    0  501    0  0.00000000000E+00  0.00000000000E+00  0.12103172046E+04  0.12103172046E+04  0.25500000920E-02 0.  1.
       -2   -1    0    0    0  501  0.00000000000E+00  0.00000000000E+00 -0.17507875506E+04  0.17507875506E+04  0.25500000920E-02 0. -1.
    10030    2    1    2    0    0  0.00000000000E+00  0.00000000000E+00 -0.54047034604E+03  0.29611047552E+04  0.29113627696E+04 0.  0.
        1    1    3    3  502    0 -0.84393465098E+03 -0.38462042148E+03  0.87091918556E+03  0.12722652206E+04  0.50400001928E-02 0.  1.
       -1    1    3    3    0  502  0.84393465098E+03  0.38462042148E+03 -0.14113895316E+04  0.16888395346E+04  0.50400001928E-02 0. -1.
</event>
<event>
 5   0  0.8122088E-06  0.2896723E+04  0.7818609E-02  0.8273853E-01
        1   -1    0    0  501    0  0.00000000000E+00  0.00000000000E+00  0.93053905762E+03  0.93053905763E+03  0.50400001928E-02 0. -1.
       -1   -1    0    0    0  501  0.00000000000E+00  0.00000000000E+00 -0.22543395747E+04  0.22543395747E+04  0.50400001928E-02 0.  1.
    10030    2    1    2    0    0  0.00000000000E+00  0.00000000000E+00 -0.13238005171E+04  0.31848786323E+04  0.28967229922E+04 0.  0.
        1    1    3    3  502    0  0.10645734753E+04 -0.50430329319E+03 -0.15884089715E+04  0.19775443248E+04  0.50400001928E-02 0.  1.
       -1    1    3    3    0  502 -0.10645734753E+04  0.50430329319E+03  0.26460845441E+03  0.12073343075E+04  0.50400001928E-02 0. -1.
</event>
<event>
 5   0  0.8122088E-06  0.2918625E+04  0.7818609E-02  0.8267357E-01
       -1   -1    0    0    0  501  0.00000000000E+00  0.00000000000E+00  0.18087922864E+04  0.18087922864E+04  0.50400001928E-02 0. -1.
        1   -1    0    0  501    0  0.00000000000E+00  0.00000000000E+00 -0.11773564975E+04  0.11773564975E+04  0.50400001928E-02 0.  1.
    10030    2    1    2    0    0  0.00000000000E+00  0.00000000000E+00  0.63143578889E+03  0.29861487839E+04  0.29186252592E+04 0.  0.
        1    1    3    3  502    0  0.33105420051E+03 -0.13691630365E+04  0.70583855457E+03  0.15755673166E+04  0.50400001928E-02 0.  1.
       -1    1    3    3    0  502 -0.33105420051E+03  0.13691630365E+04 -0.74402765677E+02  0.14105814672E+04  0.50400001928E-02 0. -1.
</event>
<event>
 5   0  0.1937947E-05  0.2654170E+04  0.7818609E-02  0.8350030E-01
        2   -1    0    0  501    0  0.00000000000E+00  0.00000000000E+00  0.10908833391E+04  0.10908833391E+04  0.25500000920E-02 0.  1.
       -2   -1    0    0    0  501  0.00000000000E+00  0.00000000000E+00 -0.16144302507E+04  0.16144302507E+04  0.25500000920E-02 0. -1.
    10030    2    1    2    0    0  0.00000000000E+00  0.00000000000E+00 -0.52354691159E+03  0.27053135899E+04  0.26541703508E+04 0.  0.
        3    1    3    3  502    0 -0.12913697705E+04  0.46352079851E+02 -0.56987380101E+03  0.14122820394E+04  0.10100000352E+00 0. -1.
       -3    1    3    3    0  502  0.12913697705E+04 -0.46352079851E+02  0.46326889418E+02  0.12930315505E+04  0.10100000352E+00 0.  1.
</event>
<event>
 5   0  0.1960961E-05  0.2907925E+04  0.7818609E-02  0.8270524E-01
       -2   -1    0    0    0  501  0.00000000000E+00  0.00000000000E+00  0.10132681554E+04  0.10132681554E+04  0.25500000920E-02 0. -1.
        2   -1    0    0  501    0  0.00000000000E+00  0.00000000000E+00 -0.20863249896E+04  0.20863249896E+04  0.25500000920E-02 0.  1.
    10030    2    1    2    0    0  0.00000000000E+00  0.00000000000E+00 -0.10730568342E+04  0.30995931451E+04  0.29079248091E+04 0.  0.
        5    1    3    3  502    0 -0.29830668957E+03  0.26617695406E+03  0.95351935795E+03  0.10339527590E+04  0.46999998093E+01 0. -1.
       -5    1    3    3    0  502  0.29830668957E+03 -0.26617695406E+03 -0.20265761921E+04  0.20656403860E+04  0.46999998093E+01 0.  1.
</event>
<event>
 5   0  0.1976233E-05  0.2964238E+04  0.7818609E-02  0.8254017E-01
       -2   -1    0    0    0  501  0.00000000000E+00  0.00000000000E+00  0.10379518688E+04  0.10379518689E+04  0.25500000920E-02 0. -1.
        2   -1    0    0  501    0  0.00000000000E+00  0.00000000000E+00 -0.21163574439E+04  0.21163574439E+04  0.25500000920E-02 0.  1.
    10030    2    1    2    0    0  0.00000000000E+00  0.00000000000E+00 -0.10784055751E+04  0.31543093128E+04  0.29642382928E+04 0.  0.
        2    1    3    3  502    0 -0.98944471520E+02 -0.14381711351E+04 -0.17281273902E+03  0.14518920294E+04  0.25500000920E-02 0.  1.
       -2    1    3    3    0  502  0.98944471520E+02  0.14381711351E+04 -0.90559283608E+03  0.17024172834E+04  0.25500000920E-02 0. -1.
</event>
<event>
 5   0  0.1976233E-05  0.2732501E+04  0.7818609E-02  0.8324536E-01
        2   -1    0    0  501    0  0.00000000000E+00  0.00000000000E+00  0.21904902165E+04  0.21904902165E+04  0.25500000920E-02 0.  1.
       -2   -1    0    0    0  501  0.00000000000E+00  0.00000000000E+00 -0.85215652205E+03  0.85215652206E+03  0.25500000920E-02 0. -1.
    10030    2    1    2    0    0  0.00000000000E+00  0.00000000000E+00  0.13383336945E+04  0.30426467386E+04  0.27325010701E+04 0.  0.
        2    1    3    3  502    0  0.96019707407E+03 -0.63772463559E+03  0.14858808003E+04  0.18805618534E+04  0.25500000920E-02 0.  1.
       -2    1    3    3    0  502 -0.96019707407E+03  0.63772463559E+03 -0.14754710581E+03  0.11620848852E+04  0.25500000920E-02 0. -1.
</event>
<event>
 5   0  0.1937947E-05  0.3052794E+04  0.7818609E-02  0.8228814E-01
       -2   -1    0    0    0  501  0.00000000000E+00  0.00000000000E+00  0.10293509715E+04  0.10293509715E+04  0.25500000920E-02 0. -1.
        2   -1    0    0  501    0  0.00000000000E+00  0.00000000000E+00 -0.22634531360E+04  0.22634531360E+04  0.25500000920E-02 0.  1.
    10030    2    1    2    0    0  0.00000000000E+00  0.00000000000E+00 -0.12341021646E+04  0.32928041075E+04  0.30527939232E+04 0.  0.
        3    1    3    3  502    0 -0.54987982495E+03 -0.85259444860E+03 -0.18471519031E+04  0.21074285941E+04  0.10100000352E+00 0.  1.
       -3    1    3    3    0  502  0.54987982495E+03  0.85259444860E+03  0.61304973855E+03  0.11853755134E+04  0.10100000352E+00 0. -1.
</event>
<event>
 5   0  0.8055928E-06  0.2920032E+04  0.7818609E-02  0.8266942E-01
       -1   -1    0    0    0  501  0.00000000000E+00  0.00000000000E+00  0.67741277315E+03  0.67741277317E+03  0.50400001928E-02 0.  1.
        1   -1    0    0  501    0  0.00000000000E+00  0.00000000000E+00 -0.31467468004E+04  0.31467468004E+04  0.50400001928E-02 0. -1.
    10030    2    1    2    0    0  0.00000000000E+00  0.00000000000E+00 -0.24693340273E+04  0.38241595736E+04  0.29200318331E+04 0.  0.
        2    1    3    3  502    0  0.60007955322E+03 -0.20352708603E+03  0.48794512732E+03  0.79975570784E+03  0.25500000920E-02 0.  1.
       -2    1    3    3    0  502 -0.60007955322E+03  0.20352708603E+03 -0.29572791546E+04  0.30244038657E+04  0.25500000920E-02 0. -1.
</event>
<event>
 5   0  0.1918901E-05  0.2915343E+04  0.7818609E-02  0.8268327E-01
        2   -1    0    0  501    0  0.00000000000E+00  0.00000000000E+00  0.25210458909E+04  0.25210458909E+04  0.25500000920E-02 0. -1.
       -2   -1    0    0    0  501  0.00000000000E+00  0.00000000000E+00 -0.84282711258E+03  0.84282711258E+03  0.25500000920E-02 0.  1.
    10030    2    1    2    0    0  0.00000000000E+00  0.00000000000E+00  0.16782187783E+04  0.33638730034E+04  0.29153427441E+04 0.  0.
        1    1    3    3  502    0  0.90038022298E+03  0.65291692827E+03  0.19263173434E+04  0.22243389060E+04  0.50400001928E-02 0.  1.
       -1    1    3    3    0  502 -0.90038022298E+03 -0.65291692827E+03 -0.24809856515E+03  0.11395340974E+04  0.50400001928E-02 0. -1.
</event>
<event>
 5   0  0.8234888E-06  0.2933313E+04  0.7818609E-02  0.8263034E-01
        1   -1    0    0  501    0  0.00000000000E+00  0.00000000000E+00  0.15194928769E+04  0.15194928769E+04  0.50400001928E-02 0. -1.
       -1   -1    0    0    0  501  0.00000000000E+00  0.00000000000E+00 -0.14156571682E+04  0.14156571682E+04  0.50400001928E-02 0.  1.
    10030    2    1    2    0    0  0.00000000000E+00  0.00000000000E+00  0.10383570875E+03  0.29351500451E+04  0.29333127915E+04 0.  0.
        3    1    3    3  502    0  0.13241929732E+04 -0.35130543506E+03  0.57586632498E+03  0.14861105522E+04  0.10100000352E+00 0. -1.
       -3    1    3    3    0  502 -0.13241929732E+04  0.35130543506E+03 -0.47203061623E+03  0.14490394929E+04  0.10100000352E+00 0.  1.
</event>
<event>
 5   0  0.8234888E-06  0.1452075E+04  0.7818609E-02  0.8916963E-01
        1   -1    0    0  501    0  0.00000000000E+00  0.00000000000E+00  0.53349214997E+03  0.53349214999E+03  0.50400001928E-02 0. -1.
       -1   -1    0    0    0  501  0.00000000000E+00  0.00000000000E+00 -0.98807527775E+03  0.98807527776E+03  0.50400001928E-02 0.  1.
    10030    2    1    2    0    0  0.00000000000E+00  0.00000000000E+00 -0.45458312778E+03  0.15215674278E+04  0.14520749351E+04 0.  0.
        3    1    3    3  502    0  0.19091300846E+03  0.65609453038E+03 -0.48443880463E+03  0.83760896320E+03  0.10100000352E+00 0.  1.
       -3    1    3    3    0  502 -0.19091300846E+03 -0.65609453038E+03  0.29855676850E+02  0.68395846456E+03  0.10100000352E+00 0. -1.
</event>
<event>
 5   0  0.7305460E-06  0.2146661E+04  0.7818609E-02  0.8540963E-01
        1   -1    0    0  501    0  0.00000000000E+00  0.00000000000E+00  0.81090859841E+03  0.81090859842E+03  0.50400001928E-02 0.  1.
       -1   -1    0    0    0  501  0.00000000000E+00  0.00000000000E+00 -0.14206763884E+04  0.14206763884E+04  0.50400001928E-02 0. -1.
    10030    2    1    2    0    0  0.00000000000E+00  0.00000000000E+00 -0.60976778998E+03  0.22315849868E+04  0.21466613137E+04 0.  0.
        4    1    3    3  502    0  0.66117379384E+03 -0.54035591371E+02 -0.11820456087E+04  0.13554718974E+04  0.12699999809E+01 0. -1.
       -4    1    3    3    0  502 -0.66117379384E+03  0.54035591371E+02  0.57227781868E+03  0.87611308942E+03  0.12699999809E+01 0.  1.
</event>
<event>
 5   0  0.1829810E-05  0.2913689E+04  0.7818609E-02  0.8268816E-01
        2   -1    0    0  501    0  0.00000000000E+00  0.00000000000E+00  0.16351945968E+04  0.16351945968E+04  0.25500000920E-02 0.  1.
       -2   -1    0    0    0  501  0.00000000000E+00  0.00000000000E+00 -0.12979466525E+04  0.12979466525E+04  0.25500000920E-02 0. -1.
    10030    2    1    2    0    0  0.00000000000E+00  0.00000000000E+00  0.33724794439E+03  0.29331412493E+04  0.29136886265E+04 0.  0.
        4    1    3    3  502    0 -0.68449086806E+03 -0.22332105421E+03 -0.11063201987E+04  0.13199795592E+04  0.12699999809E+01 0. -1.
       -4    1    3    3    0  502  0.68449086806E+03  0.22332105421E+03  0.14435681431E+04  0.16131616901E+04  0.12699999809E+01 0.  1.
</event>
<event>
 5   0  0.8234888E-06  0.2895660E+04  0.7818609E-02  0.8274170E-01
        1   -1    0    0  501    0  0.00000000000E+00  0.00000000000E+00  0.11110840935E+04  0.11110840935E+04  0.50400001928E-02 0. -1.
       -1   -1    0    0    0  501  0.00000000000E+00  0.00000000000E+00 -0.18866358169E+04  0.18866358169E+04  0.50400001928E-02 0.  1.
    10030    2    1    2    0    0  0.00000000000E+00  0.00000000000E+00 -0.77555172340E+03  0.29977199105E+04  0.28956595425E+04 0.  0.
        3    1    3    3  502    0 -0.81915839422E+03 -0.21311124607E+03  0.82826328946E+03  0.11842537587E+04  0.10100000352E+00 0. -1.
       -3    1    3    3    0  502  0.81915839422E+03  0.21311124607E+03 -0.16038150129E+04  0.18134661518E+04  0.10100000352E+00 0.  1.
</event>
<event>
 5   0  0.1960961E-05  0.2918354E+04  0.7818609E-02  0.8267437E-01
        2   -1    0    0  501    0  0.00000000000E+00  0.00000000000E+00  0.19798054815E+04  0.19798054815E+04  0.25500000920E-02 0.  1.
       -2   -1    0    0    0  501  0.00000000000E+00  0.00000000000E+00 -0.10754582939E+04  0.10754582939E+04  0.25500000920E-02 0. -1.
    10030    2    1    2    0    0  0.00000000000E+00  0.00000000000E+00  0.90434718763E+03  0.30552637754E+04  0.29183544853E+04 0.  0.
        5    1    3    3  502    0  0.14324039888E+04 -0.25118886970E+03  0.57736226238E+03  0.15646872874E+04  0.46999998093E+01 0. -1.
       -5    1    3    3    0  502 -0.14324039888E+04  0.25118886970E+03  0.32698492526E+03  0.14905764880E+04  0.46999998093E+01 0.  1.
</event>
<event>
 5   0  0.8234888E-06  0.1428304E+04  0.7818609E-02  0.8933582E-01
        1   -1    0    0  501    0  0.00000000000E+00  0.00000000000E+00  0.15210378226E+04  0.15210378226E+04  0.50400001928E-02 0.  1.
       -1   -1    0    0    0  501  0.00000000000E+00  0.00000000000E+00 -0.33530598836E+03  0.33530598840E+03  0.50400001928E-02 0. -1.
    10030    2    1    2    0    0  0.00000000000E+00  0.00000000000E+00  0.11857318343E+04  0.18563438110E+04  0.14283040160E+04 0.  0.
        3    1    3    3  502    0 -0.46026165342E+03 -0.29924640438E+03 -0.76944906224E+00  0.54898980172E+03  0.10100000352E+00 0. -1.
       -3    1    3    3    0  502  0.46026165342E+03  0.29924640438E+03  0.11865012833E+04  0.13073540093E+04  0.10100000352E+00 0.  1.
</event>
<event>
 5   0  0.1918901E-05  0.2844297E+04  0.7818609E-02  0.8289646E-01
        2   -1    0    0  501    0  0.00000000000E+00  0.00000000000E+00  0.27892842521E+04  0.27892842521E+04  0.25500000920E-02 0.  1.
       -2   -1    0    0    0  501  0.00000000000E+00  0.00000000000E+00 -0.72509873340E+03  0.72509873340E+03  0.25500000920E-02 0. -1.
    10030    2    1    2    0    0  0.00000000000E+00  0.00000000000E+00  0.20641855187E+04  0.35143829855E+04  0.28442970859E+04 0.  0.
        1    1    3    3  502    0 -0.10991674905E+04  0.88159754503E+03  0.12701580609E+04  0.18970200061E+04  0.50400001928E-02 0.  1.
       -1    1    3    3    0  502  0.10991674905E+04 -0.88159754503E+03  0.79402745774E+03  0.16173629794E+04  0.50400001928E-02 0. -1.
</event>
<event>
 5   0  0.8234888E-06  0.2942483E+04  0.7818609E-02  0.8260349E-01
       -1   -1    0    0    0  501  0.00000000000E+00  0.00000000000E+00  0.12520088062E+04  0.12520088062E+04  0.50400001928E-02 0.  1.
        1   -1    0    0  501    0  0.00000000000E+00  0.00000000000E+00 -0.17288625646E+04  0.17288625646E+04  0.50400001928E-02 0. -1.
    10030    2    1    2    0    0  0.00000000000E+00  0.00000000000E+00 -0.47685375841E+03  0.29808713709E+04  0.29424827311E+04 0.  0.
        3    1    3    3  502    0 -0.10095079093E+04 -0.79320813401E+03  0.48946350821E+03  0.13739941407E+04  0.10100000352E+00 0.  1.
       -3    1    3    3    0  502  0.10095079093E+04  0.79320813401E+03 -0.96631726662E+03  0.16068772301E+04  0.10100000352E+00 0. -1.
</event>
<event>
 5   0  0.1960961E-05  0.3016011E+04  0.7818609E-02  0.8239173E-01
       -2   -1    0    0    0  501  0.00000000000E+00  0.00000000000E+00  0.13186004929E+04  0.13186004929E+04  0.25500000920E-02 0.  1.
        2   -1    0    0  501    0  0.00000000000E+00  0.00000000000E+00 -0.17246173351E+04  0.17246173351E+04  0.25500000920E-02 0. -1.
    10030    2    1    2    0    0  0.00000000000E+00  0.00000000000E+00 -0.40601684224E+03  0.30432178280E+04  0.30160114510E+04 0.  0.
        5    1    3    3  502    0  0.14201020665E+04  0.16006142644E+03  0.28273797404E+03  0.14568021113E+04  0.46999998093E+01 0.  1.
       -5    1    3    3    0  502 -0.14201020665E+04 -0.16006142644E+03 -0.68875481629E+03  0.15864157168E+04  0.46999998093E+01 0. -1.
</event>
<event>
 5   0  0.1937947E-05  0.2917757E+04  0.7818609E-02  0.8267614E-01
       -2   -1    0    0    0  501  0.00000000000E+00  0.00000000000E+00  0.11304113850E+04  0.11304113850E+04  0.25500000920E-02 0. -1.
        2   -1    0    0  501    0  0.00000000000E+00  0.00000000000E+00 -0.18827895924E+04  0.18827895924E+04  0.25500000920E-02 0.  1.
    10030    2    1    2    0    0  0.00000000000E+00  0.00000000000E+00 -0.75237820737E+03  0.30132009773E+04  0.29177572145E+04 0.  0.
        3    1    3    3  502    0 -0.12273382348E+04  0.19156973498E+03  0.41386455385E+03  0.13093288300E+04  0.10100000352E+00 0.  1.
       -3    1    3    3    0  502  0.12273382348E+04 -0.19156973498E+03 -0.11662427612E+04  0.17038721473E+04  0.10100000352E+00 0. -1.
</event>
<event>
 5   0  0.1937947E-05  0.2953447E+04  0.7818609E-02  0.8257151E-01
        2   -1    0    0  501    0  0.00000000000E+00  0.00000000000E+00  0.23730816510E+04  0.23730816510E+04  0.25500000920E-02 0.  1.
       -2   -1    0    0    0  501  0.00000000000E+00  0.00000000000E+00 -0.91893709008E+03  0.91893709008E+03  0.25500000920E-02 0. -1.
    10030    2    1    2    0    0  0.00000000000E+00  0.00000000000E+00  0.14541445609E+04  0.32920187411E+04  0.29534473057E+04 0.  0.
        3    1    3    3  502    0 -0.10505252944E+03 -0.14518713557E+04  0.10040459173E+04  0.17683536642E+04  0.10100000352E+00 0.  1.
       -3    1    3    3    0  502  0.10505252944E+03  0.14518713557E+04  0.45009864358E+03  0.15236650769E+04  0.10100000352E+00 0. -1.
</event>
<event>
 5   0  0.8122088E-06  0.2834799E+04  0.7818609E-02  0.8292545E-01
        1   -1    0    0  501    0  0.00000000000E+00  0.00000000000E+00  0.14911752402E+04  0.14911752402E+04  0.50400001928E-02 0. -1.
       -1   -1    0    0    0  501  0.00000000000E+00  0.00000000000E+00 -0.13472736743E+04  0.13472736743E+04  0.50400001928E-02 0.  1.
    10030    2    1    2    0    0  0.00000000000E+00  0.00000000000E+00  0.14390156588E+03  0.28384489145E+04  0.28347988605E+04 0.  0.
        1    1    3    3  502    0 -0.11265143290E+03 -0.58361079697E+03  0.13603590170E+04  0.14845432169E+04  0.50400001928E-02 0. -1.
       -1    1    3    3    0  502  0.11265143290E+03  0.58361079697E+03 -0.12164574511E+04  0.13539056976E+04  0.50400001928E-02 0.  1.
</event>
<event>
 5   0  0.7305460E-06  0.2837927E+04  0.7818609E-02  0.8291589E-01
        1   -1    0    0  501    0  0.00000000000E+00  0.00000000000E+00  0.16871653388E+04  0.16871653388E+04  0.50400001928E-02 0. -1.
       -1   -1    0    0    0  501  0.00000000000E+00  0.00000000000E+00 -0.11933964409E+04  0.11933964409E+04  0.50400001928E-02 0.  1.
    10030    2    1    2    0    0  0.00000000000E+00  0.00000000000E+00  0.49376889788E+03  0.28805617796E+04  0.28379267859E+04 0.  0.
        4    1    3    3  502    0 -0.97156075495E+03 -0.81074390800E+03  0.89857328256E+03  0.15519895431E+04  0.12699999809E+01 0. -1.
       -4    1    3    3    0  502  0.97156075495E+03  0.81074390800E+03 -0.40480438468E+03  0.13285722365E+04  0.12699999809E+01 0.  1.
</event>
<event>
 5   0  0.8122088E-06  0.2961547E+04  0.7818609E-02  0.8254797E-01
        1   -1    0    0  501    0  0.00000000000E+00  0.00000000000E+00  0.13414479193E+04  0.13414479193E+04  0.50400001928E-02 0.  1.
       -1   -1    0    0    0  501  0.00000000000E+00  0.00000000000E+00 -0.16345698096E+04  0.16345698096E+04  0.50400001928E-02 0. -1.
    10030    2    1    2    0    0  0.00000000000E+00  0.00000000000E+00 -0.29312189028E+03  0.29760177289E+04  0.29615470755E+04 0.  0.
        1    1    3    3  502    0  0.34488915863E+03 -0.32910090449E+03 -0.15553505642E+04  0.16267671360E+04  0.50400001928E-02 0. -1.
       -1    1    3    3    0  502 -0.34488915863E+03  0.32910090449E+03  0.12622286740E+04  0.13492505929E+04  0.50400001928E-02 0.  1.
</event>
<event>
 5   0  0.6578125E-06  0.2930589E+04  0.7818609E-02  0.8263834E-01
        3   -1    0    0  501    0  0.00000000000E+00  0.00000000000E+00  0.79999055167E+03  0.79999055805E+03  0.10100000352E+00 0. -1.
       -3   -1    0    0    0  501  0.00000000000E+00  0.00000000000E+00 -0.26838921010E+04  0.26838921029E+04  0.10100000352E+00 0.  1.
    10030    2    1    2    0    0  0.00000000000E+00  0.00000000000E+00 -0.18839015494E+04  0.34838826610E+04  0.29305892492E+04 0.  0.
        3    1    3    3  502    0  0.12026740595E+04 -0.15353508347E+03  0.36258776853E+02  0.12129767616E+04  0.10100000352E+00 0. -1.
       -3    1    3    3    0  502 -0.12026740595E+04  0.15353508347E+03 -0.19201603262E+04  0.22709058994E+04  0.10100000352E+00 0.  1.
</event>
<event>
 5   0  0.7971153E-06  0.2808272E+04  0.7818609E-02  0.8300705E-01
       -1   -1    0    0    0  501  0.00000000000E+00  0.00000000000E+00  0.10451694742E+04  0.10451694743E+04  0.50400001928E-02 0. -1.
        1   -1    0    0  501    0  0.00000000000E+00  0.00000000000E+00 -0.18863902462E+04  0.18863902462E+04  0.50400001928E-02 0.  1.
    10030    2    1    2    0    0  0.00000000000E+00  0.00000000000E+00 -0.84122077193E+03  0.29315597204E+04  0.28082717118E+04 0.  0.
        5    1    3    3  502    0 -0.98759720717E+03  0.52699830467E+03 -0.13054671871E+04  0.17196924502E+04  0.46999998093E+01 0.  1.
       -5    1    3    3    0  502  0.98759720717E+03 -0.52699830467E+03  0.46424641514E+03  0.12118672702E+04  0.46999998093E+01 0. -1.
</event>
<event>
 5   0  0.7305460E-06  0.2908575E+04  0.7818609E-02  0.8270331E-01
        1   -1    0    0  501    0  0.00000000000E+00  0.00000000000E+00  0.19650520039E+04  0.19650520039E+04  0.50400001928E-02 0.  1.
       -1   -1    0    0    0  501  0.00000000000E+00  0.00000000000E+00 -0.10762833688E+04  0.10762833688E+04  0.50400001928E-02 0. -1.
    10030    2    1    2    0    0  0.00000000000E+00  0.00000000000E+00  0.88876863506E+03  0.30413353728E+04  0.29085754525E+04 0.  0.
        4    1    3    3  502    0  0.17543065617E+03 -0.12875228874E+04  0.11272309457E+04  0.17202157767E+04  0.12699999809E+01 0.  1.
       -4    1    3    3    0  502 -0.17543065617E+03  0.12875228874E+04 -0.23846231063E+03  0.13211195961E+04  0.12699999809E+01 0. -1.
</event>
<event>
 5   0  0.8055928E-06  0.2858820E+04  0.7818609E-02  0.8285236E-01
        1   -1    0    0  501    0  0.00000000000E+00  0.00000000000E+00  0.13279772107E+04  0.13279772107E+04  0.50400001928E-02 0. -1.
       -1   -1    0    0    0  501  0.00000000000E+00  0.00000000000E+00 -0.15385908715E+04  0.15385908715E+04  0.50400001928E-02 0.  1.
    10030    2    1    2    0    0  0.00000000000E+00  0.00000000000E+00 -0.21061366077E+03  0.28665680822E+04  0.28588204659E+04 0.  0.
        2    1    3    3  502    0 -0.73512011486E+03  0.10708159775E+04  0.49310628537E+03  0.13893171883E+04  0.25500000920E-02 0.  1.
       -2    1    3    3    0  502  0.73512011486E+03 -0.10708159775E+04 -0.70371994614E+03  0.14772508939E+04  0.25500000920E-02 0. -1.
</event>
<event>
 5   0  0.1976233E-05  0.2194032E+04  0.7818609E-02  0.8520916E-01
        2   -1    0    0  501    0  0.00000000000E+00  0.00000000000E+00  0.71226495863E+03  0.71226495863E+03  0.25500000920E-02 0. -1.
       -2   -1    0    0    0  501  0.00000000000E+00  0.00000000000E+00 -0.16896013054E+04  0.16896013054E+04  0.25500000920E-02 0.  1.
    10030    2    1    2    0    0  0.00000000000E+00  0.00000000000E+00 -0.97733634678E+03  0.24018662640E+04  0.21940317262E+04 0.  0.
        2    1    3    3  502    0  0.28706328247E+02  0.24889618365E+03 -0.16578606511E+04  0.16766858090E+04  0.25500000920E-02 0.  1.
       -2    1    3    3    0  502 -0.28706328247E+02 -0.24889618365E+03  0.68052430437E+03  0.72518045503E+03  0.25500000920E-02 0. -1.
</event>
<event>
 5   0  0.7971153E-06  0.2883303E+04  0.7818609E-02  0.8277863E-01
       -1   -1    0    0    0  501  0.00000000000E+00  0.00000000000E+00  0.15978556336E+04  0.15978556336E+04  0.50400001928E-02 0.  1.
        1   -1    0    0  501    0  0.00000000000E+00  0.00000000000E+00 -0.13007178535E+04  0.13007178535E+04  0.50400001928E-02 0. -1.
    10030    2    1    2    0    0  0.00000000000E+00  0.00000000000E+00  0.29713778012E+03  0.28985734871E+04  0.28833032098E+04 0.  0.
        5    1    3    3  502    0  0.79240772383E+03  0.11603074544E+04  0.47294457769E+03  0.14825390562E+04  0.46999998093E+01 0. -1.
       -5    1    3    3    0  502 -0.79240772383E+03 -0.11603074544E+04 -0.17580679758E+03  0.14160344309E+04  0.46999998093E+01 0.  1.
</event>
<event>
 5   0  0.8234888E-06  0.2945849E+04  0.7818609E-02  0.8259365E-01
        1   -1    0    0  501    0  0.00000000000E+00  0.00000000000E+00  0.16781090454E+04  0.16781090454E+04  0.50400001928E-02 0. -1.
       -1   -1    0    0    0  501  0.00000000000E+00  0.00000000000E+00 -0.12928281548E+04  0.12928281548E+04  0.50400001928E-02 0.  1.
    10030    2    1    2    0    0  0.00000000000E+00  0.00000000000E+00  0.38528089056E+03  0.29709372002E+04  0.29458490258E+04 0.  0.
        3    1    3    3  502    0 -0.19746072675E+03 -0.10214618066E+04  0.12441762282E+04  0.16218352129E+04  0.10100000352E+00 0. -1.
       -3    1    3    3    0  502  0.19746072675E+03  0.10214618066E+04 -0.85889533765E+03  0.13491019873E+04  0.10100000352E+00 0.  1.
</event>
<event>
 5   0  0.1976233E-05  0.2881694E+04  0.7818609E-02  0.8278345E-01
        2   -1    0    0  501    0  0.00000000000E+00  0.00000000000E+00  0.13187598535E+04  0.13187598535E+04  0.25500000920E-02 0.  1.
       -2   -1    0    0    0  501  0.00000000000E+00  0.00000000000E+00 -0.15742370527E+04  0.15742370527E+04  0.25500000920E-02 0. -1.
    10030    2    1    2    0    0  0.00000000000E+00  0.00000000000E+00 -0.25547719917E+03  0.28929969061E+04  0.28816943800E+04 0.  0.
        2    1    3    3  502    0 -0.90697857240E+03 -0.82497173642E+03 -0.88757713497E+03  0.15135989123E+04  0.25500000920E-02 0. -1.
       -2    1    3    3    0  502  0.90697857240E+03  0.82497173642E+03  0.63209993580E+03  0.13793979939E+04  0.25500000920E-02 0.  1.
</event>
<event>
 5   0  0.8055928E-06  0.2275827E+04  0.7818609E-02  0.8487513E-01
        1   -1    0    0  501    0  0.00000000000E+00  0.00000000000E+00  0.13513438787E+04  0.13513438787E+04  0.50400001928E-02 0.  1.
       -1   -1    0    0    0  501  0.00000000000E+00  0.00000000000E+00 -0.95819248876E+03  0.95819248878E+03  0.50400001928E-02 0. -1.
    10030    2    1    2    0    0  0.00000000000E+00  0.00000000000E+00  0.39315138991E+03  0.23095363675E+04  0.22758273698E+04 0.  0.
        2    1    3    3  502    0  0.90715006184E+03  0.28567109075E+03  0.83058403736E+03  0.12626951532E+04  0.25500000920E-02 0.  1.
       -2    1    3    3    0  502 -0.90715006184E+03 -0.28567109075E+03 -0.43743264745E+03  0.10468412143E+04  0.25500000920E-02 0. -1.
</event>
<event>
 5   0  0.7971153E-06  0.2960622E+04  0.7818609E-02  0.8255066E-01
       -1   -1    0    0    0  501  0.00000000000E+00  0.00000000000E+00  0.12560881288E+04  0.12560881288E+04  0.50400001928E-02 0. -1.
        1   -1    0    0  501    0  0.00000000000E+00  0.00000000000E+00 -0.17445600098E+04  0.17445600098E+04  0.50400001928E-02 0.  1.
    10030    2    1    2    0    0  0.00000000000E+00  0.00000000000E+00 -0.48847188099E+03  0.30006481387E+04  0.29606223119E+04 0.  0.
        5    1    3    3  502    0 -0.10968549582E+04 -0.34736836635E+03 -0.11882483023E+04  0.16539986999E+04  0.46999998093E+01 0.  1.
       -5    1    3    3    0  502  0.10968549582E+04  0.34736836635E+03  0.69977642126E+03  0.13466494388E+04  0.46999998093E+01 0. -1.
</event>
<event>
 5   0  0.1918901E-05  0.1790173E+04  0.7818609E-02  0.8711543E-01
       -2   -1    0    0    0  501  0.00000000000E+00  0.00000000000E+00  0.13213141739E+04  0.13213141739E+04  0.25500000920E-02 0.  1.
        2   -1    0    0  501    0  0.00000000000E+00  0.00000000000E+00 -0.60635043147E+03  0.60635043148E+03  0.25500000920E-02 0. -1.
    10030    2    1    2    0    0  0.00000000000E+00  0.00000000000E+00  0.71496374243E+03  0.19276646054E+04  0.17901725274E+04 0.  0.
        1    1    3    3  502    0 -0.28126923926E+03 -0.72609942886E+03  0.83279855799E+03  0.11401255211E+04  0.50400001928E-02 0.  1.
       -1    1    3    3    0  502  0.28126923926E+03  0.72609942886E+03 -0.11783481556E+03  0.78753908432E+03  0.50400001928E-02 0. -1.
</event>
<event>
 5   0  0.1976233E-05  0.2862592E+04  0.7818609E-02  0.8284095E-01
       -2   -1    0    0    0  501  0.00000000000E+00  0.00000000000E+00  0.92412819953E+03  0.92412819954E+03  0.25500000920E-02 0. -1.
        2   -1    0    0  501    0  0.00000000000E+00  0.00000000000E+00 -0.22168011944E+04  0.22168011944E+04  0.25500000920E-02 0.  1.
    10030    2    1    2    0    0  0.00000000000E+00  0.00000000000E+00 -0.12926729948E+04  0.31409293939E+04  0.28625921795E+04 0.  0.
        2    1    3    3  502    0  0.48036065273E+03 -0.13201879459E+04 -0.94675774980E+03  0.16941053114E+04  0.25500000920E-02 0. -1.
       -2    1    3    3    0  502 -0.48036065273E+03  0.13201879459E+04 -0.34591524505E+03  0.14468240826E+04  0.25500000920E-02 0.  1.
</event>
<event>
 5   0  0.1829810E-05  0.2739704E+04  0.7818609E-02  0.8322236E-01
       -2   -1    0    0    0  501  0.00000000000E+00  0.00000000000E+00  0.93299330007E+03  0.93299330007E+03  0.25500000920E-02 0.  1.
        2   -1    0    0  501    0  0.00000000000E+00  0.00000000000E+00 -0.20112624816E+04  0.20112624816E+04  0.25500000920E-02 0. -1.
    10030    2    1    2    0    0  0.00000000000E+00  0.00000000000E+00 -0.10782691815E+04  0.29442557817E+04  0.27397039402E+04 0.  0.
        4    1    3    3  502    0 -0.22268735683E+03  0.52345028179E+03 -0.18783303328E+04  0.19625789942E+04  0.12699999809E+01 0. -1.
       -4    1    3    3    0  502  0.22268735683E+03 -0.52345028179E+03  0.80006115128E+03  0.98167678748E+03  0.12699999809E+01 0.  1.
</event>
<event>
 5   0  0.1960961E-05  0.2872089E+04  0.7818609E-02  0.8281231E-01
        2   -1    0    0  501    0  0.00000000000E+00  0.00000000000E+00  0.25493735050E+04  0.25493735050E+04  0.25500000920E-02 0. -1.
       -2   -1    0    0    0  501  0.00000000000E+00  0.00000000000E+00 -0.80891398835E+03  0.80891398836E+03  0.25500000920E-02 0.  1.
    10030    2    1    2    0    0  0.00000000000E+00  0.00000000000E+00  0.17404595166E+04  0.33582874933E+04  0.28720890583E+04 0.  0.
        5    1    3    3  502    0  0.10554353635E+04 -0.33786655128E+03 -0.19766909495E+03  0.11256965729E+04  0.46999998093E+01 0.  1.
       -5    1    3    3    0  502 -0.10554353635E+04  0.33786655128E+03  0.19381286116E+04  0.22325909205E+04  0.46999998093E+01 0. -1.
</event>
<event>
 5   0  0.1829810E-05  0.2833387E+04  0.7818609E-02  0.8292977E-01
       -2   -1    0    0    0  501  0.00000000000E+00  0.00000000000E+00  0.95881852528E+03  0.95881852528E+03  0.25500000920E-02 0. -1.
        2   -1    0    0  501    0  0.00000000000E+00  0.00000000000E+00 -0.20932222857E+04  0.20932222857E+04  0.25500000920E-02 0.  1.
    10030    2    1    2    0    0  0.00000000000E+00  0.00000000000E+00 -0.11344037604E+04  0.30520408110E+04  0.28333868815E+04 0.  0.
        4    1    3    3  502    0 -0.52933815008E+03  0.12995729109E+04 -0.35741600368E+03  0.14480457315E+04  0.12699999809E+01 0.  1.
       -4    1    3    3    0  502  0.52933815008E+03 -0.12995729109E+04 -0.77698775675E+03  0.16039950795E+04  0.12699999809E+01 0. -1.
</event>
<event>
 5   0  0.1918901E-05  0.2809794E+04  0.7818609E-02  0.8300234E-01
       -2   -1    0    0    0  501  0.00000000000E+00  0.00000000000E+00  0.20935243909E+04  0.20935243910E+04  0.25500000920E-02 0. -1.
        2   -1    0    0  501    0  0.00000000000E+00  0.00000000000E+00 -0.94278150475E+03  0.94278150475E+03  0.25500000920E-02 0.  1.
    10030    2    1    2    0    0  0.00000000000E+00  0.00000000000E+00  0.11507428862E+04  0.30363058957E+04  0.28097943523E+04 0.  0.
        1    1    3    3  502    0  0.13696346036E+03  0.85804404051E+03 -0.61758909174E+03  0.10660276034E+04  0.50400001928E-02 0.  1.
       -1    1    3    3    0  502 -0.13696346036E+03 -0.85804404051E+03  0.17683319779E+04  0.19702782923E+04  0.50400001928E-02 0. -1.
</event>
<event>
 5   0  0.8055928E-06  0.2823920E+04  0.7818609E-02  0.8295880E-01
        1   -1    0    0  501    0  0.00000000000E+00  0.00000000000E+00  0.27964037750E+04  0.27964037750E+04  0.50400001928E-02 0.  1.
       -1   -1    0    0    0  501  0.00000000000E+00  0.00000000000E+00 -0.71292683655E+03  0.71292683656E+03  0.50400001928E-02 0. -1.
    10030    2    1    2    0    0  0.00000000000E+00  0.00000000000E+00  0.20834769384E+04  0.35093306116E+04  0.28239201809E+04 0.  0.
        2    1    3    3  502    0  0.13340016710E+04  0.25945050574E+03  0.56566913685E+03  0.14720246586E+04  0.25500000920E-02 0. -1.
       -2    1    3    3    0  502 -0.13340016710E+04 -0.25945050574E+03  0.15178078016E+04  0.20373059529E+04  0.25500000920E-02 0.  1.
</event>
<event>
 5   0  0.1976233E-05  0.2903663E+04  0.7818609E-02  0.8271789E-01
        2   -1    0    0  501    0  0.00000000000E+00  0.00000000000E+00  0.66817354774E+03  0.66817354774E+03  0.25500000920E-02 0. -1.
       -2   -1    0    0    0  501  0.00000000000E+00  0.00000000000E+00 -0.31545909559E+04  0.31545909559E+04  0.25500000920E-02 0.  1.
    10030    2    1    2    0    0  0.00000000000E+00  0.00000000000E+00 -0.24864174081E+04  0.38227645036E+04  0.29036626737E+04 0.  0.
        2    1    3    3  502    0 -0.83246590344E+03  0.82561335943E+03 -0.11591807400E+03  0.11781654805E+04  0.25500000920E-02 0. -1.
       -2    1    3    3    0  502  0.83246590344E+03 -0.82561335943E+03 -0.23704993341E+04  0.26445990231E+04  0.25500000920E-02 0.  1.
</event>
<event>
 5   0  0.1937947E-05  0.2925123E+04  0.7818609E-02  0.8265442E-01
        2   -1    0    0  501    0  0.00000000000E+00  0.00000000000E+00  0.17205930878E+04  0.17205930878E+04  0.25500000920E-02 0.  1.
       -2   -1    0    0    0  501  0.00000000000E+00  0.00000000000E+00 -0.12432260492E+04  0.12432260492E+04  0.25500000920E-02 0. -1.
    10030    2    1    2    0    0  0.00000000000E+00  0.00000000000E+00  0.47736703862E+03  0.29638191370E+04  0.29251230037E+04 0.  0.
        3    1    3    3  502    0  0.95779953681E+03  0.76402136338E+02  0.13559350008E+04  0.16618594934E+04  0.10100000352E+00 0.  1.
       -3    1    3    3    0  502 -0.95779953681E+03 -0.76402136338E+02 -0.87856796218E+03  0.13019596436E+04  0.10100000352E+00 0. -1.
</event>
<event>
 5   0  0.1960961E-05  0.2863263E+04  0.7818609E-02  0.8283892E-01
        2   -1    0    0  501    0  0.00000000000E+00  0.00000000000E+00  0.19198891896E+04  0.19198891896E+04  0.25500000920E-02 0.  1.
       -2   -1    0    0    0  501  0.00000000000E+00  0.00000000000E+00 -0.10675453031E+04  0.10675453031E+04  0.25500000920E-02 0. -1.
    10030    2    1    2    0    0  0.00000000000E+00  0.00000000000E+00  0.85234388646E+03  0.29874344927E+04  0.28632629546E+04 0.  0.
        5    1    3    3  502    0  0.42475983944E+03  0.94622847255E+03  0.14557682873E+04  0.17874710179E+04  0.46999998093E+01 0.  1.
       -5    1    3    3    0  502 -0.42475983944E+03 -0.94622847255E+03 -0.60342440081E+03  0.11999634748E+04  0.46999998093E+01 0. -1.
</event>
<event>
 5   0  0.1918901E-05  0.3275108E+04  0.7818609E-02  0.8169258E-01
        2   -1    0    0  501    0  0.00000000000E+00  0.00000000000E+00  0.25826879990E+04  0.25826879990E+04  0.25500000920E-02 0. -1.
       -2   -1    0    0    0  501  0.00000000000E+00  0.00000000000E+00 -0.10382917660E+04  0.10382917660E+04  0.25500000920E-02 0.  1.
    10030    2    1    2    0    0  0.00000000000E+00  0.00000000000E+00  0.15443962330E+04  0.36209797650E+04  0.32751083545E+04 0.  0.
        1    1    3    3  502    0  0.82840348895E+03 -0.99849062493E+03  0.18768905029E+04  0.22816559400E+04  0.50400001928E-02 0. -1.
       -1    1    3    3    0  502 -0.82840348895E+03  0.99849062493E+03 -0.33249426994E+03  0.13393238250E+04  0.50400001928E-02 0.  1.
</event>
<event>
 5   0  0.8122088E-06  0.1527016E+04  0.7818609E-02  0.8866684E-01
        1   -1    0    0  501    0  0.00000000000E+00  0.00000000000E+00  0.11698015483E+04  0.11698015483E+04  0.50400001928E-02 0. -1.
       -1   -1    0    0    0  501  0.00000000000E+00  0.00000000000E+00 -0.49832778999E+03  0.49832779002E+03  0.50400001928E-02 0.  1.
    10030    2    1    2    0    0  0.00000000000E+00  0.00000000000E+00  0.67147375831E+03  0.16681293383E+04  0.15270162020E+04 0.  0.
        1    1    3    3  502    0  0.26383821574E+03  0.70257016137E+03  0.48917760470E+03  0.89582931672E+03  0.50400001928E-02 0. -1.
       -1    1    3    3    0  502 -0.26383821574E+03 -0.70257016137E+03  0.18229615361E+03  0.77230002161E+03  0.50400001928E-02 0.  1.
</event>
<event>
 5   0  0.1976233E-05  0.2341443E+04  0.7818609E-02  0.8461758E-01
        2   -1    0    0  501    0  0.00000000000E+00  0.00000000000E+00  0.10504490514E+04  0.10504490514E+04  0.25500000920E-02 0. -1.
       -2   -1    0    0    0  501  0.00000000000E+00  0.00000000000E+00 -0.13047647505E+04  0.13047647505E+04  0.25500000920E-02 0.  1.
    10030    2    1    2    0    0  0.00000000000E+00  0.00000000000E+00 -0.25431569906E+03  0.23552138019E+04  0.23414430546E+04 0.  0.
        2    1    3    3  502    0  0.32996608970E+03 -0.18098457395E+03  0.98794488242E+03  0.10571982440E+04  0.25500000920E-02 0. -1.
       -2    1    3    3    0  502 -0.32996608970E+03  0.18098457395E+03 -0.12422605815E+04  0.12980155579E+04  0.25500000920E-02 0.  1.
</event>
<event>
 5   0  0.7971153E-06  0.2793536E+04  0.7818609E-02  0.8305278E-01
       -1   -1    0    0    0  501  0.00000000000E+00  0.00000000000E+00  0.14025882328E+04  0.14025882328E+04  0.50400001928E-02 0. -1.
        1   -1    0    0  501    0  0.00000000000E+00  0.00000000000E+00 -0.13909719822E+04  0.13909719822E+04  0.50400001928E-02 0.  1.
    10030    2    1    2    0    0  0.00000000000E+00  0.00000000000E+00  0.11616250623E+02  0.27935602150E+04  0.27935360634E+04 0.  0.
        5    1    3    3  502    0  0.95176373940E+03 -0.68495498758E+03  0.76470947073E+03  0.13999357897E+04  0.46999998093E+01 0. -1.
       -5    1    3    3    0  502 -0.95176373940E+03  0.68495498758E+03 -0.75309322011E+03  0.13936244253E+04  0.46999998093E+01 0.  1.
</event>
<event>
 5   0  0.1960961E-05  0.2116096E+04  0.7818609E-02  0.8554186E-01
       -2   -1    0    0    0  501  0.00000000000E+00  0.00000000000E+00  0.49112219759E+03  0.49112219760E+03  0.25500000920E-02 0.  1.
        2   -1    0    0  501    0  0.00000000000E+00  0.00000000000E+00 -0.22794028960E+04  0.22794028960E+04  0.25500000920E-02 0. -1.
    10030    2    1    2    0    0  0.00000000000E+00  0.00000000000E+00 -0.17882806985E+04  0.27705250936E+04  0.21160958008E+04 0.  0.
        5    1    3    3  502    0  0.30742194991E+03 -0.64559756597E+01 -0.22195987348E+04  0.22408013228E+04  0.46999998093E+01 0. -1.
       -5    1    3    3    0  502 -0.30742194991E+03  0.64559756597E+01  0.43131803633E+03  0.52972377082E+03  0.46999998093E+01 0.  1.
</event>
<event>
 5   0  0.7305460E-06  0.2921917E+04  0.7818609E-02  0.8266386E-01
       -1   -1    0    0    0  501  0.00000000000E+00  0.00000000000E+00  0.85005728931E+03  0.85005728932E+03  0.50400001928E-02 0.  1.
        1   -1    0    0  501    0  0.00000000000E+00  0.00000000000E+00 -0.25108889992E+04  0.25108889992E+04  0.50400001928E-02 0. -1.
    10030    2    1    2    0    0  0.00000000000E+00  0.00000000000E+00 -0.16608317098E+04  0.33609462885E+04  0.29219168341E+04 0.  0.
        4    1    3    3  502    0 -0.12126204469E+04 -0.63312341851E+02  0.10401313568E+03  0.12187194698E+04  0.12699999809E+01 0. -1.
       -4    1    3    3    0  502  0.12126204469E+04  0.63312341851E+02 -0.17648448455E+04  0.21422268187E+04  0.12699999809E+01 0.  1.
</event>
<event>
 5   0  0.1829810E-05  0.2933690E+04  0.7818609E-02  0.8262924E-01
       -2   -1    0    0    0  501  0.00000000000E+00  0.00000000000E+00  0.21703307741E+04  0.21703307741E+04  0.25500000920E-02 0.  1.
        2   -1    0    0  501    0  0.00000000000E+00  0.00000000000E+00 -0.99138553260E+03  0.99138553260E+03  0.25500000920E-02 0. -1.
    10030    2    1    2    0    0  0.00000000000E+00  0.00000000000E+00  0.11789452415E+04  0.31617163067E+04  0.29336901884E+04 0.  0.
        4    1    3    3  502    0  0.15622920006E+03 -0.58859500854E+03  0.20276549237E+04  0.21171296015E+04  0.12699999809E+01 0.  1.
       -4    1    3    3    0  502 -0.15622920006E+03  0.58859500854E+03 -0.84870968223E+03  0.10445867052E+04  0.12699999809E+01 0. -1.
</event>
<event>
 5   0  0.8122088E-06  0.2857726E+04  0.7818609E-02  0.8285567E-01
        1   -1    0    0  501    0  0.00000000000E+00  0.00000000000E+00  0.13861932914E+04  0.13861932914E+04  0.50400001928E-02 0.  1.
       -1   -1    0    0    0  501  0.00000000000E+00  0.00000000000E+00 -0.14728464073E+04  0.14728464074E+04  0.50400001928E-02 0. -1.
    10030    2    1    2    0    0  0.00000000000E+00  0.00000000000E+00 -0.86653115926E+02  0.28590396988E+04  0.28577262354E+04 0.  0.
        1    1    3    3  502    0 -0.77636670053E+03  0.88328870977E+03  0.76865327932E+03  0.14049099837E+04  0.50400001928E-02 0.  1.
       -1    1    3    3    0  502  0.77636670053E+03 -0.88328870977E+03 -0.85530639525E+03  0.14541297151E+04  0.50400001928E-02 0. -1.
</event>
<event>
 5   0  0.1918901E-05  0.2626504E+04  0.7818609E-02  0.8359254E-01
       -2   -1    0    0    0  501  0.00000000000E+00  0.00000000000E+00  0.24845240886E+04  0.24845240886E+04  0.25500000920E-02 0.  1.
        2   -1    0    0  501    0  0.00000000000E+00  0.00000000000E+00 -0.69414938532E+03  0.69414938532E+03  0.25500000920E-02 0. -1.
    10030    2    1    2    0    0  0.00000000000E+00  0.00000000000E+00  0.17903747033E+04  0.31786734739E+04  0.26265040407E+04 0.  0.
        1    1    3    3  502    0  0.13115272943E+04 -0.64642957395E+02  0.91777405717E+03  0.16020586055E+04  0.50400001928E-02 0.  1.
       -1    1    3    3    0  502 -0.13115272943E+04  0.64642957395E+02  0.87260064610E+03  0.15766148684E+04  0.50400001928E-02 0. -1.
</event>
<event>
 5   0  0.7305460E-06  0.2802828E+04  0.7818609E-02  0.8302391E-01
       -1   -1    0    0    0  501  0.00000000000E+00  0.00000000000E+00  0.89526800758E+03  0.89526800759E+03  0.50400001928E-02 0.  1.
        1   -1    0    0  501    0  0.00000000000E+00  0.00000000000E+00 -0.21937125202E+04  0.21937125202E+04  0.50400001928E-02 0. -1.
    10030    2    1    2    0    0  0.00000000000E+00  0.00000000000E+00 -0.12984445126E+04  0.30889805278E+04  0.28028275988E+04 0.  0.
        4    1    3    3  502    0 -0.23315573296E+03 -0.10753536223E+04  0.30726107305E+03  0.11424351136E+04  0.12699999809E+01 0.  1.
       -4    1    3    3    0  502  0.23315573296E+03  0.10753536223E+04 -0.16057055857E+04  0.19465454142E+04  0.12699999809E+01 0. -1.
</event>
<event>
 5   0  0.1937947E-05  0.2427930E+04  0.7818609E-02  0.8429120E-01
        2   -1    0    0  501    0  0.00000000000E+00  0.00000000000E+00  0.20512065150E+04  0.20512065150E+04  0.25500000920E-02 0. -1.
       -2   -1    0    0    0  501  0.00000000000E+00  0.00000000000E+00 -0.71846055354E+03  0.71846055355E+03  0.25500000920E-02 0.  1.
    10030    2    1    2    0    0  0.00000000000E+00  0.00000000000E+00  0.13327459615E+04  0.27696670686E+04  0.24279299564E+04 0.  0.
        3    1    3    3  502    0  0.17379947590E+02  0.47487124722E+03  0.19407043792E+04  0.19980335987E+04  0.10100000352E+00 0. -1.
       -3    1    3    3    0  502 -0.17379947590E+02 -0.47487124722E+03 -0.60795841768E+03  0.77163346988E+03  0.10100000352E+00 0.  1.
</event>
<event>
 5   0  0.8234888E-06  0.2557749E+04  0.7818609E-02  0.8382696E-01
        1   -1    0    0  501    0  0.00000000000E+00  0.00000000000E+00  0.12129935897E+04  0.12129935897E+04  0.50400001928E-02 0. -1.
       -1   -1    0    0    0  501  0.00000000000E+00  0.00000000000E+00 -0.13483338025E+04  0.13483338026E+04  0.50400001928E-02 0.  1.
    10030    2    1    2    0    0  0.00000000000E+00  0.00000000000E+00 -0.13534021289E+03  0.25613273922E+04  0.25577492131E+04 0.  0.
        3    1    3    3  502    0  0.10816213418E+04 -0.13000812854E+03  0.60312773757E+03  0.12452188235E+04  0.10100000352E+00 0. -1.
       -3    1    3    3    0  502 -0.10816213418E+04  0.13000812854E+03 -0.73846795045E+03  0.13161085687E+04  0.10100000352E+00 0.  1.
</event>
<event>
 5   0  0.1918901E-05  0.2769752E+04  0.7818609E-02  0.8312721E-01
        2   -1    0    0  501    0  0.00000000000E+00  0.00000000000E+00  0.10658684029E+04  0.10658684029E+04  0.25500000920E-02 0.  1.
       -2   -1    0    0    0  501  0.00000000000E+00  0.00000000000E+00 -0.17993607366E+04  0.17993607366E+04  0.25500000920E-02 0. -1.
    10030    2    1    2    0    0  0.00000000000E+00  0.00000000000E+00 -0.73349233373E+03  0.28652291395E+04  0.27697521582E+04 0.  0.
        1    1    3    3  502    0 -0.94394755727E+03 -0.89885855033E+03  0.11724720724E+03  0.13087133345E+04  0.50400001928E-02 0.  1.
       -1    1    3    3    0  502  0.94394755727E+03  0.89885855033E+03 -0.85073954098E+03  0.15565158049E+04  0.50400001928E-02 0. -1.
</event>
<event>
 5   0  0.7305460E-06  0.2977199E+04  0.7818609E-02  0.8250272E-01
       -1   -1    0    0    0  501  0.00000000000E+00  0.00000000000E+00  0.11925368576E+04  0.11925368576E+04  0.50400001928E-02 0. -1.
        1   -1    0    0  501    0  0.00000000000E+00  0.00000000000E+00 -0.18581636146E+04  0.18581636146E+04  0.50400001928E-02 0.  1.
    10030    2    1    2    0    0  0.00000000000E+00  0.00000000000E+00 -0.66562675699E+03  0.30507004722E+04  0.29771990849E+04 0.  0.
        4    1    3    3  502    0  0.64761146530E+03 -0.42725651593E+03  0.96897542116E+03  0.12413153186E+04  0.12699999809E+01 0. -1.
       -4    1    3    3    0  502 -0.64761146530E+03  0.42725651593E+03 -0.16346021781E+04  0.18093851536E+04  0.12699999809E+01 0.  1.
</event>
<event>
 5   0  0.1937947E-05  0.2216906E+04  0.7818609E-02  0.8511424E-01
        2   -1    0    0  501    0  0.00000000000E+00  0.00000000000E+00  0.48046362293E+03  0.48046362293E+03  0.25500000920E-02 0. -1.
       -2   -1    0    0    0  501  0.00000000000E+00  0.00000000000E+00 -0.25572543581E+04  0.25572543581E+04  0.25500000920E-02 0.  1.
    10030    2    1    2    0    0  0.00000000000E+00  0.00000000000E+00 -0.20767907352E+04  0.30377179811E+04  0.22169056756E+04 0.  0.
        3    1    3    3  502    0  0.89993559540E+03  0.19810165837E+03 -0.18825628831E+04  0.20959893515E+04  0.10100000352E+00 0.  1.
       -3    1    3    3    0  502 -0.89993559540E+03 -0.19810165837E+03 -0.19422785215E+03  0.94172862952E+03  0.10100000352E+00 0. -1.
</event>
<event>
 5   0  0.7305460E-06  0.1461296E+04  0.7818609E-02  0.8910607E-01
       -1   -1    0    0    0  501  0.00000000000E+00  0.00000000000E+00  0.30735700993E+03  0.30735700998E+03  0.50400001928E-02 0. -1.
        1   -1    0    0  501    0  0.00000000000E+00  0.00000000000E+00 -0.17368935216E+04  0.17368935216E+04  0.50400001928E-02 0.  1.
    10030    2    1    2    0    0  0.00000000000E+00  0.00000000000E+00 -0.14295365117E+04  0.20442505316E+04  0.14612958625E+04 0.  0.
        4    1    3    3  502    0 -0.66446792610E+03  0.17520647599E+03 -0.36747885513E+03  0.77926712744E+03  0.12699999809E+01 0. -1.
       -4    1    3    3    0  502  0.66446792610E+03 -0.17520647599E+03 -0.10620576565E+04  0.12649834041E+04  0.12699999809E+01 0.  1.
</event>
<event>
 5   0  0.6578125E-06  0.2858695E+04  0.7818609E-02  0.8285274E-01
        3   -1    0    0  501    0  0.00000000000E+00  0.00000000000E+00  0.13605009678E+04  0.13605009715E+04  0.10100000352E+00 0. -1.
       -3   -1    0    0    0  501  0.00000000000E+00  0.00000000000E+00 -0.15016775049E+04  0.15016775083E+04  0.10100000352E+00 0.  1.
    10030    2    1    2    0    0  0.00000000000E+00  0.00000000000E+00 -0.14117653711E+03  0.28621784799E+04  0.28586946035E+04 0.  0.
        3    1    3    3  502    0 -0.11196410106E+04  0.59574255478E+03  0.58940284899E+03  0.13985352741E+04  0.10100000352E+00 0. -1.
       -3    1    3    3    0  502  0.11196410106E+04 -0.59574255478E+03 -0.73057938610E+03  0.14636432058E+04  0.10100000352E+00 0.  1.
</event>
<event>
 5   0  0.7305460E-06  0.2770168E+04  0.7818609E-02  0.8312590E-01
       -1   -1    0    0    0  501  0.00000000000E+00  0.00000000000E+00  0.14157516825E+04  0.14157516825E+04  0.50400001928E-02 0.  1.
        1   -1    0    0  501    0  0.00000000000E+00  0.00000000000E+00 -0.13550806819E+04  0.13550806819E+04  0.50400001928E-02 0. -1.
    10030    2    1    2    0    0  0.00000000000E+00  0.00000000000E+00  0.60671000640E+02  0.27708323644E+04  0.27701680493E+04 0.  0.
        4    1    3    3  502    0 -0.64665232519E+03 -0.13445261835E+03  0.12480917956E+04  0.14120805499E+04  0.12699999809E+01 0.  1.
       -4    1    3    3    0  502  0.64665232519E+03  0.13445261835E+03 -0.11874207950E+04  0.13587518145E+04  0.12699999809E+01 0. -1.
</event>
<event>
 5   0  0.7971153E-06  0.2883023E+04  0.7818609E-02  0.8277946E-01
        1   -1    0    0  501    0  0.00000000000E+00  0.00000000000E+00  0.19053878924E+04  0.19053878924E+04  0.50400001928E-02 0. -1.
       -1   -1    0    0    0  501  0.00000000000E+00  0.00000000000E+00 -0.10905684380E+04  0.10905684380E+04  0.50400001928E-02 0.  1.
    10030    2    1    2    0    0  0.00000000000E+00  0.00000000000E+00  0.81481945442E+03  0.29959563304E+04  0.28830233420E+04 0.  0.
        5    1    3    3  502    0  0.99183699094E+03  0.89498160429E+03  0.97010093838E+03  0.16510150239E+04  0.46999998093E+01 0. -1.
       -5    1    3    3    0  502 -0.99183699094E+03 -0.89498160429E+03 -0.15528148397E+03  0.13449413065E+04  0.46999998093E+01 0.  1.
</event>
<event>
 5   0  0.1976233E-05  0.3114563E+04  0.7818609E-02  0.8211752E-01
        2   -1    0    0  501    0  0.00000000000E+00  0.00000000000E+00  0.20528240364E+04  0.20528240364E+04  0.25500000920E-02 0.  1.
       -2   -1    0    0    0  501  0.00000000000E+00  0.00000000000E+00 -0.11813610133E+04  0.11813610133E+04  0.25500000920E-02 0. -1.
    10030    2    1    2    0    0  0.00000000000E+00  0.00000000000E+00  0.87146302314E+03  0.32341850496E+04  0.31145633939E+04 0.  0.
        2    1    3    3  502    0 -0.10152447082E+04  0.64786363902E+03 -0.58944367845E+03  0.13408553100E+04  0.25500000920E-02 0. -1.
       -2    1    3    3    0  502  0.10152447082E+04 -0.64786363902E+03  0.14609067016E+04  0.18933297396E+04  0.25500000920E-02 0.  1.
</event>
<event>
 5   0  0.1829810E-05  0.2855966E+04  0.7818609E-02  0.8286101E-01
       -2   -1    0    0    0  501  0.00000000000E+00  0.00000000000E+00  0.14843123314E+04  0.14843123314E+04  0.25500000920E-02 0.  1.
        2   -1    0    0  501    0  0.00000000000E+00  0.00000000000E+00 -0.13737909198E+04  0.13737909198E+04  0.25500000920E-02 0. -1.
    10030    2    1    2    0    0  0.00000000000E+00  0.00000000000E+00  0.11052141155E+03  0.28581032512E+04  0.28559655482E+04 0.  0.
        4    1    3    3  502    0  0.19297055958E+03  0.57519299417E+03  0.13489187300E+04  0.14790767291E+04  0.12699999809E+01 0.  1.
       -4    1    3    3    0  502 -0.19297055958E+03 -0.57519299417E+03 -0.12383973185E+04  0.13790265221E+04  0.12699999809E+01 0. -1.
</event>
<event>
 5   0  0.1937947E-05  0.2868239E+04  0.7818609E-02  0.8282390E-01
       -2   -1    0    0    0  501  0.00000000000E+00  0.00000000000E+00  0.11339748506E+04  0.11339748506E+04  0.25500000920E-02 0.  1.
        2   -1    0    0  501    0  0.00000000000E+00  0.00000000000E+00 -0.18137077496E+04  0.18137077496E+04  0.25500000920E-02 0. -1.
    10030    2    1    2    0    0  0.00000000000E+00  0.00000000000E+00 -0.67973289902E+03  0.29476826002E+04  0.28682391632E+04 0.  0.
        3    1    3    3  502    0 -0.67150608968E+03 -0.12228142201E+04  0.17621308879E+01  0.13950620634E+04  0.10100000352E+00 0.  1.
       -3    1    3    3    0  502  0.67150608968E+03  0.12228142201E+04 -0.68149502990E+03  0.15526205368E+04  0.10100000352E+00 0. -1.
</event>
<event>
 5   0  0.1960961E-05  0.2909103E+04  0.7818609E-02  0.8270174E-01
        2   -1    0    0  501    0  0.00000000000E+00  0.00000000000E+00  0.29427828366E+04  0.29427828366E+04  0.25500000920E-02 0. -1.
       -2   -1    0    0    0  501  0.00000000000E+00  0.00000000000E+00 -0.71895232531E+03  0.71895232532E+03  0.25500000920E-02 0.  1.
    10030    2    1    2    0    0  0.00000000000E+00  0.00000000000E+00  0.22238305113E+04  0.36617351619E+04  0.29091033418E+04 0.  0.
        5    1    3    3  502    0  0.10939998652E+04 -0.46072439193E+03  0.53847918187E+02  0.11882863117E+04  0.46999998093E+01 0.  1.
       -5    1    3    3    0  502 -0.10939998652E+04  0.46072439193E+03  0.21699825931E+04  0.24734488502E+04  0.46999998093E+01 0. -1.
</event>
<event>
 5   0  0.7305460E-06  0.2861331E+04  0.7818609E-02  0.8284477E-01
        1   -1    0    0  501    0  0.00000000000E+00  0.00000000000E+00  0.19014544855E+04  0.19014544855E+04  0.50400001928E-02 0. -1.
       -1   -1    0    0    0  501  0.00000000000E+00  0.00000000000E+00 -0.10764409528E+04  0.10764409528E+04  0.50400001928E-02 0.  1.
    10030    2    1    2    0    0  0.00000000000E+00  0.00000000000E+00  0.82501353268E+03  0.29778954383E+04  0.28613307939E+04 0.  0.
        4    1    3    3  502    0 -0.13460199717E+04 -0.11951436881E+03 -0.76472195731E+02  0.13534781336E+04  0.12699999809E+01 0.  1.
       -4    1    3    3    0  502  0.13460199717E+04  0.11951436881E+03  0.90148572841E+03  0.16244173047E+04  0.12699999809E+01 0. -1.
</event>
<event>
 5   0  0.8122088E-06  0.2927502E+04  0.7818609E-02  0.8264742E-01
        1   -1    0    0  501    0  0.00000000000E+00  0.00000000000E+00  0.21494353561E+04  0.21494353561E+04  0.50400001928E-02 0.  1.
       -1   -1    0    0    0  501  0.00000000000E+00  0.00000000000E+00 -0.99680454084E+03  0.99680454085E+03  0.50400001928E-02 0. -1.
    10030    2    1    2    0    0  0.00000000000E+00  0.00000000000E+00  0.11526308152E+04  0.31462398969E+04  0.29275019544E+04 0.  0.
        1    1    3    3  502    0  0.11995352331E+03 -0.13342786699E+04  0.12101974357E+04  0.18053438038E+04  0.50400001928E-02 0.  1.
       -1    1    3    3    0  502 -0.11995352331E+03  0.13342786699E+04 -0.57566620471E+02  0.13408960931E+04  0.50400001928E-02 0. -1.
</event>
<event>
 5   0  0.1937947E-05  0.2794213E+04  0.7818609E-02  0.8305067E-01
       -2   -1    0    0    0  501  0.00000000000E+00  0.00000000000E+00  0.10119908773E+04  0.10119908773E+04  0.25500000920E-02 0. -1.
        2   -1    0    0  501    0  0.00000000000E+00  0.00000000000E+00 -0.19287789008E+04  0.19287789008E+04  0.25500000920E-02 0.  1.
    10030    2    1    2    0    0  0.00000000000E+00  0.00000000000E+00 -0.91678802347E+03  0.29407697781E+04  0.27942130570E+04 0.  0.
        3    1    3    3  502    0 -0.78369702207E+03  0.11042519233E+04 -0.96324703777E+02  0.13575094074E+04  0.10100000352E+00 0.  1.
       -3    1    3    3    0  502  0.78369702207E+03 -0.11042519233E+04 -0.82046331970E+03  0.15832603707E+04  0.10100000352E+00 0. -1.
</event>
<event>
 5   0  0.1918901E-05  0.2874659E+04  0.7818609E-02  0.8280457E-01
        2   -1    0    0  501    0  0.00000000000E+00  0.00000000000E+00  0.11890131765E+04  0.11890131765E+04  0.25500000920E-02 0. -1.
       -2   -1    0    0    0  501  0.00000000000E+00  0.00000000000E+00 -0.17375050102E+04  0.17375050102E+04  0.25500000920E-02 0.  1.
    10030    2    1    2    0    0  0.00000000000E+00  0.00000000000E+00 -0.54849183378E+03  0.29265181867E+04  0.28746591807E+04 0.  0.
        1    1    3    3  502    0  0.13507855927E+04 -0.36380543249E+03 -0.61026120021E+03  0.15262355135E+04  0.50400001928E-02 0.  1.
       -1    1    3    3    0  502 -0.13507855927E+04  0.36380543249E+03  0.61769366430E+02  0.14002826732E+04  0.50400001928E-02 0. -1.
</event>
<event>
 5   0  0.1937947E-05  0.1448321E+04  0.7818609E-02  0.8919565E-01
        2   -1    0    0  501    0  0.00000000000E+00  0.00000000000E+00  0.14207529161E+04  0.14207529161E+04  0.25500000920E-02 0. -1.
       -2   -1    0    0    0  501  0.00000000000E+00  0.00000000000E+00 -0.36910595336E+03  0.36910595337E+03  0.25500000920E-02 0.  1.
    10030    2    1    2    0    0  0.00000000000E+00  0.00000000000E+00  0.10516469628E+04  0.17898588695E+04  0.14483209031E+04 0.  0.
        3    1    3    3  502    0 -0.48726476837E+01  0.69442183194E+03  0.27206570464E+03  0.74583187195E+03  0.10100000352E+00 0.  1.
       -3    1    3    3    0  502  0.48726476837E+01 -0.69442183194E+03  0.77958125811E+03  0.10440269975E+04  0.10100000352E+00 0. -1.
</event>
<event>
 5   0  0.8234888E-06  0.2921061E+04  0.7818609E-02  0.8266639E-01
       -1   -1    0    0    0  501  0.00000000000E+00  0.00000000000E+00  0.11113639505E+04  0.11113639505E+04  0.50400001928E-02 0. -1.
        1   -1    0    0  501    0  0.00000000000E+00  0.00000000000E+00 -0.19193974860E+04  0.19193974860E+04  0.50400001928E-02 0.  1.
    10030    2    1    2    0    0  0.00000000000E+00  0.00000000000E+00 -0.80803353550E+03  0.30307614365E+04  0.29210608844E+04 0.  0.
        3    1    3    3  502    0  0.98327054848E+03 -0.16598417201E+02 -0.15244093628E+04  0.18140894120E+04  0.10100000352E+00 0.  1.
       -3    1    3    3    0  502 -0.98327054848E+03  0.16598417201E+02  0.71637582735E+03  0.12166720245E+04  0.10100000352E+00 0. -1.
</event>
<event>
 5   0  0.1976233E-05  0.2872154E+04  0.7818609E-02  0.8281211E-01
       -2   -1    0    0    0  501  0.00000000000E+00  0.00000000000E+00  0.10045090460E+04  0.10045090460E+04  0.25500000920E-02 0. -1.
        2   -1    0    0  501    0  0.00000000000E+00  0.00000000000E+00 -0.20530595807E+04  0.20530595807E+04  0.25500000920E-02 0.  1.
    10030    2    1    2    0    0  0.00000000000E+00  0.00000000000E+00 -0.10485505346E+04  0.30575686267E+04  0.28721538405E+04 0.  0.
        2    1    3    3  502    0  0.10847613673E+04  0.66264574940E+03  0.18707624603E+03  0.12848362289E+04  0.25500000920E-02 0. -1.
       -2    1    3    3    0  502 -0.10847613673E+04 -0.66264574940E+03 -0.12356267807E+04  0.17727323978E+04  0.25500000920E-02 0.  1.
</event>
<event>
 5   0  0.8122088E-06  0.2928380E+04  0.7818609E-02  0.8264483E-01
       -1   -1    0    0    0  501  0.00000000000E+00  0.00000000000E+00  0.12761583155E+04  0.12761583155E+04  0.50400001928E-02 0. -1.
        1   -1    0    0  501    0  0.00000000000E+00  0.00000000000E+00 -0.16799262462E+04  0.16799262462E+04  0.50400001928E-02 0.  1.
    10030    2    1    2    0    0  0.00000000000E+00  0.00000000000E+00 -0.40376793065E+03  0.29560845617E+04  0.29283796533E+04 0.  0.
        1    1    3    3  502    0  0.42146432381E+03 -0.86147633351E+03 -0.13187319226E+04  0.16305911607E+04  0.50400001928E-02 0.  1.
       -1    1    3    3    0  502 -0.42146432381E+03  0.86147633351E+03  0.91496399199E+03  0.13254934010E+04  0.50400001928E-02 0. -1.
</event>
<event>
 5   0  0.1937947E-05  0.2864526E+04  0.7818609E-02  0.8283511E-01
        2   -1    0    0  501    0  0.00000000000E+00  0.00000000000E+00  0.13618032751E+04  0.13618032751E+04  0.25500000920E-02 0.  1.
       -2   -1    0    0    0  501  0.00000000000E+00  0.00000000000E+00 -0.15063685746E+04  0.15063685746E+04  0.25500000920E-02 0. -1.
    10030    2    1    2    0    0  0.00000000000E+00  0.00000000000E+00 -0.14456529947E+03  0.28681718497E+04  0.28645262495E+04 0.  0.
        3    1    3    3  502    0  0.43769116239E+03  0.13632686352E+04 -0.10842183927E+03  0.14359074589E+04  0.10100000352E+00 0.  1.
       -3    1    3    3    0  502 -0.43769116239E+03 -0.13632686352E+04 -0.36143460200E+02  0.14322643908E+04  0.10100000352E+00 0. -1.
</event>
<event>
 5   0  0.1976233E-05  0.2811904E+04  0.7818609E-02  0.8299582E-01
        2   -1    0    0  501    0  0.00000000000E+00  0.00000000000E+00  0.24333191162E+04  0.24333191162E+04  0.25500000920E-02 0. -1.
       -2   -1    0    0    0  501  0.00000000000E+00  0.00000000000E+00 -0.81234759981E+03  0.81234759981E+03  0.25500000920E-02 0.  1.
    10030    2    1    2    0    0  0.00000000000E+00  0.00000000000E+00  0.16209715164E+04  0.32456667161E+04  0.28119039412E+04 0.  0.
        2    1    3    3  502    0 -0.62651834450E+03  0.14842361097E+03 -0.63217517487E+03  0.90233045832E+03  0.25500000920E-02 0.  1.
       -2    1    3    3    0  502  0.62651834450E+03 -0.14842361097E+03  0.22531466913E+04  0.23433362577E+04  0.25500000920E-02 0. -1.
</event>
<event>
 5   0  0.8122088E-06  0.2903560E+04  0.7818609E-02  0.8271819E-01
       -1   -1    0    0    0  501  0.00000000000E+00  0.00000000000E+00  0.10308071325E+04  0.10308071325E+04  0.50400001928E-02 0.  1.
        1   -1    0    0  501    0  0.00000000000E+00  0.00000000000E+00 -0.20446747351E+04  0.20446747351E+04  0.50400001928E-02 0. -1.
    10030    2    1    2    0    0  0.00000000000E+00  0.00000000000E+00 -0.10138676026E+04  0.30754818676E+04  0.29035600910E+04 0.  0.
        1    1    3    3  502    0 -0.31232022592E+03 -0.11607613546E+04 -0.13692343851E+04  0.18220081359E+04  0.50400001928E-02 0.  1.
       -1    1    3    3    0  502  0.31232022592E+03  0.11607613546E+04  0.35536678253E+03  0.12534737317E+04  0.50400001928E-02 0. -1.
</event>
<event>
 5   0  0.1960961E-05  0.3134651E+04  0.7818609E-02  0.8206292E-01
        2   -1    0    0  501    0  0.00000000000E+00  0.00000000000E+00  0.19545878130E+04  0.19545878130E+04  0.25500000920E-02 0.  1.
       -2   -1    0    0    0  501  0.00000000000E+00  0.00000000000E+00 -0.12567910372E+04  0.12567910372E+04  0.25500000920E-02 0. -1.
    10030    2    1    2    0    0  0.00000000000E+00  0.00000000000E+00  0.69779677572E+03  0.32113788502E+04  0.31346505035E+04 0.  0.
        5    1    3    3  502    0 -0.71671138860E+03  0.43068850239E+03 -0.10091888361E+04  0.13105922316E+04  0.46999998093E+01 0. -1.
       -5    1    3    3    0  502  0.71671138860E+03 -0.43068850239E+03  0.17069856118E+04  0.19007866186E+04  0.46999998093E+01 0.  1.
</event>
<event>
 5   0  0.1976233E-05  0.2792464E+04  0.7818609E-02  0.8305612E-01
        2   -1    0    0  501    0  0.00000000000E+00  0.00000000000E+00  0.16932312659E+04  0.16932312659E+04  0.25500000920E-02 0. -1.
       -2   -1    0    0    0  501  0.00000000000E+00  0.00000000000E+00 -0.11513279145E+04  0.11513279145E+04  0.25500000920E-02 0.  1.
    10030    2    1    2    0    0  0.00000000000E+00  0.00000000000E+00  0.54190335143E+03  0.28445591804E+04  0.27924644472E+04 0.  0.
        2    1    3    3  502    0 -0.11470547535E+04 -0.12249731695E+03 -0.53031278450E+03  0.12696345339E+04  0.25500000920E-02 0.  1.
       -2    1    3    3    0  502  0.11470547535E+04  0.12249731695E+03  0.10722161359E+04  0.15749246466E+04  0.25500000920E-02 0. -1.
</event>
<event>
 5   0  0.1960961E-05  0.2615224E+04  0.7818609E-02  0.8363048E-01
        2   -1    0    0  501    0  0.00000000000E+00  0.00000000000E+00  0.15564536879E+04  0.15564536879E+04  0.25500000920E-02 0. -1.
       -2   -1    0    0    0  501  0.00000000000E+00  0.00000000000E+00 -0.10985545042E+04  0.10985545042E+04  0.25500000920E-02 0.  1.
    10030    2    1    2    0    0  0.00000000000E+00  0.00000000000E+00  0.45789918364E+03  0.26550081921E+04  0.26152240512E+04 0.  0.
        5    1    3    3  502    0 -0.38424857571E+03 -0.49149989123E+03 -0.93770938519E+03  0.11262948513E+04  0.46999998093E+01 0.  1.
       -5    1    3    3    0  502  0.38424857571E+03  0.49149989123E+03  0.13956085688E+04  0.15287133408E+04  0.46999998093E+01 0. -1.
</event>
<event>
 5   0  0.8122088E-06  0.2913741E+04  0.7818609E-02  0.8268801E-01
       -1   -1    0    0    0  501  0.00000000000E+00  0.00000000000E+00  0.12701625103E+04  0.12701625104E+04  0.50400001928E-02 0. -1.
        1   -1    0    0  501    0  0.00000000000E+00  0.00000000000E+00 -0.16710233307E+04  0.16710233307E+04  0.50400001928E-02 0.  1.
    10030    2    1    2    0    0  0.00000000000E+00  0.00000000000E+00 -0.40086082034E+03  0.29411858410E+04  0.29137406807E+04 0.  0.
        1    1    3    3  502    0  0.64878414688E+03  0.56397599786E+03  0.98686347309E+03  0.13087739721E+04  0.50400001928E-02 0. -1.
       -1    1    3    3    0  502 -0.64878414688E+03 -0.56397599786E+03 -0.13877242934E+04  0.16324118690E+04  0.50400001928E-02 0.  1.
</event>
<event>
 5   0  0.1829810E-05  0.2922826E+04  0.7818609E-02  0.8266118E-01
        2   -1    0    0  501    0  0.00000000000E+00  0.00000000000E+00  0.15716285152E+04  0.15716285152E+04  0.25500000920E-02 0.  1.
       -2   -1    0    0    0  501  0.00000000000E+00  0.00000000000E+00 -0.13589270643E+04  0.13589270643E+04  0.25500000920E-02 0. -1.
    10030    2    1    2    0    0  0.00000000000E+00  0.00000000000E+00  0.21270145089E+03  0.29305555796E+04  0.29228263886E+04 0.  0.
        4    1    3    3  502    0 -0.82565895810E+03 -0.60686737110E+03 -0.93838657295E+03  0.13894501410E+04  0.12699999809E+01 0. -1.
       -4    1    3    3    0  502  0.82565895810E+03  0.60686737110E+03  0.11510880238E+04  0.15411054385E+04  0.12699999809E+01 0.  1.
</event>
<event>
 5   0  0.1937947E-05  0.2607689E+04  0.7818609E-02  0.8365594E-01
        2   -1    0    0  501    0  0.00000000000E+00  0.00000000000E+00  0.27210283744E+04  0.27210283744E+04  0.25500000920E-02 0.  1.
       -2   -1    0    0    0  501  0.00000000000E+00  0.00000000000E+00 -0.62476747203E+03  0.62476747204E+03  0.25500000920E-02 0. -1.
    10030    2    1    2    0    0  0.00000000000E+00  0.00000000000E+00  0.20962609023E+04  0.33457958464E+04  0.26076886461E+04 0.  0.
        3    1    3    3  502    0  0.11522277740E+02 -0.65690014237E+02 -0.62257753152E+03  0.62613954819E+03  0.10100000352E+00 0. -1.
       -3    1    3    3    0  502 -0.11522277740E+02  0.65690014237E+02  0.27188384339E+04  0.27196562982E+04  0.10100000352E+00 0.  1.
</event>
<event>
 5   0  0.1960961E-05  0.2767159E+04  0.7818609E-02  0.8313537E-01
       -2   -1    0    0    0  501  0.00000000000E+00  0.00000000000E+00  0.15671448261E+04  0.15671448261E+04  0.25500000920E-02 0. -1.
        2   -1    0    0  501    0  0.00000000000E+00  0.00000000000E+00 -0.12215162271E+04  0.12215162271E+04  0.25500000920E-02 0.  1.
    10030    2    1    2    0    0  0.00000000000E+00  0.00000000000E+00  0.34562859900E+03  0.27886610531E+04  0.27671594354E+04 0.  0.
        5    1    3    3  502    0 -0.28474806202E+03 -0.11568359386E+04  0.88178617268E+03  0.14822009958E+04  0.46999998093E+01 0.  1.
       -5    1    3    3    0  502  0.28474806202E+03  0.11568359386E+04 -0.53615757368E+03  0.13064600573E+04  0.46999998093E+01 0. -1.
</event>
<event>
 5   0  0.1937947E-05  0.3082238E+04  0.7818609E-02  0.8220630E-01
       -2   -1    0    0    0  501  0.00000000000E+00  0.00000000000E+00  0.11507577862E+04  0.11507577862E+04  0.25500000920E-02 0.  1.
        2   -1    0    0  501    0  0.00000000000E+00  0.00000000000E+00 -0.20638986232E+04  0.20638986232E+04  0.25500000920E-02 0. -1.
    10030    2    1    2    0    0  0.00000000000E+00  0.00000000000E+00 -0.91314083702E+03  0.32146564094E+04  0.30822377654E+04 0.  0.
        3    1    3    3  502    0  0.59173440152E+03 -0.65487320079E+03  0.86104952138E+03  0.12330510125E+04  0.10100000352E+00 0.  1.
       -3    1    3    3    0  502 -0.59173440152E+03  0.65487320079E+03 -0.17741903584E+04  0.19816053969E+04  0.10100000352E+00 0. -1.
</event>
<event>
 5   0  0.8234888E-06  0.2853098E+04  0.7818609E-02  0.8286971E-01
        1   -1    0    0  501    0  0.00000000000E+00  0.00000000000E+00  0.13275818550E+04  0.13275818550E+04  0.50400001928E-02 0.  1.
       -1   -1    0    0    0  501  0.00000000000E+00  0.00000000000E+00 -0.15328938907E+04  0.15328938907E+04  0.50400001928E-02 0. -1.
    10030    2    1    2    0    0  0.00000000000E+00  0.00000000000E+00 -0.20531203569E+03  0.28604757457E+04  0.28530980459E+04 0.  0.
        3    1    3    3  502    0  0.83988212903E+01  0.52189830295E+03  0.12284041377E+04  0.13347003838E+04  0.10100000352E+00 0.  1.
       -3    1    3    3    0  502 -0.83988212903E+01 -0.52189830295E+03 -0.14337161734E+04  0.15257753619E+04  0.10100000352E+00 0. -1.
</event>
<event>
 5   0  0.8234888E-06  0.2890037E+04  0.7818609E-02  0.8275848E-01
       -1   -1    0    0    0  501  0.00000000000E+00  0.00000000000E+00  0.15823328734E+04  0.15823328734E+04  0.50400001928E-02 0. -1.
        1   -1    0    0  501    0  0.00000000000E+00  0.00000000000E+00 -0.13196197987E+04  0.13196197987E+04  0.50400001928E-02 0.  1.
    10030    2    1    2    0    0  0.00000000000E+00  0.00000000000E+00  0.26271307474E+03  0.29019526721E+04  0.28900365312E+04 0.  0.
        3    1    3    3  502    0 -0.72845399876E+03  0.54089323564E+03  0.12606568118E+04  0.15532116172E+04  0.10100000352E+00 0. -1.
       -3    1    3    3    0  502  0.72845399876E+03 -0.54089323564E+03 -0.99794373703E+03  0.13487410549E+04  0.10100000352E+00 0.  1.
</event>
<event>
 5   0  0.1829810E-05  0.2884634E+04  0.7818609E-02  0.8277464E-01
        2   -1    0    0  501    0  0.00000000000E+00  0.00000000000E+00  0.16472061148E+04  0.16472061148E+04  0.25500000920E-02 0.  1.
       -2   -1    0    0    0  501  0.00000000000E+00  0.00000000000E+00 -0.12629134297E+04  0.12629134297E+04  0.25500000920E-02 0. -1.
    10030    2    1    2    0    0  0.00000000000E+00  0.00000000000E+00  0.38429268508E+03  0.29101195444E+04  0.28846342741E+04 0.  0.
        4    1    3    3  502    0 -0.86067063383E+03 -0.72454361749E+03  0.11026496649E+04  0.15752953025E+04  0.12699999809E+01 0.  1.
       -4    1    3    3    0  502  0.86067063383E+03  0.72454361749E+03 -0.71835697982E+03  0.13348242420E+04  0.12699999809E+01 0. -1.
</event>
<event>
 5   0  0.7971153E-06  0.2865401E+04  0.7818609E-02  0.8283247E-01
       -1   -1    0    0    0  501  0.00000000000E+00  0.00000000000E+00  0.89334968135E+03  0.89334968137E+03  0.50400001928E-02 0.  1.
        1   -1    0    0  501    0  0.00000000000E+00  0.00000000000E+00 -0.22976794302E+04  0.22976794302E+04  0.50400001928E-02 0. -1.
    10030    2    1    2    0    0  0.00000000000E+00  0.00000000000E+00 -0.14043297489E+04  0.31910291116E+04  0.28654013240E+04 0.  0.
        5    1    3    3  502    0  0.14209148953E+04  0.11112807089E+03 -0.53978502337E+03  0.15240533289E+04  0.46999998093E+01 0.  1.
       -5    1    3    3    0  502 -0.14209148953E+04 -0.11112807089E+03 -0.86454472550E+03  0.16669757827E+04  0.46999998093E+01 0. -1.
</event>
<event>
 5   0  0.8234888E-06  0.1461985E+04  0.7818609E-02  0.8910134E-01
        1   -1    0    0  501    0  0.00000000000E+00  0.00000000000E+00  0.76257902888E+03  0.76257902890E+03  0.50400001928E-02 0. -1.
       -1   -1    0    0    0  501  0.00000000000E+00  0.00000000000E+00 -0.70071429901E+03  0.70071429902E+03  0.50400001928E-02 0.  1.
    10030    2    1    2    0    0  0.00000000000E+00  0.00000000000E+00  0.61864729878E+02  0.14632933279E+04  0.14619849927E+04 0.  0.
        3    1    3    3  502    0  0.24584369945E+03  0.41876999682E+03  0.57781183731E+03  0.75476749024E+03  0.10100000352E+00 0. -1.
       -3    1    3    3    0  502 -0.24584369945E+03 -0.41876999682E+03 -0.51594710743E+03  0.70852583768E+03  0.10100000352E+00 0.  1.
</event>
<event>
 5   0  0.6578125E-06  0.2335227E+04  0.7818609E-02  0.8464160E-01
        3   -1    0    0  501    0  0.00000000000E+00  0.00000000000E+00  0.14413670035E+04  0.14413670071E+04  0.10100000352E+00 0.  1.
       -3   -1    0    0    0  501  0.00000000000E+00  0.00000000000E+00 -0.94585330583E+03  0.94585331122E+03  0.10100000352E+00 0. -1.
    10030    2    1    2    0    0  0.00000000000E+00  0.00000000000E+00  0.49551369769E+03  0.23872203183E+04  0.23352274029E+04 0.  0.
        5    1    3    3  502    0  0.51247175062E+03 -0.10210057790E+04  0.10973637119E+01  0.11424112176E+04  0.46999998093E+01 0.  1.
       -5    1    3    3    0  502 -0.51247175062E+03  0.10210057790E+04  0.49441633397E+03  0.12448091007E+04  0.46999998093E+01 0. -1.
</event>
<event>
 5   0  0.8234888E-06  0.3199562E+04  0.7818609E-02  0.8188933E-01
        1   -1    0    0  501    0  0.00000000000E+00  0.00000000000E+00  0.19043557383E+04  0.19043557383E+04  0.50400001928E-02 0.  1.
       -1   -1    0    0    0  501  0.00000000000E+00  0.00000000000E+00 -0.13439183366E+04  0.13439183367E+04  0.50400001928E-02 0. -1.
    10030    2    1    2    0    0  0.00000000000E+00  0.00000000000E+00  0.56043740162E+03  0.32482740749E+04  0.31995615926E+04 0.  0.
        3    1    3    3  502    0  0.81589740179E+03 -0.11650581234E+04 -0.46322087369E+03  0.14958685066E+04  0.10100000352E+00 0. -1.
       -3    1    3    3    0  502 -0.81589740179E+03  0.11650581234E+04  0.10236582753E+04  0.17524055683E+04  0.10100000352E+00 0.  1.
</event>
<event>
 5   0  0.1918901E-05  0.2865174E+04  0.7818609E-02  0.8283315E-01
        2   -1    0    0  501    0  0.00000000000E+00  0.00000000000E+00  0.13028619072E+04  0.13028619072E+04  0.25500000920E-02 0.  1.
       -2   -1    0    0    0  501  0.00000000000E+00  0.00000000000E+00 -0.15752290906E+04  0.15752290906E+04  0.25500000920E-02 0. -1.
    10030    2    1    2    0    0  0.00000000000E+00  0.00000000000E+00 -0.27236718342E+03  0.28780909978E+04  0.28651743244E+04 0.  0.
        1    1    3    3  502    0  0.60978656890E+03 -0.14052873437E+03  0.11583145039E+04  0.13165411026E+04  0.50400001928E-02 0.  1.
       -1    1    3    3    0  502 -0.60978656890E+03  0.14052873437E+03 -0.14306816873E+04  0.15615498952E+04  0.50400001928E-02 0. -1.
</event>
<event>
 5   0  0.8055928E-06  0.2892330E+04  0.7818609E-02  0.8275163E-01
        1   -1    0    0  501    0  0.00000000000E+00  0.00000000000E+00  0.15073043913E+04  0.15073043913E+04  0.50400001928E-02 0. -1.
       -1   -1    0    0    0  501  0.00000000000E+00  0.00000000000E+00 -0.13875059763E+04  0.13875059763E+04  0.50400001928E-02 0.  1.
    10030    2    1    2    0    0  0.00000000000E+00  0.00000000000E+00  0.11979841502E+03  0.28948103676E+04  0.28923304452E+04 0.  0.
        2    1    3    3  502    0 -0.65751202159E+03 -0.10109410768E+04 -0.73895175770E+03  0.14143456506E+04  0.25500000920E-02 0.  1.
       -2    1    3    3    0  502  0.65751202159E+03  0.10109410768E+04  0.85875017272E+03  0.14804647170E+04  0.25500000920E-02 0. -1.
</event>
<event>
 5   0  0.8234888E-06  0.3055048E+04  0.7818609E-02  0.8228184E-01
       -1   -1    0    0    0  501  0.00000000000E+00  0.00000000000E+00  0.14426203909E+04  0.14426203909E+04  0.50400001928E-02 0. -1.
        1   -1    0    0  501    0  0.00000000000E+00  0.00000000000E+00 -0.16174247187E+04  0.16174247187E+04  0.50400001928E-02 0.  1.
    10030    2    1    2    0    0  0.00000000000E+00  0.00000000000E+00 -0.17480432785E+03  0.30600451096E+04  0.30550482026E+04 0.  0.
        3    1    3    3  502    0  0.17781848784E+03 -0.99717639026E+03 -0.12326662653E+04  0.15954454863E+04  0.10100000352E+00 0.  1.
       -3    1    3    3    0  502 -0.17781848784E+03  0.99717639026E+03  0.10578619374E+04  0.14645996234E+04  0.10100000352E+00 0. -1.
</event>
<event>
 5   0  0.8055928E-06  0.3014386E+04  0.7818609E-02  0.8239635E-01
        1   -1    0    0  501    0  0.00000000000E+00  0.00000000000E+00  0.14487106206E+04  0.14487106207E+04  0.50400001928E-02 0.  1.
       -1   -1    0    0    0  501  0.00000000000E+00  0.00000000000E+00 -0.15680361577E+04  0.15680361577E+04  0.50400001928E-02 0. -1.
    10030    2    1    2    0    0  0.00000000000E+00  0.00000000000E+00 -0.11932553702E+03  0.30167467783E+04  0.30143859310E+04 0.  0.
        2    1    3    3  502    0 -0.38717480650E+03  0.37147017089E+03 -0.14692175677E+04  0.15641274500E+04  0.25500000920E-02 0. -1.
       -2    1    3    3    0  502  0.38717480650E+03 -0.37147017089E+03  0.13498920307E+04  0.14526193283E+04  0.25500000920E-02 0.  1.
</event>
<event>
 5   0  0.8234888E-06  0.3004578E+04  0.7818609E-02  0.8242425E-01
        1   -1    0    0  501    0  0.00000000000E+00  0.00000000000E+00  0.13741780612E+04  0.13741780612E+04  0.50400001928E-02 0. -1.
       -1   -1    0    0    0  501  0.00000000000E+00  0.00000000000E+00 -0.16423433191E+04  0.16423433192E+04  0.50400001928E-02 0.  1.
    10030    2    1    2    0    0  0.00000000000E+00  0.00000000000E+00 -0.26816525794E+03  0.30165213804E+04  0.30045779459E+04 0.  0.
        3    1    3    3  502    0  0.89883214040E+03 -0.48540632831E+03  0.97181933469E+03  0.14099472861E+04  0.10100000352E+00 0. -1.
       -3    1    3    3    0  502 -0.89883214040E+03  0.48540632831E+03 -0.12399845926E+04  0.16065740943E+04  0.10100000352E+00 0.  1.
</event>
<event>
 5   0  0.1960961E-05  0.2978183E+04  0.7818609E-02  0.8249988E-01
       -2   -1    0    0    0  501  0.00000000000E+00  0.00000000000E+00  0.12327674008E+04  0.12327674008E+04  0.25500000920E-02 0. -1.
        2   -1    0    0  501    0  0.00000000000E+00  0.00000000000E+00 -0.17987121310E+04  0.17987121310E+04  0.25500000920E-02 0.  1.
    10030    2    1    2    0    0  0.00000000000E+00  0.00000000000E+00 -0.56594473020E+03  0.30314795318E+04  0.29781831230E+04 0.  0.
        5    1    3    3  502    0  0.11639991696E+04  0.59215062437E+03 -0.10112019188E+04  0.16516924167E+04  0.46999998093E+01 0.  1.
       -5    1    3    3    0  502 -0.11639991696E+04 -0.59215062437E+03  0.44525718859E+03  0.13797871151E+04  0.46999998093E+01 0. -1.
</event>
<event>
 5   0  0.1918901E-05  0.2932421E+04  0.7818609E-02  0.8263296E-01
        2   -1    0    0  501    0  0.00000000000E+00  0.00000000000E+00  0.18775295009E+04  0.18775295009E+04  0.25500000920E-02 0. -1.
       -2   -1    0    0    0  501  0.00000000000E+00  0.00000000000E+00 -0.11450010454E+04  0.11450010454E+04  0.25500000920E-02 0.  1.
    10030    2    1    2    0    0  0.00000000000E+00  0.00000000000E+00  0.73252845548E+03  0.30225305464E+04  0.29324210076E+04 0.  0.
        1    1    3    3  502    0 -0.35982256651E+03 -0.10718309343E+04  0.13284810426E+04  0.17444643050E+04  0.50400001928E-02 0. -1.
       -1    1    3    3    0  502  0.35982256651E+03  0.10718309343E+04 -0.59595258708E+03  0.12780662413E+04  0.50400001928E-02 0.  1.
</event>
<event>
 5   0  0.8122088E-06  0.2173291E+04  0.7818609E-02  0.8529628E-01
        1   -1    0    0  501    0  0.00000000000E+00  0.00000000000E+00  0.18894145055E+04  0.18894145055E+04  0.50400001928E-02 0. -1.
       -1   -1    0    0    0  501  0.00000000000E+00  0.00000000000E+00 -0.62495484874E+03  0.62495484876E+03  0.50400001928E-02 0.  1.
    10030    2    1    2    0    0  0.00000000000E+00  0.00000000000E+00  0.12644596567E+04  0.25143693542E+04  0.21732912888E+04 0.  0.
        1    1    3    3  502    0 -0.33885156300E+03  0.65026614707E+03 -0.29558498186E+03  0.79059276830E+03  0.50400001928E-02 0.  1.
       -1    1    3    3    0  502  0.33885156300E+03 -0.65026614707E+03  0.15600446386E+04  0.17237765859E+04  0.50400001928E-02 0. -1.
</event>
<event>
 5   0  0.1976233E-05  0.2872776E+04  0.7818609E-02  0.8281024E-01
       -2   -1    0    0    0  501  0.00000000000E+00  0.00000000000E+00  0.10231878059E+04  0.10231878059E+04  0.25500000920E-02 0. -1.
        2   -1    0    0  501    0  0.00000000000E+00  0.00000000000E+00 -0.20164528197E+04  0.20164528197E+04  0.25500000920E-02 0.  1.
    10030    2    1    2    0    0  0.00000000000E+00  0.00000000000E+00 -0.99326501385E+03  0.30396406256E+04  0.28727756169E+04 0.  0.
        2    1    3    3  502    0  0.89469484861E+03 -0.63819357892E+03 -0.14752552766E+04  0.18396054054E+04  0.25500000920E-02 0.  1.
       -2    1    3    3    0  502 -0.89469484861E+03  0.63819357892E+03  0.48199026279E+03  0.12000352202E+04  0.25500000920E-02 0. -1.
</event>
<event>
 5   0  0.1960961E-05  0.2857004E+04  0.7818609E-02  0.8285786E-01
       -2   -1    0    0    0  501  0.00000000000E+00  0.00000000000E+00  0.13376178682E+04  0.13376178682E+04  0.25500000920E-02 0.  1.
        2   -1    0    0  501    0  0.00000000000E+00  0.00000000000E+00 -0.15255616944E+04  0.15255616945E+04  0.25500000920E-02 0. -1.
    10030    2    1    2    0    0  0.00000000000E+00  0.00000000000E+00 -0.18794382623E+03  0.28631795627E+04  0.28570044323E+04 0.  0.
        5    1    3    3  502    0  0.11409208253E+04  0.10058747211E+03 -0.94950221096E+03  0.14877482004E+04  0.46999998093E+01 0. -1.
       -5    1    3    3    0  502 -0.11409208253E+04 -0.10058747211E+03  0.76155838473E+03  0.13754313623E+04  0.46999998093E+01 0.  1.
</event>
<event>
 5   0  0.8055928E-06  0.2944149E+04  0.7818609E-02  0.8259862E-01
        1   -1    0    0  501    0  0.00000000000E+00  0.00000000000E+00  0.17776986312E+04  0.17776986312E+04  0.50400001928E-02 0. -1.
       -1   -1    0    0    0  501  0.00000000000E+00  0.00000000000E+00 -0.12189936214E+04  0.12189936214E+04  0.50400001928E-02 0.  1.
    10030    2    1    2    0    0  0.00000000000E+00  0.00000000000E+00  0.55870500976E+03  0.29966922526E+04  0.29441489719E+04 0.  0.
        2    1    3    3  502    0  0.14547055851E+04 -0.15684453913E+02  0.50418555714E+02  0.14556635505E+04  0.25500000920E-02 0.  1.
       -2    1    3    3    0  502 -0.14547055851E+04  0.15684453913E+02  0.50828645405E+03  0.15410287021E+04  0.25500000920E-02 0. -1.
</event>
<event>
 5   0  0.1976233E-05  0.2933472E+04  0.7818609E-02  0.8262988E-01
        2   -1    0    0  501    0  0.00000000000E+00  0.00000000000E+00  0.10698462058E+04  0.10698462058E+04  0.25500000920E-02 0.  1.
       -2   -1    0    0    0  501  0.00000000000E+00  0.00000000000E+00 -0.20108637761E+04  0.20108637761E+04  0.25500000920E-02 0. -1.
    10030    2    1    2    0    0  0.00000000000E+00  0.00000000000E+00 -0.94101757025E+03  0.30807099819E+04  0.29334723324E+04 0.  0.
        2    1    3    3  502    0 -0.13533420602E+04 -0.35802291344E+03 -0.10817369784E+02  0.13999400537E+04  0.25500000920E-02 0.  1.
       -2    1    3    3    0  502  0.13533420602E+04  0.35802291344E+03 -0.93020020047E+03  0.16807699282E+04  0.25500000920E-02 0. -1.
</event>
<event>
 5   0  0.1937947E-05  0.2936117E+04  0.7818609E-02  0.8262212E-01
       -2   -1    0    0    0  501  0.00000000000E+00  0.00000000000E+00  0.10162062398E+04  0.10162062398E+04  0.25500000920E-02 0. -1.
        2   -1    0    0  501    0  0.00000000000E+00  0.00000000000E+00 -0.21208248312E+04  0.21208248312E+04  0.25500000920E-02 0.  1.
    10030    2    1    2    0    0  0.00000000000E+00  0.00000000000E+00 -0.11046185914E+04  0.31370310710E+04  0.29361167735E+04 0.  0.
        3    1    3    3  502    0  0.10916206641E+04 -0.93340271243E+03 -0.22767730024E+03  0.14542053710E+04  0.10100000352E+00 0.  1.
       -3    1    3    3    0  502 -0.10916206641E+04  0.93340271243E+03 -0.87694129120E+03  0.16828256999E+04  0.10100000352E+00 0. -1.
</event>
<event>
 5   0  0.6578125E-06  0.3024357E+04  0.7818609E-02  0.8236809E-01
        3   -1    0    0  501    0  0.00000000000E+00  0.00000000000E+00  0.16573588275E+04  0.16573588305E+04  0.10100000352E+00 0.  1.
       -3   -1    0    0    0  501  0.00000000000E+00  0.00000000000E+00 -0.13797160265E+04  0.13797160302E+04  0.10100000352E+00 0. -1.
    10030    2    1    2    0    0  0.00000000000E+00  0.00000000000E+00  0.27764280098E+03  0.30370748607E+04  0.30243574830E+04 0.  0.
        1    1    3    3  502    0  0.14251496777E+04 -0.22805470693E+03 -0.31432323992E+03  0.14771119295E+04  0.50400001928E-02 0. -1.
       -1    1    3    3    0  502 -0.14251496777E+04  0.22805470693E+03  0.59196604090E+03  0.15599629312E+04  0.50400001928E-02 0.  1.
</event>
<event>
 5   0  0.7971153E-06  0.2918789E+04  0.7818609E-02  0.8267309E-01
        1   -1    0    0  501    0  0.00000000000E+00  0.00000000000E+00  0.10936368550E+04  0.10936368551E+04  0.50400001928E-02 0.  1.
       -1   -1    0    0    0  501  0.00000000000E+00  0.00000000000E+00 -0.19474764105E+04  0.19474764105E+04  0.50400001928E-02 0. -1.
    10030    2    1    2    0    0  0.00000000000E+00  0.00000000000E+00 -0.85383955542E+03  0.30411132655E+04  0.29187887740E+04 0.  0.
        5    1    3    3  502    0 -0.11666689918E+04  0.27845144398E+03 -0.12931207027E+04  0.17637559312E+04  0.46999998093E+01 0. -1.
       -5    1    3    3    0  502  0.11666689918E+04 -0.27845144398E+03  0.43928114726E+03  0.12773573343E+04  0.46999998093E+01 0.  1.
</event>
<event>
 5   0  0.1918901E-05  0.2886337E+04  0.7818609E-02  0.8276954E-01
        2   -1    0    0  501    0  0.00000000000E+00  0.00000000000E+00  0.20737683926E+04  0.20737683926E+04  0.25500000920E-02 0. -1.
       -2   -1    0    0    0  501  0.00000000000E+00  0.00000000000E+00 -0.10043240931E+04  0.10043240931E+04  0.25500000920E-02 0.  1.
    10030    2    1    2    0    0  0.00000000000E+00  0.00000000000E+00  0.10694442996E+04  0.30780924857E+04  0.28863371668E+04 0.  0.
        1    1    3    3  502    0  0.16387217468E+03 -0.29529905212E+03 -0.96158985759E+03  0.10191715626E+04  0.50400001928E-02 0.  1.
       -1    1    3    3    0  502 -0.16387217468E+03  0.29529905212E+03  0.20310341571E+04  0.20589209230E+04  0.50400001928E-02 0. -1.
</event>
<event>
 5   0  0.7305460E-06  0.2921127E+04  0.7818609E-02  0.8266619E-01
        1   -1    0    0  501    0  0.00000000000E+00  0.00000000000E+00  0.14849857802E+04  0.14849857803E+04  0.50400001928E-02 0.  1.
       -1   -1    0    0    0  501  0.00000000000E+00  0.00000000000E+00 -0.14365428540E+04  0.14365428540E+04  0.50400001928E-02 0. -1.
    10030    2    1    2    0    0  0.00000000000E+00  0.00000000000E+00  0.48442926212E+02  0.29215286343E+04  0.29211269818E+04 0.  0.
        4    1    3    3  502    0  0.46770577357E+03  0.22556103539E+03 -0.13411100548E+04  0.14381252599E+04  0.12699999809E+01 0. -1.
       -4    1    3    3    0  502 -0.46770577357E+03 -0.22556103539E+03  0.13895529810E+04  0.14834033744E+04  0.12699999809E+01 0.  1.
</event>
<event>
 5   0  0.8055928E-06  0.2903083E+04  0.7818609E-02  0.8271961E-01
        1   -1    0    0  501    0  0.00000000000E+00  0.00000000000E+00  0.22730062176E+04  0.22730062176E+04  0.50400001928E-02 0. -1.
       -1   -1    0    0    0  501  0.00000000000E+00  0.00000000000E+00 -0.92695399416E+03  0.92695399418E+03  0.50400001928E-02 0.  1.
    10030    2    1    2    0    0  0.00000000000E+00  0.00000000000E+00  0.13460522234E+04  0.31999602118E+04  0.29030826321E+04 0.  0.
        2    1    3    3  502    0 -0.27223114719E+03 -0.34395415676E+03  0.21982002653E+04  0.22415393518E+04  0.25500000920E-02 0. -1.
       -2    1    3    3    0  502  0.27223114719E+03  0.34395415676E+03 -0.85214804188E+03  0.95842085993E+03  0.25500000920E-02 0.  1.
</event>
<event>
 5   0  0.1829810E-05  0.2753608E+04  0.7818609E-02  0.8317818E-01
        2   -1    0    0  501    0  0.00000000000E+00  0.00000000000E+00  0.21670509967E+04  0.21670509967E+04  0.25500000920E-02 0.  1.
       -2   -1    0    0    0  501  0.00000000000E+00  0.00000000000E+00 -0.87473187834E+03  0.87473187834E+03  0.25500000920E-02 0. -1.
    10030    2    1    2    0    0  0.00000000000E+00  0.00000000000E+00  0.12923191184E+04  0.30417828751E+04  0.27536075166E+04 0.  0.
        4    1    3    3  502    0 -0.14048889001E+03  0.13682444260E+04  0.57845015436E+03  0.14921247037E+04  0.12699999809E+01 0.  1.
       -4    1    3    3    0  502  0.14048889001E+03 -0.13682444260E+04  0.71386896401E+03  0.15496581714E+04  0.12699999809E+01 0. -1.
</event>
<event>
 5   0  0.1976233E-05  0.3025932E+04  0.7818609E-02  0.8236364E-01
        2   -1    0    0  501    0  0.00000000000E+00  0.00000000000E+00  0.15881370871E+04  0.15881370871E+04  0.25500000920E-02 0. -1.
       -2   -1    0    0    0  501  0.00000000000E+00  0.00000000000E+00 -0.14413529052E+04  0.14413529052E+04  0.25500000920E-02 0.  1.
    10030    2    1    2    0    0  0.00000000000E+00  0.00000000000E+00  0.14678418192E+03  0.30294899923E+04  0.30259319254E+04 0.  0.
        2    1    3    3  502    0  0.13564447699E+04 -0.54716937840E+03  0.46079574320E+03  0.15335153926E+04  0.25500000920E-02 0.  1.
       -2    1    3    3    0  502 -0.13564447699E+04  0.54716937840E+03 -0.31401156128E+03  0.14959745997E+04  0.25500000920E-02 0. -1.
</event>
<event>
 5   0  0.1937947E-05  0.2905676E+04  0.7818609E-02  0.8271191E-01
        2   -1    0    0  501    0  0.00000000000E+00  0.00000000000E+00  0.35337224248E+04  0.35337224248E+04  0.25500000920E-02 0. -1.
       -2   -1    0    0    0  501  0.00000000000E+00  0.00000000000E+00 -0.59731309391E+03  0.59731309392E+03  0.25500000920E-02 0.  1.
    10030    2    1    2    0    0  0.00000000000E+00  0.00000000000E+00  0.29364093309E+04  0.41310355187E+04  0.29056762893E+04 0.  0.
        3    1    3    3  502    0  0.11357947718E+04 -0.90130755347E+03  0.13382630085E+04  0.19731530503E+04  0.10100000352E+00 0.  1.
       -3    1    3    3    0  502 -0.11357947718E+04  0.90130755347E+03  0.15981463224E+04  0.21578824684E+04  0.10100000352E+00 0. -1.
</event>
<event>
 5   0  0.6578125E-06  0.2904731E+04  0.7818609E-02  0.8271471E-01
       -4   -1    0    0    0  501  0.00000000000E+00  0.00000000000E+00  0.16587194914E+04  0.16587199776E+04  0.12699999809E+01 0.  1.
        4   -1    0    0  501    0  0.00000000000E+00  0.00000000000E+00 -0.12716817804E+04  0.12716824146E+04  0.12699999809E+01 0. -1.
    10030    2    1    2    0    0  0.00000000000E+00  0.00000000000E+00  0.38703771100E+03  0.29304023922E+04  0.29047306227E+04 0.  0.
        2    1    3    3  502    0 -0.26855373306E+03  0.24790296090E+03 -0.12245312287E+04  0.12779099012E+04  0.25500000920E-02 0. -1.
       -2    1    3    3    0  502  0.26855373306E+03 -0.24790296090E+03  0.16115689397E+04  0.16524924910E+04  0.25500000920E-02 0.  1.
</event>
<event>
 5   0  0.1829810E-05  0.1456017E+04  0.7818609E-02  0.8914239E-01
       -2   -1    0    0    0  501  0.00000000000E+00  0.00000000000E+00  0.50882831732E+03  0.50882831733E+03  0.25500000920E-02 0.  1.
        2   -1    0    0  501    0  0.00000000000E+00  0.00000000000E+00 -0.10416019297E+04  0.10416019297E+04  0.25500000920E-02 0. -1.
    10030    2    1    2    0    0  0.00000000000E+00  0.00000000000E+00 -0.53277361242E+03  0.15504302471E+04  0.14560172489E+04 0.  0.
        4    1    3    3  502    0  0.47323910295E+03  0.26373232798E+03  0.25144350781E+03  0.59727333767E+03  0.12699999809E+01 0.  1.
       -4    1    3    3    0  502 -0.47323910295E+03 -0.26373232798E+03 -0.78421712023E+03  0.95315690940E+03  0.12699999809E+01 0. -1.
</event>
<event>
 5   0  0.1937947E-05  0.3261388E+04  0.7818609E-02  0.8172790E-01
       -2   -1    0    0    0  501  0.00000000000E+00  0.00000000000E+00  0.16432416769E+04  0.16432416769E+04  0.25500000920E-02 0.  1.
        2   -1    0    0  501    0  0.00000000000E+00  0.00000000000E+00 -0.16182416814E+04  0.16182416814E+04  0.25500000920E-02 0. -1.
    10030    2    1    2    0    0  0.00000000000E+00  0.00000000000E+00  0.24999995505E+02  0.32614833583E+04  0.32613875416E+04 0.  0.
        3    1    3    3  502    0 -0.35695620475E+03 -0.12029568567E+04 -0.10289907440E+04  0.16227584209E+04  0.10100000352E+00 0. -1.
       -3    1    3    3    0  502  0.35695620475E+03  0.12029568567E+04  0.10539907395E+04  0.16387249374E+04  0.10100000352E+00 0.  1.
</event>
<event>
 5   0  0.8234888E-06  0.2941461E+04  0.7818609E-02  0.8260647E-01
        1   -1    0    0  501    0  0.00000000000E+00  0.00000000000E+00  0.15974311722E+04  0.15974311722E+04  0.50400001928E-02 0.  1.
       -1   -1    0    0    0  501  0.00000000000E+00  0.00000000000E+00 -0.13540790637E+04  0.13540790637E+04  0.50400001928E-02 0. -1.
    10030    2    1    2    0    0  0.00000000000E+00  0.00000000000E+00  0.24335210852E+03  0.29515102360E+04  0.29414609337E+04 0.  0.
        3    1    3    3  502    0 -0.35014420144E+03 -0.12693298960E+04 -0.53573307104E+03  0.14215517156E+04  0.10100000352E+00 0.  1.
       -3    1    3    3    0  502  0.35014420144E+03  0.12693298960E+04  0.77908517956E+03  0.15299585203E+04  0.10100000352E+00 0. -1.
</event>
<event>
 5   0  0.1918901E-05  0.2899556E+04  0.7818609E-02  0.8273010E-01
       -2   -1    0    0    0  501  0.00000000000E+00  0.00000000000E+00  0.12579995219E+04  0.12579995219E+04  0.25500000920E-02 0. -1.
        2   -1    0    0  501    0  0.00000000000E+00  0.00000000000E+00 -0.16707924026E+04  0.16707924026E+04  0.25500000920E-02 0.  1.
    10030    2    1    2    0    0  0.00000000000E+00  0.00000000000E+00 -0.41279288065E+03  0.29287919245E+04  0.28995558582E+04 0.  0.
        1    1    3    3  502    0 -0.50331458013E+03  0.20069517335E+03  0.11518748052E+04  0.12729570637E+04  0.50400001928E-02 0. -1.
       -1    1    3    3    0  502  0.50331458013E+03 -0.20069517335E+03 -0.15646676858E+04  0.16558348608E+04  0.50400001928E-02 0.  1.
</event>
<event>
 5   0  0.8055928E-06  0.2900398E+04  0.7818609E-02  0.8272759E-01
        1   -1    0    0  501    0  0.00000000000E+00  0.00000000000E+00  0.28339817642E+04  0.28339817642E+04  0.50400001928E-02 0. -1.
       -1   -1    0    0    0  501  0.00000000000E+00  0.00000000000E+00 -0.74209256479E+03  0.74209256481E+03  0.50400001928E-02 0.  1.
    10030    2    1    2    0    0  0.00000000000E+00  0.00000000000E+00  0.20918891994E+04  0.35760743290E+04  0.29003977631E+04 0.  0.
        2    1    3    3  502    0 -0.54228012555E+03  0.13142150226E+04  0.69320611834E+03  0.15816964256E+04  0.25500000920E-02 0.  1.
       -2    1    3    3    0  502  0.54228012555E+03 -0.13142150226E+04  0.13986830811E+04  0.19943779034E+04  0.25500000920E-02 0. -1.
</event>
<event>
 5   0  0.8122088E-06  0.2978020E+04  0.7818609E-02  0.8250035E-01
        1   -1    0    0  501    0  0.00000000000E+00  0.00000000000E+00  0.22566280412E+04  0.22566280412E+04  0.50400001928E-02 0. -1.
       -1   -1    0    0    0  501  0.00000000000E+00  0.00000000000E+00 -0.98250584546E+03  0.98250584548E+03  0.50400001928E-02 0.  1.
    10030    2    1    2    0    0  0.00000000000E+00  0.00000000000E+00  0.12741221957E+04  0.32391338866E+04  0.29780196383E+04 0.  0.
        1    1    3    3  502    0 -0.25342592289E+03  0.15029486192E+03 -0.95048190123E+03  0.99510255175E+03  0.50400001928E-02 0.  1.
       -1    1    3    3    0  502  0.25342592289E+03 -0.15029486192E+03  0.22246040969E+04  0.22440313349E+04  0.50400001928E-02 0. -1.
</event>
<event>
 5   0  0.1829810E-05  0.2144587E+04  0.7818609E-02  0.8541853E-01
       -2   -1    0    0    0  501  0.00000000000E+00  0.00000000000E+00  0.54150066785E+03  0.54150066786E+03  0.25500000920E-02 0.  1.
        2   -1    0    0  501    0  0.00000000000E+00  0.00000000000E+00 -0.21233840153E+04  0.21233840153E+04  0.25500000920E-02 0. -1.
    10030    2    1    2    0    0  0.00000000000E+00  0.00000000000E+00 -0.15818833474E+04  0.26648846832E+04  0.21445874777E+04 0.  0.
        4    1    3    3  502    0  0.72926756984E+03 -0.18303932669E+03 -0.17409307581E+04  0.18963586424E+04  0.12699999809E+01 0. -1.
       -4    1    3    3    0  502 -0.72926756984E+03  0.18303932669E+03  0.15904741061E+03  0.76852604071E+03  0.12699999809E+01 0.  1.
</event>
<event>
 5   0  0.1829810E-05  0.2822505E+04  0.7818609E-02  0.8296315E-01
       -2   -1    0    0    0  501  0.00000000000E+00  0.00000000000E+00  0.12245392837E+04  0.12245392837E+04  0.25500000920E-02 0.  1.
        2   -1    0    0  501    0  0.00000000000E+00  0.00000000000E+00 -0.16264349912E+04  0.16264349912E+04  0.25500000920E-02 0. -1.
    10030    2    1    2    0    0  0.00000000000E+00  0.00000000000E+00 -0.40189570750E+03  0.28509742749E+04  0.28225049436E+04 0.  0.
        4    1    3    3  502    0 -0.39842400269E+03  0.12714343580E+03  0.11605067291E+04  0.12335658151E+04  0.12699999809E+01 0.  1.
       -4    1    3    3    0  502  0.39842400269E+03 -0.12714343580E+03 -0.15624024366E+04  0.16174084598E+04  0.12699999809E+01 0. -1.
</event>
<event>
 5   0  0.1829810E-05  0.2858029E+04  0.7818609E-02  0.8285476E-01
        2   -1    0    0  501    0  0.00000000000E+00  0.00000000000E+00  0.85418420255E+03  0.85418420255E+03  0.25500000920E-02 0. -1.
       -2   -1    0    0    0  501  0.00000000000E+00  0.00000000000E+00 -0.23906807937E+04  0.23906807937E+04  0.25500000920E-02 0.  1.
    10030    2    1    2    0    0  0.00000000000E+00  0.00000000000E+00 -0.15364965911E+04  0.32448649962E+04  0.28580285284E+04 0.  0.
        4    1    3    3  502    0  0.90629537922E+03  0.92717126117E+03 -0.86033489502E+02  0.12993926413E+04  0.12699999809E+01 0. -1.
       -4    1    3    3    0  502 -0.90629537922E+03 -0.92717126117E+03 -0.14504631016E+04  0.19454723550E+04  0.12699999809E+01 0.  1.
</event>
<event>
 5   0  0.8122088E-06  0.2183336E+04  0.7818609E-02  0.8525396E-01
        1   -1    0    0  501    0  0.00000000000E+00  0.00000000000E+00  0.17572676528E+04  0.17572676529E+04  0.50400001928E-02 0.  1.
       -1   -1    0    0    0  501  0.00000000000E+00  0.00000000000E+00 -0.67817743304E+03  0.67817743306E+03  0.50400001928E-02 0. -1.
    10030    2    1    2    0    0  0.00000000000E+00  0.00000000000E+00  0.10790902198E+04  0.24354450859E+04  0.21833362233E+04 0.  0.
        1    1    3    3  502    0  0.69652309004E+03 -0.63240967870E+03 -0.78160042169E+02  0.94403146605E+03  0.50400001928E-02 0. -1.
       -1    1    3    3    0  502 -0.69652309004E+03  0.63240967870E+03  0.11572502620E+04  0.14914136199E+04  0.50400001928E-02 0.  1.
</event>
<event>
 5   0  0.1937947E-05  0.2910027E+04  0.7818609E-02  0.8269900E-01
        2   -1    0    0  501    0  0.00000000000E+00  0.00000000000E+00  0.30160193340E+04  0.30160193340E+04  0.25500000920E-02 0. -1.
       -2   -1    0    0    0  501  0.00000000000E+00  0.00000000000E+00 -0.70193999206E+03  0.70193999206E+03  0.25500000920E-02 0.  1.
    10030    2    1    2    0    0  0.00000000000E+00  0.00000000000E+00  0.23140793419E+04  0.37179593261E+04  0.29100272077E+04 0.  0.
        3    1    3    3  502    0 -0.11291790618E+04  0.53141894125E+03  0.21128055753E+04  0.24538538779E+04  0.10100000352E+00 0. -1.
       -3    1    3    3    0  502  0.11291790618E+04 -0.53141894125E+03  0.20127376663E+03  0.12641054482E+04  0.10100000352E+00 0.  1.
</event>
<event>
 5   0  0.1918901E-05  0.3068614E+04  0.7818609E-02  0.8224405E-01
        2   -1    0    0  501    0  0.00000000000E+00  0.00000000000E+00  0.14744131698E+04  0.14744131698E+04  0.25500000920E-02 0.  1.
       -2   -1    0    0    0  501  0.00000000000E+00  0.00000000000E+00 -0.15966336473E+04  0.15966336473E+04  0.25500000920E-02 0. -1.
    10030    2    1    2    0    0  0.00000000000E+00  0.00000000000E+00 -0.12222047749E+03  0.30710468170E+04  0.30686138087E+04 0.  0.
        1    1    3    3  502    0  0.74958131294E+02  0.43067490100E+03 -0.15329897828E+04  0.15941007704E+04  0.50400001928E-02 0. -1.
       -1    1    3    3    0  502 -0.74958131294E+02 -0.43067490100E+03  0.14107693053E+04  0.14769460467E+04  0.50400001928E-02 0.  1.
</event>
<event>
 5   0  0.6578125E-06  0.2873668E+04  0.7818609E-02  0.8280756E-01
       -4   -1    0    0    0  501  0.00000000000E+00  0.00000000000E+00  0.14780491127E+04  0.14780496583E+04  0.12699999809E+01 0.  1.
        4   -1    0    0  501    0  0.00000000000E+00  0.00000000000E+00 -0.13967665928E+04  0.13967671702E+04  0.12699999809E+01 0. -1.
    10030    2    1    2    0    0  0.00000000000E+00  0.00000000000E+00  0.81282519868E+02  0.28748168285E+04  0.28736675085E+04 0.  0.
        1    1    3    3  502    0  0.73821067804E+03 -0.88298021032E+03  0.90114932421E+03  0.14617384039E+04  0.50400001928E-02 0.  1.
       -1    1    3    3    0  502 -0.73821067804E+03  0.88298021032E+03 -0.81986680434E+03  0.14130784245E+04  0.50400001928E-02 0. -1.
</event>
<event>
 5   0  0.8122088E-06  0.2942855E+04  0.7818609E-02  0.8260240E-01
       -1   -1    0    0    0  501  0.00000000000E+00  0.00000000000E+00  0.13703494841E+04  0.13703494841E+04  0.50400001928E-02 0.  1.
        1   -1    0    0  501    0  0.00000000000E+00  0.00000000000E+00 -0.15799611367E+04  0.15799611367E+04  0.50400001928E-02 0. -1.
    10030    2    1    2    0    0  0.00000000000E+00  0.00000000000E+00 -0.20961165254E+03  0.29503106208E+04  0.29428550278E+04 0.  0.
        1    1    3    3  502    0 -0.93484538984E+03  0.11200012051E+04 -0.29702139135E+03  0.14888117105E+04  0.50400001928E-02 0.  1.
       -1    1    3    3    0  502  0.93484538984E+03 -0.11200012051E+04  0.87409738811E+02  0.14614989103E+04  0.50400001928E-02 0. -1.
</event>
<event>
 5   0  0.8055928E-06  0.2980692E+04  0.7818609E-02  0.8249266E-01
       -1   -1    0    0    0  501  0.00000000000E+00  0.00000000000E+00  0.25072582488E+04  0.25072582488E+04  0.50400001928E-02 0. -1.
        1   -1    0    0  501    0  0.00000000000E+00  0.00000000000E+00 -0.88588033758E+03  0.88588033759E+03  0.50400001928E-02 0.  1.
    10030    2    1    2    0    0  0.00000000000E+00  0.00000000000E+00  0.16213779112E+04  0.33931385864E+04  0.29806917210E+04 0.  0.
        2    1    3    3  502    0  0.13272613375E+04  0.66969249923E+03  0.93019144615E+03  0.17536723833E+04  0.25500000920E-02 0. -1.
       -2    1    3    3    0  502 -0.13272613375E+04 -0.66969249923E+03  0.69118646507E+03  0.16394662031E+04  0.25500000920E-02 0.  1.
</event>
<event>
 5   0  0.1937947E-05  0.2873122E+04  0.7818609E-02  0.8280920E-01
       -2   -1    0    0    0  501  0.00000000000E+00  0.00000000000E+00  0.90963024777E+03  0.90963024777E+03  0.25500000920E-02 0. -1.
        2   -1    0    0  501    0  0.00000000000E+00  0.00000000000E+00 -0.22687324389E+04  0.22687324389E+04  0.25500000920E-02 0.  1.
    10030    2    1    2    0    0  0.00000000000E+00  0.00000000000E+00 -0.13591021911E+04  0.31783626867E+04  0.28731221001E+04 0.  0.
        3    1    3    3  502    0 -0.68230085941E+03 -0.69922078998E+03  0.48555835581E+03  0.10909679661E+04  0.10100000352E+00 0. -1.
       -3    1    3    3    0  502  0.68230085941E+03  0.69922078998E+03 -0.18446605469E+04  0.20873947206E+04  0.10100000352E+00 0.  1.
</event>
<event>
 5   0  0.8055928E-06  0.1781081E+04  0.7818609E-02  0.8716426E-01
       -1   -1    0    0    0  501  0.00000000000E+00  0.00000000000E+00  0.60070839325E+03  0.60070839327E+03  0.50400001928E-02 0.  1.
        1   -1    0    0  501    0  0.00000000000E+00  0.00000000000E+00 -0.13202112417E+04  0.13202112417E+04  0.50400001928E-02 0. -1.
    10030    2    1    2    0    0  0.00000000000E+00  0.00000000000E+00 -0.71950284848E+03  0.19209196350E+04  0.17810805415E+04 0.  0.
        2    1    3    3  502    0  0.13518161618E+03  0.22620750745E+03  0.55769420909E+03  0.61681985753E+03  0.25500000920E-02 0.  1.
       -2    1    3    3    0  502 -0.13518161618E+03 -0.22620750745E+03 -0.12771970576E+04  0.13040997775E+04  0.25500000920E-02 0. -1.
</event>
<event>
 5   0  0.1829810E-05  0.2875696E+04  0.7818609E-02  0.8280146E-01
       -2   -1    0    0    0  501  0.00000000000E+00  0.00000000000E+00  0.22129534507E+04  0.22129534507E+04  0.25500000920E-02 0.  1.
        2   -1    0    0  501    0  0.00000000000E+00  0.00000000000E+00 -0.93422971787E+03  0.93422971787E+03  0.25500000920E-02 0. -1.
    10030    2    1    2    0    0  0.00000000000E+00  0.00000000000E+00  0.12787237328E+04  0.31471831685E+04  0.28756960047E+04 0.  0.
        4    1    3    3  502    0  0.47318961492E+03  0.60350271298E+03 -0.69171897857E+03  0.10327636198E+04  0.12699999809E+01 0. -1.
       -4    1    3    3    0  502 -0.47318961492E+03 -0.60350271298E+03  0.19704427114E+04  0.21144195487E+04  0.12699999809E+01 0.  1.
</event>
<event>
 5   0  0.8234888E-06  0.2940036E+04  0.7818609E-02  0.8261064E-01
       -1   -1    0    0    0  501  0.00000000000E+00  0.00000000000E+00  0.96232806254E+03  0.96232806255E+03  0.50400001928E-02 0.  1.
        1   -1    0    0  501    0  0.00000000000E+00  0.00000000000E+00 -0.22455469176E+04  0.22455469176E+04  0.50400001928E-02 0. -1.
    10030    2    1    2    0    0  0.00000000000E+00  0.00000000000E+00 -0.12832188551E+04  0.32078749802E+04  0.29400359281E+04 0.  0.
        3    1    3    3  502    0  0.91798512566E+03  0.10376627532E+04 -0.10540022235E+03  0.13894422973E+04  0.10100000352E+00 0. -1.
       -3    1    3    3    0  502 -0.91798512566E+03 -0.10376627532E+04 -0.11778186327E+04  0.18184326829E+04  0.10100000352E+00 0.  1.
</event>
<event>
 5   0  0.8122088E-06  0.2850803E+04  0.7818609E-02  0.8287667E-01
        1   -1    0    0  501    0  0.00000000000E+00  0.00000000000E+00  0.10745838611E+04  0.10745838611E+04  0.50400001928E-02 0.  1.
       -1   -1    0    0    0  501  0.00000000000E+00  0.00000000000E+00 -0.18907504285E+04  0.18907504285E+04  0.50400001928E-02 0. -1.
    10030    2    1    2    0    0  0.00000000000E+00  0.00000000000E+00 -0.81616656739E+03  0.29653342896E+04  0.28508033225E+04 0.  0.
        1    1    3    3  502    0 -0.86143474069E+02  0.54198182882E+03 -0.17764590276E+04  0.18592933275E+04  0.50400001928E-02 0. -1.
       -1    1    3    3    0  502  0.86143474069E+02 -0.54198182882E+03  0.96029246018E+03  0.11060409622E+04  0.50400001928E-02 0.  1.
</event>
<event>
 5   0  0.1829810E-05  0.2918199E+04  0.7818609E-02  0.8267483E-01
        2   -1    0    0  501    0  0.00000000000E+00  0.00000000000E+00  0.20946203255E+04  0.20946203255E+04  0.25500000920E-02 0.  1.
       -2   -1    0    0    0  501  0.00000000000E+00  0.00000000000E+00 -0.10163993556E+04  0.10163993556E+04  0.25500000920E-02 0. -1.
    10030    2    1    2    0    0  0.00000000000E+00  0.00000000000E+00  0.10782209700E+04  0.31110196811E+04  0.29181985875E+04 0.  0.
        4    1    3    3  502    0  0.50516569867E+03  0.12953728965E+04  0.67396747725E+02  0.13920227220E+04  0.12699999809E+01 0. -1.
       -4    1    3    3    0  502 -0.50516569867E+03 -0.12953728965E+04  0.10108242223E+04  0.17189969591E+04  0.12699999809E+01 0.  1.
</event>
<event>
 5   0  0.1960961E-05  0.2981147E+04  0.7818609E-02  0.8249135E-01
        2   -1    0    0  501    0  0.00000000000E+00  0.00000000000E+00  0.20208237361E+04  0.20208237361E+04  0.25500000920E-02 0.  1.
       -2   -1    0    0    0  501  0.00000000000E+00  0.00000000000E+00 -0.10994570098E+04  0.10994570098E+04  0.25500000920E-02 0. -1.
    10030    2    1    2    0    0  0.00000000000E+00  0.00000000000E+00  0.92136672633E+03  0.31202807459E+04  0.29811466399E+04 0.  0.
        5    1    3    3  502    0 -0.45645364164E+03 -0.77604428864E+03 -0.78269525683E+03  0.11929914585E+04  0.46999998093E+01 0. -1.
       -5    1    3    3    0  502  0.45645364164E+03  0.77604428864E+03  0.17040619832E+04  0.19272892874E+04  0.46999998093E+01 0.  1.
</event>
<event>
 5   0  0.8055928E-06  0.2766639E+04  0.7818609E-02  0.8313701E-01
        1   -1    0    0  501    0  0.00000000000E+00  0.00000000000E+00  0.14593421586E+04  0.14593421586E+04  0.50400001928E-02 0. -1.
       -1   -1    0    0    0  501  0.00000000000E+00  0.00000000000E+00 -0.13112570670E+04  0.13112570670E+04  0.50400001928E-02 0.  1.
    10030    2    1    2    0    0  0.00000000000E+00  0.00000000000E+00  0.14808509155E+03  0.27705992256E+04  0.27666389130E+04 0.  0.
        2    1    3    3  502    0 -0.86387057729E+03 -0.88050415905E+03  0.70104802341E+03  0.14188122778E+04  0.25500000920E-02 0. -1.
       -2    1    3    3    0  502  0.86387057729E+03  0.88050415905E+03 -0.55296293186E+03  0.13517869479E+04  0.25500000920E-02 0.  1.
</event>
<event>
 5   0  0.8055928E-06  0.2941586E+04  0.7818609E-02  0.8260611E-01
       -1   -1    0    0    0  501  0.00000000000E+00  0.00000000000E+00  0.17571483887E+04  0.17571483887E+04  0.50400001928E-02 0.  1.
        1   -1    0    0  501    0  0.00000000000E+00  0.00000000000E+00 -0.12311035657E+04  0.12311035657E+04  0.50400001928E-02 0. -1.
    10030    2    1    2    0    0  0.00000000000E+00  0.00000000000E+00  0.52604482301E+03  0.29882519545E+04  0.29415857267E+04 0.  0.
        2    1    3    3  502    0 -0.11259360841E+04  0.54501299677E+03  0.10488973100E+04  0.16324695400E+04  0.25500000920E-02 0.  1.
       -2    1    3    3    0  502  0.11259360841E+04 -0.54501299677E+03 -0.52285248703E+03  0.13557824144E+04  0.25500000920E-02 0. -1.
</event>
<event>
 5   0  0.8122088E-06  0.2058626E+04  0.7818609E-02  0.8579691E-01
       -1   -1    0    0    0  501  0.00000000000E+00  0.00000000000E+00  0.83522338003E+03  0.83522338004E+03  0.50400001928E-02 0.  1.
        1   -1    0    0  501    0  0.00000000000E+00  0.00000000000E+00 -0.12685055193E+04  0.12685055193E+04  0.50400001928E-02 0. -1.
    10030    2    1    2    0    0  0.00000000000E+00  0.00000000000E+00 -0.43328213927E+03  0.21037288993E+04  0.20586262093E+04 0.  0.
        1    1    3    3  502    0 -0.27018005157E+03 -0.88193289372E+03  0.25018529136E+03  0.95571730618E+03  0.50400001928E-02 0.  1.
       -1    1    3    3    0  502  0.27018005157E+03  0.88193289372E+03 -0.68346743063E+03  0.11480115932E+04  0.50400001928E-02 0. -1.
</event>
<event>
 5   0  0.7971153E-06  0.3299725E+04  0.7818609E-02  0.8162965E-01
        1   -1    0    0  501    0  0.00000000000E+00  0.00000000000E+00  0.23335854795E+04  0.23335854796E+04  0.50400001928E-02 0. -1.
       -1   -1    0    0    0  501  0.00000000000E+00  0.00000000000E+00 -0.11664654435E+04  0.11664654435E+04  0.50400001928E-02 0.  1.
    10030    2    1    2    0    0  0.00000000000E+00  0.00000000000E+00  0.11671200360E+04  0.35000509231E+04  0.32997253349E+04 0.  0.
        5    1    3    3  502    0 -0.10831145316E+04 -0.40398352153E+03 -0.66505577280E+03  0.13336645174E+04  0.46999998093E+01 0.  1.
       -5    1    3    3    0  502  0.10831145316E+04  0.40398352153E+03  0.18321758088E+04  0.21663864057E+04  0.46999998093E+01 0. -1.
</event>
<event>
 5   0  0.8234888E-06  0.1504459E+04  0.7818609E-02  0.8881493E-01
        1   -1    0    0  501    0  0.00000000000E+00  0.00000000000E+00  0.11043375165E+04  0.11043375165E+04  0.50400001928E-02 0.  1.
       -1   -1    0    0    0  501  0.00000000000E+00  0.00000000000E+00 -0.51238775279E+03  0.51238775281E+03  0.50400001928E-02 0. -1.
    10030    2    1    2    0    0  0.00000000000E+00  0.00000000000E+00  0.59194976366E+03  0.16167252693E+04  0.15044587311E+04 0.  0.
        3    1    3    3  502    0 -0.14158114074E+03 -0.43865176689E+03  0.93480017370E+03  0.10422629068E+04  0.10100000352E+00 0.  1.
       -3    1    3    3    0  502  0.14158114074E+03  0.43865176689E+03 -0.34285041003E+03  0.57446236245E+03  0.10100000352E+00 0. -1.
</event>
<event>
 5   0  0.1918901E-05  0.2885409E+04  0.7818609E-02  0.8277232E-01
       -2   -1    0    0    0  501  0.00000000000E+00  0.00000000000E+00  0.86107844085E+03  0.86107844086E+03  0.25500000920E-02 0. -1.
        2   -1    0    0  501    0  0.00000000000E+00  0.00000000000E+00 -0.24171969707E+04  0.24171969707E+04  0.25500000920E-02 0.  1.
    10030    2    1    2    0    0  0.00000000000E+00  0.00000000000E+00 -0.15561185299E+04  0.32782754116E+04  0.28854089476E+04 0.  0.
        1    1    3    3  502    0  0.14183425414E+04  0.24339690209E+03 -0.66186773581E+03  0.15839843801E+04  0.50400001928E-02 0.  1.
       -1    1    3    3    0  502 -0.14183425414E+04 -0.24339690209E+03 -0.89425079405E+03  0.16942910315E+04  0.50400001928E-02 0. -1.
</event>
<event>
 5   0  0.7971153E-06  0.1441781E+04  0.7818609E-02  0.8924119E-01
        1   -1    0    0  501    0  0.00000000000E+00  0.00000000000E+00  0.15967463179E+04  0.15967463179E+04  0.50400001928E-02 0.  1.
       -1   -1    0    0    0  501  0.00000000000E+00  0.00000000000E+00 -0.32546372543E+03  0.32546372546E+03  0.50400001928E-02 0. -1.
    10030    2    1    2    0    0  0.00000000000E+00  0.00000000000E+00  0.12712825925E+04  0.19222100434E+04  0.14417808505E+04 0.  0.
        5    1    3    3  502    0  0.14532759901E+03 -0.59169903099E+03  0.11492908448E+04  0.13008148947E+04  0.46999998093E+01 0.  1.
       -5    1    3    3    0  502 -0.14532759901E+03  0.59169903099E+03  0.12199174769E+03  0.62139514869E+03  0.46999998093E+01 0. -1.
</event>
<event>
 5   0  0.8122088E-06  0.2896390E+04  0.7818609E-02  0.8273952E-01
        1   -1    0    0  501    0  0.00000000000E+00  0.00000000000E+00  0.21283555742E+04  0.21283555742E+04  0.50400001928E-02 0. -1.
       -1   -1    0    0    0  501  0.00000000000E+00  0.00000000000E+00 -0.98539383832E+03  0.98539383833E+03  0.50400001928E-02 0.  1.
    10030    2    1    2    0    0  0.00000000000E+00  0.00000000000E+00  0.11429617359E+04  0.31137494125E+04  0.28963898001E+04 0.  0.
        1    1    3    3  502    0  0.76914556835E+02 -0.81612907626E+03 -0.71196528125E+03  0.10857610602E+04  0.50400001928E-02 0.  1.
       -1    1    3    3    0  502 -0.76914556835E+02  0.81612907626E+03  0.18549270171E+04  0.20279883523E+04  0.50400001928E-02 0. -1.
</event>
<event>
 5   0  0.8122088E-06  0.2368868E+04  0.7818609E-02  0.8451252E-01
        1   -1    0    0  501    0  0.00000000000E+00  0.00000000000E+00  0.16084398103E+04  0.16084398103E+04  0.50400001928E-02 0.  1.
       -1   -1    0    0    0  501  0.00000000000E+00  0.00000000000E+00 -0.87220155746E+03  0.87220155747E+03  0.50400001928E-02 0. -1.
    10030    2    1    2    0    0  0.00000000000E+00  0.00000000000E+00  0.73623825280E+03  0.24806413677E+04  0.23688678373E+04 0.  0.
        1    1    3    3  502    0 -0.10526717548E+04 -0.47789335183E+03  0.98311452402E+02  0.11602435179E+04  0.50400001928E-02 0. -1.
       -1    1    3    3    0  502  0.10526717548E+04  0.47789335183E+03  0.63792680040E+03  0.13203978498E+04  0.50400001928E-02 0.  1.
</event>
<event>
 5   0  0.7305460E-06  0.2927905E+04  0.7818609E-02  0.8264623E-01
       -1   -1    0    0    0  501  0.00000000000E+00  0.00000000000E+00  0.86759172645E+03  0.86759172647E+03  0.50400001928E-02 0.  1.
        1   -1    0    0  501    0  0.00000000000E+00  0.00000000000E+00 -0.24702364257E+04  0.24702364257E+04  0.50400001928E-02 0. -1.
    10030    2    1    2    0    0  0.00000000000E+00  0.00000000000E+00 -0.16026446993E+04  0.33378281522E+04  0.29279048382E+04 0.  0.
        4    1    3    3  502    0  0.10876005371E+03 -0.32782516573E+03 -0.24231209672E+04  0.24476141287E+04  0.12699999809E+01 0. -1.
       -4    1    3    3    0  502 -0.10876005371E+03  0.32782516573E+03  0.82047626789E+03  0.89021402350E+03  0.12699999809E+01 0.  1.
</event>
<event>
 5   0  0.8234888E-06  0.2889865E+04  0.7818609E-02  0.8275899E-01
        1   -1    0    0  501    0  0.00000000000E+00  0.00000000000E+00  0.15724011559E+04  0.15724011559E+04  0.50400001928E-02 0.  1.
       -1   -1    0    0    0  501  0.00000000000E+00  0.00000000000E+00 -0.13277976408E+04  0.13277976408E+04  0.50400001928E-02 0. -1.
    10030    2    1    2    0    0  0.00000000000E+00  0.00000000000E+00  0.24460351510E+03  0.29001987967E+04  0.28898654261E+04 0.  0.
        3    1    3    3  502    0 -0.44981185995E+03  0.15027279940E+03 -0.12474662166E+04  0.13345728139E+04  0.10100000352E+00 0. -1.
       -3    1    3    3    0  502  0.44981185995E+03 -0.15027279940E+03  0.14920697317E+04  0.15656259829E+04  0.10100000352E+00 0.  1.
</event>
<event>
 5   0  0.1918901E-05  0.2950229E+04  0.7818609E-02  0.8258088E-01
        2   -1    0    0  501    0  0.00000000000E+00  0.00000000000E+00  0.18860950072E+04  0.18860950072E+04  0.25500000920E-02 0. -1.
       -2   -1    0    0    0  501  0.00000000000E+00  0.00000000000E+00 -0.11536869596E+04  0.11536869596E+04  0.25500000920E-02 0.  1.
    10030    2    1    2    0    0  0.00000000000E+00  0.00000000000E+00  0.73240804751E+03  0.30397819668E+04  0.29502292890E+04 0.  0.
        1    1    3    3  502    0 -0.79463313363E+03  0.43995631643E+03 -0.83138520979E+03  0.12313426593E+04  0.50400001928E-02 0.  1.
       -1    1    3    3    0  502  0.79463313363E+03 -0.43995631643E+03  0.15637932573E+04  0.18084393075E+04  0.50400001928E-02 0. -1.
</event>
<event>
 5   0  0.1937947E-05  0.2829437E+04  0.7818609E-02  0.8294187E-01
       -2   -1    0    0    0  501  0.00000000000E+00  0.00000000000E+00  0.94304481042E+03  0.94304481043E+03  0.25500000920E-02 0.  1.
        2   -1    0    0  501    0  0.00000000000E+00  0.00000000000E+00 -0.21223041101E+04  0.21223041101E+04  0.25500000920E-02 0. -1.
    10030    2    1    2    0    0  0.00000000000E+00  0.00000000000E+00 -0.11792592996E+04  0.30653489205E+04  0.28294366062E+04 0.  0.
        3    1    3    3  502    0 -0.14401765042E+03 -0.13543765074E+04 -0.17517417218E+03  0.13732307920E+04  0.10100000352E+00 0. -1.
       -3    1    3    3    0  502  0.14401765042E+03  0.13543765074E+04 -0.10040851275E+04  0.16921181285E+04  0.10100000352E+00 0.  1.
</event>
<event>
 5   0  0.8234888E-06  0.2514942E+04  0.7818609E-02  0.8397682E-01
        1   -1    0    0  501    0  0.00000000000E+00  0.00000000000E+00  0.15262724443E+04  0.15262724443E+04  0.50400001928E-02 0.  1.
       -1   -1    0    0    0  501  0.00000000000E+00  0.00000000000E+00 -0.10360097422E+04  0.10360097422E+04  0.50400001928E-02 0. -1.
    10030    2    1    2    0    0  0.00000000000E+00  0.00000000000E+00  0.49026270214E+03  0.25622821866E+04  0.25149418455E+04 0.  0.
        3    1    3    3  502    0 -0.24935739806E+03 -0.85404256632E+03 -0.66022704999E+03  0.11079113614E+04  0.10100000352E+00 0. -1.
       -3    1    3    3    0  502  0.24935739806E+03  0.85404256632E+03  0.11504897521E+04  0.14543708251E+04  0.10100000352E+00 0.  1.
</event>
<event>
 5   0  0.1960961E-05  0.1818095E+04  0.7818609E-02  0.8696736E-01
       -2   -1    0    0    0  501  0.00000000000E+00  0.00000000000E+00  0.62589300498E+03  0.62589300498E+03  0.25500000920E-02 0. -1.
        2   -1    0    0  501    0  0.00000000000E+00  0.00000000000E+00 -0.13203007378E+04  0.13203007378E+04  0.25500000920E-02 0.  1.
    10030    2    1    2    0    0  0.00000000000E+00  0.00000000000E+00 -0.69440773280E+03  0.19461937428E+04  0.18180946029E+04 0.  0.
        5    1    3    3  502    0 -0.31194642901E+03 -0.16985755687E+03  0.54852237051E+03  0.65349907815E+03  0.46999998093E+01 0. -1.
       -5    1    3    3    0  502  0.31194642901E+03  0.16985755687E+03 -0.12429301033E+04  0.12926946646E+04  0.46999998093E+01 0.  1.
</event>
<event>
 5   0  0.7305460E-06  0.1884829E+04  0.7818609E-02  0.8662445E-01
        1   -1    0    0  501    0  0.00000000000E+00  0.00000000000E+00  0.14533991334E+04  0.14533991334E+04  0.50400001928E-02 0. -1.
       -1   -1    0    0    0  501  0.00000000000E+00  0.00000000000E+00 -0.61108123651E+03  0.61108123653E+03  0.50400001928E-02 0.  1.
    10030    2    1    2    0    0  0.00000000000E+00  0.00000000000E+00  0.84231789688E+03  0.20644803699E+04  0.18848288406E+04 0.  0.
        4    1    3    3  502    0 -0.71215354985E+03  0.14158817741E+02  0.10970489227E+04  0.13080065376E+04  0.12699999809E+01 0. -1.
       -4    1    3    3    0  502  0.71215354985E+03 -0.14158817741E+02 -0.25473102578E+03  0.75647383238E+03  0.12699999809E+01 0.  1.
</event>
<event>
 5   0  0.8055928E-06  0.2903070E+04  0.7818609E-02  0.8271965E-01
        1   -1    0    0  501    0  0.00000000000E+00  0.00000000000E+00  0.95378032765E+03  0.95378032766E+03  0.50400001928E-02 0. -1.
       -1   -1    0    0    0  501  0.00000000000E+00  0.00000000000E+00 -0.22090556465E+04  0.22090556465E+04  0.50400001928E-02 0.  1.
    10030    2    1    2    0    0  0.00000000000E+00  0.00000000000E+00 -0.12552753188E+04  0.31628359741E+04  0.29030699739E+04 0.  0.
        2    1    3    3  502    0  0.13012825236E+04  0.50303412667E+03 -0.19106437427E+03  0.14081495425E+04  0.25500000920E-02 0.  1.
       -2    1    3    3    0  502 -0.13012825236E+04 -0.50303412667E+03 -0.10642109445E+04  0.17546864316E+04  0.25500000920E-02 0. -1.
</event>
<event>
 5   0  0.8122088E-06  0.2895511E+04  0.7818609E-02  0.8274214E-01
        1   -1    0    0  501    0  0.00000000000E+00  0.00000000000E+00  0.20581264327E+04  0.20581264327E+04  0.50400001928E-02 0.  1.
       -1   -1    0    0    0  501  0.00000000000E+00  0.00000000000E+00 -0.10184003265E+04  0.10184003265E+04  0.50400001928E-02 0. -1.
    10030    2    1    2    0    0  0.00000000000E+00  0.00000000000E+00  0.10397261062E+04  0.30765267592E+04  0.28955114443E+04 0.  0.
        1    1    3    3  502    0 -0.14376953484E+04  0.39961523406E+01  0.70084274167E+03  0.15994262823E+04  0.50400001928E-02 0.  1.
       -1    1    3    3    0  502  0.14376953484E+04 -0.39961523406E+01  0.33888336450E+03  0.14771004769E+04  0.50400001928E-02 0. -1.
</event>
<event>
 5   0  0.7971153E-06  0.2911849E+04  0.7818609E-02  0.8269361E-01
        1   -1    0    0  501    0  0.00000000000E+00  0.00000000000E+00  0.23044463611E+04  0.23044463611E+04  0.50400001928E-02 0. -1.
       -1   -1    0    0    0  501  0.00000000000E+00  0.00000000000E+00 -0.91983764459E+03  0.91983764460E+03  0.50400001928E-02 0.  1.
    10030    2    1    2    0    0  0.00000000000E+00  0.00000000000E+00  0.13846087165E+04  0.32242840057E+04  0.29118492495E+04 0.  0.
        5    1    3    3  502    0  0.60235712995E+03 -0.10342759124E+04 -0.22557374522E+03  0.12179763461E+04  0.46999998093E+01 0.  1.
       -5    1    3    3    0  502 -0.60235712995E+03  0.10342759124E+04  0.16101824617E+04  0.20063076596E+04  0.46999998093E+01 0. -1.
</event>
<event>
 5   0  0.1960961E-05  0.2742273E+04  0.7818609E-02  0.8321418E-01
       -2   -1    0    0    0  501  0.00000000000E+00  0.00000000000E+00  0.74471557969E+03  0.74471557970E+03  0.25500000920E-02 0.  1.
        2   -1    0    0  501    0  0.00000000000E+00  0.00000000000E+00 -0.25244745541E+04  0.25244745541E+04  0.25500000920E-02 0. -1.
    10030    2    1    2    0    0  0.00000000000E+00  0.00000000000E+00 -0.17797589744E+04  0.32691901338E+04  0.27422731673E+04 0.  0.
        5    1    3    3  502    0  0.66130668085E+03  0.39348343561E+03 -0.22427618429E+04  0.23711091317E+04  0.46999998093E+01 0. -1.
       -5    1    3    3    0  502 -0.66130668085E+03 -0.39348343561E+03  0.46300286847E+03  0.89808100217E+03  0.46999998093E+01 0.  1.
</event>
<event>
 5   0  0.1829810E-05  0.2800921E+04  0.7818609E-02  0.8302982E-01
       -2   -1    0    0    0  501  0.00000000000E+00  0.00000000000E+00  0.10295586629E+04  0.10295586629E+04  0.25500000920E-02 0.  1.
        2   -1    0    0  501    0  0.00000000000E+00  0.00000000000E+00 -0.19049811757E+04  0.19049811757E+04  0.25500000920E-02 0. -1.
    10030    2    1    2    0    0  0.00000000000E+00  0.00000000000E+00 -0.87542251288E+03  0.29345398386E+04  0.28009211857E+04 0.  0.
        4    1    3    3  502    0 -0.11186678462E+04  0.79792421911E+03 -0.15427367852E+03  0.13827157301E+04  0.12699999809E+01 0. -1.
       -4    1    3    3    0  502  0.11186678462E+04 -0.79792421911E+03 -0.72114883436E+03  0.15518241085E+04  0.12699999809E+01 0.  1.
</event>
<event>
 5   0  0.7971153E-06  0.2769989E+04  0.7818609E-02  0.8312647E-01
        1   -1    0    0  501    0  0.00000000000E+00  0.00000000000E+00  0.16620885450E+04  0.16620885450E+04  0.50400001928E-02 0.  1.
       -1   -1    0    0    0  501  0.00000000000E+00  0.00000000000E+00 -0.11540956832E+04  0.11540956832E+04  0.50400001928E-02 0. -1.
    10030    2    1    2    0    0  0.00000000000E+00  0.00000000000E+00  0.50799286179E+03  0.28161842282E+04  0.27699886028E+04 0.  0.
        5    1    3    3  502    0 -0.98461747147E+03  0.96485611406E+03  0.11847584431E+03  0.13836464511E+04  0.46999998093E+01 0. -1.
       -5    1    3    3    0  502  0.98461747147E+03 -0.96485611406E+03  0.38951701748E+03  0.14325377771E+04  0.46999998093E+01 0.  1.
</event>
<event>
 5   0  0.6578125E-06  0.2657925E+04  0.7818609E-02  0.8348787E-01
       -3   -1    0    0    0  501  0.00000000000E+00  0.00000000000E+00  0.15234048909E+04  0.15234048942E+04  0.10100000352E+00 0.  1.
        3   -1    0    0  501    0  0.00000000000E+00  0.00000000000E+00 -0.11593381544E+04  0.11593381588E+04  0.10100000352E+00 0. -1.
    10030    2    1    2    0    0  0.00000000000E+00  0.00000000000E+00  0.36406673653E+03  0.26827430530E+04  0.26579250742E+04 0.  0.
        5    1    3    3  502    0  0.45379301353E+01  0.11892441914E+04 -0.41662961792E+03  0.12601288300E+04  0.46999998093E+01 0. -1.
       -5    1    3    3    0  502 -0.45379301353E+01 -0.11892441914E+04  0.78069635446E+03  0.14226142230E+04  0.46999998093E+01 0.  1.
</event>
<event>
 5   0  0.1918901E-05  0.2850654E+04  0.7818609E-02  0.8287713E-01
        2   -1    0    0  501    0  0.00000000000E+00  0.00000000000E+00  0.16161423789E+04  0.16161423789E+04  0.25500000920E-02 0. -1.
       -2   -1    0    0    0  501  0.00000000000E+00  0.00000000000E+00 -0.12570410529E+04  0.12570410529E+04  0.25500000920E-02 0.  1.
    10030    2    1    2    0    0  0.00000000000E+00  0.00000000000E+00  0.35910132598E+03  0.28731834318E+04  0.28506541829E+04 0.  0.
        1    1    3    3  502    0 -0.98085537278E+03  0.10331987950E+04  0.22440298199E+03  0.14421975283E+04  0.50400001928E-02 0. -1.
       -1    1    3    3    0  502  0.98085537278E+03 -0.10331987950E+04  0.13469834400E+03  0.14309859036E+04  0.50400001928E-02 0.  1.
</event>
<event>
 5   0  0.1829810E-05  0.2778027E+04  0.7818609E-02  0.8310123E-01
       -2   -1    0    0    0  501  0.00000000000E+00  0.00000000000E+00  0.23758192318E+04  0.23758192318E+04  0.25500000920E-02 0.  1.
        2   -1    0    0  501    0  0.00000000000E+00  0.00000000000E+00 -0.81208127752E+03  0.81208127753E+03  0.25500000920E-02 0. -1.
    10030    2    1    2    0    0  0.00000000000E+00  0.00000000000E+00  0.15637379543E+04  0.31879005094E+04  0.27780268659E+04 0.  0.
        4    1    3    3  502    0 -0.84775852511E+03  0.81644620654E+03  0.16283141102E+04  0.20091509100E+04  0.12699999809E+01 0.  1.
       -4    1    3    3    0  502  0.84775852511E+03 -0.81644620654E+03 -0.64576155858E+02  0.11787495993E+04  0.12699999809E+01 0. -1.
</event>
<event>
 5   0  0.1829810E-05  0.2896681E+04  0.7818609E-02  0.8273866E-01
       -2   -1    0    0    0  501  0.00000000000E+00  0.00000000000E+00  0.15808312883E+04  0.15808312883E+04  0.25500000920E-02 0.  1.
        2   -1    0    0  501    0  0.00000000000E+00  0.00000000000E+00 -0.13269540981E+04  0.13269540981E+04  0.25500000920E-02 0. -1.
    10030    2    1    2    0    0  0.00000000000E+00  0.00000000000E+00  0.25387719025E+03  0.29077853864E+04  0.28966812434E+04 0.  0.
        4    1    3    3  502    0 -0.35016678702E+03  0.65252206452E+03  0.13764136716E+04  0.15629836953E+04  0.12699999809E+01 0.  1.
       -4    1    3    3    0  502  0.35016678702E+03 -0.65252206452E+03 -0.11225364814E+04  0.13448016911E+04  0.12699999809E+01 0. -1.
</event>
<event>
 5   0  0.7305460E-06  0.2942839E+04  0.7818609E-02  0.8260245E-01
       -1   -1    0    0    0  501  0.00000000000E+00  0.00000000000E+00  0.22813648441E+04  0.22813648441E+04  0.50400001928E-02 0. -1.
        1   -1    0    0  501    0  0.00000000000E+00  0.00000000000E+00 -0.94902617065E+03  0.94902617066E+03  0.50400001928E-02 0.  1.
    10030    2    1    2    0    0  0.00000000000E+00  0.00000000000E+00  0.13323386735E+04  0.32303910148E+04  0.29428387261E+04 0.  0.
        4    1    3    3  502    0  0.14449023185E+04 -0.11623958596E+03  0.38886060011E+03  0.15008226180E+04  0.12699999809E+01 0.  1.
       -4    1    3    3    0  502 -0.14449023185E+04  0.11623958596E+03  0.94347807336E+03  0.17295683968E+04  0.12699999809E+01 0. -1.
</event>
<event>
 5   0  0.8234888E-06  0.1955244E+04  0.7818609E-02  0.8627836E-01
        1   -1    0    0  501    0  0.00000000000E+00  0.00000000000E+00  0.72349996178E+03  0.72349996179E+03  0.50400001928E-02 0.  1.
       -1   -1    0    0    0  501  0.00000000000E+00  0.00000000000E+00 -0.13210018663E+04  0.13210018663E+04  0.50400001928E-02 0. -1.
    10030    2    1    2    0    0  0.00000000000E+00  0.00000000000E+00 -0.59750190454E+03  0.20445018281E+04  0.19552440255E+04 0.  0.
        3    1    3    3  502    0  0.46111625707E+03  0.36451758810E+02 -0.11993394489E+04  0.12854462483E+04  0.10100000352E+00 0. -1.
       -3    1    3    3    0  502 -0.46111625707E+03 -0.36451758810E+02  0.60183754439E+03  0.75905557984E+03  0.10100000352E+00 0.  1.
</event>
<event>
 5   0  0.8234888E-06  0.1516970E+04  0.7818609E-02  0.8873246E-01
        1   -1    0    0  501    0  0.00000000000E+00  0.00000000000E+00  0.40551914073E+03  0.40551914076E+03  0.50400001928E-02 0. -1.
       -1   -1    0    0    0  501  0.00000000000E+00  0.00000000000E+00 -0.14186749311E+04  0.14186749311E+04  0.50400001928E-02 0.  1.
    10030    2    1    2    0    0  0.00000000000E+00  0.00000000000E+00 -0.10131557904E+04  0.18241940719E+04  0.15169704533E+04 0.  0.
        3    1    3    3  502    0 -0.50783766157E+03  0.35441107620E+03  0.20058526807E+02  0.61960362825E+03  0.10100000352E+00 0. -1.
       -3    1    3    3    0  502  0.50783766157E+03 -0.35441107620E+03 -0.10332143172E+04  0.12045904436E+04  0.10100000352E+00 0.  1.
</event>
<event>
 5   0  0.1829810E-05  0.1759123E+04  0.7818609E-02  0.8728345E-01
       -2   -1    0    0    0  501  0.00000000000E+00  0.00000000000E+00  0.91764168581E+03  0.91764168581E+03  0.25500000920E-02 0.  1.
        2   -1    0    0  501    0  0.00000000000E+00  0.00000000000E+00 -0.84306108576E+03  0.84306108577E+03  0.25500000920E-02 0. -1.
    10030    2    1    2    0    0  0.00000000000E+00  0.00000000000E+00  0.74580600044E+02  0.17607027716E+04  0.17591225040E+04 0.  0.
        4    1    3    3  502    0  0.63827186489E+03  0.12097635808E+03 -0.55620116414E+03  0.85521202085E+03  0.12699999809E+01 0. -1.
       -4    1    3    3    0  502 -0.63827186489E+03 -0.12097635808E+03  0.63078176418E+03  0.90549075072E+03  0.12699999809E+01 0.  1.
</event>
<event>
 5   0  0.7305460E-06  0.2885493E+04  0.7818609E-02  0.8277207E-01
       -1   -1    0    0    0  501  0.00000000000E+00  0.00000000000E+00  0.16286518564E+04  0.16286518564E+04  0.50400001928E-02 0.  1.
        1   -1    0    0  501    0  0.00000000000E+00  0.00000000000E+00 -0.12780620665E+04  0.12780620665E+04  0.50400001928E-02 0. -1.
    10030    2    1    2    0    0  0.00000000000E+00  0.00000000000E+00  0.35058978991E+03  0.29067139229E+04  0.28854934810E+04 0.  0.
        4    1    3    3  502    0 -0.86424669860E+03 -0.24978217578E+03  0.13115096116E+04  0.15904001275E+04  0.12699999809E+01 0.  1.
       -4    1    3    3    0  502  0.86424669860E+03  0.24978217578E+03 -0.96091982166E+03  0.13163137954E+04  0.12699999809E+01 0. -1.
</event>
<event>
 5   0  0.1918901E-05  0.2181750E+04  0.7818609E-02  0.8526063E-01
        2   -1    0    0  501    0  0.00000000000E+00  0.00000000000E+00  0.12853434554E+04  0.12853434554E+04  0.25500000920E-02 0. -1.
       -2   -1    0    0    0  501  0.00000000000E+00  0.00000000000E+00 -0.92582909800E+03  0.92582909801E+03  0.25500000920E-02 0.  1.
    10030    2    1    2    0    0  0.00000000000E+00  0.00000000000E+00  0.35951435736E+03  0.22111725534E+04  0.21817500974E+04 0.  0.
        1    1    3    3  502    0  0.10883245436E+04 -0.66856337076E+02  0.14632305544E+03  0.11001502254E+04  0.50400001928E-02 0. -1.
       -1    1    3    3    0  502 -0.10883245436E+04  0.66856337076E+02  0.21319130193E+03  0.11110223279E+04  0.50400001928E-02 0.  1.
</event>
<event>
 5   0  0.7971153E-06  0.2884989E+04  0.7818609E-02  0.8277358E-01
        1   -1    0    0  501    0  0.00000000000E+00  0.00000000000E+00  0.21666500641E+04  0.21666500641E+04  0.50400001928E-02 0.  1.
       -1   -1    0    0    0  501  0.00000000000E+00  0.00000000000E+00 -0.96037210018E+03  0.96037210019E+03  0.50400001928E-02 0. -1.
    10030    2    1    2    0    0  0.00000000000E+00  0.00000000000E+00  0.12062779639E+04  0.31270221643E+04  0.28849889237E+04 0.  0.
        5    1    3    3  502    0  0.13441955573E+04  0.51824786830E+03  0.52403971972E+03  0.15329978040E+04  0.46999998093E+01 0. -1.
       -5    1    3    3    0  502 -0.13441955573E+04 -0.51824786830E+03  0.68223824420E+03  0.15940243603E+04  0.46999998093E+01 0.  1.
</event>
<event>
 5   0  0.1937947E-05  0.2272013E+04  0.7818609E-02  0.8489039E-01
        2   -1    0    0  501    0  0.00000000000E+00  0.00000000000E+00  0.15797512455E+04  0.15797512455E+04  0.25500000920E-02 0. -1.
       -2   -1    0    0    0  501  0.00000000000E+00  0.00000000000E+00 -0.81690739736E+03  0.81690739737E+03  0.25500000920E-02 0.  1.
    10030    2    1    2    0    0  0.00000000000E+00  0.00000000000E+00  0.76284384816E+03  0.23966586429E+04  0.22720127451E+04 0.  0.
        3    1    3    3  502    0  0.53040811139E+03 -0.82380329904E+03 -0.22503243138E+03  0.10052980879E+04  0.10100000352E+00 0. -1.
       -3    1    3    3    0  502 -0.53040811139E+03  0.82380329904E+03  0.98787627954E+03  0.13913605550E+04  0.10100000352E+00 0.  1.
</event>
<event>
 5   0  0.1918901E-05  0.2934217E+04  0.7818609E-02  0.8262769E-01
       -2   -1    0    0    0  501  0.00000000000E+00  0.00000000000E+00  0.12589594435E+04  0.12589594435E+04  0.25500000920E-02 0. -1.
        2   -1    0    0  501    0  0.00000000000E+00  0.00000000000E+00 -0.17096721286E+04  0.17096721286E+04  0.25500000920E-02 0.  1.
    10030    2    1    2    0    0  0.00000000000E+00  0.00000000000E+00 -0.45071268512E+03  0.29686315721E+04  0.29342173550E+04 0.  0.
        1    1    3    3  502    0 -0.95480236716E+03  0.95283009849E+03  0.35836380694E+03  0.13956924357E+04  0.50400001928E-02 0.  1.
       -1    1    3    3    0  502  0.95480236716E+03 -0.95283009849E+03 -0.80907649206E+03  0.15729391364E+04  0.50400001928E-02 0. -1.
</event>
<event>
 5   0  0.7971153E-06  0.2446488E+04  0.7818609E-02  0.8422301E-01
        1   -1    0    0  501    0  0.00000000000E+00  0.00000000000E+00  0.11428262692E+04  0.11428262692E+04  0.50400001928E-02 0. -1.
       -1   -1    0    0    0  501  0.00000000000E+00  0.00000000000E+00 -0.13093208453E+04  0.13093208453E+04  0.50400001928E-02 0.  1.
    10030    2    1    2    0    0  0.00000000000E+00  0.00000000000E+00 -0.16649457605E+03  0.24521471145E+04  0.24464883052E+04 0.  0.
        5    1    3    3  502    0 -0.75013884846E+03 -0.65563574961E+03  0.62813914550E+03  0.11777722209E+04  0.46999998093E+01 0. -1.
       -5    1    3    3    0  502  0.75013884846E+03  0.65563574961E+03 -0.79463372155E+03  0.12743748936E+04  0.46999998093E+01 0.  1.
</event>
<event>
 5   0  0.8055928E-06  0.2891129E+04  0.7818609E-02  0.8275522E-01
        1   -1    0    0  501    0  0.00000000000E+00  0.00000000000E+00  0.25207210842E+04  0.25207210842E+04  0.50400001928E-02 0.  1.
       -1   -1    0    0    0  501  0.00000000000E+00  0.00000000000E+00 -0.82899174197E+03  0.82899174198E+03  0.50400001928E-02 0. -1.
    10030    2    1    2    0    0  0.00000000000E+00  0.00000000000E+00  0.16917293422E+04  0.33497128262E+04  0.28911291653E+04 0.  0.
        2    1    3    3  502    0  0.18148926377E+03  0.14006218050E+04  0.12029316524E+04  0.18551884955E+04  0.25500000920E-02 0.  1.
       -2    1    3    3    0  502 -0.18148926377E+03 -0.14006218050E+04  0.48879768989E+03  0.14945243307E+04  0.25500000920E-02 0. -1.
</event>
<event>
 5   0  0.1976233E-05  0.3135040E+04  0.7818609E-02  0.8206187E-01
        2   -1    0    0  501    0  0.00000000000E+00  0.00000000000E+00  0.21585464665E+04  0.21585464665E+04  0.25500000920E-02 0. -1.
       -2   -1    0    0    0  501  0.00000000000E+00  0.00000000000E+00 -0.11383208542E+04  0.11383208542E+04  0.25500000920E-02 0.  1.
    10030    2    1    2    0    0  0.00000000000E+00  0.00000000000E+00  0.10202256122E+04  0.32968673207E+04  0.31350396856E+04 0.  0.
        2    1    3    3  502    0  0.64158001947E+03  0.13333473694E+04 -0.33970039067E+02  0.14800655703E+04  0.25500000920E-02 0.  1.
       -2    1    3    3    0  502 -0.64158001947E+03 -0.13333473694E+04  0.10541956513E+04  0.18168017504E+04  0.25500000920E-02 0. -1.
</event>
<event>
 5   0  0.1976233E-05  0.2936835E+04  0.7818609E-02  0.8262001E-01
        2   -1    0    0  501    0  0.00000000000E+00  0.00000000000E+00  0.17937545712E+04  0.17937545712E+04  0.25500000920E-02 0.  1.
       -2   -1    0    0    0  501  0.00000000000E+00  0.00000000000E+00 -0.12020877960E+04  0.12020877960E+04  0.25500000920E-02 0. -1.
    10030    2    1    2    0    0  0.00000000000E+00  0.00000000000E+00  0.59166677516E+03  0.29958423672E+04  0.29368353574E+04 0.  0.
        2    1    3    3  502    0  0.13029305542E+04  0.20306150035E+03  0.95487006596E+03  0.16280782675E+04  0.25500000920E-02 0.  1.
       -2    1    3    3    0  502 -0.13029305542E+04 -0.20306150035E+03 -0.36320329080E+03  0.13677640997E+04  0.25500000920E-02 0. -1.
</event>
<event>
 5   0  0.8234888E-06  0.2875660E+04  0.7818609E-02  0.8280156E-01
       -1   -1    0    0    0  501  0.00000000000E+00  0.00000000000E+00  0.14964170697E+04  0.14964170697E+04  0.50400001928E-02 0.  1.
        1   -1    0    0  501    0  0.00000000000E+00  0.00000000000E+00 -0.13815363480E+04  0.13815363480E+04  0.50400001928E-02 0. -1.
    10030    2    1    2    0    0  0.00000000000E+00  0.00000000000E+00  0.11488072173E+03  0.28779534177E+04  0.28756596276E+04 0.  0.
        3    1    3    3  502    0  0.38906836188E+02  0.36878457897E+03 -0.13328540980E+04  0.13834796220E+04  0.10100000352E+00 0. -1.
       -3    1    3    3    0  502 -0.38906836188E+02 -0.36878457897E+03  0.14477348197E+04  0.14944737957E+04  0.10100000352E+00 0.  1.
</event>
<event>
 5   0  0.8055928E-06  0.2578890E+04  0.7818609E-02  0.8375407E-01
       -1   -1    0    0    0  501  0.00000000000E+00  0.00000000000E+00  0.11886813704E+04  0.11886813704E+04  0.50400001928E-02 0. -1.
        1   -1    0    0  501    0  0.00000000000E+00  0.00000000000E+00 -0.13987502897E+04  0.13987502897E+04  0.50400001928E-02 0.  1.
    10030    2    1    2    0    0  0.00000000000E+00  0.00000000000E+00 -0.21006891934E+03  0.25874316601E+04  0.25788900025E+04 0.  0.
        2    1    3    3  502    0 -0.75843123462E+02 -0.12202891445E+04 -0.51603823453E+03  0.13270844868E+04  0.25500000920E-02 0.  1.
       -2    1    3    3    0  502  0.75843123462E+02  0.12202891445E+04  0.30596931519E+03  0.12603471733E+04  0.25500000920E-02 0. -1.
</event>
<event>
 5   0  0.1918901E-05  0.2877935E+04  0.7818609E-02  0.8279473E-01
        2   -1    0    0  501    0  0.00000000000E+00  0.00000000000E+00  0.15100609783E+04  0.15100609783E+04  0.25500000920E-02 0.  1.
       -2   -1    0    0    0  501  0.00000000000E+00  0.00000000000E+00 -0.13712210148E+04  0.13712210148E+04  0.25500000920E-02 0. -1.
    10030    2    1    2    0    0  0.00000000000E+00  0.00000000000E+00  0.13883996353E+03  0.28812819931E+04  0.28779349173E+04 0.  0.
        1    1    3    3  502    0 -0.13907525081E+03  0.96498430873E+03 -0.99015426327E+03  0.13895834292E+04  0.50400001928E-02 0. -1.
       -1    1    3    3    0  502  0.13907525081E+03 -0.96498430873E+03  0.11289942268E+04  0.14916985639E+04  0.50400001928E-02 0.  1.
</event>
<event>
 5   0  0.7305460E-06  0.2958363E+04  0.7818609E-02  0.8255722E-01
       -1   -1    0    0    0  501  0.00000000000E+00  0.00000000000E+00  0.18274261290E+04  0.18274261290E+04  0.50400001928E-02 0. -1.
        1   -1    0    0  501    0  0.00000000000E+00  0.00000000000E+00 -0.11973001753E+04  0.11973001753E+04  0.50400001928E-02 0.  1.
    10030    2    1    2    0    0  0.00000000000E+00  0.00000000000E+00  0.63012595374E+03  0.30247263043E+04  0.29583628071E+04 0.  0.
        4    1    3    3  502    0  0.10971699942E+04  0.67872150920E+03 -0.42472267501E+03  0.13582473438E+04  0.12699999809E+01 0. -1.
       -4    1    3    3    0  502 -0.10971699942E+04 -0.67872150920E+03  0.10548486287E+04  0.16664789605E+04  0.12699999809E+01 0.  1.
</event>
<event>
 5   0  0.1918901E-05  0.2908487E+04  0.7818609E-02  0.8270357E-01
        2   -1    0    0  501    0  0.00000000000E+00  0.00000000000E+00  0.13740730757E+04  0.13740730757E+04  0.25500000920E-02 0. -1.
       -2   -1    0    0    0  501  0.00000000000E+00  0.00000000000E+00 -0.15390916863E+04  0.15390916863E+04  0.25500000920E-02 0.  1.
    10030    2    1    2    0    0  0.00000000000E+00  0.00000000000E+00 -0.16501861063E+03  0.29131647620E+04  0.29084871994E+04 0.  0.
        1    1    3    3  502    0 -0.39666401908E+03  0.12969738284E+04  0.44306403468E+03  0.14268108475E+04  0.50400001928E-02 0. -1.
       -1    1    3    3    0  502  0.39666401908E+03 -0.12969738284E+04 -0.60808264531E+03  0.14863539145E+04  0.50400001928E-02 0.  1.
</event>
<event>
 5   0  0.8122088E-06  0.2086123E+04  0.7818609E-02  0.8567381E-01
       -1   -1    0    0    0  501  0.00000000000E+00  0.00000000000E+00  0.52191800608E+03  0.52191800611E+03  0.50400001928E-02 0.  1.
        1   -1    0    0  501    0  0.00000000000E+00  0.00000000000E+00 -0.20845749437E+04  0.20845749437E+04  0.50400001928E-02 0. -1.
    10030    2    1    2    0    0  0.00000000000E+00  0.00000000000E+00 -0.15626569376E+04  0.26064929498E+04  0.20861229093E+04 0.  0.
        1    1    3    3  502    0 -0.66969827631E+03 -0.21314399706E+03  0.18167654288E+03  0.72590117168E+03  0.50400001928E-02 0.  1.
       -1    1    3    3    0  502  0.66969827631E+03  0.21314399706E+03 -0.17443334805E+04  0.18805917782E+04  0.50400001928E-02 0. -1.
</event>
<event>
 5   0  0.1829810E-05  0.3108856E+04  0.7818609E-02  0.8213312E-01
       -2   -1    0    0    0  501  0.00000000000E+00  0.00000000000E+00  0.14859923667E+04  0.14859923667E+04  0.25500000920E-02 0. -1.
        2   -1    0    0  501    0  0.00000000000E+00  0.00000000000E+00 -0.16260157902E+04  0.16260157902E+04  0.25500000920E-02 0.  1.
    10030    2    1    2    0    0  0.00000000000E+00  0.00000000000E+00 -0.14002342346E+03  0.31120081569E+04  0.31088564151E+04 0.  0.
        4    1    3    3  502    0 -0.15512910175E+04  0.36423119644E+02  0.21814458816E+02  0.15518724008E+04  0.12699999809E+01 0.  1.
       -4    1    3    3    0  502  0.15512910175E+04 -0.36423119644E+02 -0.16183788228E+03  0.15601357562E+04  0.12699999809E+01 0. -1.
</event>
<event>
 5   0  0.6578125E-06  0.2566332E+04  0.7818609E-02  0.8379728E-01
        3   -1    0    0  501    0  0.00000000000E+00  0.00000000000E+00  0.26674861542E+04  0.26674861561E+04  0.10100000352E+00 0.  1.
       -3   -1    0    0    0  501  0.00000000000E+00  0.00000000000E+00 -0.61725332251E+03  0.61725333077E+03  0.10100000352E+00 0. -1.
    10030    2    1    2    0    0  0.00000000000E+00  0.00000000000E+00  0.20502328317E+04  0.32847394869E+04  0.25663317853E+04 0.  0.
        3    1    3    3  502    0  0.21058628787E+03 -0.51842238632E+03  0.25030992386E+04  0.25648809258E+04  0.10100000352E+00 0.  1.
       -3    1    3    3    0  502 -0.21058628787E+03  0.51842238632E+03 -0.45286640687E+03  0.71985856107E+03  0.10100000352E+00 0. -1.
</event>
<event>
 5   0  0.1937947E-05  0.2946374E+04  0.7818609E-02  0.8259212E-01
       -2   -1    0    0    0  501  0.00000000000E+00  0.00000000000E+00  0.10239110851E+04  0.10239110851E+04  0.25500000920E-02 0. -1.
        2   -1    0    0  501    0  0.00000000000E+00  0.00000000000E+00 -0.21195987123E+04  0.21195987123E+04  0.25500000920E-02 0.  1.
    10030    2    1    2    0    0  0.00000000000E+00  0.00000000000E+00 -0.10956876273E+04  0.31435097974E+04  0.29463744619E+04 0.  0.
        3    1    3    3  502    0  0.74334860038E+03  0.10454207264E+04 -0.13207512781E+04  0.18411560460E+04  0.10100000352E+00 0.  1.
       -3    1    3    3    0  502 -0.74334860038E+03 -0.10454207264E+04  0.22506365085E+03  0.13023537515E+04  0.10100000352E+00 0. -1.
</event>
<event>
 5   0  0.1976233E-05  0.2936945E+04  0.7818609E-02  0.8261969E-01
        2   -1    0    0  501    0  0.00000000000E+00  0.00000000000E+00  0.18456104264E+04  0.18456104264E+04  0.25500000920E-02 0. -1.
       -2   -1    0    0    0  501  0.00000000000E+00  0.00000000000E+00 -0.11683998382E+04  0.11683998382E+04  0.25500000920E-02 0.  1.
    10030    2    1    2    0    0  0.00000000000E+00  0.00000000000E+00  0.67721058826E+03  0.30140102646E+04  0.29369446188E+04 0.  0.
        2    1    3    3  502    0  0.87394788180E+02 -0.14635935368E+04  0.25481083794E+03  0.14881775610E+04  0.25500000920E-02 0.  1.
       -2    1    3    3    0  502 -0.87394788180E+02  0.14635935368E+04  0.42239975032E+03  0.15258327035E+04  0.25500000920E-02 0. -1.
</event>
<event>
 5   0  0.1918901E-05  0.2947644E+04  0.7818609E-02  0.8258842E-01
       -2   -1    0    0    0  501  0.00000000000E+00  0.00000000000E+00  0.84669932099E+03  0.84669932099E+03  0.25500000920E-02 0. -1.
        2   -1    0    0  501    0  0.00000000000E+00  0.00000000000E+00 -0.25654334000E+04  0.25654334000E+04  0.25500000920E-02 0.  1.
    10030    2    1    2    0    0  0.00000000000E+00  0.00000000000E+00 -0.17187340790E+04  0.34121327210E+04  0.29476436133E+04 0.  0.
        1    1    3    3  502    0 -0.14165729904E+04  0.22817007072E+03 -0.12491984304E+04  0.19024293251E+04  0.50400001928E-02 0. -1.
       -1    1    3    3    0  502  0.14165729904E+04 -0.22817007072E+03 -0.46953564858E+03  0.15097033959E+04  0.50400001928E-02 0.  1.
</event>
<event>
 5   0  0.8055928E-06  0.2833030E+04  0.7818609E-02  0.8293087E-01
       -1   -1    0    0    0  501  0.00000000000E+00  0.00000000000E+00  0.28159967194E+04  0.28159967194E+04  0.50400001928E-02 0. -1.
        1   -1    0    0  501    0  0.00000000000E+00  0.00000000000E+00 -0.71254149281E+03  0.71254149283E+03  0.50400001928E-02 0.  1.
    10030    2    1    2    0    0  0.00000000000E+00  0.00000000000E+00  0.21034552266E+04  0.35285382123E+04  0.28330298313E+04 0.  0.
        2    1    3    3  502    0 -0.52596706963E+03 -0.90339235939E+03  0.22423078085E+04  0.24740055419E+04  0.25500000920E-02 0. -1.
       -2    1    3    3    0  502  0.52596706963E+03  0.90339235939E+03 -0.13885258188E+03  0.10545326704E+04  0.25500000920E-02 0.  1.
</event>
<event>
 5   0  0.1976233E-05  0.2123194E+04  0.7818609E-02  0.8551094E-01
        2   -1    0    0  501    0  0.00000000000E+00  0.00000000000E+00  0.13681254703E+04  0.13681254703E+04  0.25500000920E-02 0. -1.
       -2   -1    0    0    0  501  0.00000000000E+00  0.00000000000E+00 -0.82374652523E+03  0.82374652523E+03  0.25500000920E-02 0.  1.
    10030    2    1    2    0    0  0.00000000000E+00  0.00000000000E+00  0.54437894510E+03  0.21918719956E+04  0.21231943880E+04 0.  0.
        2    1    3    3  502    0 -0.30946627052E+03  0.10069375742E+04  0.13642139861E+03  0.10622162911E+04  0.25500000920E-02 0.  1.
       -2    1    3    3    0  502  0.30946627052E+03 -0.10069375742E+04  0.40795754649E+03  0.11296557045E+04  0.25500000920E-02 0. -1.
</event>
<event>
 5   0  0.7971153E-06  0.2938941E+04  0.7818609E-02  0.8261385E-01
       -1   -1    0    0    0  501  0.00000000000E+00  0.00000000000E+00  0.10121579667E+04  0.10121579667E+04  0.50400001928E-02 0.  1.
        1   -1    0    0  501    0  0.00000000000E+00  0.00000000000E+00 -0.21334062573E+04  0.21334062573E+04  0.50400001928E-02 0. -1.
    10030    2    1    2    0    0  0.00000000000E+00  0.00000000000E+00 -0.11212482906E+04  0.31455642240E+04  0.29389414010E+04 0.  0.
        5    1    3    3  502    0  0.14137138760E+04 -0.40032546584E+03 -0.53730603640E+03  0.15644702837E+04  0.46999998093E+01 0. -1.
       -5    1    3    3    0  502 -0.14137138760E+04  0.40032546584E+03 -0.58394225417E+03  0.15810939403E+04  0.46999998093E+01 0.  1.
</event>
<event>
 5   0  0.7305460E-06  0.2117414E+04  0.7818609E-02  0.8553611E-01
        1   -1    0    0  501    0  0.00000000000E+00  0.00000000000E+00  0.13378208256E+04  0.13378208256E+04  0.50400001928E-02 0. -1.
       -1   -1    0    0    0  501  0.00000000000E+00  0.00000000000E+00 -0.83782592855E+03  0.83782592857E+03  0.50400001928E-02 0.  1.
    10030    2    1    2    0    0  0.00000000000E+00  0.00000000000E+00  0.49999489701E+03  0.21756467541E+04  0.21174144379E+04 0.  0.
        4    1    3    3  502    0  0.58286944576E+03  0.26491594979E+03  0.11163599226E+04  0.12869259268E+04  0.12699999809E+01 0. -1.
       -4    1    3    3    0  502 -0.58286944576E+03 -0.26491594979E+03 -0.61636502563E+03  0.88872082736E+03  0.12699999809E+01 0.  1.
</event>
<event>
 5   0  0.8055928E-06  0.1873212E+04  0.7818609E-02  0.8668307E-01
        1   -1    0    0  501    0  0.00000000000E+00  0.00000000000E+00  0.12932280212E+04  0.12932280212E+04  0.50400001928E-02 0. -1.
       -1   -1    0    0    0  501  0.00000000000E+00  0.00000000000E+00 -0.67832618395E+03  0.67832618397E+03  0.50400001928E-02 0.  1.
    10030    2    1    2    0    0  0.00000000000E+00  0.00000000000E+00  0.61490183728E+03  0.19715542052E+04  0.18732116043E+04 0.  0.
        2    1    3    3  502    0 -0.49973837427E+03 -0.27840149477E+03 -0.47309264056E+03  0.74233582802E+03  0.25500000920E-02 0.  1.
       -2    1    3    3    0  502  0.49973837427E+03  0.27840149477E+03  0.10879944778E+04  0.12292183772E+04  0.25500000920E-02 0. -1.
</event>
<event>
 5   0  0.7971153E-06  0.2919592E+04  0.7818609E-02  0.8267072E-01
        1   -1    0    0  501    0  0.00000000000E+00  0.00000000000E+00  0.22094500078E+04  0.22094500078E+04  0.50400001928E-02 0.  1.
       -1   -1    0    0    0  501  0.00000000000E+00  0.00000000000E+00 -0.96449553700E+03  0.96449553701E+03  0.50400001928E-02 0. -1.
    10030    2    1    2    0    0  0.00000000000E+00  0.00000000000E+00  0.12449544708E+04  0.31739455448E+04  0.29195922125E+04 0.  0.
        5    1    3    3  502    0  0.93770083609E+03 -0.82477868265E+03 -0.19931595017E+03  0.12646310416E+04  0.46999998093E+01 0. -1.
       -5    1    3    3    0  502 -0.93770083609E+03  0.82477868265E+03  0.14442704210E+04  0.19093145032E+04  0.46999998093E+01 0.  1.
</event>
<event>
 5   0  0.1918901E-05  0.2658458E+04  0.7818609E-02  0.8348611E-01
       -2   -1    0    0    0  501  0.00000000000E+00  0.00000000000E+00  0.99838477308E+03  0.99838477309E+03  0.25500000920E-02 0. -1.
        2   -1    0    0  501    0  0.00000000000E+00  0.00000000000E+00 -0.17697080546E+04  0.17697080546E+04  0.25500000920E-02 0.  1.
    10030    2    1    2    0    0  0.00000000000E+00  0.00000000000E+00 -0.77132328151E+03  0.27680928277E+04  0.26584578797E+04 0.  0.
        1    1    3    3  502    0  0.54017048411E+03 -0.85254652483E+03 -0.12863372044E+04  0.16350177774E+04  0.50400001928E-02 0.  1.
       -1    1    3    3    0  502 -0.54017048411E+03  0.85254652483E+03  0.51501392286E+03  0.11330750503E+04  0.50400001928E-02 0. -1.
</event>
<event>
 5   0  0.1829810E-05  0.2928828E+04  0.7818609E-02  0.8264352E-01
       -2   -1    0    0    0  501  0.00000000000E+00  0.00000000000E+00  0.12419744674E+04  0.12419744675E+04  0.25500000920E-02 0. -1.
        2   -1    0    0  501    0  0.00000000000E+00  0.00000000000E+00 -0.17266932009E+04  0.17266932009E+04  0.25500000920E-02 0.  1.
    10030    2    1    2    0    0  0.00000000000E+00  0.00000000000E+00 -0.48471873348E+03  0.29686676684E+04  0.29288283450E+04 0.  0.
        4    1    3    3  502    0 -0.13526546665E+04  0.37215387200E+03  0.18327415266E+03  0.14148371564E+04  0.12699999809E+01 0. -1.
       -4    1    3    3    0  502  0.13526546665E+04 -0.37215387200E+03 -0.66799288614E+03  0.15538305120E+04  0.12699999809E+01 0.  1.
</event>
<event>
 5   0  0.1937947E-05  0.2595780E+04  0.7818609E-02  0.8369636E-01
       -2   -1    0    0    0  501  0.00000000000E+00  0.00000000000E+00  0.66113903361E+03  0.66113903362E+03  0.25500000920E-02 0.  1.
        2   -1    0    0  501    0  0.00000000000E+00  0.00000000000E+00 -0.25479033894E+04  0.25479033894E+04  0.25500000920E-02 0. -1.
    10030    2    1    2    0    0  0.00000000000E+00  0.00000000000E+00 -0.18867643558E+04  0.32090424230E+04  0.25957799480E+04 0.  0.
        3    1    3    3  502    0 -0.86407374804E+03 -0.76400720371E+03 -0.16791223351E+04  0.20371014397E+04  0.10100000352E+00 0. -1.
       -3    1    3    3    0  502  0.86407374804E+03  0.76400720371E+03 -0.20764202072E+03  0.11719409833E+04  0.10100000352E+00 0.  1.
</event>
<event>
 5   0  0.8055928E-06  0.2492249E+04  0.7818609E-02  0.8405752E-01
        1   -1    0    0  501    0  0.00000000000E+00  0.00000000000E+00  0.19974315026E+04  0.19974315026E+04  0.50400001928E-02 0. -1.
       -1   -1    0    0    0  501  0.00000000000E+00  0.00000000000E+00 -0.77741154510E+03  0.77741154511E+03  0.50400001928E-02 0.  1.
    10030    2    1    2    0    0  0.00000000000E+00  0.00000000000E+00  0.12200199575E+04  0.27748430477E+04  0.24922490331E+04 0.  0.
        2    1    3    3  502    0  0.66925332284E+03 -0.11403658293E+03  0.17734467530E+04  0.18989517472E+04  0.25500000920E-02 0. -1.
       -2    1    3    3    0  502 -0.66925332284E+03  0.11403658293E+03 -0.55342679550E+03  0.87589130054E+03  0.25500000920E-02 0.  1.
</event>
<event>
 5   0  0.6578125E-06  0.2606844E+04  0.7818609E-02  0.8365880E-01
       -4   -1    0    0    0  501  0.00000000000E+00  0.00000000000E+00  0.11769231275E+04  0.11769238127E+04  0.12699999809E+01 0. -1.
        4   -1    0    0  501    0  0.00000000000E+00  0.00000000000E+00 -0.14435153799E+04  0.14435159386E+04  0.12699999809E+01 0.  1.
    10030    2    1    2    0    0  0.00000000000E+00  0.00000000000E+00 -0.26659225238E+03  0.26204397513E+04  0.26068435053E+04 0.  0.
        4    1    3    3  502    0  0.97798871824E+03  0.40562612682E+03  0.63087414249E+03  0.12324764843E+04  0.12699999809E+01 0. -1.
       -4    1    3    3    0  502 -0.97798871824E+03 -0.40562612682E+03 -0.89746639487E+03  0.13879632670E+04  0.12699999809E+01 0.  1.
</event>
<event>
 5   0  0.6578125E-06  0.2587875E+04  0.7818609E-02  0.8372331E-01
       -3   -1    0    0    0  501  0.00000000000E+00  0.00000000000E+00  0.89621499741E+03  0.89621500310E+03  0.10100000352E+00 0. -1.
        3   -1    0    0  501    0  0.00000000000E+00  0.00000000000E+00 -0.18681614683E+04  0.18681614711E+04  0.10100000352E+00 0.  1.
    10030    2    1    2    0    0  0.00000000000E+00  0.00000000000E+00 -0.97194647093E+03  0.27643764742E+04  0.25878750643E+04 0.  0.
        3    1    3    3  502    0  0.11461664292E+04  0.58082281338E+03 -0.64875318757E+03  0.14394211797E+04  0.10100000352E+00 0.  1.
       -3    1    3    3    0  502 -0.11461664292E+04 -0.58082281338E+03 -0.32319328336E+03  0.13249552945E+04  0.10100000352E+00 0. -1.
</event>
<event>
 5   0  0.7305460E-06  0.2850360E+04  0.7818609E-02  0.8287802E-01
        1   -1    0    0  501    0  0.00000000000E+00  0.00000000000E+00  0.21274652952E+04  0.21274652952E+04  0.50400001928E-02 0. -1.
       -1   -1    0    0    0  501  0.00000000000E+00  0.00000000000E+00 -0.95472223494E+03  0.95472223496E+03  0.50400001928E-02 0.  1.
    10030    2    1    2    0    0  0.00000000000E+00  0.00000000000E+00  0.11727430602E+04  0.30821875301E+04  0.28503602730E+04 0.  0.
        4    1    3    3  502    0 -0.76847833821E+03 -0.94599545435E+03  0.13851466362E+04  0.18450201009E+04  0.12699999809E+01 0. -1.
       -4    1    3    3    0  502  0.76847833821E+03  0.94599545435E+03 -0.21240357600E+03  0.12371674292E+04  0.12699999809E+01 0.  1.
</event>
<event>
 5   0  0.8122088E-06  0.1761315E+04  0.7818609E-02  0.8727146E-01
       -1   -1    0    0    0  501  0.00000000000E+00  0.00000000000E+00  0.41941949274E+03  0.41941949277E+03  0.50400001928E-02 0. -1.
        1   -1    0    0  501    0  0.00000000000E+00  0.00000000000E+00 -0.18491218748E+04  0.18491218748E+04  0.50400001928E-02 0.  1.
    10030    2    1    2    0    0  0.00000000000E+00  0.00000000000E+00 -0.14297023820E+04  0.22685413675E+04  0.17613151436E+04 0.  0.
        1    1    3    3  502    0  0.30441799612E+03 -0.73162604371E+03 -0.12096955953E+04  0.14461363758E+04  0.50400001928E-02 0.  1.
       -1    1    3    3    0  502 -0.30441799612E+03  0.73162604371E+03 -0.22000678676E+03  0.82240499175E+03  0.50400001928E-02 0. -1.
</event>
<event>
 5   0  0.1829810E-05  0.2729777E+04  0.7818609E-02  0.8325407E-01
        2   -1    0    0  501    0  0.00000000000E+00  0.00000000000E+00  0.16340296256E+04  0.16340296256E+04  0.25500000920E-02 0. -1.
       -2   -1    0    0    0  501  0.00000000000E+00  0.00000000000E+00 -0.11400780348E+04  0.11400780348E+04  0.25500000920E-02 0.  1.
    10030    2    1    2    0    0  0.00000000000E+00  0.00000000000E+00  0.49395159080E+03  0.27741076604E+04  0.27297774887E+04 0.  0.
        4    1    3    3  502    0  0.41581991922E+03 -0.86156741957E+03 -0.74234001993E+03  0.12108984027E+04  0.12699999809E+01 0.  1.
       -4    1    3    3    0  502 -0.41581991922E+03  0.86156741957E+03  0.12362916107E+04  0.15632092577E+04  0.12699999809E+01 0. -1.
</event>
<event>
 5   0  0.1960961E-05  0.2861412E+04  0.7818609E-02  0.8284452E-01
       -2   -1    0    0    0  501  0.00000000000E+00  0.00000000000E+00  0.18348539460E+04  0.18348539460E+04  0.25500000920E-02 0. -1.
        2   -1    0    0  501    0  0.00000000000E+00  0.00000000000E+00 -0.11155763161E+04  0.11155763161E+04  0.25500000920E-02 0.  1.
    10030    2    1    2    0    0  0.00000000000E+00  0.00000000000E+00  0.71927762991E+03  0.29504302621E+04  0.28614119631E+04 0.  0.
        5    1    3    3  502    0 -0.10131905158E+04  0.70426715992E+03  0.11062864776E+04  0.16572384000E+04  0.46999998093E+01 0. -1.
       -5    1    3    3    0  502  0.10131905158E+04 -0.70426715992E+03 -0.38700884772E+03  0.12931918621E+04  0.46999998093E+01 0.  1.
</event>
<event>
 5   0  0.7971153E-06  0.2879930E+04  0.7818609E-02  0.8278874E-01
        1   -1    0    0  501    0  0.00000000000E+00  0.00000000000E+00  0.21971361781E+04  0.21971361781E+04  0.50400001928E-02 0.  1.
       -1   -1    0    0    0  501  0.00000000000E+00  0.00000000000E+00 -0.94372806417E+03  0.94372806418E+03  0.50400001928E-02 0. -1.
    10030    2    1    2    0    0  0.00000000000E+00  0.00000000000E+00  0.12534081139E+04  0.31408642422E+04  0.28799299103E+04 0.  0.
        5    1    3    3  502    0 -0.31985815740E+03 -0.14023927038E+04  0.69955810850E+03  0.15995056029E+04  0.46999998093E+01 0. -1.
       -5    1    3    3    0  502  0.31985815740E+03  0.14023927038E+04  0.55385000540E+03  0.15413586393E+04  0.46999998093E+01 0.  1.
</event>
<event>
 5   0  0.1918901E-05  0.2948849E+04  0.7818609E-02  0.8258490E-01
       -2   -1    0    0    0  501  0.00000000000E+00  0.00000000000E+00  0.82559576481E+03  0.82559576481E+03  0.25500000920E-02 0. -1.
        2   -1    0    0  501    0  0.00000000000E+00  0.00000000000E+00 -0.26331618568E+04  0.26331618568E+04  0.25500000920E-02 0.  1.
    10030    2    1    2    0    0  0.00000000000E+00  0.00000000000E+00 -0.18075660920E+04  0.34587576216E+04  0.29488487767E+04 0.  0.
        1    1    3    3  502    0 -0.10093258043E+04 -0.50185665366E+03 -0.20185664819E+04  0.23119708740E+04  0.50400001928E-02 0.  1.
       -1    1    3    3    0  502  0.10093258043E+04  0.50185665366E+03  0.21100038998E+03  0.11467867476E+04  0.50400001928E-02 0. -1.
</event>
<event>
 5   0  0.1976233E-05  0.1910186E+04  0.7818609E-02  0.8649803E-01
       -2   -1    0    0    0  501  0.00000000000E+00  0.00000000000E+00  0.53605189268E+03  0.53605189269E+03  0.25500000920E-02 0.  1.
        2   -1    0    0  501    0  0.00000000000E+00  0.00000000000E+00 -0.17017061851E+04  0.17017061851E+04  0.25500000920E-02 0. -1.
    10030    2    1    2    0    0  0.00000000000E+00  0.00000000000E+00 -0.11656542924E+04  0.22377580778E+04  0.19101861913E+04 0.  0.
        2    1    3    3  502    0  0.51095357173E+03 -0.56510891031E+03 -0.12576088701E+04  0.14703746812E+04  0.25500000920E-02 0.  1.
       -2    1    3    3    0  502 -0.51095357173E+03  0.56510891031E+03  0.91954577687E+02  0.76738339658E+03  0.25500000920E-02 0. -1.
</event>
<event>
 5   0  0.1976233E-05  0.2883086E+04  0.7818609E-02  0.8277928E-01
        2   -1    0    0  501    0  0.00000000000E+00  0.00000000000E+00  0.14824557359E+04  0.14824557359E+04  0.25500000920E-02 0. -1.
       -2   -1    0    0    0  501  0.00000000000E+00  0.00000000000E+00 -0.14017592188E+04  0.14017592188E+04  0.25500000920E-02 0.  1.
    10030    2    1    2    0    0  0.00000000000E+00  0.00000000000E+00  0.80696517031E+02  0.28842149547E+04  0.28830858428E+04 0.  0.
        2    1    3    3  502    0 -0.89976714930E+03 -0.41942971995E+03 -0.10053092865E+04  0.14128513632E+04  0.25500000920E-02 0.  1.
       -2    1    3    3    0  502  0.89976714930E+03  0.41942971995E+03  0.10860058036E+04  0.14713635915E+04  0.25500000920E-02 0. -1.
</event>
<event>
 5   0  0.7305460E-06  0.2859545E+04  0.7818609E-02  0.8285017E-01
        1   -1    0    0  501    0  0.00000000000E+00  0.00000000000E+00  0.16790945033E+04  0.16790945033E+04  0.50400001928E-02 0.  1.
       -1   -1    0    0    0  501  0.00000000000E+00  0.00000000000E+00 -0.12174714810E+04  0.12174714810E+04  0.50400001928E-02 0. -1.
    10030    2    1    2    0    0  0.00000000000E+00  0.00000000000E+00  0.46162302233E+03  0.28965659844E+04  0.28595451889E+04 0.  0.
        4    1    3    3  502    0 -0.96699136321E+03 -0.49320734411E+03 -0.71178519718E+03  0.12980622330E+04  0.12699999809E+01 0. -1.
       -4    1    3    3    0  502  0.96699136321E+03  0.49320734411E+03  0.11734082195E+04  0.15985037514E+04  0.12699999809E+01 0.  1.
</event>
<event>
 5   0  0.8122088E-06  0.2534676E+04  0.7818609E-02  0.8390735E-01
        1   -1    0    0  501    0  0.00000000000E+00  0.00000000000E+00  0.26223336388E+04  0.26223336388E+04  0.50400001928E-02 0.  1.
       -1   -1    0    0    0  501  0.00000000000E+00  0.00000000000E+00 -0.61248727856E+03  0.61248727858E+03  0.50400001928E-02 0. -1.
    10030    2    1    2    0    0  0.00000000000E+00  0.00000000000E+00  0.20098463602E+04  0.32348209174E+04  0.25346763059E+04 0.  0.
        1    1    3    3  502    0  0.77964111198E+01 -0.10604365815E+04  0.11929240424E+03  0.10671537870E+04  0.50400001928E-02 0. -1.
       -1    1    3    3    0  502 -0.77964111198E+01  0.10604365815E+04  0.18905539560E+04  0.21676671304E+04  0.50400001928E-02 0.  1.
</event>
<event>
 5   0  0.1960961E-05  0.2945548E+04  0.7818609E-02  0.8259453E-01
        2   -1    0    0  501    0  0.00000000000E+00  0.00000000000E+00  0.15168937364E+04  0.15168937364E+04  0.25500000920E-02 0. -1.
       -2   -1    0    0    0  501  0.00000000000E+00  0.00000000000E+00 -0.14299373741E+04  0.14299373741E+04  0.25500000920E-02 0.  1.
    10030    2    1    2    0    0  0.00000000000E+00  0.00000000000E+00  0.86956362298E+02  0.29468311106E+04  0.29455478583E+04 0.  0.
        5    1    3    3  502    0  0.14262063379E+03 -0.14198238934E+04  0.40805486608E+03  0.14841736412E+04  0.46999998093E+01 0. -1.
       -5    1    3    3    0  502 -0.14262063379E+03  0.14198238934E+04 -0.32109850378E+03  0.14626574694E+04  0.46999998093E+01 0.  1.
</event>
<event>
 5   0  0.7971153E-06  0.2825463E+04  0.7818609E-02  0.8295406E-01
        1   -1    0    0  501    0  0.00000000000E+00  0.00000000000E+00  0.15876293630E+04  0.15876293630E+04  0.50400001928E-02 0. -1.
       -1   -1    0    0    0  501  0.00000000000E+00  0.00000000000E+00 -0.12571009138E+04  0.12571009138E+04  0.50400001928E-02 0.  1.
    10030    2    1    2    0    0  0.00000000000E+00  0.00000000000E+00  0.33052844923E+03  0.28447302768E+04  0.28254630226E+04 0.  0.
        5    1    3    3  502    0  0.86946352484E+03  0.22856224499E+02  0.12860936333E+04  0.15525940073E+04  0.46999998093E+01 0. -1.
       -5    1    3    3    0  502 -0.86946352484E+03 -0.22856224499E+02 -0.95556518402E+03  0.12921362695E+04  0.46999998093E+01 0.  1.
</event>
<event>
 5   0  0.1976233E-05  0.2919396E+04  0.7818609E-02  0.8267130E-01
        2   -1    0    0  501    0  0.00000000000E+00  0.00000000000E+00  0.27329088330E+04  0.27329088330E+04  0.25500000920E-02 0.  1.
       -2   -1    0    0    0  501  0.00000000000E+00  0.00000000000E+00 -0.77965221286E+03  0.77965221286E+03  0.25500000920E-02 0. -1.
    10030    2    1    2    0    0  0.00000000000E+00  0.00000000000E+00  0.19532566201E+04  0.35125610459E+04  0.29193961151E+04 0.  0.
        2    1    3    3  502    0 -0.61264128466E+03 -0.13089819303E+04  0.73018065336E+03  0.16192364942E+04  0.25500000920E-02 0. -1.
       -2    1    3    3    0  502  0.61264128466E+03  0.13089819303E+04  0.12230759668E+04  0.18933245517E+04  0.25500000920E-02 0.  1.
</event>
<event>
 5   0  0.1829810E-05  0.2894965E+04  0.7818609E-02  0.8274377E-01
        2   -1    0    0  501    0  0.00000000000E+00  0.00000000000E+00  0.13835168671E+04  0.13835168671E+04  0.25500000920E-02 0. -1.
       -2   -1    0    0    0  501  0.00000000000E+00  0.00000000000E+00 -0.15144057492E+04  0.15144057492E+04  0.25500000920E-02 0.  1.
    10030    2    1    2    0    0  0.00000000000E+00  0.00000000000E+00 -0.13088888213E+03  0.28979226163E+04  0.28949652140E+04 0.  0.
        4    1    3    3  502    0  0.97793724399E+03  0.10594671443E+04 -0.19352984160E+03  0.14547464712E+04  0.12699999809E+01 0.  1.
       -4    1    3    3    0  502 -0.97793724399E+03 -0.10594671443E+04  0.62640959469E+02  0.14431761451E+04  0.12699999809E+01 0. -1.
</event>
<event>
 5   0  0.7305460E-06  0.2649593E+04  0.7818609E-02  0.8351548E-01
        1   -1    0    0  501    0  0.00000000000E+00  0.00000000000E+00  0.21837313150E+04  0.21837313150E+04  0.50400001928E-02 0.  1.
       -1   -1    0    0    0  501  0.00000000000E+00  0.00000000000E+00 -0.80370953486E+03  0.80370953488E+03  0.50400001928E-02 0. -1.
    10030    2    1    2    0    0  0.00000000000E+00  0.00000000000E+00  0.13800217801E+04  0.29874408499E+04  0.26495929344E+04 0.  0.
        4    1    3    3  502    0  0.94633505243E+03  0.61045943336E+03 -0.96723517574E+02  0.11302954494E+04  0.12699999809E+01 0. -1.
       -4    1    3    3    0  502 -0.94633505243E+03 -0.61045943336E+03  0.14767452977E+04  0.18571454004E+04  0.12699999809E+01 0.  1.
</event>
<event>
 5   0  0.1960961E-05  0.2435101E+04  0.7818609E-02  0.8426478E-01
        2   -1    0    0  501    0  0.00000000000E+00  0.00000000000E+00  0.10549982661E+04  0.10549982661E+04  0.25500000920E-02 0.  1.
       -2   -1    0    0    0  501  0.00000000000E+00  0.00000000000E+00 -0.14051481638E+04  0.14051481638E+04  0.25500000920E-02 0. -1.
    10030    2    1    2    0    0  0.00000000000E+00  0.00000000000E+00 -0.35014989769E+03  0.24601464299E+04  0.24351007177E+04 0.  0.
        5    1    3    3  502    0  0.94652577114E+03  0.98271704546E+02  0.59223551225E+03  0.11208627727E+04  0.46999998093E+01 0.  1.
       -5    1    3    3    0  502 -0.94652577114E+03 -0.98271704546E+02 -0.94238540994E+03  0.13392836571E+04  0.46999998093E+01 0. -1.
</event>
<event>
 5   0  0.1937947E-05  0.2910347E+04  0.7818609E-02  0.8269806E-01
       -2   -1    0    0    0  501  0.00000000000E+00  0.00000000000E+00  0.15722692810E+04  0.15722692810E+04  0.25500000920E-02 0.  1.
        2   -1    0    0  501    0  0.00000000000E+00  0.00000000000E+00 -0.13467983811E+04  0.13467983811E+04  0.25500000920E-02 0. -1.
    10030    2    1    2    0    0  0.00000000000E+00  0.00000000000E+00  0.22547089994E+03  0.29190676621E+04  0.29103468675E+04 0.  0.
        3    1    3    3  502    0 -0.96702225055E+03 -0.96190623223E+03 -0.39586791428E+03  0.14202489389E+04  0.10100000352E+00 0. -1.
       -3    1    3    3    0  502  0.96702225055E+03  0.96190623223E+03  0.62133881422E+03  0.14988187232E+04  0.10100000352E+00 0.  1.
</event>
<event>
 5   0  0.1829810E-05  0.2534546E+04  0.7818609E-02  0.8390781E-01
       -2   -1    0    0    0  501  0.00000000000E+00  0.00000000000E+00  0.81964531075E+03  0.81964531075E+03  0.25500000920E-02 0.  1.
        2   -1    0    0  501    0  0.00000000000E+00  0.00000000000E+00 -0.19593614796E+04  0.19593614796E+04  0.25500000920E-02 0. -1.
    10030    2    1    2    0    0  0.00000000000E+00  0.00000000000E+00 -0.11397161689E+04  0.27790067904E+04  0.25345464674E+04 0.  0.
        4    1    3    3  502    0 -0.60010417428E+03  0.22152206009E+03  0.62963298347E+03  0.89757247611E+03  0.12699999809E+01 0.  1.
       -4    1    3    3    0  502  0.60010417428E+03 -0.22152206009E+03 -0.17693491524E+04  0.18814343143E+04  0.12699999809E+01 0. -1.
</event>
<event>
 5   0  0.8055928E-06  0.2926061E+04  0.7818609E-02  0.8265166E-01
        1   -1    0    0  501    0  0.00000000000E+00  0.00000000000E+00  0.14843320628E+04  0.14843320628E+04  0.50400001928E-02 0. -1.
       -1   -1    0    0    0  501  0.00000000000E+00  0.00000000000E+00 -0.14420342289E+04  0.14420342289E+04  0.50400001928E-02 0.  1.
    10030    2    1    2    0    0  0.00000000000E+00  0.00000000000E+00  0.42297833926E+02  0.29263662917E+04  0.29260605883E+04 0.  0.
        2    1    3    3  502    0 -0.13698953593E+04  0.17423530467E+03  0.50440370974E+03  0.14701681330E+04  0.25500000920E-02 0. -1.
       -2    1    3    3    0  502  0.13698953593E+04 -0.17423530467E+03 -0.46210587582E+03  0.14561981587E+04  0.25500000920E-02 0.  1.
</event>
<event>
 5   0  0.1937947E-05  0.2951525E+04  0.7818609E-02  0.8257710E-01
        2   -1    0    0  501    0  0.00000000000E+00  0.00000000000E+00  0.18792338319E+04  0.18792338319E+04  0.25500000920E-02 0.  1.
       -2   -1    0    0    0  501  0.00000000000E+00  0.00000000000E+00 -0.11589167040E+04  0.11589167040E+04  0.25500000920E-02 0. -1.
    10030    2    1    2    0    0  0.00000000000E+00  0.00000000000E+00  0.72031712791E+03  0.30381505358E+04  0.29515253537E+04 0.  0.
        3    1    3    3  502    0  0.41736649083E+03 -0.95366441985E+03 -0.71658451574E+03  0.12637895362E+04  0.10100000352E+00 0. -1.
       -3    1    3    3    0  502 -0.41736649083E+03  0.95366441985E+03  0.14369016436E+04  0.17743609996E+04  0.10100000352E+00 0.  1.
</event>
<event>
 5   0  0.7971153E-06  0.1795037E+04  0.7818609E-02  0.8708943E-01
       -1   -1    0    0    0  501  0.00000000000E+00  0.00000000000E+00  0.12946307335E+04  0.12946307335E+04  0.50400001928E-02 0.  1.
        1   -1    0    0  501    0  0.00000000000E+00  0.00000000000E+00 -0.62221545798E+03  0.62221545800E+03  0.50400001928E-02 0. -1.
    10030    2    1    2    0    0  0.00000000000E+00  0.00000000000E+00  0.67241527555E+03  0.19168461916E+04  0.17950367738E+04 0.  0.
        5    1    3    3  502    0 -0.55335473903E+03  0.10125522861E+03 -0.41057868245E+03  0.69645605246E+03  0.46999998093E+01 0. -1.
       -5    1    3    3    0  502  0.55335473903E+03 -0.10125522861E+03  0.10829939580E+04  0.12203901391E+04  0.46999998093E+01 0.  1.
</event>
<event>
 5   0  0.1829810E-05  0.2825226E+04  0.7818609E-02  0.8295479E-01
       -2   -1    0    0    0  501  0.00000000000E+00  0.00000000000E+00  0.18938302466E+04  0.18938302466E+04  0.25500000920E-02 0.  1.
        2   -1    0    0  501    0  0.00000000000E+00  0.00000000000E+00 -0.10536714655E+04  0.10536714655E+04  0.25500000920E-02 0. -1.
    10030    2    1    2    0    0  0.00000000000E+00  0.00000000000E+00  0.84015878109E+03  0.29475017121E+04  0.28252255778E+04 0.  0.
        4    1    3    3  502    0  0.10868123036E+04  0.58266101848E+03  0.11389731633E+04  0.16786650427E+04  0.12699999809E+01 0.  1.
       -4    1    3    3    0  502 -0.10868123036E+04 -0.58266101848E+03 -0.29881438225E+03  0.12688366695E+04  0.12699999809E+01 0. -1.
</event>
<event>
 5   0  0.8122088E-06  0.2749079E+04  0.7818609E-02  0.8319254E-01
        1   -1    0    0  501    0  0.00000000000E+00  0.00000000000E+00  0.12187450451E+04  0.12187450451E+04  0.50400001928E-02 0.  1.
       -1   -1    0    0    0  501  0.00000000000E+00  0.00000000000E+00 -0.15502491076E+04  0.15502491076E+04  0.50400001928E-02 0. -1.
    10030    2    1    2    0    0  0.00000000000E+00  0.00000000000E+00 -0.33150406255E+03  0.27689941527E+04  0.27490786955E+04 0.  0.
        1    1    3    3  502    0  0.23423816568E+02  0.99305807536E+03 -0.11227113010E+04  0.14990642687E+04  0.50400001928E-02 0. -1.
       -1    1    3    3    0  502 -0.23423816568E+02 -0.99305807536E+03  0.79120723842E+03  0.12699298840E+04  0.50400001928E-02 0.  1.
</event>
<event>
 5   0  0.1960961E-05  0.1996196E+04  0.7818609E-02  0.8608401E-01
       -2   -1    0    0    0  501  0.00000000000E+00  0.00000000000E+00  0.51141779002E+03  0.51141779003E+03  0.25500000920E-02 0. -1.
        2   -1    0    0  501    0  0.00000000000E+00  0.00000000000E+00 -0.19479173751E+04  0.19479173751E+04  0.25500000920E-02 0.  1.
    10030    2    1    2    0    0  0.00000000000E+00  0.00000000000E+00 -0.14364995851E+04  0.24593351652E+04  0.19961959815E+04 0.  0.
        5    1    3    3  502    0 -0.92407743584E+03  0.28604188519E+03 -0.41536939160E+03  0.10527549045E+04  0.46999998093E+01 0. -1.
       -5    1    3    3    0  502  0.92407743584E+03 -0.28604188519E+03 -0.10211301935E+04  0.14065802606E+04  0.46999998093E+01 0.  1.
</event>
<event>
 5   0  0.7971153E-06  0.1904781E+04  0.7818609E-02  0.8652480E-01
        1   -1    0    0  501    0  0.00000000000E+00  0.00000000000E+00  0.10730328214E+04  0.10730328214E+04  0.50400001928E-02 0.  1.
       -1   -1    0    0    0  501  0.00000000000E+00  0.00000000000E+00 -0.84531223075E+03  0.84531223077E+03  0.50400001928E-02 0. -1.
    10030    2    1    2    0    0  0.00000000000E+00  0.00000000000E+00  0.22772059068E+03  0.19183450522E+04  0.19047811087E+04 0.  0.
        5    1    3    3  502    0 -0.38719085702E+02  0.59939671679E+03 -0.63049007783E+03  0.87081307979E+03  0.46999998093E+01 0. -1.
       -5    1    3    3    0  502  0.38719085702E+02 -0.59939671679E+03  0.85821066852E+03  0.10475319724E+04  0.46999998093E+01 0.  1.
</event>
<event>
 5   0  0.7971153E-06  0.2730692E+04  0.7818609E-02  0.8325115E-01
        1   -1    0    0  501    0  0.00000000000E+00  0.00000000000E+00  0.12769096599E+04  0.12769096599E+04  0.50400001928E-02 0.  1.
       -1   -1    0    0    0  501  0.00000000000E+00  0.00000000000E+00 -0.14599073083E+04  0.14599073083E+04  0.50400001928E-02 0. -1.
    10030    2    1    2    0    0  0.00000000000E+00  0.00000000000E+00 -0.18299764840E+03  0.27368169682E+04  0.27306920328E+04 0.  0.
        5    1    3    3  502    0  0.91975310080E+03 -0.10089265644E+04 -0.10793914817E+03  0.13695077687E+04  0.46999998093E+01 0. -1.
       -5    1    3    3    0  502 -0.91975310080E+03  0.10089265644E+04 -0.75058500227E+02  0.13673091995E+04  0.46999998093E+01 0.  1.
</event>
<event>
 5   0  0.1960961E-05  0.2895653E+04  0.7818609E-02  0.8274172E-01
       -2   -1    0    0    0  501  0.00000000000E+00  0.00000000000E+00  0.76560516268E+03  0.76560516268E+03  0.25500000920E-02 0.  1.
        2   -1    0    0  501    0  0.00000000000E+00  0.00000000000E+00 -0.27379664527E+04  0.27379664527E+04  0.25500000920E-02 0. -1.
    10030    2    1    2    0    0  0.00000000000E+00  0.00000000000E+00 -0.19723612900E+04  0.35035716154E+04  0.28956527772E+04 0.  0.
        5    1    3    3  502    0 -0.11979105816E+04  0.16176477023E+03 -0.19503620479E+04  0.22945787871E+04  0.46999998093E+01 0. -1.
       -5    1    3    3    0  502  0.11979105816E+04 -0.16176477023E+03 -0.21999242159E+02  0.12089928283E+04  0.46999998093E+01 0.  1.
</event>
<event>
 5   0  0.7305460E-06  0.2960657E+04  0.7818609E-02  0.8255056E-01
       -1   -1    0    0    0  501  0.00000000000E+00  0.00000000000E+00  0.17045965470E+04  0.17045965470E+04  0.50400001928E-02 0. -1.
        1   -1    0    0  501    0  0.00000000000E+00  0.00000000000E+00 -0.12855667559E+04  0.12855667559E+04  0.50400001928E-02 0.  1.
    10030    2    1    2    0    0  0.00000000000E+00  0.00000000000E+00  0.41902979109E+03  0.29901633028E+04  0.29606571250E+04 0.  0.
        4    1    3    3  502    0  0.91526150011E+03 -0.62472005511E+03  0.12008223535E+04  0.16339996017E+04  0.12699999809E+01 0. -1.
       -4    1    3    3    0  502 -0.91526150011E+03  0.62472005511E+03 -0.78179256236E+03  0.13561637011E+04  0.12699999809E+01 0.  1.
</event>
<event>
 5   0  0.7305460E-06  0.2921996E+04  0.7818609E-02  0.8266363E-01
       -1   -1    0    0    0  501  0.00000000000E+00  0.00000000000E+00  0.16732176859E+04  0.16732176859E+04  0.50400001928E-02 0.  1.
        1   -1    0    0  501    0  0.00000000000E+00  0.00000000000E+00 -0.12756949253E+04  0.12756949253E+04  0.50400001928E-02 0. -1.
    10030    2    1    2    0    0  0.00000000000E+00  0.00000000000E+00  0.39752276062E+03  0.29489126113E+04  0.29219961060E+04 0.  0.
        4    1    3    3  502    0 -0.11180069369E+04  0.68653425121E+03  0.84752430941E+03  0.15619116034E+04  0.12699999809E+01 0. -1.
       -4    1    3    3    0  502  0.11180069369E+04 -0.68653425121E+03 -0.45000154879E+03  0.13870010079E+04  0.12699999809E+01 0.  1.
</event>
<event>
 5   0  0.7971153E-06  0.2983739E+04  0.7818609E-02  0.8248390E-01
        1   -1    0    0  501    0  0.00000000000E+00  0.00000000000E+00  0.13390891011E+04  0.13390891012E+04  0.50400001928E-02 0.  1.
       -1   -1    0    0    0  501  0.00000000000E+00  0.00000000000E+00 -0.16620811408E+04  0.16620811408E+04  0.50400001928E-02 0. -1.
    10030    2    1    2    0    0  0.00000000000E+00  0.00000000000E+00 -0.32299203965E+03  0.30011702420E+04  0.29837390911E+04 0.  0.
        5    1    3    3  502    0  0.10405506617E+04  0.22894072142E+03 -0.12118634624E+04  0.16136277994E+04  0.46999998093E+01 0.  1.
       -5    1    3    3    0  502 -0.10405506617E+04 -0.22894072142E+03  0.88887142279E+03  0.13875424425E+04  0.46999998093E+01 0. -1.
</event>
<event>
 5   0  0.7305460E-06  0.2861710E+04  0.7818609E-02  0.8284362E-01
       -1   -1    0    0    0  501  0.00000000000E+00  0.00000000000E+00  0.19109660753E+04  0.19109660753E+04  0.50400001928E-02 0. -1.
        1   -1    0    0  501    0  0.00000000000E+00  0.00000000000E+00 -0.10713672757E+04  0.10713672757E+04  0.50400001928E-02 0.  1.
    10030    2    1    2    0    0  0.00000000000E+00  0.00000000000E+00  0.83959879960E+03  0.29823333511E+04  0.28617103404E+04 0.  0.
        4    1    3    3  502    0 -0.63747986206E+03  0.20933662121E+03  0.17368496554E+04  0.18619481018E+04  0.12699999809E+01 0. -1.
       -4    1    3    3    0  502  0.63747986206E+03 -0.20933662121E+03 -0.89725085582E+03  0.11203852492E+04  0.12699999809E+01 0.  1.
</event>
<event>
 5   0  0.7305460E-06  0.2855289E+04  0.7818609E-02  0.8286306E-01
       -1   -1    0    0    0  501  0.00000000000E+00  0.00000000000E+00  0.14524651702E+04  0.14524651703E+04  0.50400001928E-02 0. -1.
        1   -1    0    0  501    0  0.00000000000E+00  0.00000000000E+00 -0.14032482339E+04  0.14032482339E+04  0.50400001928E-02 0.  1.
    10030    2    1    2    0    0  0.00000000000E+00  0.00000000000E+00  0.49216936320E+02  0.28557134042E+04  0.28552892568E+04 0.  0.
        4    1    3    3  502    0  0.14138271523E+04 -0.13448887376E+03  0.17013987095E+03  0.14303648704E+04  0.12699999809E+01 0. -1.
       -4    1    3    3    0  502 -0.14138271523E+04  0.13448887376E+03 -0.12092293463E+03  0.14253485338E+04  0.12699999809E+01 0.  1.
</event>
<event>
 5   0  0.7305460E-06  0.2670874E+04  0.7818609E-02  0.8344518E-01
        1   -1    0    0  501    0  0.00000000000E+00  0.00000000000E+00  0.13175097011E+04  0.13175097011E+04  0.50400001928E-02 0. -1.
       -1   -1    0    0    0  501  0.00000000000E+00  0.00000000000E+00 -0.13536079947E+04  0.13536079947E+04  0.50400001928E-02 0.  1.
    10030    2    1    2    0    0  0.00000000000E+00  0.00000000000E+00 -0.36098293664E+02  0.26711176958E+04  0.26708737630E+04 0.  0.
        4    1    3    3  502    0  0.19047274515E+03 -0.70027000309E+03 -0.11391921683E+04  0.13507103143E+04  0.12699999809E+01 0.  1.
       -4    1    3    3    0  502 -0.19047274515E+03  0.70027000309E+03  0.11030938747E+04  0.13204073815E+04  0.12699999809E+01 0. -1.
</event>
<event>
 5   0  0.8122088E-06  0.2972320E+04  0.7818609E-02  0.8251680E-01
       -1   -1    0    0    0  501  0.00000000000E+00  0.00000000000E+00  0.10108627292E+04  0.10108627292E+04  0.50400001928E-02 0. -1.
        1   -1    0    0  501    0  0.00000000000E+00  0.00000000000E+00 -0.21849367945E+04  0.21849367945E+04  0.50400001928E-02 0.  1.
    10030    2    1    2    0    0  0.00000000000E+00  0.00000000000E+00 -0.11740740653E+04  0.31957995238E+04  0.29723197482E+04 0.  0.
        1    1    3    3  502    0 -0.43961660547E+03 -0.85057604806E+03  0.63505324836E+03  0.11489277617E+04  0.50400001928E-02 0. -1.
       -1    1    3    3    0  502  0.43961660547E+03  0.85057604806E+03 -0.18091273136E+04  0.20468717621E+04  0.50400001928E-02 0.  1.
</event>
<event>
 5   0  0.1976233E-05  0.2796241E+04  0.7818609E-02  0.8304436E-01
        2   -1    0    0  501    0  0.00000000000E+00  0.00000000000E+00  0.83156276586E+03  0.83156276587E+03  0.25500000920E-02 0. -1.
       -2   -1    0    0    0  501  0.00000000000E+00  0.00000000000E+00 -0.23506830713E+04  0.23506830713E+04  0.25500000920E-02 0.  1.
    10030    2    1    2    0    0  0.00000000000E+00  0.00000000000E+00 -0.15191203054E+04  0.31822458372E+04  0.27962407024E+04 0.  0.
        2    1    3    3  502    0  0.55757601629E+03 -0.20671445555E+03 -0.21995881316E+04  0.22785543287E+04  0.25500000920E-02 0.  1.
       -2    1    3    3    0  502 -0.55757601629E+03  0.20671445555E+03  0.68046782616E+03  0.90369150849E+03  0.25500000920E-02 0. -1.
</event>
<event>
 5   0  0.8122088E-06  0.2823149E+04  0.7818609E-02  0.8296117E-01
        1   -1    0    0  501    0  0.00000000000E+00  0.00000000000E+00  0.19056820750E+04  0.19056820750E+04  0.50400001928E-02 0.  1.
       -1   -1    0    0    0  501  0.00000000000E+00  0.00000000000E+00 -0.10455800864E+04  0.10455800864E+04  0.50400001928E-02 0. -1.
    10030    2    1    2    0    0  0.00000000000E+00  0.00000000000E+00  0.86010198865E+03  0.29512621614E+04  0.28231494673E+04 0.  0.
        1    1    3    3  502    0  0.73673068927E+03 -0.58561867644E+03 -0.66974665471E+03  0.11551112173E+04  0.50400001928E-02 0. -1.
       -1    1    3    3    0  502 -0.73673068927E+03  0.58561867644E+03  0.15298486434E+04  0.17961509442E+04  0.50400001928E-02 0.  1.
</event>
<event>
 5   0  0.7305460E-06  0.2900364E+04  0.7818609E-02  0.8272769E-01
       -1   -1    0    0    0  501  0.00000000000E+00  0.00000000000E+00  0.12001841215E+04  0.12001841216E+04  0.50400001928E-02 0. -1.
        1   -1    0    0  501    0  0.00000000000E+00  0.00000000000E+00 -0.17522546023E+04  0.17522546023E+04  0.50400001928E-02 0.  1.
    10030    2    1    2    0    0  0.00000000000E+00  0.00000000000E+00 -0.55207048072E+03  0.29524387238E+04  0.29003642189E+04 0.  0.
        4    1    3    3  502    0  0.10699392018E+04  0.62269174875E+03  0.49284837160E+03  0.13324473873E+04  0.12699999809E+01 0. -1.
       -4    1    3    3    0  502 -0.10699392018E+04 -0.62269174875E+03 -0.10449188523E+04  0.16199913365E+04  0.12699999809E+01 0.  1.
</event>
<event>
 5   0  0.1960961E-05  0.1632837E+04  0.7818609E-02  0.8800625E-01
       -2   -1    0    0    0  501  0.00000000000E+00  0.00000000000E+00  0.47558240362E+03  0.47558240363E+03  0.25500000920E-02 0. -1.
        2   -1    0    0  501    0  0.00000000000E+00  0.00000000000E+00 -0.14015218066E+04  0.14015218066E+04  0.25500000920E-02 0.  1.
    10030    2    1    2    0    0  0.00000000000E+00  0.00000000000E+00 -0.92593940295E+03  0.18771042102E+04  0.16328369294E+04 0.  0.
        5    1    3    3  502    0  0.32735056334E+03 -0.66489471158E+03 -0.69287489607E+02  0.74435624201E+03  0.46999998093E+01 0. -1.
       -5    1    3    3    0  502 -0.32735056334E+03  0.66489471158E+03 -0.85665191335E+03  0.11327479682E+04  0.46999998093E+01 0.  1.
</event>
<event>
 5   0  0.1960961E-05  0.3113607E+04  0.7818609E-02  0.8212013E-01
       -2   -1    0    0    0  501  0.00000000000E+00  0.00000000000E+00  0.10533711019E+04  0.10533711019E+04  0.25500000920E-02 0.  1.
        2   -1    0    0  501    0  0.00000000000E+00  0.00000000000E+00 -0.23008394464E+04  0.23008394464E+04  0.25500000920E-02 0. -1.
    10030    2    1    2    0    0  0.00000000000E+00  0.00000000000E+00 -0.12474683446E+04  0.33542105483E+04  0.31136074145E+04 0.  0.
        5    1    3    3  502    0  0.16279755108E+03  0.57933433703E+03 -0.21704712324E+04  0.22523540524E+04  0.46999998093E+01 0. -1.
       -5    1    3    3    0  502 -0.16279755108E+03 -0.57933433703E+03  0.92300288782E+03  0.11018564959E+04  0.46999998093E+01 0.  1.
</event>
<event>
 5   0  0.8234888E-06  0.2884636E+04  0.7818609E-02  0.8277463E-01
        1   -1    0    0  501    0  0.00000000000E+00  0.00000000000E+00  0.11332880848E+04  0.11332880849E+04  0.50400001928E-02 0. -1.
       -1   -1    0    0    0  501  0.00000000000E+00  0.00000000000E+00 -0.18356152272E+04  0.18356152272E+04  0.50400001928E-02 0.  1.
    10030    2    1    2    0    0  0.00000000000E+00  0.00000000000E+00 -0.70232714231E+03  0.29689033120E+04  0.28846357589E+04 0.  0.
        3    1    3    3  502    0  0.48619136381E+03  0.15642772853E+03  0.10371023058E+04  0.11560419021E+04  0.10100000352E+00 0. -1.
       -3    1    3    3    0  502 -0.48619136381E+03 -0.15642772853E+03 -0.17394294481E+04  0.18128614099E+04  0.10100000352E+00 0.  1.
</event>
<event>
 5   0  0.7305460E-06  0.2922209E+04  0.7818609E-02  0.8266300E-01
       -1   -1    0    0    0  501  0.00000000000E+00  0.00000000000E+00  0.11610644318E+04  0.11610644318E+04  0.50400001928E-02 0.  1.
        1   -1    0    0  501    0  0.00000000000E+00  0.00000000000E+00 -0.18386806386E+04  0.18386806386E+04  0.50400001928E-02 0. -1.
    10030    2    1    2    0    0  0.00000000000E+00  0.00000000000E+00 -0.67761620683E+03  0.29997450704E+04  0.29222092265E+04 0.  0.
        4    1    3    3  502    0  0.13921870210E+04  0.57721063073E+02  0.11252656136E+03  0.13979199771E+04  0.12699999809E+01 0.  1.
       -4    1    3    3    0  502 -0.13921870210E+04 -0.57721063073E+02 -0.79014276819E+03  0.16018250933E+04  0.12699999809E+01 0. -1.
</event>
<event>
 5   0  0.7305460E-06  0.2961632E+04  0.7818609E-02  0.8254773E-01
       -1   -1    0    0    0  501  0.00000000000E+00  0.00000000000E+00  0.95317407266E+03  0.95317407267E+03  0.50400001928E-02 0.  1.
        1   -1    0    0  501    0  0.00000000000E+00  0.00000000000E+00 -0.23005415386E+04  0.23005415386E+04  0.50400001928E-02 0. -1.
    10030    2    1    2    0    0  0.00000000000E+00  0.00000000000E+00 -0.13473674660E+04  0.32537156113E+04  0.29616323524E+04 0.  0.
        4    1    3    3  502    0  0.13874389255E+03 -0.51052647148E+03  0.84580587265E+03  0.99763537072E+03  0.12699999809E+01 0.  1.
       -4    1    3    3    0  502 -0.13874389255E+03  0.51052647148E+03 -0.21931733386E+04  0.22560802406E+04  0.12699999809E+01 0. -1.
</event>
<event>
 5   0  0.1829810E-05  0.2862344E+04  0.7818609E-02  0.8284170E-01
        2   -1    0    0  501    0  0.00000000000E+00  0.00000000000E+00  0.16885322124E+04  0.16885322124E+04  0.25500000920E-02 0. -1.
       -2   -1    0    0    0  501  0.00000000000E+00  0.00000000000E+00 -0.12130375053E+04  0.12130375054E+04  0.25500000920E-02 0.  1.
    10030    2    1    2    0    0  0.00000000000E+00  0.00000000000E+00  0.47549470707E+03  0.29015697178E+04  0.28623437268E+04 0.  0.
        4    1    3    3  502    0  0.12517907766E+03  0.61621077286E+03  0.15410042087E+04  0.16643560624E+04  0.12699999809E+01 0. -1.
       -4    1    3    3    0  502 -0.12517907766E+03 -0.61621077286E+03 -0.10655095017E+04  0.12372136554E+04  0.12699999809E+01 0.  1.
</event>
<event>
 5   0  0.8234888E-06  0.2928532E+04  0.7818609E-02  0.8264439E-01
        1   -1    0    0  501    0  0.00000000000E+00  0.00000000000E+00  0.20377766282E+04  0.20377766282E+04  0.50400001928E-02 0.  1.
       -1   -1    0    0    0  501  0.00000000000E+00  0.00000000000E+00 -0.10521635713E+04  0.10521635713E+04  0.50400001928E-02 0. -1.
    10030    2    1    2    0    0  0.00000000000E+00  0.00000000000E+00  0.98561305684E+03  0.30899401995E+04  0.29285316011E+04 0.  0.
        3    1    3    3  502    0 -0.36032221765E+03 -0.69960215814E+03  0.17956926719E+04  0.19605579467E+04  0.10100000352E+00 0.  1.
       -3    1    3    3    0  502  0.36032221765E+03  0.69960215814E+03 -0.81007961503E+03  0.11293822529E+04  0.10100000352E+00 0. -1.
</event>
<event>
 5   0  0.1976233E-05  0.2848822E+04  0.7818609E-02  0.8288269E-01
       -2   -1    0    0    0  501  0.00000000000E+00  0.00000000000E+00  0.97822767590E+03  0.97822767590E+03  0.25500000920E-02 0. -1.
        2   -1    0    0  501    0  0.00000000000E+00  0.00000000000E+00 -0.20741050330E+04  0.20741050330E+04  0.25500000920E-02 0.  1.
    10030    2    1    2    0    0  0.00000000000E+00  0.00000000000E+00 -0.10958773571E+04  0.30523327089E+04  0.28488221748E+04 0.  0.
        2    1    3    3  502    0 -0.71786715102E+03  0.58042738046E+03  0.61431969226E+03  0.11088813619E+04  0.25500000920E-02 0. -1.
       -2    1    3    3    0  502  0.71786715102E+03 -0.58042738046E+03 -0.17101970493E+04  0.19434513470E+04  0.25500000920E-02 0.  1.
</event>
<event>
 5   0  0.1960961E-05  0.2757354E+04  0.7818609E-02  0.8316632E-01
        2   -1    0    0  501    0  0.00000000000E+00  0.00000000000E+00  0.19345641604E+04  0.19345641604E+04  0.25500000920E-02 0. -1.
       -2   -1    0    0    0  501  0.00000000000E+00  0.00000000000E+00 -0.98252134809E+03  0.98252134809E+03  0.25500000920E-02 0.  1.
    10030    2    1    2    0    0  0.00000000000E+00  0.00000000000E+00  0.95204281230E+03  0.29170855085E+04  0.27573542296E+04 0.  0.
        5    1    3    3  502    0 -0.36563923899E+03 -0.68916933976E+03  0.16785672636E+04  0.18510150135E+04  0.46999998093E+01 0. -1.
       -5    1    3    3    0  502  0.36563923899E+03  0.68916933976E+03 -0.72652445127E+03  0.10660704950E+04  0.46999998093E+01 0.  1.
</event>
<event>
 5   0  0.1937947E-05  0.2245255E+04  0.7818609E-02  0.8499825E-01
       -2   -1    0    0    0  501  0.00000000000E+00  0.00000000000E+00  0.61544542931E+03  0.61544542932E+03  0.25500000920E-02 0.  1.
        2   -1    0    0  501    0  0.00000000000E+00  0.00000000000E+00 -0.20477724506E+04  0.20477724506E+04  0.25500000920E-02 0. -1.
    10030    2    1    2    0    0  0.00000000000E+00  0.00000000000E+00 -0.14323270213E+04  0.26632178799E+04  0.22452547250E+04 0.  0.
        3    1    3    3  502    0 -0.81236683297E+03 -0.64624552361E+01 -0.16351921954E+04  0.18258792843E+04  0.10100000352E+00 0. -1.
       -3    1    3    3    0  502  0.81236683297E+03  0.64624552361E+01  0.20286517413E+03  0.83733859562E+03  0.10100000352E+00 0.  1.
</event>
<event>
 5   0  0.8055928E-06  0.2752343E+04  0.7818609E-02  0.8318219E-01
       -1   -1    0    0    0  501  0.00000000000E+00  0.00000000000E+00  0.15053972868E+04  0.15053972868E+04  0.50400001928E-02 0.  1.
        1   -1    0    0  501    0  0.00000000000E+00  0.00000000000E+00 -0.12580386466E+04  0.12580386467E+04  0.50400001928E-02 0. -1.
    10030    2    1    2    0    0  0.00000000000E+00  0.00000000000E+00  0.24735864012E+03  0.27634359334E+04  0.27523429767E+04 0.  0.
        2    1    3    3  502    0  0.79295809655E+02 -0.54884243465E+03 -0.11408936895E+04  0.12685244397E+04  0.25500000920E-02 0. -1.
       -2    1    3    3    0  502 -0.79295809655E+02  0.54884243465E+03  0.13882523296E+04  0.14949114937E+04  0.25500000920E-02 0.  1.
</event>
<event>
 5   0  0.1937947E-05  0.2202086E+04  0.7818609E-02  0.8517560E-01
        2   -1    0    0  501    0  0.00000000000E+00  0.00000000000E+00  0.11358209714E+04  0.11358209714E+04  0.25500000920E-02 0.  1.
       -2   -1    0    0    0  501  0.00000000000E+00  0.00000000000E+00 -0.10673303423E+04  0.10673303423E+04  0.25500000920E-02 0. -1.
    10030    2    1    2    0    0  0.00000000000E+00  0.00000000000E+00  0.68490629091E+02  0.22031513137E+04  0.22020864526E+04 0.  0.
        3    1    3    3  502    0  0.33992376573E+03 -0.67413219591E+03  0.83606520020E+03  0.11265022917E+04  0.10100000352E+00 0.  1.
       -3    1    3    3    0  502 -0.33992376573E+03  0.67413219591E+03 -0.76757457111E+03  0.10766490220E+04  0.10100000352E+00 0. -1.
</event>
<event>
 5   0  0.7971153E-06  0.2895292E+04  0.7818609E-02  0.8274280E-01
       -1   -1    0    0    0  501  0.00000000000E+00  0.00000000000E+00  0.91020744196E+03  0.91020744197E+03  0.50400001928E-02 0. -1.
        1   -1    0    0  501    0  0.00000000000E+00  0.00000000000E+00 -0.23024196124E+04  0.23024196124E+04  0.50400001928E-02 0.  1.
    10030    2    1    2    0    0  0.00000000000E+00  0.00000000000E+00 -0.13922121704E+04  0.32126270544E+04  0.28952923623E+04 0.  0.
        5    1    3    3  502    0  0.24875409658E+03  0.13785357639E+04 -0.29080760523E+03  0.14306748779E+04  0.46999998093E+01 0. -1.
       -5    1    3    3    0  502 -0.24875409658E+03 -0.13785357639E+04 -0.11014045652E+04  0.17819521765E+04  0.46999998093E+01 0.  1.
</event>
<event>
 5   0  0.8234888E-06  0.2921817E+04  0.7818609E-02  0.8266416E-01
        1   -1    0    0  501    0  0.00000000000E+00  0.00000000000E+00  0.15594498492E+04  0.15594498493E+04  0.50400001928E-02 0. -1.
       -1   -1    0    0    0  501  0.00000000000E+00  0.00000000000E+00 -0.13685938251E+04  0.13685938251E+04  0.50400001928E-02 0.  1.
    10030    2    1    2    0    0  0.00000000000E+00  0.00000000000E+00  0.19085602417E+03  0.29280436743E+04  0.29218168555E+04 0.  0.
        3    1    3    3  502    0 -0.79641387356E+03 -0.34528820555E+03  0.12729872978E+04  0.15407776197E+04  0.10100000352E+00 0. -1.
       -3    1    3    3    0  502  0.79641387356E+03  0.34528820555E+03 -0.10821312736E+04  0.13872660546E+04  0.10100000352E+00 0.  1.
</event>
<event>
 5   0  0.7305460E-06  0.1839095E+04  0.7818609E-02  0.8685781E-01
       -1   -1    0    0    0  501  0.00000000000E+00  0.00000000000E+00  0.13984183219E+04  0.13984183219E+04  0.50400001928E-02 0. -1.
        1   -1    0    0  501    0  0.00000000000E+00  0.00000000000E+00 -0.60465987281E+03  0.60465987283E+03  0.50400001928E-02 0.  1.
    10030    2    1    2    0    0  0.00000000000E+00  0.00000000000E+00  0.79375844908E+03  0.20030781947E+04  0.18390948259E+04 0.  0.
        4    1    3    3  502    0  0.76324318362E+03 -0.35684504838E+03  0.79808147319E+03  0.11605232426E+04  0.12699999809E+01 0. -1.
       -4    1    3    3    0  502 -0.76324318362E+03  0.35684504838E+03 -0.43230241115E+01  0.84255495212E+03  0.12699999809E+01 0.  1.
</event>
<event>
 5   0  0.1829810E-05  0.1654126E+04  0.7818609E-02  0.8787969E-01
        2   -1    0    0  501    0  0.00000000000E+00  0.00000000000E+00  0.27481988010E+04  0.27481988010E+04  0.25500000920E-02 0.  1.
       -2   -1    0    0    0  501  0.00000000000E+00  0.00000000000E+00 -0.24890235571E+03  0.24890235572E+03  0.25500000920E-02 0. -1.
    10030    2    1    2    0    0  0.00000000000E+00  0.00000000000E+00  0.24992964453E+04  0.29971011567E+04  0.16541259390E+04 0.  0.
        4    1    3    3  502    0  0.21138160221E+03  0.42096916342E+03  0.17914186305E+02  0.47140189783E+03  0.12699999809E+01 0. -1.
       -4    1    3    3    0  502 -0.21138160221E+03 -0.42096916342E+03  0.24813822590E+04  0.25256992589E+04  0.12699999809E+01 0.  1.
</event>
<event>
 5   0  0.7305460E-06  0.1613863E+04  0.7818609E-02  0.8812076E-01
       -1   -1    0    0    0  501  0.00000000000E+00  0.00000000000E+00  0.71178297023E+03  0.71178297024E+03  0.50400001928E-02 0.  1.
        1   -1    0    0  501    0  0.00000000000E+00  0.00000000000E+00 -0.91479914773E+03  0.91479914775E+03  0.50400001928E-02 0. -1.
    10030    2    1    2    0    0  0.00000000000E+00  0.00000000000E+00 -0.20301617751E+03  0.16265821180E+04  0.16138630110E+04 0.  0.
        4    1    3    3  502    0  0.38123881283E+03  0.17741517268E+03 -0.79564314075E+03  0.89992710606E+03  0.12699999809E+01 0. -1.
       -4    1    3    3    0  502 -0.38123881283E+03 -0.17741517268E+03  0.59262696324E+03  0.72665501193E+03  0.12699999809E+01 0.  1.
</event>
<event>
 5   0  0.1960961E-05  0.2955214E+04  0.7818609E-02  0.8256637E-01
        2   -1    0    0  501    0  0.00000000000E+00  0.00000000000E+00  0.20660265479E+04  0.20660265479E+04  0.25500000920E-02 0.  1.
       -2   -1    0    0    0  501  0.00000000000E+00  0.00000000000E+00 -0.10567733375E+04  0.10567733375E+04  0.25500000920E-02 0. -1.
    10030    2    1    2    0    0  0.00000000000E+00  0.00000000000E+00  0.10092532104E+04  0.31227998854E+04  0.29552135425E+04 0.  0.
        5    1    3    3  502    0 -0.81922099025E+03 -0.59131825750E+03 -0.63471874695E+03  0.11931765545E+04  0.46999998093E+01 0. -1.
       -5    1    3    3    0  502  0.81922099025E+03  0.59131825750E+03  0.16439719574E+04  0.19296233309E+04  0.46999998093E+01 0.  1.
</event>
<event>
 5   0  0.8234888E-06  0.2705141E+04  0.7818609E-02  0.8333339E-01
       -1   -1    0    0    0  501  0.00000000000E+00  0.00000000000E+00  0.12986478014E+04  0.12986478014E+04  0.50400001928E-02 0.  1.
        1   -1    0    0  501    0  0.00000000000E+00  0.00000000000E+00 -0.14087326915E+04  0.14087326915E+04  0.50400001928E-02 0. -1.
    10030    2    1    2    0    0  0.00000000000E+00  0.00000000000E+00 -0.11008489016E+03  0.27073804929E+04  0.27051414843E+04 0.  0.
        3    1    3    3  502    0  0.11585881058E+04 -0.24456164779E+03  0.59918874893E+03  0.13270885297E+04  0.10100000352E+00 0.  1.
       -3    1    3    3    0  502 -0.11585881058E+04  0.24456164779E+03 -0.70927363909E+03  0.13802919632E+04  0.10100000352E+00 0. -1.
</event>
<event>
 5   0  0.1976233E-05  0.2980137E+04  0.7818609E-02  0.8249426E-01
       -2   -1    0    0    0  501  0.00000000000E+00  0.00000000000E+00  0.13130400261E+04  0.13130400261E+04  0.25500000920E-02 0. -1.
        2   -1    0    0  501    0  0.00000000000E+00  0.00000000000E+00 -0.16909642309E+04  0.16909642309E+04  0.25500000920E-02 0.  1.
    10030    2    1    2    0    0  0.00000000000E+00  0.00000000000E+00 -0.37792420478E+03  0.30040042571E+04  0.29801367203E+04 0.  0.
        2    1    3    3  502    0 -0.61627569156E+03  0.52364935975E+02  0.11775373119E+04  0.13300871909E+04  0.25500000920E-02 0. -1.
       -2    1    3    3    0  502  0.61627569156E+03 -0.52364935975E+02 -0.15554615167E+04  0.16739170662E+04  0.25500000920E-02 0.  1.
</event>
<event>
 5   0  0.1829810E-05  0.2896709E+04  0.7818609E-02  0.8273857E-01
       -2   -1    0    0    0  501  0.00000000000E+00  0.00000000000E+00  0.95882508945E+03  0.95882508946E+03  0.25500000920E-02 0. -1.
        2   -1    0    0  501    0  0.00000000000E+00  0.00000000000E+00 -0.21878145183E+04  0.21878145183E+04  0.25500000920E-02 0.  1.
    10030    2    1    2    0    0  0.00000000000E+00  0.00000000000E+00 -0.12289894288E+04  0.31466396077E+04  0.28967094788E+04 0.  0.
        4    1    3    3  502    0 -0.77148500044E+03  0.66893950965E+03 -0.17302803868E+04  0.20091144823E+04  0.12699999809E+01 0.  1.
       -4    1    3    3    0  502  0.77148500044E+03 -0.66893950965E+03  0.50129095794E+03  0.11375251254E+04  0.12699999809E+01 0. -1.
</event>
<event>
 5   0  0.1976233E-05  0.2862632E+04  0.7818609E-02  0.8284083E-01
        2   -1    0    0  501    0  0.00000000000E+00  0.00000000000E+00  0.20046723178E+04  0.20046723178E+04  0.25500000920E-02 0. -1.
       -2   -1    0    0    0  501  0.00000000000E+00  0.00000000000E+00 -0.10219451748E+04  0.10219451748E+04  0.25500000920E-02 0.  1.
    10030    2    1    2    0    0  0.00000000000E+00  0.00000000000E+00  0.98272714299E+03  0.30266174925E+04  0.28626317976E+04 0.  0.
        2    1    3    3  502    0  0.46898624523E+03  0.90538446141E+03 -0.57066643257E+03  0.11684730628E+04  0.25500000920E-02 0.  1.
       -2    1    3    3    0  502 -0.46898624523E+03 -0.90538446141E+03  0.15533935756E+04  0.18581444297E+04  0.25500000920E-02 0. -1.
</event>
<event>
 5   0  0.7305460E-06  0.1778427E+04  0.7818609E-02  0.8717857E-01
        1   -1    0    0  501    0  0.00000000000E+00  0.00000000000E+00  0.51733434335E+03  0.51733434337E+03  0.50400001928E-02 0.  1.
       -1   -1    0    0    0  501  0.00000000000E+00  0.00000000000E+00 -0.15284125377E+04  0.15284125377E+04  0.50400001928E-02 0. -1.
    10030    2    1    2    0    0  0.00000000000E+00  0.00000000000E+00 -0.10110781944E+04  0.20457468811E+04  0.17784266042E+04 0.  0.
        4    1    3    3  502    0  0.43333811898E+03  0.17934308847E+03 -0.13745795289E+04  0.14523829946E+04  0.12699999809E+01 0. -1.
       -4    1    3    3    0  502 -0.43333811898E+03 -0.17934308847E+03  0.36350133452E+03  0.59336388653E+03  0.12699999809E+01 0.  1.
</event>
<event>
 5   0  0.1960961E-05  0.2854883E+04  0.7818609E-02  0.8286429E-01
       -2   -1    0    0    0  501  0.00000000000E+00  0.00000000000E+00  0.23269082897E+04  0.23269082897E+04  0.25500000920E-02 0.  1.
        2   -1    0    0  501    0  0.00000000000E+00  0.00000000000E+00 -0.87566355621E+03  0.87566355621E+03  0.25500000920E-02 0. -1.
    10030    2    1    2    0    0  0.00000000000E+00  0.00000000000E+00  0.14512447335E+04  0.32025718459E+04  0.28548826862E+04 0.  0.
        5    1    3    3  502    0  0.10493920159E+04  0.24435585013E+03  0.17759374442E+04  0.20772359712E+04  0.46999998093E+01 0.  1.
       -5    1    3    3    0  502 -0.10493920159E+04 -0.24435585013E+03 -0.32469271071E+03  0.11253358747E+04  0.46999998093E+01 0. -1.
</event>
<event>
 5   0  0.8055928E-06  0.2737168E+04  0.7818609E-02  0.8323045E-01
        1   -1    0    0  501    0  0.00000000000E+00  0.00000000000E+00  0.17309169824E+04  0.17309169824E+04  0.50400001928E-02 0. -1.
       -1   -1    0    0    0  501  0.00000000000E+00  0.00000000000E+00 -0.10820981448E+04  0.10820981448E+04  0.50400001928E-02 0.  1.
    10030    2    1    2    0    0  0.00000000000E+00  0.00000000000E+00  0.64881883762E+03  0.28130151272E+04  0.27371679199E+04 0.  0.
        2    1    3    3  502    0  0.12561158274E+04 -0.53008988844E+03  0.20194451465E+03  0.13782611685E+04  0.25500000920E-02 0.  1.
       -2    1    3    3    0  502 -0.12561158274E+04  0.53008988844E+03  0.44687432297E+03  0.14347539587E+04  0.25500000920E-02 0. -1.
</event>
<event>
 5   0  0.8122088E-06  0.2851166E+04  0.7818609E-02  0.8287557E-01
       -1   -1    0    0    0  501  0.00000000000E+00  0.00000000000E+00  0.78950019140E+03  0.78950019142E+03  0.50400001928E-02 0. -1.
        1   -1    0    0  501    0  0.00000000000E+00  0.00000000000E+00 -0.25741444721E+04  0.25741444721E+04  0.50400001928E-02 0.  1.
    10030    2    1    2    0    0  0.00000000000E+00  0.00000000000E+00 -0.17846442807E+04  0.33636446635E+04  0.28511664654E+04 0.  0.
        1    1    3    3  502    0  0.63329534435E+03  0.93500134621E+03  0.13412036416E+03  0.11372241567E+04  0.50400001928E-02 0. -1.
       -1    1    3    3    0  502 -0.63329534435E+03 -0.93500134621E+03 -0.19187646448E+04  0.22264205067E+04  0.50400001928E-02 0.  1.
</event>
<event>
 5   0  0.7971153E-06  0.2312975E+04  0.7818609E-02  0.8472823E-01
       -1   -1    0    0    0  501  0.00000000000E+00  0.00000000000E+00  0.81875550681E+03  0.81875550683E+03  0.50400001928E-02 0.  1.
        1   -1    0    0  501    0  0.00000000000E+00  0.00000000000E+00 -0.16335325565E+04  0.16335325565E+04  0.50400001928E-02 0. -1.
    10030    2    1    2    0    0  0.00000000000E+00  0.00000000000E+00 -0.81477704966E+03  0.24522880633E+04  0.23129753792E+04 0.  0.
        5    1    3    3  502    0  0.36783490542E+03 -0.43679593350E+03 -0.14736184994E+04  0.15804008280E+04  0.46999998093E+01 0. -1.
       -5    1    3    3    0  502 -0.36783490542E+03  0.43679593350E+03  0.65884144979E+03  0.87188723532E+03  0.46999998093E+01 0.  1.
</event>
<event>
 5   0  0.7305460E-06  0.2850251E+04  0.7818609E-02  0.8287835E-01
       -1   -1    0    0    0  501  0.00000000000E+00  0.00000000000E+00  0.16409526015E+04  0.16409526015E+04  0.50400001928E-02 0. -1.
        1   -1    0    0  501    0  0.00000000000E+00  0.00000000000E+00 -0.12376851169E+04  0.12376851169E+04  0.50400001928E-02 0.  1.
    10030    2    1    2    0    0  0.00000000000E+00  0.00000000000E+00  0.40326748462E+03  0.28786377185E+04  0.28502509451E+04 0.  0.
        4    1    3    3  502    0 -0.26263849590E+03  0.86719083804E+02 -0.12103176008E+04  0.12415190239E+04  0.12699999809E+01 0.  1.
       -4    1    3    3    0  502  0.26263849590E+03 -0.86719083804E+02  0.16135850855E+04  0.16371186945E+04  0.12699999809E+01 0. -1.
</event>
<event>
 5   0  0.1918901E-05  0.3044095E+04  0.7818609E-02  0.8231250E-01
       -2   -1    0    0    0  501  0.00000000000E+00  0.00000000000E+00  0.11149339774E+04  0.11149339774E+04  0.25500000920E-02 0.  1.
        2   -1    0    0  501    0  0.00000000000E+00  0.00000000000E+00 -0.20778167919E+04  0.20778167919E+04  0.25500000920E-02 0. -1.
    10030    2    1    2    0    0  0.00000000000E+00  0.00000000000E+00 -0.96288281454E+03  0.31927507694E+04  0.30440949658E+04 0.  0.
        1    1    3    3  502    0 -0.70131700203E+03  0.10245091655E+04  0.44198780945E+03  0.13178838307E+04  0.50400001928E-02 0.  1.
       -1    1    3    3    0  502  0.70131700203E+03 -0.10245091655E+04 -0.14048706240E+04  0.18748669387E+04  0.50400001928E-02 0. -1.
</event>
<event>
 5   0  0.8122088E-06  0.2836118E+04  0.7818609E-02  0.8292142E-01
       -1   -1    0    0    0  501  0.00000000000E+00  0.00000000000E+00  0.12439108805E+04  0.12439108806E+04  0.50400001928E-02 0.  1.
        1   -1    0    0  501    0  0.00000000000E+00  0.00000000000E+00 -0.16165873869E+04  0.16165873869E+04  0.50400001928E-02 0. -1.
    10030    2    1    2    0    0  0.00000000000E+00  0.00000000000E+00 -0.37267650633E+03  0.28604982674E+04  0.28361175151E+04 0.  0.
        1    1    3    3  502    0 -0.21745739136E+03 -0.10139929500E+04 -0.11618243320E+04  0.15573391404E+04  0.50400001928E-02 0. -1.
       -1    1    3    3    0  502  0.21745739136E+03  0.10139929500E+04  0.78914782563E+03  0.13031591271E+04  0.50400001928E-02 0.  1.
</event>
<event>
 5   0  0.1937947E-05  0.2232382E+04  0.7818609E-02  0.8505070E-01
       -2   -1    0    0    0  501  0.00000000000E+00  0.00000000000E+00  0.60573774662E+03  0.60573774663E+03  0.25500000920E-02 0.  1.
        2   -1    0    0  501    0  0.00000000000E+00  0.00000000000E+00 -0.20568010432E+04  0.20568010432E+04  0.25500000920E-02 0. -1.
    10030    2    1    2    0    0  0.00000000000E+00  0.00000000000E+00 -0.14510632966E+04  0.26625387899E+04  0.22323817139E+04 0.  0.
        3    1    3    3  502    0 -0.91091739762E+03  0.49194108096E+03 -0.22787052468E+03  0.10600478851E+04  0.10100000352E+00 0.  1.
       -3    1    3    3    0  502  0.91091739762E+03 -0.49194108096E+03 -0.12231927719E+04  0.16024909048E+04  0.10100000352E+00 0. -1.
</event>
<event>
 5   0  0.1918901E-05  0.3010256E+04  0.7818609E-02  0.8240808E-01
       -2   -1    0    0    0  501  0.00000000000E+00  0.00000000000E+00  0.12246234766E+04  0.12246234766E+04  0.25500000920E-02 0.  1.
        2   -1    0    0  501    0  0.00000000000E+00  0.00000000000E+00 -0.18498828778E+04  0.18498828778E+04  0.25500000920E-02 0. -1.
    10030    2    1    2    0    0  0.00000000000E+00  0.00000000000E+00 -0.62525940117E+03  0.30745063545E+04  0.30102558039E+04 0.  0.
        1    1    3    3  502    0 -0.16588959648E+03 -0.47967897060E+03  0.11345820496E+04  0.12429351151E+04  0.50400001928E-02 0.  1.
       -1    1    3    3    0  502  0.16588959648E+03  0.47967897060E+03 -0.17598414508E+04  0.18315712394E+04  0.50400001928E-02 0. -1.
</event>
<event>
 5   0  0.1918901E-05  0.2969436E+04  0.7818609E-02  0.8252513E-01
        2   -1    0    0  501    0  0.00000000000E+00  0.00000000000E+00  0.18569541012E+04  0.18569541012E+04  0.25500000920E-02 0.  1.
       -2   -1    0    0    0  501  0.00000000000E+00  0.00000000000E+00 -0.11870985071E+04  0.11870985071E+04  0.25500000920E-02 0. -1.
    10030    2    1    2    0    0  0.00000000000E+00  0.00000000000E+00  0.66985559416E+03  0.30440526083E+04  0.29694359339E+04 0.  0.
        1    1    3    3  502    0  0.22663952654E+03 -0.13538975648E+04  0.91481281018E+03  0.16496322525E+04  0.50400001928E-02 0.  1.
       -1    1    3    3    0  502 -0.22663952654E+03  0.13538975648E+04 -0.24495721602E+03  0.13944203558E+04  0.50400001928E-02 0. -1.
</event>
<event>
 5   0  0.1960961E-05  0.2208558E+04  0.7818609E-02  0.8514874E-01
        2   -1    0    0  501    0  0.00000000000E+00  0.00000000000E+00  0.85572894828E+03  0.85572894829E+03  0.25500000920E-02 0.  1.
       -2   -1    0    0    0  501  0.00000000000E+00  0.00000000000E+00 -0.14250216799E+04  0.14250216799E+04  0.25500000920E-02 0. -1.
    10030    2    1    2    0    0  0.00000000000E+00  0.00000000000E+00 -0.56929273157E+03  0.22807506281E+04  0.22085581753E+04 0.  0.
        5    1    3    3  502    0 -0.46579962340E+03  0.29704650393E+03 -0.12720406054E+04  0.13868364383E+04  0.46999998093E+01 0. -1.
       -5    1    3    3    0  502  0.46579962340E+03 -0.29704650393E+03  0.70274787385E+03  0.89391418988E+03  0.46999998093E+01 0.  1.
</event>
<event>
 5   0  0.7971153E-06  0.2949760E+04  0.7818609E-02  0.8258225E-01
       -1   -1    0    0    0  501  0.00000000000E+00  0.00000000000E+00  0.23402526113E+04  0.23402526113E+04  0.50400001928E-02 0. -1.
        1   -1    0    0  501    0  0.00000000000E+00  0.00000000000E+00 -0.92950236316E+03  0.92950236317E+03  0.50400001928E-02 0.  1.
    10030    2    1    2    0    0  0.00000000000E+00  0.00000000000E+00  0.14107502481E+04  0.32697549744E+04  0.29497595377E+04 0.  0.
        5    1    3    3  502    0 -0.35903452509E+02  0.13749164391E+04  0.11510049190E+03  0.13802008860E+04  0.46999998093E+01 0. -1.
       -5    1    3    3    0  502  0.35903452509E+02 -0.13749164391E+04  0.12956497562E+04  0.18895540884E+04  0.46999998093E+01 0.  1.
</event>
<event>
 5   0  0.1937947E-05  0.2942653E+04  0.7818609E-02  0.8260299E-01
        2   -1    0    0  501    0  0.00000000000E+00  0.00000000000E+00  0.24091462161E+04  0.24091462161E+04  0.25500000920E-02 0. -1.
       -2   -1    0    0    0  501  0.00000000000E+00  0.00000000000E+00 -0.89857625450E+03  0.89857625451E+03  0.25500000920E-02 0.  1.
    10030    2    1    2    0    0  0.00000000000E+00  0.00000000000E+00  0.15105699616E+04  0.33077224706E+04  0.29426529414E+04 0.  0.
        3    1    3    3  502    0 -0.12886738229E+04 -0.70856331579E+03  0.70427464786E+03  0.16305658478E+04  0.10100000352E+00 0.  1.
       -3    1    3    3    0  502  0.12886738229E+04  0.70856331579E+03  0.80629531374E+03  0.16771566228E+04  0.10100000352E+00 0. -1.
</event>
<event>
 5   0  0.8055928E-06  0.2876792E+04  0.7818609E-02  0.8279816E-01
       -1   -1    0    0    0  501  0.00000000000E+00  0.00000000000E+00  0.14480984336E+04  0.14480984336E+04  0.50400001928E-02 0.  1.
        1   -1    0    0  501    0  0.00000000000E+00  0.00000000000E+00 -0.14287583106E+04  0.14287583106E+04  0.50400001928E-02 0. -1.
    10030    2    1    2    0    0  0.00000000000E+00  0.00000000000E+00  0.19340122997E+02  0.28768567441E+04  0.28767917349E+04 0.  0.
        2    1    3    3  502    0  0.26085990702E+03 -0.10954280139E+04  0.90466081425E+03  0.14444450885E+04  0.25500000920E-02 0.  1.
       -2    1    3    3    0  502 -0.26085990702E+03  0.10954280139E+04 -0.88532069125E+03  0.14324116556E+04  0.25500000920E-02 0. -1.
</event>
<event>
 5   0  0.8122088E-06  0.2534175E+04  0.7818609E-02  0.8390911E-01
       -1   -1    0    0    0  501  0.00000000000E+00  0.00000000000E+00  0.81618775454E+03  0.81618775456E+03  0.50400001928E-02 0. -1.
        1   -1    0    0  501    0  0.00000000000E+00  0.00000000000E+00 -0.19670853031E+04  0.19670853031E+04  0.50400001928E-02 0.  1.
    10030    2    1    2    0    0  0.00000000000E+00  0.00000000000E+00 -0.11508975486E+04  0.27832730577E+04  0.25341751609E+04 0.  0.
        1    1    3    3  502    0  0.11973413258E+03  0.11346342364E+04 -0.11807877654E+04  0.16419472768E+04  0.50400001928E-02 0.  1.
       -1    1    3    3    0  502 -0.11973413258E+03 -0.11346342364E+04  0.29890216853E+02  0.11413257808E+04  0.50400001928E-02 0. -1.
</event>
<event>
 5   0  0.8234888E-06  0.2912277E+04  0.7818609E-02  0.8269234E-01
       -1   -1    0    0    0  501  0.00000000000E+00  0.00000000000E+00  0.18305529704E+04  0.18305529704E+04  0.50400001928E-02 0. -1.
        1   -1    0    0  501    0  0.00000000000E+00  0.00000000000E+00 -0.11583052204E+04  0.11583052204E+04  0.50400001928E-02 0.  1.
    10030    2    1    2    0    0  0.00000000000E+00  0.00000000000E+00  0.67224774999E+03  0.29888581908E+04  0.29122768150E+04 0.  0.
        3    1    3    3  502    0 -0.64183968810E+03 -0.12858629719E+04  0.95573383066E+02  0.14403249805E+04  0.10100000352E+00 0.  1.
       -3    1    3    3    0  502  0.64183968810E+03  0.12858629719E+04  0.57667436693E+03  0.15485332103E+04  0.10100000352E+00 0. -1.
</event>
<event>
 5   0  0.8234888E-06  0.2736950E+04  0.7818609E-02  0.8323115E-01
       -1   -1    0    0    0  501  0.00000000000E+00  0.00000000000E+00  0.97722722025E+03  0.97722722026E+03  0.50400001928E-02 0. -1.
        1   -1    0    0  501    0  0.00000000000E+00  0.00000000000E+00 -0.19163642429E+04  0.19163642429E+04  0.50400001928E-02 0.  1.
    10030    2    1    2    0    0  0.00000000000E+00  0.00000000000E+00 -0.93913702263E+03  0.28935914631E+04  0.27369496174E+04 0.  0.
        3    1    3    3  502    0 -0.10772080916E+04 -0.34666204287E+03  0.34400002265E+03  0.11827459027E+04  0.10100000352E+00 0. -1.
       -3    1    3    3    0  502  0.10772080916E+04  0.34666204287E+03 -0.12831370453E+04  0.17108455605E+04  0.10100000352E+00 0.  1.
</event>
<event>
 5   0  0.1976233E-05  0.2754197E+04  0.7818609E-02  0.8317631E-01
        2   -1    0    0  501    0  0.00000000000E+00  0.00000000000E+00  0.25411108371E+04  0.25411108371E+04  0.25500000920E-02 0.  1.
       -2   -1    0    0    0  501  0.00000000000E+00  0.00000000000E+00 -0.74628769715E+03  0.74628769715E+03  0.25500000920E-02 0. -1.
    10030    2    1    2    0    0  0.00000000000E+00  0.00000000000E+00  0.17948231400E+04  0.32873985343E+04  0.27541966196E+04 0.  0.
        2    1    3    3  502    0  0.54526821632E+03  0.89339121410E+03 -0.17079663020E+03  0.10604889335E+04  0.25500000920E-02 0. -1.
       -2    1    3    3    0  502 -0.54526821632E+03 -0.89339121410E+03  0.19656197702E+04  0.22269096008E+04  0.25500000920E-02 0.  1.
</event>
<event>
 5   0  0.7971153E-06  0.2856515E+04  0.7818609E-02  0.8285934E-01
        1   -1    0    0  501    0  0.00000000000E+00  0.00000000000E+00  0.16304939559E+04  0.16304939559E+04  0.50400001928E-02 0. -1.
       -1   -1    0    0    0  501  0.00000000000E+00  0.00000000000E+00 -0.12511055124E+04  0.12511055124E+04  0.50400001928E-02 0.  1.
    10030    2    1    2    0    0  0.00000000000E+00  0.00000000000E+00  0.37938844354E+03  0.28815994683E+04  0.28565153430E+04 0.  0.
        5    1    3    3  502    0  0.14067707969E+04  0.41688409714E+02 -0.55661416043E+02  0.14084964614E+04  0.46999998093E+01 0.  1.
       -5    1    3    3    0  502 -0.14067707969E+04 -0.41688409714E+02  0.43504985959E+03  0.14731030069E+04  0.46999998093E+01 0. -1.
</event>
<event>
 5   0  0.1960961E-05  0.2789630E+04  0.7818609E-02  0.8306495E-01
       -2   -1    0    0    0  501  0.00000000000E+00  0.00000000000E+00  0.90174788079E+03  0.90174788079E+03  0.25500000920E-02 0.  1.
        2   -1    0    0  501    0  0.00000000000E+00  0.00000000000E+00 -0.21574863234E+04  0.21574863234E+04  0.25500000920E-02 0. -1.
    10030    2    1    2    0    0  0.00000000000E+00  0.00000000000E+00 -0.12557384426E+04  0.30592342042E+04  0.27896298822E+04 0.  0.
        5    1    3    3  502    0 -0.13806135422E+04  0.11299363851E+03 -0.80681172678E+03  0.16030684851E+04  0.46999998093E+01 0.  1.
       -5    1    3    3    0  502  0.13806135422E+04 -0.11299363851E+03 -0.44892671579E+03  0.14561657191E+04  0.46999998093E+01 0. -1.
</event>
<event>
 5   0  0.8055928E-06  0.2870968E+04  0.7818609E-02  0.8281568E-01
       -1   -1    0    0    0  501  0.00000000000E+00  0.00000000000E+00  0.10331804445E+04  0.10331804445E+04  0.50400001928E-02 0.  1.
        1   -1    0    0  501    0  0.00000000000E+00  0.00000000000E+00 -0.19944381017E+04  0.19944381017E+04  0.50400001928E-02 0. -1.
    10030    2    1    2    0    0  0.00000000000E+00  0.00000000000E+00 -0.96125765712E+03  0.30276185462E+04  0.28709680907E+04 0.  0.
        2    1    3    3  502    0 -0.14004771587E+04 -0.12708179512E+03 -0.78468055648E+03  0.16103445688E+04  0.25500000920E-02 0. -1.
       -2    1    3    3    0  502  0.14004771587E+04  0.12708179512E+03 -0.17657710065E+03  0.14172739774E+04  0.25500000920E-02 0.  1.
</event>
<event>
 5   0  0.1960961E-05  0.2898813E+04  0.7818609E-02  0.8273231E-01
       -2   -1    0    0    0  501  0.00000000000E+00  0.00000000000E+00  0.12767316116E+04  0.12767316116E+04  0.25500000920E-02 0. -1.
        2   -1    0    0  501    0  0.00000000000E+00  0.00000000000E+00 -0.16454354783E+04  0.16454354783E+04  0.25500000920E-02 0.  1.
    10030    2    1    2    0    0  0.00000000000E+00  0.00000000000E+00 -0.36870386666E+03  0.29221670899E+04  0.28988131986E+04 0.  0.
        5    1    3    3  502    0  0.78181001225E+02 -0.13113180156E+04  0.43302822804E+03  0.13831857227E+04  0.46999998093E+01 0. -1.
       -5    1    3    3    0  502 -0.78181001225E+02  0.13113180156E+04 -0.80173209470E+03  0.15389813673E+04  0.46999998093E+01 0.  1.
</event>
<event>
 5   0  0.8122088E-06  0.2847280E+04  0.7818609E-02  0.8288738E-01
       -1   -1    0    0    0  501  0.00000000000E+00  0.00000000000E+00  0.92002773693E+03  0.92002773695E+03  0.50400001928E-02 0. -1.
        1   -1    0    0  501    0  0.00000000000E+00  0.00000000000E+00 -0.22029230193E+04  0.22029230194E+04  0.50400001928E-02 0.  1.
    10030    2    1    2    0    0  0.00000000000E+00  0.00000000000E+00 -0.12828952824E+04  0.31229507563E+04  0.28472796000E+04 0.  0.
        1    1    3    3  502    0  0.43954494740E+03 -0.58408943719E+02 -0.21252533835E+04  0.21710166535E+04  0.50400001928E-02 0.  1.
       -1    1    3    3    0  502 -0.43954494740E+03  0.58408943719E+02  0.84235810113E+03  0.95193410280E+03  0.50400001928E-02 0. -1.
</event>
<event>
 5   0  0.8055928E-06  0.2851164E+04  0.7818609E-02  0.8287558E-01
        1   -1    0    0  501    0  0.00000000000E+00  0.00000000000E+00  0.29300583783E+04  0.29300583783E+04  0.50400001928E-02 0.  1.
       -1   -1    0    0    0  501  0.00000000000E+00  0.00000000000E+00 -0.69359867713E+03  0.69359867715E+03  0.50400001928E-02 0. -1.
    10030    2    1    2    0    0  0.00000000000E+00  0.00000000000E+00  0.22364597011E+04  0.36236570554E+04  0.28511644043E+04 0.  0.
        2    1    3    3  502    0 -0.11372125656E+04  0.84227570912E+03  0.89955504596E+03  0.16768661456E+04  0.25500000920E-02 0. -1.
       -2    1    3    3    0  502  0.11372125656E+04 -0.84227570912E+03  0.13369046552E+04  0.19467909098E+04  0.25500000920E-02 0.  1.
</event>
<event>
 5   0  0.1918901E-05  0.2849044E+04  0.7818609E-02  0.8288202E-01
       -2   -1    0    0    0  501  0.00000000000E+00  0.00000000000E+00  0.26530914039E+04  0.26530914039E+04  0.25500000920E-02 0.  1.
        2   -1    0    0  501    0  0.00000000000E+00  0.00000000000E+00 -0.76486749599E+03  0.76486749599E+03  0.25500000920E-02 0. -1.
    10030    2    1    2    0    0  0.00000000000E+00  0.00000000000E+00  0.18882239080E+04  0.34179588999E+04  0.28490443161E+04 0.  0.
        1    1    3    3  502    0  0.71540674485E+03 -0.77751756650E+03  0.20903760948E+04  0.23422238566E+04  0.50400001928E-02 0.  1.
       -1    1    3    3    0  502 -0.71540674485E+03  0.77751756650E+03 -0.20215218682E+03  0.10757350433E+04  0.50400001928E-02 0. -1.
</event>
<event>
 5   0  0.1918901E-05  0.2905349E+04  0.7818609E-02  0.8271288E-01
       -2   -1    0    0    0  501  0.00000000000E+00  0.00000000000E+00  0.99656335512E+03  0.99656335513E+03  0.25500000920E-02 0.  1.
        2   -1    0    0  501    0  0.00000000000E+00  0.00000000000E+00 -0.21175398834E+04  0.21175398834E+04  0.25500000920E-02 0. -1.
    10030    2    1    2    0    0  0.00000000000E+00  0.00000000000E+00 -0.11209765282E+04  0.31141032385E+04  0.29053486199E+04 0.  0.
        1    1    3    3  502    0 -0.41563965981E+03 -0.11793962577E+03  0.92610359812E+03  0.10219265906E+04  0.50400001928E-02 0.  1.
       -1    1    3    3    0  502  0.41563965981E+03  0.11793962577E+03 -0.20470801264E+04  0.20921766479E+04  0.50400001928E-02 0. -1.
</event>
<event>
 5   0  0.7305460E-06  0.1977760E+04  0.7818609E-02  0.8617090E-01
        1   -1    0    0  501    0  0.00000000000E+00  0.00000000000E+00  0.24867965326E+04  0.24867965326E+04  0.50400001928E-02 0. -1.
       -1   -1    0    0    0  501  0.00000000000E+00  0.00000000000E+00 -0.39323035486E+03  0.39323035489E+03  0.50400001928E-02 0.  1.
    10030    2    1    2    0    0  0.00000000000E+00  0.00000000000E+00  0.20935661777E+04  0.28800268875E+04  0.19777602312E+04 0.  0.
        4    1    3    3  502    0 -0.40090632852E+03  0.74814610583E+03  0.17856320684E+04  0.19771019136E+04  0.12699999809E+01 0. -1.
       -4    1    3    3    0  502  0.40090632852E+03 -0.74814610583E+03  0.30793410927E+03  0.90292497389E+03  0.12699999809E+01 0.  1.
</event>
<event>
 5   0  0.1960961E-05  0.2899620E+04  0.7818609E-02  0.8272991E-01
        2   -1    0    0  501    0  0.00000000000E+00  0.00000000000E+00  0.84106164042E+03  0.84106164042E+03  0.25500000920E-02 0.  1.
       -2   -1    0    0    0  501  0.00000000000E+00  0.00000000000E+00 -0.24991609004E+04  0.24991609004E+04  0.25500000920E-02 0. -1.
    10030    2    1    2    0    0  0.00000000000E+00  0.00000000000E+00 -0.16580992600E+04  0.33402225408E+04  0.28996195382E+04 0.  0.
        5    1    3    3  502    0  0.10195779849E+03 -0.35209223966E+02  0.83642407584E+03  0.84336374523E+03  0.46999998093E+01 0.  1.
       -5    1    3    3    0  502 -0.10195779849E+03  0.35209223966E+02 -0.24945233358E+04  0.24968587956E+04  0.46999998093E+01 0. -1.
</event>
<event>
 5   0  0.7971153E-06  0.2883764E+04  0.7818609E-02  0.8277725E-01
       -1   -1    0    0    0  501  0.00000000000E+00  0.00000000000E+00  0.13398008429E+04  0.13398008429E+04  0.50400001928E-02 0.  1.
        1   -1    0    0  501    0  0.00000000000E+00  0.00000000000E+00 -0.15517409156E+04  0.15517409156E+04  0.50400001928E-02 0. -1.
    10030    2    1    2    0    0  0.00000000000E+00  0.00000000000E+00 -0.21194007275E+03  0.28915417586E+04  0.28837640588E+04 0.  0.
        5    1    3    3  502    0  0.76857404781E+03 -0.65873955692E+03 -0.11355587111E+04  0.15212361905E+04  0.46999998093E+01 0. -1.
       -5    1    3    3    0  502 -0.76857404781E+03  0.65873955692E+03  0.92361863835E+03  0.13703055681E+04  0.46999998093E+01 0.  1.
</event>
<event>
 5   0  0.8055928E-06  0.2928873E+04  0.7818609E-02  0.8264338E-01
        1   -1    0    0  501    0  0.00000000000E+00  0.00000000000E+00  0.22990252069E+04  0.22990252070E+04  0.50400001928E-02 0.  1.
       -1   -1    0    0    0  501  0.00000000000E+00  0.00000000000E+00 -0.93281887810E+03  0.93281887812E+03  0.50400001928E-02 0. -1.
    10030    2    1    2    0    0  0.00000000000E+00  0.00000000000E+00  0.13662063288E+04  0.32318440851E+04  0.29288728988E+04 0.  0.
        2    1    3    3  502    0 -0.29845167857E+03  0.11512030862E+04 -0.25982879192E+03  0.12173138261E+04  0.25500000920E-02 0. -1.
       -2    1    3    3    0  502  0.29845167857E+03 -0.11512030862E+04  0.16260351208E+04  0.20145302589E+04  0.25500000920E-02 0.  1.
</event>
<event>
 5   0  0.1960961E-05  0.2880675E+04  0.7818609E-02  0.8278650E-01
       -2   -1    0    0    0  501  0.00000000000E+00  0.00000000000E+00  0.14569885617E+04  0.14569885617E+04  0.25500000920E-02 0.  1.
        2   -1    0    0  501    0  0.00000000000E+00  0.00000000000E+00 -0.14238770062E+04  0.14238770062E+04  0.25500000920E-02 0. -1.
    10030    2    1    2    0    0  0.00000000000E+00  0.00000000000E+00  0.33111555523E+02  0.28808655679E+04  0.28806752759E+04 0.  0.
        5    1    3    3  502    0  0.12415172840E+04 -0.10472671090E+03  0.73924974245E+03  0.14487391491E+04  0.46999998093E+01 0.  1.
       -5    1    3    3    0  502 -0.12415172840E+04  0.10472671090E+03 -0.70613818693E+03  0.14321264188E+04  0.46999998093E+01 0. -1.
</event>
<event>
 5   0  0.1918901E-05  0.1671866E+04  0.7818609E-02  0.8777575E-01
       -2   -1    0    0    0  501  0.00000000000E+00  0.00000000000E+00  0.63848713451E+03  0.63848713452E+03  0.25500000920E-02 0. -1.
        2   -1    0    0  501    0  0.00000000000E+00  0.00000000000E+00 -0.10944366364E+04  0.10944366364E+04  0.25500000920E-02 0.  1.
    10030    2    1    2    0    0  0.00000000000E+00  0.00000000000E+00 -0.45594950191E+03  0.17329237709E+04  0.16718656787E+04 0.  0.
        1    1    3    3  502    0  0.68067823396E+03  0.38544312196E+03 -0.53351899354E+03  0.94685361854E+03  0.50400001928E-02 0.  1.
       -1    1    3    3    0  502 -0.68067823396E+03 -0.38544312196E+03  0.77569491631E+02  0.78607015241E+03  0.50400001928E-02 0. -1.
</event>
<event>
 5   0  0.8055928E-06  0.2934588E+04  0.7818609E-02  0.8262660E-01
        1   -1    0    0  501    0  0.00000000000E+00  0.00000000000E+00  0.11060583039E+04  0.11060583039E+04  0.50400001928E-02 0.  1.
       -1   -1    0    0    0  501  0.00000000000E+00  0.00000000000E+00 -0.19465079854E+04  0.19465079854E+04  0.50400001928E-02 0. -1.
    10030    2    1    2    0    0  0.00000000000E+00  0.00000000000E+00 -0.84044968150E+03  0.30525662893E+04  0.29345877536E+04 0.  0.
        2    1    3    3  502    0  0.13166108209E+04  0.58681736964E+03 -0.13510178766E+03  0.14477814656E+04  0.25500000920E-02 0.  1.
       -2    1    3    3    0  502 -0.13166108209E+04 -0.58681736964E+03 -0.70534789385E+03  0.16047848237E+04  0.25500000920E-02 0. -1.
</event>
<event>
 5   0  0.6578125E-06  0.2825440E+04  0.7818609E-02  0.8295414E-01
       -3   -1    0    0    0  501  0.00000000000E+00  0.00000000000E+00  0.11191115833E+04  0.11191115878E+04  0.10100000352E+00 0. -1.
        3   -1    0    0  501    0  0.00000000000E+00  0.00000000000E+00 -0.17833584661E+04  0.17833584689E+04  0.10100000352E+00 0.  1.
    10030    2    1    2    0    0  0.00000000000E+00  0.00000000000E+00 -0.66424688277E+03  0.29024700568E+04  0.28254395249E+04 0.  0.
        2    1    3    3  502    0  0.75255549942E+03 -0.11918625264E+04 -0.23520582240E+03  0.14290548766E+04  0.25500000920E-02 0.  1.
       -2    1    3    3    0  502 -0.75255549942E+03  0.11918625264E+04 -0.42904106037E+03  0.14734151801E+04  0.25500000920E-02 0. -1.
</event>
<event>
 5   0  0.8234888E-06  0.2822785E+04  0.7818609E-02  0.8296229E-01
        1   -1    0    0  501    0  0.00000000000E+00  0.00000000000E+00  0.14160285213E+04  0.14160285213E+04  0.50400001928E-02 0.  1.
       -1   -1    0    0    0  501  0.00000000000E+00  0.00000000000E+00 -0.14067719817E+04  0.14067719817E+04  0.50400001928E-02 0. -1.
    10030    2    1    2    0    0  0.00000000000E+00  0.00000000000E+00  0.92565396381E+01  0.28228005030E+04  0.28227853259E+04 0.  0.
        3    1    3    3  502    0 -0.98795962431E+03  0.50880372071E+03  0.87473856999E+03  0.14142535209E+04  0.10100000352E+00 0.  1.
       -3    1    3    3    0  502  0.98795962431E+03 -0.50880372071E+03 -0.86548203035E+03  0.14085469820E+04  0.10100000352E+00 0. -1.
</event>
<event>
 5   0  0.8234888E-06  0.2892126E+04  0.7818609E-02  0.8275224E-01
       -1   -1    0    0    0  501  0.00000000000E+00  0.00000000000E+00  0.11657780901E+04  0.11657780901E+04  0.50400001928E-02 0. -1.
        1   -1    0    0  501    0  0.00000000000E+00  0.00000000000E+00 -0.17937360306E+04  0.17937360306E+04  0.50400001928E-02 0.  1.
    10030    2    1    2    0    0  0.00000000000E+00  0.00000000000E+00 -0.62795794049E+03  0.29595141207E+04  0.28921259751E+04 0.  0.
        3    1    3    3  502    0  0.10832066901E+04 -0.51935208112E+02  0.66489996297E+03  0.12720558047E+04  0.10100000352E+00 0. -1.
       -3    1    3    3    0  502 -0.10832066901E+04  0.51935208112E+02 -0.12928579035E+04  0.16874583160E+04  0.10100000352E+00 0.  1.
</event>
<event>
 5   0  0.7971153E-06  0.1487933E+04  0.7818609E-02  0.8892517E-01
       -1   -1    0    0    0  501  0.00000000000E+00  0.00000000000E+00  0.40806300921E+03  0.40806300924E+03  0.50400001928E-02 0. -1.
        1   -1    0    0  501    0  0.00000000000E+00  0.00000000000E+00 -0.13563742113E+04  0.13563742113E+04  0.50400001928E-02 0.  1.
    10030    2    1    2    0    0  0.00000000000E+00  0.00000000000E+00 -0.94831120208E+03  0.17644372205E+04  0.14879329855E+04 0.  0.
        5    1    3    3  502    0 -0.58310798860E+03 -0.17699023675E+03 -0.98022016833E+03  0.11542071472E+04  0.46999998093E+01 0.  1.
       -5    1    3    3    0  502  0.58310798860E+03  0.17699023675E+03  0.31908966252E+02  0.61023007333E+03  0.46999998093E+01 0. -1.
</event>
<event>
 5   0  0.7305460E-06  0.2109875E+04  0.7818609E-02  0.8556906E-01
       -1   -1    0    0    0  501  0.00000000000E+00  0.00000000000E+00  0.10621118654E+04  0.10621118654E+04  0.50400001928E-02 0.  1.
        1   -1    0    0  501    0  0.00000000000E+00  0.00000000000E+00 -0.10478113001E+04  0.10478113001E+04  0.50400001928E-02 0. -1.
    10030    2    1    2    0    0  0.00000000000E+00  0.00000000000E+00  0.14300565276E+02  0.21099231655E+04  0.21098747020E+04 0.  0.
        4    1    3    3  502    0  0.10214492848E+04  0.23193891690E+03 -0.11829939626E+03  0.10541113142E+04  0.12699999809E+01 0.  1.
       -4    1    3    3    0  502 -0.10214492848E+04 -0.23193891690E+03  0.13259996154E+03  0.10558118513E+04  0.12699999809E+01 0. -1.
</event>
<event>
 5   0  0.7971153E-06  0.2906686E+04  0.7818609E-02  0.8270891E-01
       -1   -1    0    0    0  501  0.00000000000E+00  0.00000000000E+00  0.11266453403E+04  0.11266453404E+04  0.50400001928E-02 0.  1.
        1   -1    0    0  501    0  0.00000000000E+00  0.00000000000E+00 -0.18747746253E+04  0.18747746253E+04  0.50400001928E-02 0. -1.
    10030    2    1    2    0    0  0.00000000000E+00  0.00000000000E+00 -0.74812928494E+03  0.30014199656E+04  0.29066861515E+04 0.  0.
        5    1    3    3  502    0 -0.70505780145E+03  0.94502284928E+03  0.50334019909E+03  0.12820094130E+04  0.46999998093E+01 0.  1.
       -5    1    3    3    0  502  0.70505780145E+03 -0.94502284928E+03 -0.12514694840E+04  0.17194105526E+04  0.46999998093E+01 0. -1.
</event>
<event>
 5   0  0.1829810E-05  0.2111463E+04  0.7818609E-02  0.8556211E-01
       -2   -1    0    0    0  501  0.00000000000E+00  0.00000000000E+00  0.73269024574E+03  0.73269024574E+03  0.25500000920E-02 0. -1.
        2   -1    0    0  501    0  0.00000000000E+00  0.00000000000E+00 -0.15212003347E+04  0.15212003347E+04  0.25500000920E-02 0.  1.
    10030    2    1    2    0    0  0.00000000000E+00  0.00000000000E+00 -0.78851008895E+03  0.22538905804E+04  0.21114626656E+04 0.  0.
        4    1    3    3  502    0  0.19078701555E+03  0.33033250068E+03  0.65654968560E+03  0.75932756362E+03  0.12699999809E+01 0. -1.
       -4    1    3    3    0  502 -0.19078701555E+03 -0.33033250068E+03 -0.14450597745E+04  0.14945630168E+04  0.12699999809E+01 0.  1.
</event>
<event>
 5   0  0.7971153E-06  0.2923614E+04  0.7818609E-02  0.8265886E-01
       -1   -1    0    0    0  501  0.00000000000E+00  0.00000000000E+00  0.10039937699E+04  0.10039937699E+04  0.50400001928E-02 0.  1.
        1   -1    0    0  501    0  0.00000000000E+00  0.00000000000E+00 -0.21283792993E+04  0.21283792993E+04  0.50400001928E-02 0. -1.
    10030    2    1    2    0    0  0.00000000000E+00  0.00000000000E+00 -0.11243855294E+04  0.31323730692E+04  0.29236138983E+04 0.  0.
        5    1    3    3  502    0 -0.37979713523E+03 -0.12739284696E+04  0.89268618621E+02  0.13323402666E+04  0.46999998093E+01 0.  1.
       -5    1    3    3    0  502  0.37979713523E+03  0.12739284696E+04 -0.12136541481E+04  0.18000328027E+04  0.46999998093E+01 0. -1.
</event>
<event>
 5   0  0.1937947E-05  0.2926195E+04  0.7818609E-02  0.8265126E-01
        2   -1    0    0  501    0  0.00000000000E+00  0.00000000000E+00  0.26948963730E+04  0.26948963730E+04  0.25500000920E-02 0. -1.
       -2   -1    0    0    0  501  0.00000000000E+00  0.00000000000E+00 -0.79433632725E+03  0.79433632725E+03  0.25500000920E-02 0.  1.
    10030    2    1    2    0    0  0.00000000000E+00  0.00000000000E+00  0.19005600457E+04  0.34892327002E+04  0.29261948583E+04 0.  0.
        3    1    3    3  502    0 -0.10896146025E+03 -0.44601578284E+03 -0.70620924138E+03  0.84233851935E+03  0.10100000352E+00 0.  1.
       -3    1    3    3    0  502  0.10896146025E+03  0.44601578284E+03  0.26067692871E+04  0.26468941809E+04  0.10100000352E+00 0. -1.
</event>
<event>
 5   0  0.1937947E-05  0.1597585E+04  0.7818609E-02  0.8822033E-01
        2   -1    0    0  501    0  0.00000000000E+00  0.00000000000E+00  0.51868085615E+03  0.51868085616E+03  0.25500000920E-02 0.  1.
       -2   -1    0    0    0  501  0.00000000000E+00  0.00000000000E+00 -0.12301771279E+04  0.12301771279E+04  0.25500000920E-02 0. -1.
    10030    2    1    2    0    0  0.00000000000E+00  0.00000000000E+00 -0.71149627177E+03  0.17488579841E+04  0.15975848346E+04 0.  0.
        3    1    3    3  502    0 -0.19855790137E+03 -0.10262517074E+03  0.48375184505E+03  0.53289119307E+03  0.10100000352E+00 0.  1.
       -3    1    3    3    0  502  0.19855790137E+03  0.10262517074E+03 -0.11952481168E+04  0.12159667910E+04  0.10100000352E+00 0. -1.
</event>
<event>
 5   0  0.1960961E-05  0.2926569E+04  0.7818609E-02  0.8265016E-01
        2   -1    0    0  501    0  0.00000000000E+00  0.00000000000E+00  0.18992055036E+04  0.18992055036E+04  0.25500000920E-02 0. -1.
       -2   -1    0    0    0  501  0.00000000000E+00  0.00000000000E+00 -0.11274192658E+04  0.11274192658E+04  0.25500000920E-02 0.  1.
    10030    2    1    2    0    0  0.00000000000E+00  0.00000000000E+00  0.77178623780E+03  0.30266247695E+04  0.29265685535E+04 0.  0.
        5    1    3    3  502    0  0.79505751159E+03 -0.45841022251E+02 -0.88366000329E+03  0.11895776299E+04  0.46999998093E+01 0.  1.
       -5    1    3    3    0  502 -0.79505751159E+03  0.45841022251E+02  0.16554462411E+04  0.18370471396E+04  0.46999998093E+01 0. -1.
</event>
<event>
 5   0  0.1960961E-05  0.1504006E+04  0.7818609E-02  0.8881793E-01
       -2   -1    0    0    0  501  0.00000000000E+00  0.00000000000E+00  0.45919437489E+03  0.45919437490E+03  0.25500000920E-02 0. -1.
        2   -1    0    0  501    0  0.00000000000E+00  0.00000000000E+00 -0.12315236935E+04  0.12315236935E+04  0.25500000920E-02 0.  1.
    10030    2    1    2    0    0  0.00000000000E+00  0.00000000000E+00 -0.77232931863E+03  0.16907180684E+04  0.15040063200E+04 0.  0.
        5    1    3    3  502    0  0.49633130982E+02 -0.70298094718E+03 -0.91216882610E+02  0.71062526655E+03  0.46999998093E+01 0. -1.
       -5    1    3    3    0  502 -0.49633130982E+02  0.70298094718E+03 -0.68111243602E+03  0.98009280188E+03  0.46999998093E+01 0.  1.
</event>
<event>
 5   0  0.7971153E-06  0.2957015E+04  0.7818609E-02  0.8256113E-01
        1   -1    0    0  501    0  0.00000000000E+00  0.00000000000E+00  0.15685260944E+04  0.15685260944E+04  0.50400001928E-02 0. -1.
       -1   -1    0    0    0  501  0.00000000000E+00  0.00000000000E+00 -0.13936549863E+04  0.13936549863E+04  0.50400001928E-02 0.  1.
    10030    2    1    2    0    0  0.00000000000E+00  0.00000000000E+00  0.17487110814E+03  0.29621810807E+04  0.29570148547E+04 0.  0.
        5    1    3    3  502    0  0.22978851641E+03  0.14570895796E+04 -0.12985871619E+02  0.14751622040E+04  0.46999998093E+01 0.  1.
       -5    1    3    3    0  502 -0.22978851641E+03 -0.14570895796E+04  0.18785697976E+03  0.14870188768E+04  0.46999998093E+01 0. -1.
</event>
<event>
 5   0  0.8055928E-06  0.1941941E+04  0.7818609E-02  0.8634257E-01
        1   -1    0    0  501    0  0.00000000000E+00  0.00000000000E+00  0.82190908493E+03  0.82190908495E+03  0.50400001928E-02 0.  1.
       -1   -1    0    0    0  501  0.00000000000E+00  0.00000000000E+00 -0.11470654127E+04  0.11470654127E+04  0.50400001928E-02 0. -1.
    10030    2    1    2    0    0  0.00000000000E+00  0.00000000000E+00 -0.32515632776E+03  0.19689744977E+04  0.19419407650E+04 0.  0.
        2    1    3    3  502    0  0.11959598279E+03 -0.83879072299E+03 -0.64342735410E+03  0.10638946546E+04  0.25500000920E-02 0. -1.
       -2    1    3    3    0  502 -0.11959598279E+03  0.83879072299E+03  0.31827102634E+03  0.90507984305E+03  0.25500000920E-02 0.  1.
</event>
<event>
 5   0  0.1960961E-05  0.2839814E+04  0.7818609E-02  0.8291013E-01
        2   -1    0    0  501    0  0.00000000000E+00  0.00000000000E+00  0.12556348631E+04  0.12556348631E+04  0.25500000920E-02 0. -1.
       -2   -1    0    0    0  501  0.00000000000E+00  0.00000000000E+00 -0.16056710142E+04  0.16056710142E+04  0.25500000920E-02 0.  1.
    10030    2    1    2    0    0  0.00000000000E+00  0.00000000000E+00 -0.35003615105E+03  0.28613058773E+04  0.28398144334E+04 0.  0.
        5    1    3    3  502    0 -0.25903995859E+03  0.25715014600E+03  0.12075495956E+04  0.12615173457E+04  0.46999998093E+01 0. -1.
       -5    1    3    3    0  502  0.25903995859E+03 -0.25715014600E+03 -0.15575857466E+04  0.15997885316E+04  0.46999998093E+01 0.  1.
</event>
<event>
 5   0  0.1918901E-05  0.2694447E+04  0.7818609E-02  0.8336809E-01
        2   -1    0    0  501    0  0.00000000000E+00  0.00000000000E+00  0.20946115693E+04  0.20946115693E+04  0.25500000920E-02 0.  1.
       -2   -1    0    0    0  501  0.00000000000E+00  0.00000000000E+00 -0.86651414877E+03  0.86651414877E+03  0.25500000920E-02 0. -1.
    10030    2    1    2    0    0  0.00000000000E+00  0.00000000000E+00  0.12280974205E+04  0.29611257181E+04  0.26944465561E+04 0.  0.
        1    1    3    3  502    0  0.63447680660E+03 -0.83175401313E+03  0.15469698826E+04  0.18674826302E+04  0.50400001928E-02 0.  1.
       -1    1    3    3    0  502 -0.63447680660E+03  0.83175401313E+03 -0.31887246209E+03  0.10936430878E+04  0.50400001928E-02 0. -1.
</event>
<event>
 5   0  0.8055928E-06  0.2667577E+04  0.7818609E-02  0.8345602E-01
        1   -1    0    0  501    0  0.00000000000E+00  0.00000000000E+00  0.91142214310E+03  0.91142214312E+03  0.50400001928E-02 0.  1.
       -1   -1    0    0    0  501  0.00000000000E+00  0.00000000000E+00 -0.19518857611E+04  0.19518857611E+04  0.50400001928E-02 0. -1.
    10030    2    1    2    0    0  0.00000000000E+00  0.00000000000E+00 -0.10404636180E+04  0.28633079042E+04  0.26675771055E+04 0.  0.
        2    1    3    3  502    0  0.52601572314E+03 -0.51922125378E+03 -0.17119711955E+04  0.18647060426E+04  0.25500000920E-02 0. -1.
       -2    1    3    3    0  502 -0.52601572314E+03  0.51922125378E+03  0.67150757746E+03  0.99860186158E+03  0.25500000920E-02 0.  1.
</event>
<event>
 5   0  0.1918901E-05  0.2707281E+04  0.7818609E-02  0.8332646E-01
       -2   -1    0    0    0  501  0.00000000000E+00  0.00000000000E+00  0.11377010463E+04  0.11377010463E+04  0.25500000920E-02 0.  1.
        2   -1    0    0  501    0  0.00000000000E+00  0.00000000000E+00 -0.16105660611E+04  0.16105660611E+04  0.25500000920E-02 0. -1.
    10030    2    1    2    0    0  0.00000000000E+00  0.00000000000E+00 -0.47286501477E+03  0.27482671074E+04  0.27072810662E+04 0.  0.
        1    1    3    3  502    0  0.12637106650E+04 -0.34771792799E+03 -0.57988920239E+03  0.14332284847E+04  0.50400001928E-02 0.  1.
       -1    1    3    3    0  502 -0.12637106650E+04  0.34771792799E+03  0.10702418762E+03  0.13150386226E+04  0.50400001928E-02 0. -1.
</event>
<event>
 5   0  0.7305460E-06  0.1931741E+04  0.7818609E-02  0.8639216E-01
        1   -1    0    0  501    0  0.00000000000E+00  0.00000000000E+00  0.22755626076E+04  0.22755626076E+04  0.50400001928E-02 0.  1.
       -1   -1    0    0    0  501  0.00000000000E+00  0.00000000000E+00 -0.40996712610E+03  0.40996712613E+03  0.50400001928E-02 0. -1.
    10030    2    1    2    0    0  0.00000000000E+00  0.00000000000E+00  0.18655954815E+04  0.26855297337E+04  0.19317410412E+04 0.  0.
        4    1    3    3  502    0  0.24192911543E+03 -0.34220878519E+02 -0.36629090909E+03  0.44030831062E+03  0.12699999809E+01 0. -1.
       -4    1    3    3    0  502 -0.24192911543E+03  0.34220878519E+02  0.22318863905E+04  0.22452214231E+04  0.12699999809E+01 0.  1.
</event>
<event>
 5   0  0.1937947E-05  0.2630215E+04  0.7818609E-02  0.8358010E-01
       -2   -1    0    0    0  501  0.00000000000E+00  0.00000000000E+00  0.79879207872E+03  0.79879207873E+03  0.25500000920E-02 0.  1.
        2   -1    0    0  501    0  0.00000000000E+00  0.00000000000E+00 -0.21651534532E+04  0.21651534532E+04  0.25500000920E-02 0. -1.
    10030    2    1    2    0    0  0.00000000000E+00  0.00000000000E+00 -0.13663613745E+04  0.29639455320E+04  0.26302147651E+04 0.  0.
        3    1    3    3  502    0 -0.10795532780E+04 -0.35382961220E+01 -0.15295141478E+04  0.18721274898E+04  0.10100000352E+00 0. -1.
       -3    1    3    3    0  502  0.10795532780E+04  0.35382961220E+01  0.16315277334E+03  0.10918180421E+04  0.10100000352E+00 0.  1.
</event>
<event>
 5   0  0.7305460E-06  0.2726421E+04  0.7818609E-02  0.8326483E-01
        1   -1    0    0  501    0  0.00000000000E+00  0.00000000000E+00  0.26438424264E+04  0.26438424264E+04  0.50400001928E-02 0.  1.
       -1   -1    0    0    0  501  0.00000000000E+00  0.00000000000E+00 -0.70289494572E+03  0.70289494574E+03  0.50400001928E-02 0. -1.
    10030    2    1    2    0    0  0.00000000000E+00  0.00000000000E+00  0.19409474807E+04  0.33467373721E+04  0.27264214486E+04 0.  0.
        4    1    3    3  502    0 -0.12959933036E+04  0.29270567255E+03  0.59599635449E+03  0.14561897270E+04  0.12699999809E+01 0.  1.
       -4    1    3    3    0  502  0.12959933036E+04 -0.29270567255E+03  0.13449511262E+04  0.18905476451E+04  0.12699999809E+01 0. -1.
</event>
<event>
 5   0  0.1937947E-05  0.2001919E+04  0.7818609E-02  0.8605724E-01
       -2   -1    0    0    0  501  0.00000000000E+00  0.00000000000E+00  0.15072435611E+04  0.15072435611E+04  0.25500000920E-02 0. -1.
        2   -1    0    0  501    0  0.00000000000E+00  0.00000000000E+00 -0.66473658111E+03  0.66473658112E+03  0.25500000920E-02 0.  1.
    10030    2    1    2    0    0  0.00000000000E+00  0.00000000000E+00  0.84250698000E+03  0.21719801422E+04  0.20019190111E+04 0.  0.
        3    1    3    3  502    0  0.43134434908E+03  0.89268701157E+03  0.57069266300E+03  0.11439572430E+04  0.10100000352E+00 0. -1.
       -3    1    3    3    0  502 -0.43134434908E+03 -0.89268701157E+03  0.27181431700E+03  0.10280228992E+04  0.10100000352E+00 0.  1.
</event>
<event>
 5   0  0.1829810E-05  0.2952844E+04  0.7818609E-02  0.8257326E-01
        2   -1    0    0  501    0  0.00000000000E+00  0.00000000000E+00  0.23122217324E+04  0.23122217324E+04  0.25500000920E-02 0.  1.
       -2   -1    0    0    0  501  0.00000000000E+00  0.00000000000E+00 -0.94273937779E+03  0.94273937779E+03  0.25500000920E-02 0. -1.
    10030    2    1    2    0    0  0.00000000000E+00  0.00000000000E+00  0.13694823546E+04  0.32549611102E+04  0.29528443761E+04 0.  0.
        4    1    3    3  502    0  0.10610958536E+04 -0.17822510698E+03 -0.42970421752E+03  0.11585922177E+04  0.12699999809E+01 0. -1.
       -4    1    3    3    0  502 -0.10610958536E+04  0.17822510698E+03  0.17991865721E+04  0.20963688925E+04  0.12699999809E+01 0.  1.
</event>
<event>
 5   0  0.1976233E-05  0.2655449E+04  0.7818609E-02  0.8349607E-01
        2   -1    0    0  501    0  0.00000000000E+00  0.00000000000E+00  0.16423209874E+04  0.16423209874E+04  0.25500000920E-02 0.  1.
       -2   -1    0    0    0  501  0.00000000000E+00  0.00000000000E+00 -0.10733906562E+04  0.10733906562E+04  0.25500000920E-02 0. -1.
    10030    2    1    2    0    0  0.00000000000E+00  0.00000000000E+00  0.56893033125E+03  0.27157116436E+04  0.26554487397E+04 0.  0.
        2    1    3    3  502    0  0.46535200748E+03  0.15543179551E+03  0.15462145406E+04  0.16221870852E+04  0.25500000920E-02 0.  1.
       -2    1    3    3    0  502 -0.46535200748E+03 -0.15543179551E+03 -0.97728420933E+03  0.10935245584E+04  0.25500000920E-02 0. -1.
</event>
<event>
 5   0  0.1976233E-05  0.2926519E+04  0.7818609E-02  0.8265031E-01
        2   -1    0    0  501    0  0.00000000000E+00  0.00000000000E+00  0.20662899170E+04  0.20662899170E+04  0.25500000920E-02 0. -1.
       -2   -1    0    0    0  501  0.00000000000E+00  0.00000000000E+00 -0.10362189436E+04  0.10362189436E+04  0.25500000920E-02 0.  1.
    10030    2    1    2    0    0  0.00000000000E+00  0.00000000000E+00  0.10300709734E+04  0.31025088606E+04  0.29265192670E+04 0.  0.
        2    1    3    3  502    0  0.61785861035E+03 -0.92172720557E+03  0.15262289171E+04  0.18869830448E+04  0.25500000920E-02 0. -1.
       -2    1    3    3    0  502 -0.61785861035E+03  0.92172720557E+03 -0.49615794372E+03  0.12155258158E+04  0.25500000920E-02 0.  1.
</event>
<event>
 5   0  0.7305460E-06  0.2774341E+04  0.7818609E-02  0.8311279E-01
       -1   -1    0    0    0  501  0.00000000000E+00  0.00000000000E+00  0.80237185023E+03  0.80237185025E+03  0.50400001928E-02 0.  1.
        1   -1    0    0  501    0  0.00000000000E+00  0.00000000000E+00 -0.23981922749E+04  0.23981922749E+04  0.50400001928E-02 0. -1.
    10030    2    1    2    0    0  0.00000000000E+00  0.00000000000E+00 -0.15958204246E+04  0.32005641251E+04  0.27743409832E+04 0.  0.
        4    1    3    3  502    0 -0.90607960236E+03 -0.23952466015E+03 -0.19777126692E+04  0.21885386274E+04  0.12699999809E+01 0. -1.
       -4    1    3    3    0  502  0.90607960236E+03  0.23952466015E+03  0.38189224461E+03  0.10120254977E+04  0.12699999809E+01 0.  1.
</event>
<event>
 5   0  0.1976233E-05  0.1473125E+04  0.7818609E-02  0.8902524E-01
        2   -1    0    0  501    0  0.00000000000E+00  0.00000000000E+00  0.12471555252E+04  0.12471555252E+04  0.25500000920E-02 0.  1.
       -2   -1    0    0    0  501  0.00000000000E+00  0.00000000000E+00 -0.43500951767E+03  0.43500951767E+03  0.25500000920E-02 0. -1.
    10030    2    1    2    0    0  0.00000000000E+00  0.00000000000E+00  0.81214600757E+03  0.16821650429E+04  0.14731252812E+04 0.  0.
        2    1    3    3  502    0  0.54808677636E+03 -0.36004375118E+03  0.23077725563E+02  0.65617314682E+03  0.25500000920E-02 0. -1.
       -2    1    3    3    0  502 -0.54808677636E+03  0.36004375118E+03  0.78906828200E+03  0.10259918961E+04  0.25500000920E-02 0.  1.
</event>
<event>
 5   0  0.1960961E-05  0.2924711E+04  0.7818609E-02  0.8265563E-01
       -2   -1    0    0    0  501  0.00000000000E+00  0.00000000000E+00  0.91850605406E+03  0.91850605407E+03  0.25500000920E-02 0.  1.
        2   -1    0    0  501    0  0.00000000000E+00  0.00000000000E+00 -0.23282197706E+04  0.23282197706E+04  0.25500000920E-02 0. -1.
    10030    2    1    2    0    0  0.00000000000E+00  0.00000000000E+00 -0.14097137165E+04  0.32467258247E+04  0.29247112367E+04 0.  0.
        5    1    3    3  502    0 -0.14167748732E+04  0.10517145832E+03 -0.32006654952E+03  0.14562886949E+04  0.46999998093E+01 0.  1.
       -5    1    3    3    0  502  0.14167748732E+04 -0.10517145832E+03 -0.10896471670E+04  0.17904371297E+04  0.46999998093E+01 0. -1.
</event>
<event>
 5   0  0.1960961E-05  0.2940179E+04  0.7818609E-02  0.8261022E-01
        2   -1    0    0  501    0  0.00000000000E+00  0.00000000000E+00  0.20257719615E+04  0.20257719615E+04  0.25500000920E-02 0. -1.
       -2   -1    0    0    0  501  0.00000000000E+00  0.00000000000E+00 -0.10668344051E+04  0.10668344051E+04  0.25500000920E-02 0.  1.
    10030    2    1    2    0    0  0.00000000000E+00  0.00000000000E+00  0.95893755639E+03  0.30926063665E+04  0.29401790594E+04 0.  0.
        5    1    3    3  502    0  0.14740831199E+03  0.11157330067E+04 -0.51537206800E+03  0.12378286679E+04  0.46999998093E+01 0.  1.
       -5    1    3    3    0  502 -0.14740831199E+03 -0.11157330067E+04  0.14743096244E+04  0.18547776986E+04  0.46999998093E+01 0. -1.
</event>
<event>
 5   0  0.1937947E-05  0.1757807E+04  0.7818609E-02  0.8729065E-01
        2   -1    0    0  501    0  0.00000000000E+00  0.00000000000E+00  0.17075061607E+04  0.17075061607E+04  0.25500000920E-02 0. -1.
       -2   -1    0    0    0  501  0.00000000000E+00  0.00000000000E+00 -0.45239716322E+03  0.45239716322E+03  0.25500000920E-02 0.  1.
    10030    2    1    2    0    0  0.00000000000E+00  0.00000000000E+00  0.12551089975E+04  0.21599033239E+04  0.17578065232E+04 0.  0.
        3    1    3    3  502    0 -0.60735745968E+03  0.45577254709E+03  0.11713495706E+04  0.13959482531E+04  0.10100000352E+00 0. -1.
       -3    1    3    3    0  502  0.60735745968E+03 -0.45577254709E+03  0.83759426903E+02  0.76395507087E+03  0.10100000352E+00 0.  1.
</event>
<event>
 5   0  0.7971153E-06  0.2847674E+04  0.7818609E-02  0.8288618E-01
        1   -1    0    0  501    0  0.00000000000E+00  0.00000000000E+00  0.25718554830E+04  0.25718554830E+04  0.50400001928E-02 0. -1.
       -1   -1    0    0    0  501  0.00000000000E+00  0.00000000000E+00 -0.78826821918E+03  0.78826821920E+03  0.50400001928E-02 0.  1.
    10030    2    1    2    0    0  0.00000000000E+00  0.00000000000E+00  0.17835872638E+04  0.33601237022E+04  0.28476740977E+04 0.  0.
        5    1    3    3  502    0 -0.98607962739E+03  0.47199314854E+03 -0.18459279710E+03  0.11087051703E+04  0.46999998093E+01 0.  1.
       -5    1    3    3    0  502  0.98607962739E+03 -0.47199314854E+03  0.19681800609E+04  0.22514185320E+04  0.46999998093E+01 0. -1.
</event>
<event>
 5   0  0.8122088E-06  0.2893049E+04  0.7818609E-02  0.8274949E-01
        1   -1    0    0  501    0  0.00000000000E+00  0.00000000000E+00  0.19046022642E+04  0.19046022642E+04  0.50400001928E-02 0.  1.
       -1   -1    0    0    0  501  0.00000000000E+00  0.00000000000E+00 -0.10986195095E+04  0.10986195096E+04  0.50400001928E-02 0. -1.
    10030    2    1    2    0    0  0.00000000000E+00  0.00000000000E+00  0.80598275469E+03  0.30032217738E+04  0.28930490528E+04 0.  0.
        1    1    3    3  502    0  0.23703685107E+03  0.58113382300E+02 -0.10770926242E+04  0.11043967380E+04  0.50400001928E-02 0. -1.
       -1    1    3    3    0  502 -0.23703685107E+03 -0.58113382300E+02  0.18830753788E+04  0.18988250358E+04  0.50400001928E-02 0.  1.
</event>
<event>
 5   0  0.1937947E-05  0.2820567E+04  0.7818609E-02  0.8296911E-01
       -2   -1    0    0    0  501  0.00000000000E+00  0.00000000000E+00  0.14112167988E+04  0.14112167988E+04  0.25500000920E-02 0. -1.
        2   -1    0    0  501    0  0.00000000000E+00  0.00000000000E+00 -0.14093511204E+04  0.14093511204E+04  0.25500000920E-02 0.  1.
    10030    2    1    2    0    0  0.00000000000E+00  0.00000000000E+00  0.18656784160E+01  0.28205679192E+04  0.28205673022E+04 0.  0.
        3    1    3    3  502    0  0.86664101801E+03  0.22167875435E+03 -0.10893388527E+04  0.14095627941E+04  0.10100000352E+00 0.  1.
       -3    1    3    3    0  502 -0.86664101801E+03 -0.22167875435E+03  0.10912045311E+04  0.14110051251E+04  0.10100000352E+00 0. -1.
</event>
<event>
 5   0  0.8055928E-06  0.2836740E+04  0.7818609E-02  0.8291952E-01
       -1   -1    0    0    0  501  0.00000000000E+00  0.00000000000E+00  0.91772131259E+03  0.91772131260E+03  0.50400001928E-02 0. -1.
        1   -1    0    0  501    0  0.00000000000E+00  0.00000000000E+00 -0.21921392267E+04  0.21921392267E+04  0.50400001928E-02 0.  1.
    10030    2    1    2    0    0  0.00000000000E+00  0.00000000000E+00 -0.12744179141E+04  0.31098605393E+04  0.28367395993E+04 0.  0.
        2    1    3    3  502    0  0.12359899441E+04  0.61318160377E+03 -0.99766682654E+03  0.17026455644E+04  0.25500000920E-02 0. -1.
       -2    1    3    3    0  502 -0.12359899441E+04 -0.61318160377E+03 -0.27675108760E+03  0.14072149749E+04  0.25500000920E-02 0.  1.
</event>
<event>
 5   0  0.1829810E-05  0.2256576E+04  0.7818609E-02  0.8495242E-01
        2   -1    0    0  501    0  0.00000000000E+00  0.00000000000E+00  0.13359962880E+04  0.13359962880E+04  0.25500000920E-02 0. -1.
       -2   -1    0    0    0  501  0.00000000000E+00  0.00000000000E+00 -0.95287230639E+03  0.95287230640E+03  0.25500000920E-02 0.  1.
    10030    2    1    2    0    0  0.00000000000E+00  0.00000000000E+00  0.38312398162E+03  0.22888685944E+04  0.22565760473E+04 0.  0.
        4    1    3    3  502    0  0.11003766403E+04 -0.23514829115E+03  0.10725343789E+03  0.11303222470E+04  0.12699999809E+01 0.  1.
       -4    1    3    3    0  502 -0.11003766403E+04  0.23514829115E+03  0.27587054373E+03  0.11585463474E+04  0.12699999809E+01 0. -1.
</event>
<event>
 5   0  0.7305460E-06  0.2870383E+04  0.7818609E-02  0.8281744E-01
        1   -1    0    0  501    0  0.00000000000E+00  0.00000000000E+00  0.23494143658E+04  0.23494143658E+04  0.50400001928E-02 0.  1.
       -1   -1    0    0    0  501  0.00000000000E+00  0.00000000000E+00 -0.87671832520E+03  0.87671832522E+03  0.50400001928E-02 0. -1.
    10030    2    1    2    0    0  0.00000000000E+00  0.00000000000E+00  0.14726960406E+04  0.32261326911E+04  0.28703829905E+04 0.  0.
        4    1    3    3  502    0  0.54419523827E+03 -0.62295096634E+03 -0.58185292510E+03  0.10113213155E+04  0.12699999809E+01 0. -1.
       -4    1    3    3    0  502 -0.54419523827E+03  0.62295096634E+03  0.20545489657E+04  0.22148113756E+04  0.12699999809E+01 0.  1.
</event>
<event>
 5   0  0.1829810E-05  0.2887248E+04  0.7818609E-02  0.8276682E-01
        2   -1    0    0  501    0  0.00000000000E+00  0.00000000000E+00  0.26607573225E+04  0.26607573225E+04  0.25500000920E-02 0.  1.
       -2   -1    0    0    0  501  0.00000000000E+00  0.00000000000E+00 -0.78325470322E+03  0.78325470323E+03  0.25500000920E-02 0. -1.
    10030    2    1    2    0    0  0.00000000000E+00  0.00000000000E+00  0.18775026193E+04  0.34440120257E+04  0.28872483004E+04 0.  0.
        4    1    3    3  502    0 -0.68018170657E+03 -0.11848236641E+04  0.14951739417E+04  0.20253397240E+04  0.12699999809E+01 0. -1.
       -4    1    3    3    0  502  0.68018170657E+03  0.11848236641E+04  0.38232867759E+03  0.14186723017E+04  0.12699999809E+01 0.  1.
</event>
<event>
 5   0  0.1918901E-05  0.2937997E+04  0.7818609E-02  0.8261661E-01
       -2   -1    0    0    0  501  0.00000000000E+00  0.00000000000E+00  0.89084640988E+03  0.89084640989E+03  0.25500000920E-02 0.  1.
        2   -1    0    0  501    0  0.00000000000E+00  0.00000000000E+00 -0.24223661308E+04  0.24223661308E+04  0.25500000920E-02 0. -1.
    10030    2    1    2    0    0  0.00000000000E+00  0.00000000000E+00 -0.15315197209E+04  0.33132125407E+04  0.29379967128E+04 0.  0.
        1    1    3    3  502    0 -0.13440418324E+04  0.21520875120E+03 -0.14276392076E+03  0.13686287995E+04  0.50400001928E-02 0.  1.
       -1    1    3    3    0  502  0.13440418324E+04 -0.21520875120E+03 -0.13887558002E+04  0.19445837412E+04  0.50400001928E-02 0. -1.
</event>
<event>
 5   0  0.1976233E-05  0.2666291E+04  0.7818609E-02  0.8346026E-01
        2   -1    0    0  501    0  0.00000000000E+00  0.00000000000E+00  0.30851533693E+04  0.30851533693E+04  0.25500000920E-02 0. -1.
       -2   -1    0    0    0  501  0.00000000000E+00  0.00000000000E+00 -0.57607427398E+03  0.57607427398E+03  0.25500000920E-02 0.  1.
    10030    2    1    2    0    0  0.00000000000E+00  0.00000000000E+00  0.25090790953E+04  0.36612276433E+04  0.26662914224E+04 0.  0.
        2    1    3    3  502    0  0.51959231253E+03  0.97030682556E+03  0.22165237510E+03  0.11227650165E+04  0.25500000920E-02 0.  1.
       -2    1    3    3    0  502 -0.51959231253E+03 -0.97030682556E+03  0.22874267202E+04  0.25384626267E+04  0.25500000920E-02 0. -1.
</event>
<event>
 5   0  0.8234888E-06  0.2972443E+04  0.7818609E-02  0.8251644E-01
        1   -1    0    0  501    0  0.00000000000E+00  0.00000000000E+00  0.16788547029E+04  0.16788547029E+04  0.50400001928E-02 0.  1.
       -1   -1    0    0    0  501  0.00000000000E+00  0.00000000000E+00 -0.13156909258E+04  0.13156909258E+04  0.50400001928E-02 0. -1.
    10030    2    1    2    0    0  0.00000000000E+00  0.00000000000E+00  0.36316377716E+03  0.29945456287E+04  0.29724426981E+04 0.  0.
        3    1    3    3  502    0  0.67258161062E+03 -0.13248432504E+04  0.14556373552E+03  0.14929047098E+04  0.10100000352E+00 0. -1.
       -3    1    3    3    0  502 -0.67258161062E+03  0.13248432504E+04  0.21760004164E+03  0.15016409189E+04  0.10100000352E+00 0.  1.
</event>
<event>
 5   0  0.8122088E-06  0.3041560E+04  0.7818609E-02  0.8231962E-01
        1   -1    0    0  501    0  0.00000000000E+00  0.00000000000E+00  0.19104488621E+04  0.19104488621E+04  0.50400001928E-02 0.  1.
       -1   -1    0    0    0  501  0.00000000000E+00  0.00000000000E+00 -0.12105906474E+04  0.12105906474E+04  0.50400001928E-02 0. -1.
    10030    2    1    2    0    0  0.00000000000E+00  0.00000000000E+00  0.69985821466E+03  0.31210395095E+04  0.30415598136E+04 0.  0.
        1    1    3    3  502    0 -0.54272320185E+03 -0.13778804991E+04 -0.50416793292E+01  0.14809215247E+04  0.50400001928E-02 0. -1.
       -1    1    3    3    0  502  0.54272320185E+03  0.13778804991E+04  0.70489989399E+03  0.16401179849E+04  0.50400001928E-02 0.  1.
</event>
<event>
 5   0  0.8055928E-06  0.2944379E+04  0.7818609E-02  0.8259794E-01
       -1   -1    0    0    0  501  0.00000000000E+00  0.00000000000E+00  0.11438623209E+04  0.11438623209E+04  0.50400001928E-02 0. -1.
        1   -1    0    0  501    0  0.00000000000E+00  0.00000000000E+00 -0.18947582298E+04  0.18947582298E+04  0.50400001928E-02 0.  1.
    10030    2    1    2    0    0  0.00000000000E+00  0.00000000000E+00 -0.75089590897E+03  0.30386205507E+04  0.29443794228E+04 0.  0.
        2    1    3    3  502    0  0.13465387260E+04 -0.81130624914E+00 -0.98962256782E+03  0.16710834885E+04  0.25500000920E-02 0.  1.
       -2    1    3    3    0  502 -0.13465387260E+04  0.81130624914E+00  0.23872665886E+03  0.13675370622E+04  0.25500000920E-02 0. -1.
</event>
<event>
 5   0  0.1976233E-05  0.2894758E+04  0.7818609E-02  0.8274439E-01
       -2   -1    0    0    0  501  0.00000000000E+00  0.00000000000E+00  0.71024629346E+03  0.71024629346E+03  0.25500000920E-02 0. -1.
        2   -1    0    0  501    0  0.00000000000E+00  0.00000000000E+00 -0.29495486089E+04  0.29495486089E+04  0.25500000920E-02 0.  1.
    10030    2    1    2    0    0  0.00000000000E+00  0.00000000000E+00 -0.22393023155E+04  0.36597949024E+04  0.28947579981E+04 0.  0.
        2    1    3    3  502    0 -0.67269251048E+03 -0.29850165475E+03 -0.26953398238E+04  0.27940070181E+04  0.25500000920E-02 0.  1.
       -2    1    3    3    0  502  0.67269251048E+03  0.29850165475E+03  0.45603750833E+03  0.86578788427E+03  0.25500000920E-02 0. -1.
</event>
<event>
 5   0  0.1960961E-05  0.2814893E+04  0.7818609E-02  0.8298659E-01
       -2   -1    0    0    0  501  0.00000000000E+00  0.00000000000E+00  0.13299367566E+04  0.13299367566E+04  0.25500000920E-02 0.  1.
        2   -1    0    0  501    0  0.00000000000E+00  0.00000000000E+00 -0.14894739005E+04  0.14894739005E+04  0.25500000920E-02 0. -1.
    10030    2    1    2    0    0  0.00000000000E+00  0.00000000000E+00 -0.15953714390E+03  0.28194106571E+04  0.28148933112E+04 0.  0.
        5    1    3    3  502    0  0.74688492638E+03 -0.11886262556E+04  0.21460576027E+02  0.14039772488E+04  0.46999998093E+01 0.  1.
       -5    1    3    3    0  502 -0.74688492638E+03  0.11886262556E+04 -0.18099771993E+03  0.14154334083E+04  0.46999998093E+01 0. -1.
</event>
<event>
 5   0  0.8122088E-06  0.2785749E+04  0.7818609E-02  0.8307707E-01
       -1   -1    0    0    0  501  0.00000000000E+00  0.00000000000E+00  0.15932228270E+04  0.15932228270E+04  0.50400001928E-02 0. -1.
        1   -1    0    0  501    0  0.00000000000E+00  0.00000000000E+00 -0.12177197521E+04  0.12177197521E+04  0.50400001928E-02 0.  1.
    10030    2    1    2    0    0  0.00000000000E+00  0.00000000000E+00  0.37550307490E+03  0.28109425791E+04  0.27857486648E+04 0.  0.
        1    1    3    3  502    0 -0.35486459526E+03  0.26816395292E+03  0.15196351996E+04  0.15833925371E+04  0.50400001928E-02 0. -1.
       -1    1    3    3    0  502  0.35486459526E+03 -0.26816395292E+03 -0.11441321247E+04  0.12275500419E+04  0.50400001928E-02 0.  1.
</event>
<event>
 5   0  0.1918901E-05  0.2794364E+04  0.7818609E-02  0.8305020E-01
        2   -1    0    0  501    0  0.00000000000E+00  0.00000000000E+00  0.14402152334E+04  0.14402152334E+04  0.25500000920E-02 0. -1.
       -2   -1    0    0    0  501  0.00000000000E+00  0.00000000000E+00 -0.13554350186E+04  0.13554350187E+04  0.25500000920E-02 0.  1.
    10030    2    1    2    0    0  0.00000000000E+00  0.00000000000E+00  0.84780214798E+02  0.27956502521E+04  0.27943644442E+04 0.  0.
        1    1    3    3  502    0  0.21134599738E+03  0.13785496590E+04  0.12640415445E+03  0.14003729158E+04  0.50400001928E-02 0. -1.
       -1    1    3    3    0  502 -0.21134599738E+03 -0.13785496590E+04 -0.41623939647E+02  0.13952773363E+04  0.50400001928E-02 0.  1.
</event>
<event>
 5   0  0.8122088E-06  0.2297600E+04  0.7818609E-02  0.8478868E-01
       -1   -1    0    0    0  501  0.00000000000E+00  0.00000000000E+00  0.11285722655E+04  0.11285722655E+04  0.50400001928E-02 0.  1.
        1   -1    0    0  501    0  0.00000000000E+00  0.00000000000E+00 -0.11693901426E+04  0.11693901426E+04  0.50400001928E-02 0. -1.
    10030    2    1    2    0    0  0.00000000000E+00  0.00000000000E+00 -0.40817877095E+02  0.22979624081E+04  0.22975998629E+04 0.  0.
        1    1    3    3  502    0 -0.21493363810E+03 -0.68956147398E+03  0.87306834743E+03  0.11331106894E+04  0.50400001928E-02 0.  1.
       -1    1    3    3    0  502  0.21493363810E+03  0.68956147398E+03 -0.91388622452E+03  0.11648517187E+04  0.50400001928E-02 0. -1.
</event>
<event>
 5   0  0.1960961E-05  0.2845122E+04  0.7818609E-02  0.8289395E-01
        2   -1    0    0  501    0  0.00000000000E+00  0.00000000000E+00  0.18339603265E+04  0.18339603265E+04  0.25500000920E-02 0. -1.
       -2   -1    0    0    0  501  0.00000000000E+00  0.00000000000E+00 -0.11034479587E+04  0.11034479587E+04  0.25500000920E-02 0.  1.
    10030    2    1    2    0    0  0.00000000000E+00  0.00000000000E+00  0.73051236778E+03  0.29374082852E+04  0.28451219859E+04 0.  0.
        5    1    3    3  502    0 -0.45238985729E+03  0.39123102891E+03  0.16978353587E+04  0.18001070236E+04  0.46999998093E+01 0. -1.
       -5    1    3    3    0  502  0.45238985729E+03 -0.39123102891E+03 -0.96732299093E+03  0.11373012616E+04  0.46999998093E+01 0.  1.
</event>
<event>
 5   0  0.1829810E-05  0.2896741E+04  0.7818609E-02  0.8273848E-01
       -2   -1    0    0    0  501  0.00000000000E+00  0.00000000000E+00  0.96314553521E+03  0.96314553521E+03  0.25500000920E-02 0. -1.
        2   -1    0    0  501    0  0.00000000000E+00  0.00000000000E+00 -0.21780481554E+04  0.21780481554E+04  0.25500000920E-02 0.  1.
    10030    2    1    2    0    0  0.00000000000E+00  0.00000000000E+00 -0.12149026202E+04  0.31411936906E+04  0.28967411734E+04 0.  0.
        4    1    3    3  502    0  0.12496352433E+03 -0.83486860681E+03 -0.18836964369E+04  0.20642033215E+04  0.12699999809E+01 0.  1.
       -4    1    3    3    0  502 -0.12496352433E+03  0.83486860681E+03  0.66879381671E+03  0.10769903691E+04  0.12699999809E+01 0. -1.
</event>
<event>
 5   0  0.1960961E-05  0.2880470E+04  0.7818609E-02  0.8278712E-01
        2   -1    0    0  501    0  0.00000000000E+00  0.00000000000E+00  0.22668791611E+04  0.22668791611E+04  0.25500000920E-02 0. -1.
       -2   -1    0    0    0  501  0.00000000000E+00  0.00000000000E+00 -0.91503617354E+03  0.91503617355E+03  0.25500000920E-02 0.  1.
    10030    2    1    2    0    0  0.00000000000E+00  0.00000000000E+00  0.13518429876E+04  0.31819153347E+04  0.28804697072E+04 0.  0.
        5    1    3    3  502    0  0.12185011602E+04 -0.41284038036E+03  0.13910262631E+04  0.18947713349E+04  0.46999998093E+01 0. -1.
       -5    1    3    3    0  502 -0.12185011602E+04  0.41284038036E+03 -0.39183275499E+02  0.12871439998E+04  0.46999998093E+01 0.  1.
</event>
<event>
 5   0  0.1960961E-05  0.2299443E+04  0.7818609E-02  0.8478141E-01
       -2   -1    0    0    0  501  0.00000000000E+00  0.00000000000E+00  0.10050554473E+04  0.10050554473E+04  0.25500000920E-02 0. -1.
        2   -1    0    0  501    0  0.00000000000E+00  0.00000000000E+00 -0.13152104638E+04  0.13152104638E+04  0.25500000920E-02 0.  1.
    10030    2    1    2    0    0  0.00000000000E+00  0.00000000000E+00 -0.31015501649E+03  0.23202659111E+04  0.22994429247E+04 0.  0.
        5    1    3    3  502    0  0.87863564545E+03  0.97683243377E+02  0.58662627458E+03  0.10609877895E+04  0.46999998093E+01 0. -1.
       -5    1    3    3    0  502 -0.87863564545E+03 -0.97683243377E+02 -0.89678129107E+03  0.12592781216E+04  0.46999998093E+01 0.  1.
</event>
<event>
 5   0  0.1960961E-05  0.2873890E+04  0.7818609E-02  0.8280689E-01
       -2   -1    0    0    0  501  0.00000000000E+00  0.00000000000E+00  0.23376621376E+04  0.23376621376E+04  0.25500000920E-02 0. -1.
        2   -1    0    0  501    0  0.00000000000E+00  0.00000000000E+00 -0.88328002916E+03  0.88328002916E+03  0.25500000920E-02 0.  1.
    10030    2    1    2    0    0  0.00000000000E+00  0.00000000000E+00  0.14543821085E+04  0.32209421668E+04  0.28738895463E+04 0.  0.
        5    1    3    3  502    0 -0.41349264555E+03  0.13966587251E+03  0.22615714475E+04  0.23033041974E+04  0.46999998093E+01 0. -1.
       -5    1    3    3    0  502  0.41349264555E+03 -0.13966587251E+03 -0.80718933898E+03  0.91763796938E+03  0.46999998093E+01 0.  1.
</event>
<event>
 5   0  0.1918901E-05  0.2773522E+04  0.7818609E-02  0.8311536E-01
       -2   -1    0    0    0  501  0.00000000000E+00  0.00000000000E+00  0.92211462775E+03  0.92211462775E+03  0.25500000920E-02 0.  1.
        2   -1    0    0  501    0  0.00000000000E+00  0.00000000000E+00 -0.20855388582E+04  0.20855388582E+04  0.25500000920E-02 0. -1.
    10030    2    1    2    0    0  0.00000000000E+00  0.00000000000E+00 -0.11634242304E+04  0.30076534860E+04  0.27735218679E+04 0.  0.
        1    1    3    3  502    0  0.96355553977E+01  0.69017331545E+03 -0.18860242022E+04  0.20083623529E+04  0.50400001928E-02 0. -1.
       -1    1    3    3    0  502 -0.96355553977E+01 -0.69017331545E+03  0.72259997178E+03  0.99929113301E+03  0.50400001928E-02 0.  1.
</event>
<event>
 5   0  0.8055928E-06  0.2760733E+04  0.7818609E-02  0.8315564E-01
       -1   -1    0    0    0  501  0.00000000000E+00  0.00000000000E+00  0.10093551840E+04  0.10093551840E+04  0.50400001928E-02 0. -1.
        1   -1    0    0  501    0  0.00000000000E+00  0.00000000000E+00 -0.18877508679E+04  0.18877508679E+04  0.50400001928E-02 0.  1.
    10030    2    1    2    0    0  0.00000000000E+00  0.00000000000E+00 -0.87839568384E+03  0.28971060519E+04  0.27607326018E+04 0.  0.
        2    1    3    3  502    0  0.11854141693E+04 -0.45188877395E+03  0.13173703149E+03  0.12754469264E+04  0.25500000920E-02 0. -1.
       -2    1    3    3    0  502 -0.11854141693E+04  0.45188877395E+03 -0.10101327153E+04  0.16216591255E+04  0.25500000920E-02 0.  1.
</event>
<event>
 5   0  0.1829810E-05  0.1542585E+04  0.7818609E-02  0.8856618E-01
        2   -1    0    0  501    0  0.00000000000E+00  0.00000000000E+00  0.13255811957E+04  0.13255811957E+04  0.25500000920E-02 0. -1.
       -2   -1    0    0    0  501  0.00000000000E+00  0.00000000000E+00 -0.44877830513E+03  0.44877830514E+03  0.25500000920E-02 0.  1.
    10030    2    1    2    0    0  0.00000000000E+00  0.00000000000E+00  0.87680289055E+03  0.17743595008E+04  0.15425849504E+04 0.  0.
        4    1    3    3  502    0 -0.40001931588E+03 -0.20471386809E+03  0.11594602832E+04  0.12434922525E+04  0.12699999809E+01 0. -1.
       -4    1    3    3    0  502  0.40001931588E+03  0.20471386809E+03 -0.28265739260E+03  0.53086724834E+03  0.12699999809E+01 0.  1.
</event>
<event>
 5   0  0.8234888E-06  0.2159021E+04  0.7818609E-02  0.8535681E-01
       -1   -1    0    0    0  501  0.00000000000E+00  0.00000000000E+00  0.11399754331E+04  0.11399754331E+04  0.50400001928E-02 0. -1.
        1   -1    0    0  501    0  0.00000000000E+00  0.00000000000E+00 -0.10222522168E+04  0.10222522168E+04  0.50400001928E-02 0.  1.
    10030    2    1    2    0    0  0.00000000000E+00  0.00000000000E+00  0.11772321628E+03  0.21622276500E+04  0.21590205313E+04 0.  0.
        3    1    3    3  502    0  0.76657464282E+03  0.33512941715E+03 -0.62434967750E+03  0.10439161553E+04  0.10100000352E+00 0.  1.
       -3    1    3    3    0  502 -0.76657464282E+03 -0.33512941715E+03  0.74207289377E+03  0.11183114947E+04  0.10100000352E+00 0. -1.
</event>
<event>
 5   0  0.1937947E-05  0.2752295E+04  0.7818609E-02  0.8318234E-01
        2   -1    0    0  501    0  0.00000000000E+00  0.00000000000E+00  0.17342146389E+04  0.17342146389E+04  0.25500000920E-02 0. -1.
       -2   -1    0    0    0  501  0.00000000000E+00  0.00000000000E+00 -0.10920110516E+04  0.10920110516E+04  0.25500000920E-02 0.  1.
    10030    2    1    2    0    0  0.00000000000E+00  0.00000000000E+00  0.64220358735E+03  0.28262256905E+04  0.27522947164E+04 0.  0.
        3    1    3    3  502    0  0.46015507390E+03 -0.12717863295E+04  0.60112482119E+02  0.13538082141E+04  0.10100000352E+00 0.  1.
       -3    1    3    3    0  502 -0.46015507390E+03  0.12717863295E+04  0.58209110523E+03  0.14724174764E+04  0.10100000352E+00 0. -1.
</event>
<event>
 5   0  0.7305460E-06  0.2923236E+04  0.7818609E-02  0.8265998E-01
        1   -1    0    0  501    0  0.00000000000E+00  0.00000000000E+00  0.19544885595E+04  0.19544885595E+04  0.50400001928E-02 0. -1.
       -1   -1    0    0    0  501  0.00000000000E+00  0.00000000000E+00 -0.10930363479E+04  0.10930363479E+04  0.50400001928E-02 0.  1.
    10030    2    1    2    0    0  0.00000000000E+00  0.00000000000E+00  0.86145221160E+03  0.30475249075E+04  0.29232359037E+04 0.  0.
        4    1    3    3  502    0 -0.67972110367E+03  0.12920243313E+04  0.35717301339E+03  0.15029709997E+04  0.12699999809E+01 0.  1.
       -4    1    3    3    0  502  0.67972110367E+03 -0.12920243313E+04  0.50427919821E+03  0.15445539078E+04  0.12699999809E+01 0. -1.
</event>
<event>
 5   0  0.1918901E-05  0.2901249E+04  0.7818609E-02  0.8272506E-01
        2   -1    0    0  501    0  0.00000000000E+00  0.00000000000E+00  0.14269136922E+04  0.14269136922E+04  0.25500000920E-02 0.  1.
       -2   -1    0    0    0  501  0.00000000000E+00  0.00000000000E+00 -0.14747295881E+04  0.14747295881E+04  0.25500000920E-02 0. -1.
    10030    2    1    2    0    0  0.00000000000E+00  0.00000000000E+00 -0.47815895890E+02  0.29016432803E+04  0.29012492769E+04 0.  0.
        1    1    3    3  502    0  0.10809056201E+04 -0.88373207982E+03 -0.41762686794E+03  0.14573096958E+04  0.50400001928E-02 0. -1.
       -1    1    3    3    0  502 -0.10809056201E+04  0.88373207982E+03  0.36981097205E+03  0.14443335846E+04  0.50400001928E-02 0.  1.
</event>
<event>
 5   0  0.7971153E-06  0.2909357E+04  0.7818609E-02  0.8270099E-01
        1   -1    0    0  501    0  0.00000000000E+00  0.00000000000E+00  0.22702507631E+04  0.22702507631E+04  0.50400001928E-02 0.  1.
       -1   -1    0    0    0  501  0.00000000000E+00  0.00000000000E+00 -0.93209485285E+03  0.93209485287E+03  0.50400001928E-02 0. -1.
    10030    2    1    2    0    0  0.00000000000E+00  0.00000000000E+00  0.13381559102E+04  0.32023456159E+04  0.29093566650E+04 0.  0.
        5    1    3    3  502    0  0.24544531040E+03  0.11287230858E+04  0.16423208086E+04  0.20078592911E+04  0.46999998093E+01 0.  1.
       -5    1    3    3    0  502 -0.24544531040E+03 -0.11287230858E+04 -0.30416489837E+03  0.11944863248E+04  0.46999998093E+01 0. -1.
</event>
<event>
 5   0  0.7305460E-06  0.2706487E+04  0.7818609E-02  0.8332903E-01
       -1   -1    0    0    0  501  0.00000000000E+00  0.00000000000E+00  0.80699468148E+03  0.80699468149E+03  0.50400001928E-02 0.  1.
        1   -1    0    0  501    0  0.00000000000E+00  0.00000000000E+00 -0.22692436511E+04  0.22692436511E+04  0.50400001928E-02 0. -1.
    10030    2    1    2    0    0  0.00000000000E+00  0.00000000000E+00 -0.14622489696E+04  0.30762383326E+04  0.27064866949E+04 0.  0.
        4    1    3    3  502    0  0.12898573093E+04  0.17733196900E+03 -0.11504227867E+04  0.17374270364E+04  0.12699999809E+01 0. -1.
       -4    1    3    3    0  502 -0.12898573093E+04 -0.17733196900E+03 -0.31182618293E+03  0.13388112962E+04  0.12699999809E+01 0.  1.
</event>
<event>
 5   0  0.1937947E-05  0.2793738E+04  0.7818609E-02  0.8305215E-01
        2   -1    0    0  501    0  0.00000000000E+00  0.00000000000E+00  0.16751034725E+04  0.16751034725E+04  0.25500000920E-02 0.  1.
       -2   -1    0    0    0  501  0.00000000000E+00  0.00000000000E+00 -0.11648490381E+04  0.11648490381E+04  0.25500000920E-02 0. -1.
    10030    2    1    2    0    0  0.00000000000E+00  0.00000000000E+00  0.51025443445E+03  0.28399525106E+04  0.27937377606E+04 0.  0.
        3    1    3    3  502    0  0.30290453698E+03 -0.69932985660E+03  0.14451458189E+04  0.16337869674E+04  0.10100000352E+00 0.  1.
       -3    1    3    3    0  502 -0.30290453698E+03  0.69932985660E+03 -0.93489138440E+03  0.12061655432E+04  0.10100000352E+00 0. -1.
</event>
<event>
 5   0  0.7971153E-06  0.2887284E+04  0.7818609E-02  0.8276671E-01
        1   -1    0    0  501    0  0.00000000000E+00  0.00000000000E+00  0.11384011209E+04  0.11384011209E+04  0.50400001928E-02 0.  1.
       -1   -1    0    0    0  501  0.00000000000E+00  0.00000000000E+00 -0.18307279056E+04  0.18307279056E+04  0.50400001928E-02 0. -1.
    10030    2    1    2    0    0  0.00000000000E+00  0.00000000000E+00 -0.69232678467E+03  0.29691290265E+04  0.28872843295E+04 0.  0.
        5    1    3    3  502    0 -0.81108818652E+03  0.56900963185E+03  0.73357341084E+03  0.12327968391E+04  0.46999998093E+01 0.  1.
       -5    1    3    3    0  502  0.81108818652E+03 -0.56900963185E+03 -0.14259001955E+04  0.17363321874E+04  0.46999998093E+01 0. -1.
</event>
<event>
 5   0  0.8234888E-06  0.2722941E+04  0.7818609E-02  0.8327600E-01
       -1   -1    0    0    0  501  0.00000000000E+00  0.00000000000E+00  0.15608689615E+04  0.15608689615E+04  0.50400001928E-02 0. -1.
        1   -1    0    0  501    0  0.00000000000E+00  0.00000000000E+00 -0.11875445291E+04  0.11875445291E+04  0.50400001928E-02 0.  1.
    10030    2    1    2    0    0  0.00000000000E+00  0.00000000000E+00  0.37332443241E+03  0.27484134906E+04  0.27229406133E+04 0.  0.
        3    1    3    3  502    0  0.28302755059E+02  0.94157032340E+03 -0.80551141677E+03  0.12394371193E+04  0.10100000352E+00 0.  1.
       -3    1    3    3    0  502 -0.28302755059E+02 -0.94157032340E+03  0.11788358492E+04  0.15089763714E+04  0.10100000352E+00 0. -1.
</event>
<event>
 5   0  0.8055928E-06  0.2858444E+04  0.7818609E-02  0.8285350E-01
       -1   -1    0    0    0  501  0.00000000000E+00  0.00000000000E+00  0.20684479611E+04  0.20684479611E+04  0.50400001928E-02 0.  1.
        1   -1    0    0  501    0  0.00000000000E+00  0.00000000000E+00 -0.98753996559E+03  0.98753996560E+03  0.50400001928E-02 0. -1.
    10030    2    1    2    0    0  0.00000000000E+00  0.00000000000E+00  0.10809079955E+04  0.30559879267E+04  0.28584436523E+04 0.  0.
        2    1    3    3  502    0 -0.35914889572E+03 -0.62570187764E+02 -0.93699591764E+03  0.10054174791E+04  0.25500000920E-02 0. -1.
       -2    1    3    3    0  502  0.35914889572E+03  0.62570187764E+02  0.20179039132E+04  0.20505704476E+04  0.25500000920E-02 0.  1.
</event>
<event>
 5   0  0.1976233E-05  0.2954605E+04  0.7818609E-02  0.8256814E-01
        2   -1    0    0  501    0  0.00000000000E+00  0.00000000000E+00  0.23612769352E+04  0.23612769352E+04  0.25500000920E-02 0. -1.
       -2   -1    0    0    0  501  0.00000000000E+00  0.00000000000E+00 -0.92425543980E+03  0.92425543981E+03  0.25500000920E-02 0.  1.
    10030    2    1    2    0    0  0.00000000000E+00  0.00000000000E+00  0.14370214954E+04  0.32855323750E+04  0.29546052544E+04 0.  0.
        2    1    3    3  502    0 -0.13699125448E+04 -0.39825105031E+03  0.29193185362E+03  0.14561897152E+04  0.25500000920E-02 0. -1.
       -2    1    3    3    0  502  0.13699125448E+04  0.39825105031E+03  0.11450896418E+04  0.18293426599E+04  0.25500000920E-02 0.  1.
</event>
<event>
 5   0  0.8055928E-06  0.3459942E+04  0.7818609E-02  0.8123349E-01
       -1   -1    0    0    0  501  0.00000000000E+00  0.00000000000E+00  0.15527419380E+04  0.15527419380E+04  0.50400001928E-02 0.  1.
        1   -1    0    0  501    0  0.00000000000E+00  0.00000000000E+00 -0.19274290951E+04  0.19274290951E+04  0.50400001928E-02 0. -1.
    10030    2    1    2    0    0  0.00000000000E+00  0.00000000000E+00 -0.37468715710E+03  0.34801710330E+04  0.34599421893E+04 0.  0.
        2    1    3    3  502    0  0.98473286181E+03  0.10639316130E+04 -0.11368705867E+04  0.18423148529E+04  0.25500000920E-02 0. -1.
       -2    1    3    3    0  502 -0.98473286181E+03 -0.10639316130E+04  0.76218342964E+03  0.16378561801E+04  0.25500000920E-02 0.  1.
</event>
<event>
 5   0  0.8055928E-06  0.2919884E+04  0.7818609E-02  0.8266986E-01
        1   -1    0    0  501    0  0.00000000000E+00  0.00000000000E+00  0.17425273330E+04  0.17425273330E+04  0.50400001928E-02 0.  1.
       -1   -1    0    0    0  501  0.00000000000E+00  0.00000000000E+00 -0.12231833915E+04  0.12231833915E+04  0.50400001928E-02 0. -1.
    10030    2    1    2    0    0  0.00000000000E+00  0.00000000000E+00  0.51934394147E+03  0.29657107245E+04  0.29198838970E+04 0.  0.
        2    1    3    3  502    0 -0.10962868780E+04 -0.95385734858E+03  0.11696150046E+03  0.14578644494E+04  0.25500000920E-02 0.  1.
       -2    1    3    3    0  502  0.10962868780E+04  0.95385734858E+03  0.40238244101E+03  0.15078462750E+04  0.25500000920E-02 0. -1.
</event>
<event>
 5   0  0.8234888E-06  0.2837170E+04  0.7818609E-02  0.8291820E-01
        1   -1    0    0  501    0  0.00000000000E+00  0.00000000000E+00  0.18961634140E+04  0.18961634140E+04  0.50400001928E-02 0.  1.
       -1   -1    0    0    0  501  0.00000000000E+00  0.00000000000E+00 -0.10612924330E+04  0.10612924330E+04  0.50400001928E-02 0. -1.
    10030    2    1    2    0    0  0.00000000000E+00  0.00000000000E+00  0.83487098102E+03  0.29574558471E+04  0.28371703390E+04 0.  0.
        3    1    3    3  502    0 -0.70519300366E+03 -0.12291496315E+04  0.34925700475E+03  0.14594815705E+04  0.10100000352E+00 0.  1.
       -3    1    3    3    0  502  0.70519300366E+03  0.12291496315E+04  0.48561397627E+03  0.14979742766E+04  0.10100000352E+00 0. -1.
</event>
<event>
 5   0  0.1918901E-05  0.2755417E+04  0.7818609E-02  0.8317245E-01
        2   -1    0    0  501    0  0.00000000000E+00  0.00000000000E+00  0.97203058276E+03  0.97203058276E+03  0.25500000920E-02 0.  1.
       -2   -1    0    0    0  501  0.00000000000E+00  0.00000000000E+00 -0.19526968481E+04  0.19526968482E+04  0.25500000920E-02 0. -1.
    10030    2    1    2    0    0  0.00000000000E+00  0.00000000000E+00 -0.98066626539E+03  0.29247274309E+04  0.27554172499E+04 0.  0.
        1    1    3    3  502    0 -0.66018182597E+03 -0.50470856544E+02  0.79208276424E+03  0.10323674037E+04  0.50400001928E-02 0.  1.
       -1    1    3    3    0  502  0.66018182597E+03  0.50470856544E+02 -0.17727490296E+04  0.18923600273E+04  0.50400001928E-02 0. -1.
</event>
<event>
 5   0  0.1829810E-05  0.2939941E+04  0.7818609E-02  0.8261092E-01
       -2   -1    0    0    0  501  0.00000000000E+00  0.00000000000E+00  0.23352291492E+04  0.23352291492E+04  0.25500000920E-02 0. -1.
        2   -1    0    0  501    0  0.00000000000E+00  0.00000000000E+00 -0.92531073248E+03  0.92531073248E+03  0.25500000920E-02 0.  1.
    10030    2    1    2    0    0  0.00000000000E+00  0.00000000000E+00  0.14099184167E+04  0.32605398817E+04  0.29399405399E+04 0.  0.
        4    1    3    3  502    0  0.60382869165E+03 -0.46391284440E+02 -0.78052558305E+03  0.98791853856E+03  0.12699999809E+01 0.  1.
       -4    1    3    3    0  502 -0.60382869165E+03  0.46391284440E+02  0.21904439998E+04  0.22726213431E+04  0.12699999809E+01 0. -1.
</event>
<event>
 5   0  0.8122088E-06  0.2257823E+04  0.7818609E-02  0.8494739E-01
        1   -1    0    0  501    0  0.00000000000E+00  0.00000000000E+00  0.19536259809E+04  0.19536259809E+04  0.50400001928E-02 0. -1.
       -1   -1    0    0    0  501  0.00000000000E+00  0.00000000000E+00 -0.65234661164E+03  0.65234661166E+03  0.50400001928E-02 0.  1.
    10030    2    1    2    0    0  0.00000000000E+00  0.00000000000E+00  0.13012793693E+04  0.26059725926E+04  0.22578231012E+04 0.  0.
        1    1    3    3  502    0  0.20753958952E+03 -0.45267746713E+03  0.18200022715E+04  0.18869016505E+04  0.50400001928E-02 0. -1.
       -1    1    3    3    0  502 -0.20753958952E+03  0.45267746713E+03 -0.51872290219E+03  0.71907094209E+03  0.50400001928E-02 0.  1.
</event>
<event>
 5   0  0.1918901E-05  0.2587888E+04  0.7818609E-02  0.8372327E-01
       -2   -1    0    0    0  501  0.00000000000E+00  0.00000000000E+00  0.14187617422E+04  0.14187617422E+04  0.25500000920E-02 0.  1.
        2   -1    0    0  501    0  0.00000000000E+00  0.00000000000E+00 -0.11801071722E+04  0.11801071722E+04  0.25500000920E-02 0. -1.
    10030    2    1    2    0    0  0.00000000000E+00  0.00000000000E+00  0.23865457002E+03  0.25988689144E+04  0.25878878705E+04 0.  0.
        1    1    3    3  502    0 -0.74194301154E+03 -0.99045922430E+03  0.49882229067E+03  0.13342835475E+04  0.50400001928E-02 0.  1.
       -1    1    3    3    0  502  0.74194301154E+03  0.99045922430E+03 -0.26016772066E+03  0.12645853669E+04  0.50400001928E-02 0. -1.
</event>
<event>
 5   0  0.1829810E-05  0.2936418E+04  0.7818609E-02  0.8262124E-01
        2   -1    0    0  501    0  0.00000000000E+00  0.00000000000E+00  0.16297934786E+04  0.16297934786E+04  0.25500000920E-02 0.  1.
       -2   -1    0    0    0  501  0.00000000000E+00  0.00000000000E+00 -0.13226450686E+04  0.13226450686E+04  0.25500000920E-02 0. -1.
    10030    2    1    2    0    0  0.00000000000E+00  0.00000000000E+00  0.30714841002E+03  0.29524385472E+04  0.29364184357E+04 0.  0.
        4    1    3    3  502    0  0.86109935701E+03  0.72281472901E+03  0.11030158566E+04  0.15749916914E+04  0.12699999809E+01 0.  1.
       -4    1    3    3    0  502 -0.86109935701E+03 -0.72281472901E+03 -0.79586744662E+03  0.13774468558E+04  0.12699999809E+01 0. -1.
</event>
<event>
 5   0  0.1960961E-05  0.2798284E+04  0.7818609E-02  0.8303801E-01
       -2   -1    0    0    0  501  0.00000000000E+00  0.00000000000E+00  0.98725621153E+03  0.98725621153E+03  0.25500000920E-02 0. -1.
        2   -1    0    0  501    0  0.00000000000E+00  0.00000000000E+00 -0.19828673908E+04  0.19828673908E+04  0.25500000920E-02 0.  1.
    10030    2    1    2    0    0  0.00000000000E+00  0.00000000000E+00 -0.99561117924E+03  0.29701236023E+04  0.27982838657E+04 0.  0.
        5    1    3    3  502    0 -0.17826566292E+03  0.12416344499E+04 -0.11556576784E+04  0.17055795242E+04  0.46999998093E+01 0.  1.
       -5    1    3    3    0  502  0.17826566292E+03 -0.12416344499E+04  0.16004649912E+03  0.12645440781E+04  0.46999998093E+01 0. -1.
</event>
<event>
 5   0  0.1918901E-05  0.1589130E+04  0.7818609E-02  0.8827254E-01
        2   -1    0    0  501    0  0.00000000000E+00  0.00000000000E+00  0.93604941412E+03  0.93604941412E+03  0.25500000920E-02 0.  1.
       -2   -1    0    0    0  501  0.00000000000E+00  0.00000000000E+00 -0.67446564315E+03  0.67446564316E+03  0.25500000920E-02 0. -1.
    10030    2    1    2    0    0  0.00000000000E+00  0.00000000000E+00  0.26158377097E+03  0.16105150573E+04  0.15891295355E+04 0.  0.
        1    1    3    3  502    0 -0.38378901505E+03  0.66955806405E+03  0.32236257097E+03  0.83637290511E+03  0.50400001928E-02 0. -1.
       -1    1    3    3    0  502  0.38378901505E+03 -0.66955806405E+03 -0.60778800003E+02  0.77414215217E+03  0.50400001928E-02 0.  1.
</event>
<event>
 5   0  0.1960961E-05  0.2904195E+04  0.7818609E-02  0.8271630E-01
       -2   -1    0    0    0  501  0.00000000000E+00  0.00000000000E+00  0.10729234821E+04  0.10729234821E+04  0.25500000920E-02 0. -1.
        2   -1    0    0  501    0  0.00000000000E+00  0.00000000000E+00 -0.19652723858E+04  0.19652723858E+04  0.25500000920E-02 0.  1.
    10030    2    1    2    0    0  0.00000000000E+00  0.00000000000E+00 -0.89234890372E+03  0.30381958678E+04  0.29041948222E+04 0.  0.
        5    1    3    3  502    0 -0.20331929328E+03  0.55809668913E+03  0.94001271527E+03  0.11119607207E+04  0.46999998093E+01 0. -1.
       -5    1    3    3    0  502  0.20331929328E+03 -0.55809668913E+03 -0.18323616190E+04  0.19262351472E+04  0.46999998093E+01 0.  1.
</event>
<event>
 5   0  0.1918901E-05  0.2856108E+04  0.7818609E-02  0.8286058E-01
       -2   -1    0    0    0  501  0.00000000000E+00  0.00000000000E+00  0.10402781680E+04  0.10402781680E+04  0.25500000920E-02 0.  1.
        2   -1    0    0  501    0  0.00000000000E+00  0.00000000000E+00 -0.19603772090E+04  0.19603772090E+04  0.25500000920E-02 0. -1.
    10030    2    1    2    0    0  0.00000000000E+00  0.00000000000E+00 -0.92009904100E+03  0.30006553769E+04  0.28561075690E+04 0.  0.
        1    1    3    3  502    0 -0.54733172616E+03 -0.87879471505E+03 -0.14934383890E+04  0.18171985008E+04  0.50400001928E-02 0. -1.
       -1    1    3    3    0  502  0.54733172616E+03  0.87879471505E+03  0.57333934800E+03  0.11834568761E+04  0.50400001928E-02 0.  1.
</event>
<event>
 5   0  0.7305460E-06  0.2955450E+04  0.7818609E-02  0.8256568E-01
        1   -1    0    0  501    0  0.00000000000E+00  0.00000000000E+00  0.15485629153E+04  0.15485629153E+04  0.50400001928E-02 0.  1.
       -1   -1    0    0    0  501  0.00000000000E+00  0.00000000000E+00 -0.14101277997E+04  0.14101277997E+04  0.50400001928E-02 0. -1.
    10030    2    1    2    0    0  0.00000000000E+00  0.00000000000E+00  0.13843511564E+03  0.29586907150E+04  0.29554502983E+04 0.  0.
        4    1    3    3  502    0  0.10736592337E+04 -0.21679457128E+03  0.10622355555E+04  0.15258079907E+04  0.12699999809E+01 0.  1.
       -4    1    3    3    0  502 -0.10736592337E+04  0.21679457128E+03 -0.92380043983E+03  0.14328827243E+04  0.12699999809E+01 0. -1.
</event>
<event>
 5   0  0.8234888E-06  0.2844330E+04  0.7818609E-02  0.8289636E-01
       -1   -1    0    0    0  501  0.00000000000E+00  0.00000000000E+00  0.10548955410E+04  0.10548955410E+04  0.50400001928E-02 0.  1.
        1   -1    0    0  501    0  0.00000000000E+00  0.00000000000E+00 -0.19173014985E+04  0.19173014985E+04  0.50400001928E-02 0. -1.
    10030    2    1    2    0    0  0.00000000000E+00  0.00000000000E+00 -0.86240595753E+03  0.29721970395E+04  0.28443296584E+04 0.  0.
        3    1    3    3  502    0  0.36288892869E+03 -0.24381190824E+03 -0.18453405598E+04  0.18964214756E+04  0.10100000352E+00 0. -1.
       -3    1    3    3    0  502 -0.36288892869E+03  0.24381190824E+03  0.98293460231E+03  0.10757755638E+04  0.10100000352E+00 0.  1.
</event>
<event>
 5   0  0.1918901E-05  0.2827984E+04  0.7818609E-02  0.8294633E-01
       -2   -1    0    0    0  501  0.00000000000E+00  0.00000000000E+00  0.12636488754E+04  0.12636488754E+04  0.25500000920E-02 0.  1.
        2   -1    0    0  501    0  0.00000000000E+00  0.00000000000E+00 -0.15822223235E+04  0.15822223235E+04  0.25500000920E-02 0. -1.
    10030    2    1    2    0    0  0.00000000000E+00  0.00000000000E+00 -0.31857344804E+03  0.28458711989E+04  0.28279840592E+04 0.  0.
        1    1    3    3  502    0  0.61129391311E+03  0.12142763498E+04  0.23205102496E+03  0.13791283407E+04  0.50400001928E-02 0.  1.
       -1    1    3    3    0  502 -0.61129391311E+03 -0.12142763498E+04 -0.55062447300E+03  0.14667428582E+04  0.50400001928E-02 0. -1.
</event>
<event>
 5   0  0.8055928E-06  0.2904914E+04  0.7818609E-02  0.8271417E-01
        1   -1    0    0  501    0  0.00000000000E+00  0.00000000000E+00  0.19233850610E+04  0.19233850610E+04  0.50400001928E-02 0. -1.
       -1   -1    0    0    0  501  0.00000000000E+00  0.00000000000E+00 -0.10968323877E+04  0.10968323877E+04  0.50400001928E-02 0.  1.
    10030    2    1    2    0    0  0.00000000000E+00  0.00000000000E+00  0.82655267333E+03  0.30202174487E+04  0.29049137879E+04 0.  0.
        2    1    3    3  502    0 -0.16694174311E+03  0.69958783262E+02 -0.10850600748E+04  0.11000541546E+04  0.25500000920E-02 0.  1.
       -2    1    3    3    0  502  0.16694174311E+03 -0.69958783262E+02  0.19116127482E+04  0.19201632941E+04  0.25500000920E-02 0. -1.
</event>
<event>
 5   0  0.1976233E-05  0.2402434E+04  0.7818609E-02  0.8438593E-01
       -2   -1    0    0    0  501  0.00000000000E+00  0.00000000000E+00  0.11391012645E+04  0.11391012645E+04  0.25500000920E-02 0.  1.
        2   -1    0    0  501    0  0.00000000000E+00  0.00000000000E+00 -0.12667196762E+04  0.12667196762E+04  0.25500000920E-02 0. -1.
    10030    2    1    2    0    0  0.00000000000E+00  0.00000000000E+00 -0.12761841173E+03  0.24058209407E+04  0.24024337534E+04 0.  0.
        2    1    3    3  502    0  0.57378073529E+03 -0.18204638123E+03  0.97715470610E+03  0.11476918301E+04  0.25500000920E-02 0.  1.
       -2    1    3    3    0  502 -0.57378073529E+03  0.18204638123E+03 -0.11047731178E+04  0.12581291106E+04  0.25500000920E-02 0. -1.
</event>
<event>
 5   0  0.7305460E-06  0.2711313E+04  0.7818609E-02  0.8331344E-01
        1   -1    0    0  501    0  0.00000000000E+00  0.00000000000E+00  0.14113218627E+04  0.14113218627E+04  0.50400001928E-02 0. -1.
       -1   -1    0    0    0  501  0.00000000000E+00  0.00000000000E+00 -0.13021864908E+04  0.13021864908E+04  0.50400001928E-02 0.  1.
    10030    2    1    2    0    0  0.00000000000E+00  0.00000000000E+00  0.10913537187E+03  0.27135083535E+04  0.27113127919E+04 0.  0.
        4    1    3    3  502    0 -0.10176036665E+04  0.89527513697E+03  0.26834996986E+02  0.13556387878E+04  0.12699999809E+01 0. -1.
       -4    1    3    3    0  502  0.10176036665E+04 -0.89527513697E+03  0.82300374883E+02  0.13578695657E+04  0.12699999809E+01 0.  1.
</event>
<event>
 5   0  0.1960961E-05  0.2921960E+04  0.7818609E-02  0.8266374E-01
        2   -1    0    0  501    0  0.00000000000E+00  0.00000000000E+00  0.17549176061E+04  0.17549176061E+04  0.25500000920E-02 0. -1.
       -2   -1    0    0    0  501  0.00000000000E+00  0.00000000000E+00 -0.12162746757E+04  0.12162746757E+04  0.25500000920E-02 0.  1.
    10030    2    1    2    0    0  0.00000000000E+00  0.00000000000E+00  0.53864293039E+03  0.29711922818E+04  0.29219595084E+04 0.  0.
        5    1    3    3  502    0  0.31801320595E+03 -0.12163940682E+04 -0.48732152387E+03  0.13484254841E+04  0.46999998093E+01 0.  1.
       -5    1    3    3    0  502 -0.31801320595E+03  0.12163940682E+04  0.10259644543E+04  0.16227667977E+04  0.46999998093E+01 0. -1.
</event>
<event>
 5   0  0.7305460E-06  0.2921508E+04  0.7818609E-02  0.8266507E-01
       -1   -1    0    0    0  501  0.00000000000E+00  0.00000000000E+00  0.13136657216E+04  0.13136657216E+04  0.50400001928E-02 0.  1.
        1   -1    0    0  501    0  0.00000000000E+00  0.00000000000E+00 -0.16243114268E+04  0.16243114268E+04  0.50400001928E-02 0. -1.
    10030    2    1    2    0    0  0.00000000000E+00  0.00000000000E+00 -0.31064570522E+03  0.29379771483E+04  0.29215079959E+04 0.  0.
        4    1    3    3  502    0 -0.10745908860E+04  0.16198194798E+03 -0.11369488717E+04  0.15727803641E+04  0.12699999809E+01 0. -1.
       -4    1    3    3    0  502  0.10745908860E+04 -0.16198194798E+03  0.82630316651E+03  0.13651967843E+04  0.12699999809E+01 0.  1.
</event>
<event>
 5   0  0.1918901E-05  0.1458313E+04  0.7818609E-02  0.8912657E-01
        2   -1    0    0  501    0  0.00000000000E+00  0.00000000000E+00  0.41082005550E+03  0.41082005551E+03  0.25500000920E-02 0.  1.
       -2   -1    0    0    0  501  0.00000000000E+00  0.00000000000E+00 -0.12941659118E+04  0.12941659118E+04  0.25500000920E-02 0. -1.
    10030    2    1    2    0    0  0.00000000000E+00  0.00000000000E+00 -0.88334585626E+03  0.17049859673E+04  0.14583131512E+04 0.  0.
        1    1    3    3  502    0 -0.45021949437E+03 -0.34642176400E+03  0.92775028014E+02  0.57559780884E+03  0.50400001928E-02 0.  1.
       -1    1    3    3    0  502  0.45021949437E+03  0.34642176400E+03 -0.97612088428E+03  0.11293881584E+04  0.50400001928E-02 0. -1.
</event>
<event>
 5   0  0.8055928E-06  0.2960031E+04  0.7818609E-02  0.8255237E-01
       -1   -1    0    0    0  501  0.00000000000E+00  0.00000000000E+00  0.11870293527E+04  0.11870293527E+04  0.50400001928E-02 0.  1.
        1   -1    0    0  501    0  0.00000000000E+00  0.00000000000E+00 -0.18453178036E+04  0.18453178036E+04  0.50400001928E-02 0. -1.
    10030    2    1    2    0    0  0.00000000000E+00  0.00000000000E+00 -0.65828845094E+03  0.30323471564E+04  0.29600313498E+04 0.  0.
        2    1    3    3  502    0 -0.11680723529E+04 -0.48252141504E+03  0.45988459376E+03  0.13448842988E+04  0.25500000920E-02 0. -1.
       -2    1    3    3    0  502  0.11680723529E+04  0.48252141504E+03 -0.11181730447E+04  0.16874628575E+04  0.25500000920E-02 0.  1.
</event>
<event>
 5   0  0.8055928E-06  0.2999111E+04  0.7818609E-02  0.8243985E-01
       -1   -1    0    0    0  501  0.00000000000E+00  0.00000000000E+00  0.16907997171E+04  0.16907997171E+04  0.50400001928E-02 0. -1.
        1   -1    0    0  501    0  0.00000000000E+00  0.00000000000E+00 -0.13299424501E+04  0.13299424501E+04  0.50400001928E-02 0.  1.
    10030    2    1    2    0    0  0.00000000000E+00  0.00000000000E+00  0.36085726700E+03  0.30207421672E+04  0.29991107471E+04 0.  0.
        2    1    3    3  502    0  0.13600371402E+02  0.50704173446E+03 -0.12409157540E+04  0.13405775618E+04  0.25500000920E-02 0.  1.
       -2    1    3    3    0  502 -0.13600371402E+02 -0.50704173446E+03  0.16017730210E+04  0.16801646054E+04  0.25500000920E-02 0. -1.
</event>
<event>
 5   0  0.7971153E-06  0.2875458E+04  0.7818609E-02  0.8280217E-01
        1   -1    0    0  501    0  0.00000000000E+00  0.00000000000E+00  0.12915946099E+04  0.12915946099E+04  0.50400001928E-02 0. -1.
       -1   -1    0    0    0  501  0.00000000000E+00  0.00000000000E+00 -0.16003970374E+04  0.16003970374E+04  0.50400001928E-02 0.  1.
    10030    2    1    2    0    0  0.00000000000E+00  0.00000000000E+00 -0.30880242746E+03  0.28919916473E+04  0.28754576590E+04 0.  0.
        5    1    3    3  502    0 -0.81441390257E+03  0.11461841419E+04 -0.45618322091E+03  0.14782196430E+04  0.46999998093E+01 0. -1.
       -5    1    3    3    0  502  0.81441390257E+03 -0.11461841419E+04  0.14738079345E+03  0.14137720043E+04  0.46999998093E+01 0.  1.
</event>
<event>
 5   0  0.7971153E-06  0.2808787E+04  0.7818609E-02  0.8300546E-01
        1   -1    0    0  501    0  0.00000000000E+00  0.00000000000E+00  0.16842586182E+04  0.16842586182E+04  0.50400001928E-02 0. -1.
       -1   -1    0    0    0  501  0.00000000000E+00  0.00000000000E+00 -0.11710321045E+04  0.11710321045E+04  0.50400001928E-02 0.  1.
    10030    2    1    2    0    0  0.00000000000E+00  0.00000000000E+00  0.51322651374E+03  0.28552907227E+04  0.28087868657E+04 0.  0.
        5    1    3    3  502    0  0.12448136416E+04  0.63130925933E+03  0.41470803702E+03  0.14560622340E+04  0.46999998093E+01 0.  1.
       -5    1    3    3    0  502 -0.12448136416E+04 -0.63130925933E+03  0.98518476719E+02  0.13992284887E+04  0.46999998093E+01 0. -1.
</event>
<event>
 5   0  0.7305460E-06  0.2920618E+04  0.7818609E-02  0.8266769E-01
       -1   -1    0    0    0  501  0.00000000000E+00  0.00000000000E+00  0.10290447183E+04  0.10290447183E+04  0.50400001928E-02 0. -1.
        1   -1    0    0  501    0  0.00000000000E+00  0.00000000000E+00 -0.20723132037E+04  0.20723132037E+04  0.50400001928E-02 0.  1.
    10030    2    1    2    0    0  0.00000000000E+00  0.00000000000E+00 -0.10432684854E+04  0.31013579220E+04  0.29206183982E+04 0.  0.
        4    1    3    3  502    0 -0.64130722672E+02  0.38366649315E+03  0.97301740609E+03  0.10478917945E+04  0.12699999809E+01 0. -1.
       -4    1    3    3    0  502  0.64130722672E+02 -0.38366649315E+03 -0.20162858915E+04  0.20534661275E+04  0.12699999809E+01 0.  1.
</event>
<event>
 5   0  0.1829810E-05  0.2928171E+04  0.7818609E-02  0.8264545E-01
       -2   -1    0    0    0  501  0.00000000000E+00  0.00000000000E+00  0.11040246725E+04  0.11040246725E+04  0.25500000920E-02 0.  1.
        2   -1    0    0  501    0  0.00000000000E+00  0.00000000000E+00 -0.19415748624E+04  0.19415748624E+04  0.25500000920E-02 0. -1.
    10030    2    1    2    0    0  0.00000000000E+00  0.00000000000E+00 -0.83755018995E+03  0.30455995349E+04  0.29281711368E+04 0.  0.
        4    1    3    3  502    0  0.13560456358E+04 -0.35424016355E+03 -0.85907057659E+03  0.16438825165E+04  0.12699999809E+01 0. -1.
       -4    1    3    3    0  502 -0.13560456358E+04  0.35424016355E+03  0.21520386634E+02  0.14017170184E+04  0.12699999809E+01 0.  1.
</event>
<event>
 5   0  0.1918901E-05  0.2719071E+04  0.7818609E-02  0.8328843E-01
        2   -1    0    0  501    0  0.00000000000E+00  0.00000000000E+00  0.20127038935E+04  0.20127038935E+04  0.25500000920E-02 0. -1.
       -2   -1    0    0    0  501  0.00000000000E+00  0.00000000000E+00 -0.91833524746E+03  0.91833524746E+03  0.25500000920E-02 0.  1.
    10030    2    1    2    0    0  0.00000000000E+00  0.00000000000E+00  0.10943686460E+04  0.29310391410E+04  0.27190711120E+04 0.  0.
        1    1    3    3  502    0 -0.59577189045E+03 -0.16435758263E+03  0.18525260554E+04  0.19528979355E+04  0.50400001928E-02 0. -1.
       -1    1    3    3    0  502  0.59577189045E+03  0.16435758263E+03 -0.75815740938E+03  0.97814120547E+03  0.50400001928E-02 0.  1.
</event>
<event>
 5   0  0.1960961E-05  0.2948361E+04  0.7818609E-02  0.8258632E-01
        2   -1    0    0  501    0  0.00000000000E+00  0.00000000000E+00  0.30123377903E+04  0.30123377903E+04  0.25500000920E-02 0.  1.
       -2   -1    0    0    0  501  0.00000000000E+00  0.00000000000E+00 -0.72143571747E+03  0.72143571747E+03  0.25500000920E-02 0. -1.
    10030    2    1    2    0    0  0.00000000000E+00  0.00000000000E+00  0.22909020728E+04  0.37337735077E+04  0.29483609514E+04 0.  0.
        5    1    3    3  502    0  0.76063828942E+03 -0.95866265710E+03  0.21863441256E+04  0.25055393477E+04  0.46999998093E+01 0. -1.
       -5    1    3    3    0  502 -0.76063828942E+03  0.95866265710E+03  0.10455794718E+03  0.12282341600E+04  0.46999998093E+01 0.  1.
</event>
<event>
 5   0  0.1976233E-05  0.2960127E+04  0.7818609E-02  0.8255209E-01
        2   -1    0    0  501    0  0.00000000000E+00  0.00000000000E+00  0.16381376933E+04  0.16381376933E+04  0.25500000920E-02 0. -1.
       -2   -1    0    0    0  501  0.00000000000E+00  0.00000000000E+00 -0.13372429162E+04  0.13372429162E+04  0.25500000920E-02 0.  1.
    10030    2    1    2    0    0  0.00000000000E+00  0.00000000000E+00  0.30089477709E+03  0.29753806095E+04  0.29601270420E+04 0.  0.
        2    1    3    3  502    0  0.21612104732E+02  0.56639850135E+03  0.15247211989E+04  0.16266680915E+04  0.25500000920E-02 0. -1.
       -2    1    3    3    0  502 -0.21612104732E+02 -0.56639850135E+03 -0.12238264218E+04  0.13487125180E+04  0.25500000920E-02 0.  1.
</event>
<event>
 5   0  0.8055928E-06  0.2860744E+04  0.7818609E-02  0.8284654E-01
        1   -1    0    0  501    0  0.00000000000E+00  0.00000000000E+00  0.19594320424E+04  0.19594320424E+04  0.50400001928E-02 0.  1.
       -1   -1    0    0    0  501  0.00000000000E+00  0.00000000000E+00 -0.10441615180E+04  0.10441615180E+04  0.50400001928E-02 0. -1.
    10030    2    1    2    0    0  0.00000000000E+00  0.00000000000E+00  0.91527052443E+03  0.30035935604E+04  0.28607436347E+04 0.  0.
        2    1    3    3  502    0  0.81685501290E+03  0.19717319593E+03 -0.75767662682E+03  0.11314606719E+04  0.25500000920E-02 0. -1.
       -2    1    3    3    0  502 -0.81685501290E+03 -0.19717319593E+03  0.16729471512E+04  0.18721328885E+04  0.25500000920E-02 0.  1.
</event>
<event>
 5   0  0.8122088E-06  0.2766989E+04  0.7818609E-02  0.8313591E-01
        1   -1    0    0  501    0  0.00000000000E+00  0.00000000000E+00  0.15049925194E+04  0.15049925194E+04  0.50400001928E-02 0. -1.
       -1   -1    0    0    0  501  0.00000000000E+00  0.00000000000E+00 -0.12718050550E+04  0.12718050550E+04  0.50400001928E-02 0.  1.
    10030    2    1    2    0    0  0.00000000000E+00  0.00000000000E+00  0.23318746439E+03  0.27767975743E+04  0.27669890450E+04 0.  0.
        1    1    3    3  502    0  0.78814719987E+03 -0.75823948349E+03 -0.73373153163E+03  0.13169909201E+04  0.50400001928E-02 0.  1.
       -1    1    3    3    0  502 -0.78814719987E+03  0.75823948349E+03  0.96691899602E+03  0.14598066543E+04  0.50400001928E-02 0. -1.
</event>
<event>
 5   0  0.1960961E-05  0.2903519E+04  0.7818609E-02  0.8271831E-01
       -2   -1    0    0    0  501  0.00000000000E+00  0.00000000000E+00  0.10910239725E+04  0.10910239725E+04  0.25500000920E-02 0. -1.
        2   -1    0    0  501    0  0.00000000000E+00  0.00000000000E+00 -0.19317688811E+04  0.19317688811E+04  0.25500000920E-02 0.  1.
    10030    2    1    2    0    0  0.00000000000E+00  0.00000000000E+00 -0.84074490863E+03  0.30227928536E+04  0.29035193532E+04 0.  0.
        5    1    3    3  502    0 -0.27025933320E+03 -0.11674057815E+04  0.43287269096E+03  0.12740789703E+04  0.46999998093E+01 0. -1.
       -5    1    3    3    0  502  0.27025933320E+03  0.11674057815E+04 -0.12736175996E+04  0.17487138834E+04  0.46999998093E+01 0.  1.
</event>
<event>
 5   0  0.1918901E-05  0.1483863E+04  0.7818609E-02  0.8895255E-01
        2   -1    0    0  501    0  0.00000000000E+00  0.00000000000E+00  0.13142022228E+04  0.13142022228E+04  0.25500000920E-02 0.  1.
       -2   -1    0    0    0  501  0.00000000000E+00  0.00000000000E+00 -0.41885662025E+03  0.41885662026E+03  0.25500000920E-02 0. -1.
    10030    2    1    2    0    0  0.00000000000E+00  0.00000000000E+00  0.89534560254E+03  0.17330588430E+04  0.14838629335E+04 0.  0.
        1    1    3    3  502    0  0.69180479019E+03  0.30323832558E+02  0.13657828783E+03  0.70580948653E+03  0.50400001928E-02 0. -1.
       -1    1    3    3    0  502 -0.69180479019E+03 -0.30323832558E+02  0.75876731471E+03  0.10272493565E+04  0.50400001928E-02 0.  1.
</event>
<event>
 5   0  0.7971153E-06  0.2992613E+04  0.7818609E-02  0.8245843E-01
       -1   -1    0    0    0  501  0.00000000000E+00  0.00000000000E+00  0.88091640031E+03  0.88091640032E+03  0.50400001928E-02 0.  1.
        1   -1    0    0  501    0  0.00000000000E+00  0.00000000000E+00 -0.25415958063E+04  0.25415958063E+04  0.50400001928E-02 0. -1.
    10030    2    1    2    0    0  0.00000000000E+00  0.00000000000E+00 -0.16606794060E+04  0.34225122066E+04  0.29926131917E+04 0.  0.
        5    1    3    3  502    0 -0.10829676992E+04  0.11418723217E+03 -0.20039384945E+04  0.22807124635E+04  0.46999998093E+01 0. -1.
       -5    1    3    3    0  502  0.10829676992E+04 -0.11418723217E+03  0.34325908849E+03  0.11417997431E+04  0.46999998093E+01 0.  1.
</event>
<event>
 5   0  0.8234888E-06  0.2873010E+04  0.7818609E-02  0.8280953E-01
        1   -1    0    0  501    0  0.00000000000E+00  0.00000000000E+00  0.15033372824E+04  0.15033372824E+04  0.50400001928E-02 0.  1.
       -1   -1    0    0    0  501  0.00000000000E+00  0.00000000000E+00 -0.13726441075E+04  0.13726441075E+04  0.50400001928E-02 0. -1.
    10030    2    1    2    0    0  0.00000000000E+00  0.00000000000E+00  0.13069317486E+03  0.28759813899E+04  0.28730103113E+04 0.  0.
        3    1    3    3  502    0 -0.13895351578E+03 -0.79815927887E+03 -0.11221266421E+04  0.13840283686E+04  0.10100000352E+00 0. -1.
       -3    1    3    3    0  502  0.13895351578E+03  0.79815927887E+03  0.12528198169E+04  0.14919530213E+04  0.10100000352E+00 0.  1.
</event>
<event>
 5   0  0.1960961E-05  0.3032773E+04  0.7818609E-02  0.8234434E-01
       -2   -1    0    0    0  501  0.00000000000E+00  0.00000000000E+00  0.12290144191E+04  0.12290144191E+04  0.25500000920E-02 0. -1.
        2   -1    0    0  501    0  0.00000000000E+00  0.00000000000E+00 -0.18709526257E+04  0.18709526257E+04  0.25500000920E-02 0.  1.
    10030    2    1    2    0    0  0.00000000000E+00  0.00000000000E+00 -0.64193820661E+03  0.30999670448E+04  0.30327728266E+04 0.  0.
        5    1    3    3  502    0 -0.20282661859E+03 -0.12308874932E+04  0.56021181078E+03  0.13675094227E+04  0.46999998093E+01 0. -1.
       -5    1    3    3    0  502  0.20282661859E+03  0.12308874932E+04 -0.12021500174E+04  0.17324576222E+04  0.46999998093E+01 0.  1.
</event>
<event>
 5   0  0.8234888E-06  0.2851673E+04  0.7818609E-02  0.8287403E-01
       -1   -1    0    0    0  501  0.00000000000E+00  0.00000000000E+00  0.16157298767E+04  0.16157298767E+04  0.50400001928E-02 0.  1.
        1   -1    0    0  501    0  0.00000000000E+00  0.00000000000E+00 -0.12582607271E+04  0.12582607271E+04  0.50400001928E-02 0. -1.
    10030    2    1    2    0    0  0.00000000000E+00  0.00000000000E+00  0.35746914967E+03  0.28739906038E+04  0.28516728069E+04 0.  0.
        3    1    3    3  502    0  0.98844409726E+03 -0.46197828647E+03 -0.74636192894E+03  0.13219310911E+04  0.10100000352E+00 0. -1.
       -3    1    3    3    0  502 -0.98844409726E+03  0.46197828647E+03  0.11038310786E+04  0.15520595127E+04  0.10100000352E+00 0.  1.
</event>
<event>
 5   0  0.1937947E-05  0.2912641E+04  0.7818609E-02  0.8269126E-01
        2   -1    0    0  501    0  0.00000000000E+00  0.00000000000E+00  0.24115485329E+04  0.24115485329E+04  0.25500000920E-02 0.  1.
       -2   -1    0    0    0  501  0.00000000000E+00  0.00000000000E+00 -0.87946387346E+03  0.87946387346E+03  0.25500000920E-02 0. -1.
    10030    2    1    2    0    0  0.00000000000E+00  0.00000000000E+00  0.15320846595E+04  0.32910124064E+04  0.29126412850E+04 0.  0.
        3    1    3    3  502    0 -0.15489940520E+03  0.54839974510E+03  0.22803420732E+04  0.23504672062E+04  0.10100000352E+00 0.  1.
       -3    1    3    3    0  502  0.15489940520E+03 -0.54839974510E+03 -0.74825741377E+03  0.94054520020E+03  0.10100000352E+00 0. -1.
</event>
<event>
 5   0  0.8055928E-06  0.2517794E+04  0.7818609E-02  0.8396673E-01
        1   -1    0    0  501    0  0.00000000000E+00  0.00000000000E+00  0.95884083867E+03  0.95884083868E+03  0.50400001928E-02 0. -1.
       -1   -1    0    0    0  501  0.00000000000E+00  0.00000000000E+00 -0.16528522415E+04  0.16528522415E+04  0.50400001928E-02 0.  1.
    10030    2    1    2    0    0  0.00000000000E+00  0.00000000000E+00 -0.69401140279E+03  0.26116930801E+04  0.25177944550E+04 0.  0.
        2    1    3    3  502    0  0.59856386971E+02  0.12329886051E+04 -0.60315335597E+03  0.13739132645E+04  0.25500000920E-02 0.  1.
       -2    1    3    3    0  502 -0.59856386971E+02 -0.12329886051E+04 -0.90858046816E+02  0.12377798157E+04  0.25500000920E-02 0. -1.
</event>
<event>
 5   0  0.1918901E-05  0.2703464E+04  0.7818609E-02  0.8333882E-01
        2   -1    0    0  501    0  0.00000000000E+00  0.00000000000E+00  0.22509425928E+04  0.22509425928E+04  0.25500000920E-02 0.  1.
       -2   -1    0    0    0  501  0.00000000000E+00  0.00000000000E+00 -0.81173947644E+03  0.81173947644E+03  0.25500000920E-02 0. -1.
    10030    2    1    2    0    0  0.00000000000E+00  0.00000000000E+00  0.14392031163E+04  0.30626820692E+04  0.27034636759E+04 0.  0.
        1    1    3    3  502    0  0.34011851338E+03  0.67682762596E+03 -0.54871217273E+03  0.93534019850E+03  0.50400001928E-02 0. -1.
       -1    1    3    3    0  502 -0.34011851338E+03 -0.67682762596E+03  0.19879152891E+04  0.21273418707E+04  0.50400001928E-02 0.  1.
</event>
<event>
 5   0  0.8055928E-06  0.2913262E+04  0.7818609E-02  0.8268943E-01
       -1   -1    0    0    0  501  0.00000000000E+00  0.00000000000E+00  0.91183731212E+03  0.91183731213E+03  0.50400001928E-02 0.  1.
        1   -1    0    0  501    0  0.00000000000E+00  0.00000000000E+00 -0.23269216773E+04  0.23269216773E+04  0.50400001928E-02 0. -1.
    10030    2    1    2    0    0  0.00000000000E+00  0.00000000000E+00 -0.14150843652E+04  0.32387589895E+04  0.29132620945E+04 0.  0.
        2    1    3    3  502    0 -0.95210012038E+03  0.97385702554E+03 -0.13321601642E+03  0.13684438799E+04  0.25500000920E-02 0.  1.
       -2    1    3    3    0  502  0.95210012038E+03 -0.97385702554E+03 -0.12818683488E+04  0.18703151096E+04  0.25500000920E-02 0. -1.
</event>
<event>
 5   0  0.1829810E-05  0.2920203E+04  0.7818609E-02  0.8266892E-01
        2   -1    0    0  501    0  0.00000000000E+00  0.00000000000E+00  0.19202278928E+04  0.19202278928E+04  0.25500000920E-02 0. -1.
       -2   -1    0    0    0  501  0.00000000000E+00  0.00000000000E+00 -0.11102312259E+04  0.11102312259E+04  0.25500000920E-02 0.  1.
    10030    2    1    2    0    0  0.00000000000E+00  0.00000000000E+00  0.80999666692E+03  0.30304591187E+04  0.29202033953E+04 0.  0.
        4    1    3    3  502    0 -0.99217253185E+03  0.28090744305E+03 -0.66775248601E+03  0.12284992145E+04  0.12699999809E+01 0.  1.
       -4    1    3    3    0  502  0.99217253185E+03 -0.28090744305E+03  0.14777491529E+04  0.18019599042E+04  0.12699999809E+01 0. -1.
</event>
<event>
 5   0  0.7305460E-06  0.2885527E+04  0.7818609E-02  0.8277197E-01
       -1   -1    0    0    0  501  0.00000000000E+00  0.00000000000E+00  0.95692633827E+03  0.95692633828E+03  0.50400001928E-02 0.  1.
        1   -1    0    0  501    0  0.00000000000E+00  0.00000000000E+00 -0.21752635211E+04  0.21752635211E+04  0.50400001928E-02 0. -1.
    10030    2    1    2    0    0  0.00000000000E+00  0.00000000000E+00 -0.12183371828E+04  0.31321898594E+04  0.28855273043E+04 0.  0.
        4    1    3    3  502    0  0.10798718040E+04  0.48673716286E+03 -0.15033119406E+04  0.19138925211E+04  0.12699999809E+01 0. -1.
       -4    1    3    3    0  502 -0.10798718040E+04 -0.48673716286E+03  0.28497475784E+03  0.12182973382E+04  0.12699999809E+01 0.  1.
</event>
<event>
 5   0  0.6578125E-06  0.2828290E+04  0.7818609E-02  0.8294539E-01
       -4   -1    0    0    0  501  0.00000000000E+00  0.00000000000E+00  0.14641432061E+04  0.14641437569E+04  0.12699999809E+01 0.  1.
        4   -1    0    0  501    0  0.00000000000E+00  0.00000000000E+00 -0.13658535077E+04  0.13658540981E+04  0.12699999809E+01 0. -1.
    10030    2    1    2    0    0  0.00000000000E+00  0.00000000000E+00  0.98289698458E+02  0.28299978551E+04  0.28282904722E+04 0.  0.
        4    1    3    3  502    0 -0.63349552520E+03  0.89828300574E+03  0.93938762689E+03  0.14459182775E+04  0.12699999809E+01 0.  1.
       -4    1    3    3    0  502  0.63349552520E+03 -0.89828300574E+03 -0.84109792843E+03  0.13840795775E+04  0.12699999809E+01 0. -1.
</event>
<event>
 5   0  0.7971153E-06  0.1919928E+04  0.7818609E-02  0.8645000E-01
       -1   -1    0    0    0  501  0.00000000000E+00  0.00000000000E+00  0.56761621771E+03  0.56761621774E+03  0.50400001928E-02 0.  1.
        1   -1    0    0  501    0  0.00000000000E+00  0.00000000000E+00 -0.16235107735E+04  0.16235107735E+04  0.50400001928E-02 0. -1.
    10030    2    1    2    0    0  0.00000000000E+00  0.00000000000E+00 -0.10558945558E+04  0.21911269913E+04  0.19199281702E+04 0.  0.
        5    1    3    3  502    0 -0.15479997871E+02 -0.56500094780E+03  0.35756872650E+03  0.66883718910E+03  0.46999998093E+01 0.  1.
       -5    1    3    3    0  502  0.15479997871E+02  0.56500094780E+03 -0.14134632823E+04  0.15222898022E+04  0.46999998093E+01 0. -1.
</event>
<event>
 5   0  0.8055928E-06  0.2919790E+04  0.7818609E-02  0.8267014E-01
        1   -1    0    0  501    0  0.00000000000E+00  0.00000000000E+00  0.19532391038E+04  0.19532391038E+04  0.50400001928E-02 0.  1.
       -1   -1    0    0    0  501  0.00000000000E+00  0.00000000000E+00 -0.10911583282E+04  0.10911583282E+04  0.50400001928E-02 0. -1.
    10030    2    1    2    0    0  0.00000000000E+00  0.00000000000E+00  0.86208077564E+03  0.30443974320E+04  0.29197897973E+04 0.  0.
        2    1    3    3  502    0  0.11433375181E+04  0.39528140779E+03 -0.42104106238E+03  0.12809151603E+04  0.25500000920E-02 0. -1.
       -2    1    3    3    0  502 -0.11433375181E+04 -0.39528140779E+03  0.12831218380E+04  0.17634822718E+04  0.25500000920E-02 0.  1.
</event>
<event>
 5   0  0.8234888E-06  0.2620492E+04  0.7818609E-02  0.8361274E-01
        1   -1    0    0  501    0  0.00000000000E+00  0.00000000000E+00  0.13801137709E+04  0.13801137709E+04  0.50400001928E-02 0.  1.
       -1   -1    0    0    0  501  0.00000000000E+00  0.00000000000E+00 -0.12439154830E+04  0.12439154830E+04  0.50400001928E-02 0. -1.
    10030    2    1    2    0    0  0.00000000000E+00  0.00000000000E+00  0.13619828790E+03  0.26240292539E+04  0.26204922346E+04 0.  0.
        3    1    3    3  502    0  0.93540700163E+03 -0.65892994904E+03 -0.57117460171E+03  0.12788335983E+04  0.10100000352E+00 0. -1.
       -3    1    3    3    0  502 -0.93540700163E+03  0.65892994904E+03  0.70737288961E+03  0.13451956555E+04  0.10100000352E+00 0.  1.
</event>
<event>
 5   0  0.7971153E-06  0.2928053E+04  0.7818609E-02  0.8264579E-01
       -1   -1    0    0    0  501  0.00000000000E+00  0.00000000000E+00  0.13327865662E+04  0.13327865662E+04  0.50400001928E-02 0.  1.
        1   -1    0    0  501    0  0.00000000000E+00  0.00000000000E+00 -0.16081899396E+04  0.16081899396E+04  0.50400001928E-02 0. -1.
    10030    2    1    2    0    0  0.00000000000E+00  0.00000000000E+00 -0.27540337340E+03  0.29409765057E+04  0.29280532422E+04 0.  0.
        5    1    3    3  502    0  0.29658141649E+03  0.13525402504E+04 -0.61522213050E+03  0.15152049450E+04  0.46999998093E+01 0. -1.
       -5    1    3    3    0  502 -0.29658141649E+03 -0.13525402504E+04  0.33981875710E+03  0.14257715607E+04  0.46999998093E+01 0.  1.
</event>
<event>
 5   0  0.7971153E-06  0.2929579E+04  0.7818609E-02  0.8264131E-01
        1   -1    0    0  501    0  0.00000000000E+00  0.00000000000E+00  0.15045844613E+04  0.15045844613E+04  0.50400001928E-02 0.  1.
       -1   -1    0    0    0  501  0.00000000000E+00  0.00000000000E+00 -0.14260467187E+04  0.14260467188E+04  0.50400001928E-02 0. -1.
    10030    2    1    2    0    0  0.00000000000E+00  0.00000000000E+00  0.78537742561E+02  0.29306311801E+04  0.29295786278E+04 0.  0.
        5    1    3    3  502    0  0.10573299367E+04 -0.25479772100E+03  0.10208029122E+04  0.14916196396E+04  0.46999998093E+01 0.  1.
       -5    1    3    3    0  502 -0.10573299367E+04  0.25479772100E+03 -0.94226516967E+03  0.14390115405E+04  0.46999998093E+01 0. -1.
</event>
<event>
 5   0  0.7971153E-06  0.2679594E+04  0.7818609E-02  0.8341656E-01
        1   -1    0    0  501    0  0.00000000000E+00  0.00000000000E+00  0.11446215359E+04  0.11446215359E+04  0.50400001928E-02 0. -1.
       -1   -1    0    0    0  501  0.00000000000E+00  0.00000000000E+00 -0.15682530395E+04  0.15682530395E+04  0.50400001928E-02 0.  1.
    10030    2    1    2    0    0  0.00000000000E+00  0.00000000000E+00 -0.42363150366E+03  0.27128745754E+04  0.26795941504E+04 0.  0.
        5    1    3    3  502    0 -0.10150646617E+04  0.24267432953E+03 -0.10623612034E+04  0.14892550198E+04  0.46999998093E+01 0.  1.
       -5    1    3    3    0  502  0.10150646617E+04 -0.24267432953E+03  0.63872969970E+03  0.12236195556E+04  0.46999998093E+01 0. -1.
</event>
<event>
 5   0  0.1829810E-05  0.3056221E+04  0.7818609E-02  0.8227856E-01
       -2   -1    0    0    0  501  0.00000000000E+00  0.00000000000E+00  0.92535077529E+03  0.92535077529E+03  0.25500000920E-02 0.  1.
        2   -1    0    0  501    0  0.00000000000E+00  0.00000000000E+00 -0.25234986180E+04  0.25234986180E+04  0.25500000920E-02 0. -1.
    10030    2    1    2    0    0  0.00000000000E+00  0.00000000000E+00 -0.15981478427E+04  0.34488493933E+04  0.30562208053E+04 0.  0.
        4    1    3    3  502    0 -0.12372629923E+04 -0.30345802392E+03 -0.17514194415E+04  0.21657280895E+04  0.12699999809E+01 0.  1.
       -4    1    3    3    0  502  0.12372629923E+04  0.30345802392E+03  0.15327159877E+03  0.12831213039E+04  0.12699999809E+01 0. -1.
</event>
<event>
 5   0  0.7305460E-06  0.2866119E+04  0.7818609E-02  0.8283030E-01
        1   -1    0    0  501    0  0.00000000000E+00  0.00000000000E+00  0.11310136497E+04  0.11310136498E+04  0.50400001928E-02 0.  1.
       -1   -1    0    0    0  501  0.00000000000E+00  0.00000000000E+00 -0.18157689261E+04  0.18157689261E+04  0.50400001928E-02 0. -1.
    10030    2    1    2    0    0  0.00000000000E+00  0.00000000000E+00 -0.68475527637E+03  0.29467825759E+04  0.28661189370E+04 0.  0.
        4    1    3    3  502    0  0.51897759475E+03  0.40075933853E+03 -0.16524895327E+04  0.17778270613E+04  0.12699999809E+01 0. -1.
       -4    1    3    3    0  502 -0.51897759475E+03 -0.40075933853E+03  0.96773425634E+03  0.11689555146E+04  0.12699999809E+01 0.  1.
</event>
<event>
 5   0  0.1937947E-05  0.2928165E+04  0.7818609E-02  0.8264546E-01
       -2   -1    0    0    0  501  0.00000000000E+00  0.00000000000E+00  0.60187712453E+03  0.60187712454E+03  0.25500000920E-02 0. -1.
        2   -1    0    0  501    0  0.00000000000E+00  0.00000000000E+00 -0.35614215807E+04  0.35614215807E+04  0.25500000920E-02 0.  1.
    10030    2    1    2    0    0  0.00000000000E+00  0.00000000000E+00 -0.29595444561E+04  0.41632987052E+04  0.29281654190E+04 0.  0.
        3    1    3    3  502    0 -0.91879459661E+03  0.86646417365E+03 -0.42667689851E+03  0.13330404573E+04  0.10100000352E+00 0. -1.
       -3    1    3    3    0  502  0.91879459661E+03 -0.86646417365E+03 -0.25328675576E+04  0.28302582479E+04  0.10100000352E+00 0.  1.
</event>
<event>
 5   0  0.1918901E-05  0.2895504E+04  0.7818609E-02  0.8274216E-01
       -2   -1    0    0    0  501  0.00000000000E+00  0.00000000000E+00  0.96153221754E+03  0.96153221755E+03  0.25500000920E-02 0.  1.
        2   -1    0    0  501    0  0.00000000000E+00  0.00000000000E+00 -0.21798395451E+04  0.21798395451E+04  0.25500000920E-02 0. -1.
    10030    2    1    2    0    0  0.00000000000E+00  0.00000000000E+00 -0.12183073275E+04  0.31413717626E+04  0.28955040678E+04 0.  0.
        1    1    3    3  502    0 -0.74192312195E+03 -0.59109938740E+03  0.57739544592E+03  0.11105106509E+04  0.50400001928E-02 0.  1.
       -1    1    3    3    0  502  0.74192312195E+03  0.59109938740E+03 -0.17957027735E+04  0.20308611118E+04  0.50400001928E-02 0. -1.
</event>
<event>
 5   0  0.7305460E-06  0.2851697E+04  0.7818609E-02  0.8287396E-01
       -1   -1    0    0    0  501  0.00000000000E+00  0.00000000000E+00  0.12165307507E+04  0.12165307507E+04  0.50400001928E-02 0.  1.
        1   -1    0    0  501    0  0.00000000000E+00  0.00000000000E+00 -0.16711815232E+04  0.16711815232E+04  0.50400001928E-02 0. -1.
    10030    2    1    2    0    0  0.00000000000E+00  0.00000000000E+00 -0.45465077256E+03  0.28877122739E+04  0.28516968373E+04 0.  0.
        4    1    3    3  502    0  0.13754441220E+04 -0.34635871504E+03 -0.79775826900E+02  0.14206254565E+04  0.12699999809E+01 0.  1.
       -4    1    3    3    0  502 -0.13754441220E+04  0.34635871504E+03 -0.37487494566E+03  0.14670868174E+04  0.12699999809E+01 0. -1.
</event>
<event>
 5   0  0.1918901E-05  0.2136460E+04  0.7818609E-02  0.8545351E-01
       -2   -1    0    0    0  501  0.00000000000E+00  0.00000000000E+00  0.56668562533E+03  0.56668562534E+03  0.25500000920E-02 0.  1.
        2   -1    0    0  501    0  0.00000000000E+00  0.00000000000E+00 -0.20136648114E+04  0.20136648114E+04  0.25500000920E-02 0. -1.
    10030    2    1    2    0    0  0.00000000000E+00  0.00000000000E+00 -0.14469791860E+04  0.25803504367E+04  0.21364595974E+04 0.  0.
        1    1    3    3  502    0 -0.28829310900E+03 -0.51751089944E+03  0.35012460943E+03  0.68812621653E+03  0.50400001928E-02 0.  1.
       -1    1    3    3    0  502  0.28829310900E+03  0.51751089944E+03 -0.17971037955E+04  0.18922242202E+04  0.50400001928E-02 0. -1.
</event>
<event>
 5   0  0.1918901E-05  0.1431148E+04  0.7818609E-02  0.8931576E-01
        2   -1    0    0  501    0  0.00000000000E+00  0.00000000000E+00  0.90102743089E+03  0.90102743090E+03  0.25500000920E-02 0.  1.
       -2   -1    0    0    0  501  0.00000000000E+00  0.00000000000E+00 -0.56829101474E+03  0.56829101475E+03  0.25500000920E-02 0. -1.
    10030    2    1    2    0    0  0.00000000000E+00  0.00000000000E+00  0.33273641615E+03  0.14693184456E+04  0.14311475019E+04 0.  0.
        1    1    3    3  502    0  0.43319223682E+03 -0.32993885043E+03  0.64300332548E+03  0.84259624713E+03  0.50400001928E-02 0. -1.
       -1    1    3    3    0  502 -0.43319223682E+03  0.32993885043E+03 -0.31026690933E+03  0.62672219852E+03  0.50400001928E-02 0.  1.
</event>
<event>
 5   0  0.8055928E-06  0.2578710E+04  0.7818609E-02  0.8375469E-01
       -1   -1    0    0    0  501  0.00000000000E+00  0.00000000000E+00  0.11758666443E+04  0.11758666443E+04  0.50400001928E-02 0. -1.
        1   -1    0    0  501    0  0.00000000000E+00  0.00000000000E+00 -0.14137969274E+04  0.14137969274E+04  0.50400001928E-02 0.  1.
    10030    2    1    2    0    0  0.00000000000E+00  0.00000000000E+00 -0.23793028307E+03  0.25896635717E+04  0.25787102580E+04 0.  0.
        2    1    3    3  502    0 -0.85340530988E+03 -0.46686938281E+03  0.73089715104E+03  0.12167490657E+04  0.25500000920E-02 0. -1.
       -2    1    3    3    0  502  0.85340530988E+03  0.46686938281E+03 -0.96882743411E+03  0.13729145059E+04  0.25500000920E-02 0.  1.
</event>
<event>
 5   0  0.1918901E-05  0.2930761E+04  0.7818609E-02  0.8263783E-01
        2   -1    0    0  501    0  0.00000000000E+00  0.00000000000E+00  0.20616064855E+04  0.20616064855E+04  0.25500000920E-02 0.  1.
       -2   -1    0    0    0  501  0.00000000000E+00  0.00000000000E+00 -0.10415860636E+04  0.10415860636E+04  0.25500000920E-02 0. -1.
    10030    2    1    2    0    0  0.00000000000E+00  0.00000000000E+00  0.10200204220E+04  0.31031925491E+04  0.29307613918E+04 0.  0.
        1    1    3    3  502    0 -0.29704256206E+03  0.12743908465E+04  0.12083873223E+04  0.17811530631E+04  0.50400001928E-02 0.  1.
       -1    1    3    3    0  502  0.29704256206E+03 -0.12743908465E+04 -0.18836690034E+03  0.13220394860E+04  0.50400001928E-02 0. -1.
</event>
<event>
 5   0  0.7305460E-06  0.2890911E+04  0.7818609E-02  0.8275587E-01
       -1   -1    0    0    0  501  0.00000000000E+00  0.00000000000E+00  0.12931553547E+04  0.12931553547E+04  0.50400001928E-02 0. -1.
        1   -1    0    0  501    0  0.00000000000E+00  0.00000000000E+00 -0.16156926918E+04  0.16156926918E+04  0.50400001928E-02 0.  1.
    10030    2    1    2    0    0  0.00000000000E+00  0.00000000000E+00 -0.32253733712E+03  0.29088480465E+04  0.28909110369E+04 0.  0.
        4    1    3    3  502    0  0.15176200409E+03 -0.72571012271E+03 -0.14097951434E+04  0.15928624697E+04  0.12699999809E+01 0.  1.
       -4    1    3    3    0  502 -0.15176200409E+03  0.72571012271E+03  0.10872578063E+04  0.13159855768E+04  0.12699999809E+01 0. -1.
</event>
<event>
 5   0  0.8055928E-06  0.2741003E+04  0.7818609E-02  0.8321822E-01
       -1   -1    0    0    0  501  0.00000000000E+00  0.00000000000E+00  0.12760233098E+04  0.12760233098E+04  0.50400001928E-02 0.  1.
        1   -1    0    0  501    0  0.00000000000E+00  0.00000000000E+00 -0.14719744965E+04  0.14719744966E+04  0.50400001928E-02 0. -1.
    10030    2    1    2    0    0  0.00000000000E+00  0.00000000000E+00 -0.19595118676E+03  0.27479978063E+04  0.27410025677E+04 0.  0.
        2    1    3    3  502    0 -0.87573032312E+03 -0.10417126011E+04  0.64317203388E+02  0.13624263080E+04  0.25500000920E-02 0.  1.
       -2    1    3    3    0  502  0.87573032312E+03  0.10417126011E+04 -0.26026839015E+03  0.13855714983E+04  0.25500000920E-02 0. -1.
</event>
<event>
 5   0  0.7305460E-06  0.2912865E+04  0.7818609E-02  0.8269060E-01
       -1   -1    0    0    0  501  0.00000000000E+00  0.00000000000E+00  0.13686505471E+04  0.13686505471E+04  0.50400001928E-02 0. -1.
        1   -1    0    0  501    0  0.00000000000E+00  0.00000000000E+00 -0.15498449617E+04  0.15498449617E+04  0.50400001928E-02 0.  1.
    10030    2    1    2    0    0  0.00000000000E+00  0.00000000000E+00 -0.18119441459E+03  0.29184955088E+04  0.29128653623E+04 0.  0.
        4    1    3    3  502    0 -0.94317346806E+03  0.49299583843E+03  0.90559488556E+03  0.13973992977E+04  0.12699999809E+01 0. -1.
       -4    1    3    3    0  502  0.94317346806E+03 -0.49299583843E+03 -0.10867893001E+04  0.15210962111E+04  0.12699999809E+01 0.  1.
</event>
<event>
 5   0  0.1918901E-05  0.2938594E+04  0.7818609E-02  0.8261486E-01
       -2   -1    0    0    0  501  0.00000000000E+00  0.00000000000E+00  0.12478846939E+04  0.12478846939E+04  0.25500000920E-02 0.  1.
        2   -1    0    0  501    0  0.00000000000E+00  0.00000000000E+00 -0.17299940416E+04  0.17299940416E+04  0.25500000920E-02 0. -1.
    10030    2    1    2    0    0  0.00000000000E+00  0.00000000000E+00 -0.48210934776E+03  0.29778787355E+04  0.29385935990E+04 0.  0.
        1    1    3    3  502    0  0.51788208647E+03  0.13433637711E+04 -0.53824136087E+03  0.15370529723E+04  0.50400001928E-02 0. -1.
       -1    1    3    3    0  502 -0.51788208647E+03 -0.13433637711E+04  0.56132013109E+02  0.14408257632E+04  0.50400001928E-02 0.  1.
</event>
<event>
 5   0  0.8122088E-06  0.3005268E+04  0.7818609E-02  0.8242228E-01
       -1   -1    0    0    0  501  0.00000000000E+00  0.00000000000E+00  0.16961522291E+04  0.16961522291E+04  0.50400001928E-02 0. -1.
        1   -1    0    0  501    0  0.00000000000E+00  0.00000000000E+00 -0.13311943597E+04  0.13311943597E+04  0.50400001928E-02 0.  1.
    10030    2    1    2    0    0  0.00000000000E+00  0.00000000000E+00  0.36495786945E+03  0.30273465888E+04  0.30052675625E+04 0.  0.
        1    1    3    3  502    0 -0.10041168093E+04 -0.20687614403E+02 -0.94342194220E+03  0.13779417641E+04  0.50400001928E-02 0.  1.
       -1    1    3    3    0  502  0.10041168093E+04  0.20687614403E+02  0.13083798117E+04  0.16494048247E+04  0.50400001928E-02 0. -1.
</event>
<event>
 5   0  0.7305460E-06  0.2888413E+04  0.7818609E-02  0.8276333E-01
       -1   -1    0    0    0  501  0.00000000000E+00  0.00000000000E+00  0.14451428270E+04  0.14451428270E+04  0.50400001928E-02 0. -1.
        1   -1    0    0  501    0  0.00000000000E+00  0.00000000000E+00 -0.14432702932E+04  0.14432702932E+04  0.50400001928E-02 0.  1.
    10030    2    1    2    0    0  0.00000000000E+00  0.00000000000E+00  0.18725337391E+01  0.28884131202E+04  0.28884125132E+04 0.  0.
        4    1    3    3  502    0  0.88506341060E+03  0.58213489177E+03 -0.98065032163E+03  0.14435702058E+04  0.12699999809E+01 0.  1.
       -4    1    3    3    0  502 -0.88506341060E+03 -0.58213489177E+03  0.98252285537E+03  0.14448429144E+04  0.12699999809E+01 0. -1.
</event>
<event>
 5   0  0.1976233E-05  0.2653512E+04  0.7818609E-02  0.8350248E-01
       -2   -1    0    0    0  501  0.00000000000E+00  0.00000000000E+00  0.14816920716E+04  0.14816920716E+04  0.25500000920E-02 0. -1.
        2   -1    0    0  501    0  0.00000000000E+00  0.00000000000E+00 -0.11880213614E+04  0.11880213614E+04  0.25500000920E-02 0.  1.
    10030    2    1    2    0    0  0.00000000000E+00  0.00000000000E+00  0.29367071026E+03  0.26697134330E+04  0.26535122627E+04 0.  0.
        2    1    3    3  502    0  0.29772556692E+03  0.44703639499E+03 -0.10737493247E+04  0.12005913809E+04  0.25500000920E-02 0.  1.
       -2    1    3    3    0  502 -0.29772556692E+03 -0.44703639499E+03  0.13674200350E+04  0.14691220520E+04  0.25500000920E-02 0. -1.
</event>
<event>
 5   0  0.1976233E-05  0.2161155E+04  0.7818609E-02  0.8534772E-01
       -2   -1    0    0    0  501  0.00000000000E+00  0.00000000000E+00  0.89281305967E+03  0.89281305968E+03  0.25500000920E-02 0.  1.
        2   -1    0    0  501    0  0.00000000000E+00  0.00000000000E+00 -0.13078301257E+04  0.13078301257E+04  0.25500000920E-02 0. -1.
    10030    2    1    2    0    0  0.00000000000E+00  0.00000000000E+00 -0.41501706601E+03  0.22006431854E+04  0.21611550764E+04 0.  0.
        2    1    3    3  502    0  0.13700527770E+03  0.61446325059E+03 -0.11017994584E+04  0.12689750111E+04  0.25500000920E-02 0. -1.
       -2    1    3    3    0  502 -0.13700527770E+03 -0.61446325059E+03  0.68678239234E+03  0.93166817423E+03  0.25500000920E-02 0.  1.
</event>
<event>
 5   0  0.1960961E-05  0.2908179E+04  0.7818609E-02  0.8270448E-01
        2   -1    0    0  501    0  0.00000000000E+00  0.00000000000E+00  0.23322978303E+04  0.23322978303E+04  0.25500000920E-02 0.  1.
       -2   -1    0    0    0  501  0.00000000000E+00  0.00000000000E+00 -0.90656344880E+03  0.90656344880E+03  0.25500000920E-02 0. -1.
    10030    2    1    2    0    0  0.00000000000E+00  0.00000000000E+00  0.14257343815E+04  0.32388612791E+04  0.29081787873E+04 0.  0.
        5    1    3    3  502    0 -0.10418191165E+04 -0.38425660727E+03 -0.33266280419E+03  0.11591923236E+04  0.46999998093E+01 0. -1.
       -5    1    3    3    0  502  0.10418191165E+04  0.38425660727E+03  0.17583971857E+04  0.20796689555E+04  0.46999998093E+01 0.  1.
</event>
<event>
 5   0  0.1918901E-05  0.2879760E+04  0.7818609E-02  0.8278925E-01
        2   -1    0    0  501    0  0.00000000000E+00  0.00000000000E+00  0.17542057344E+04  0.17542057344E+04  0.25500000920E-02 0.  1.
       -2   -1    0    0    0  501  0.00000000000E+00  0.00000000000E+00 -0.11818762876E+04  0.11818762876E+04  0.25500000920E-02 0. -1.
    10030    2    1    2    0    0  0.00000000000E+00  0.00000000000E+00  0.57232944686E+03  0.29360820220E+04  0.28797598240E+04 0.  0.
        1    1    3    3  502    0 -0.11665536223E+04 -0.70600613624E+03  0.75777187783E+03  0.15599712295E+04  0.50400001928E-02 0.  1.
       -1    1    3    3    0  502  0.11665536223E+04  0.70600613624E+03 -0.18544243097E+03  0.13761107925E+04  0.50400001928E-02 0. -1.
</event>
<event>
 5   0  0.8234888E-06  0.1613828E+04  0.7818609E-02  0.8812098E-01
        1   -1    0    0  501    0  0.00000000000E+00  0.00000000000E+00  0.14093815970E+04  0.14093815970E+04  0.50400001928E-02 0.  1.
       -1   -1    0    0    0  501  0.00000000000E+00  0.00000000000E+00 -0.46198284158E+03  0.46198284160E+03  0.50400001928E-02 0. -1.
    10030    2    1    2    0    0  0.00000000000E+00  0.00000000000E+00  0.94739875541E+03  0.18713644386E+04  0.16138278905E+04 0.  0.
        3    1    3    3  502    0 -0.12270719210E+03 -0.56676019793E+03  0.11243431824E+04  0.12650777759E+04  0.10100000352E+00 0. -1.
       -3    1    3    3    0  502  0.12270719210E+03  0.56676019793E+03 -0.17694442701E+03  0.60628666273E+03  0.10100000352E+00 0.  1.
</event>
<event>
 5   0  0.1829810E-05  0.1521738E+04  0.7818609E-02  0.8870125E-01
        2   -1    0    0  501    0  0.00000000000E+00  0.00000000000E+00  0.79030945213E+03  0.79030945213E+03  0.25500000920E-02 0. -1.
       -2   -1    0    0    0  501  0.00000000000E+00  0.00000000000E+00 -0.73252511296E+03  0.73252511297E+03  0.25500000920E-02 0.  1.
    10030    2    1    2    0    0  0.00000000000E+00  0.00000000000E+00  0.57784339163E+02  0.15228345651E+04  0.15217378496E+04 0.  0.
        4    1    3    3  502    0  0.10731795265E+02 -0.30259595764E+02  0.78963020729E+03  0.79028367801E+03  0.12699999809E+01 0. -1.
       -4    1    3    3    0  502 -0.10731795265E+02  0.30259595764E+02 -0.73184586813E+03  0.73255088708E+03  0.12699999809E+01 0.  1.
</event>
<event>
 5   0  0.1960961E-05  0.2859001E+04  0.7818609E-02  0.8285181E-01
       -2   -1    0    0    0  501  0.00000000000E+00  0.00000000000E+00  0.12460533975E+04  0.12460533975E+04  0.25500000920E-02 0. -1.
        2   -1    0    0  501    0  0.00000000000E+00  0.00000000000E+00 -0.16399552069E+04  0.16399552069E+04  0.25500000920E-02 0.  1.
    10030    2    1    2    0    0  0.00000000000E+00  0.00000000000E+00 -0.39390180940E+03  0.28860086043E+04  0.28590010544E+04 0.  0.
        5    1    3    3  502    0  0.80026352067E+03  0.31928713814E+03  0.95447480415E+03  0.12858499994E+04  0.46999998093E+01 0. -1.
       -5    1    3    3    0  502 -0.80026352067E+03 -0.31928713814E+03 -0.13483766136E+04  0.16001586050E+04  0.46999998093E+01 0.  1.
</event>
<event>
 5   0  0.1918901E-05  0.2940698E+04  0.7818609E-02  0.8260871E-01
       -2   -1    0    0    0  501  0.00000000000E+00  0.00000000000E+00  0.96511548581E+03  0.96511548582E+03  0.25500000920E-02 0. -1.
        2   -1    0    0  501    0  0.00000000000E+00  0.00000000000E+00 -0.22400698870E+04  0.22400698870E+04  0.25500000920E-02 0.  1.
    10030    2    1    2    0    0  0.00000000000E+00  0.00000000000E+00 -0.12749544012E+04  0.32051853728E+04  0.29406979697E+04 0.  0.
        1    1    3    3  502    0 -0.14293443798E+04  0.32971275430E+03 -0.52745107800E+03  0.15588266408E+04  0.50400001928E-02 0. -1.
       -1    1    3    3    0  502  0.14293443798E+04 -0.32971275430E+03 -0.74750332322E+03  0.16463587320E+04  0.50400001928E-02 0.  1.
</event>
<event>
 5   0  0.8122088E-06  0.2892693E+04  0.7818609E-02  0.8275055E-01
       -1   -1    0    0    0  501  0.00000000000E+00  0.00000000000E+00  0.12064092908E+04  0.12064092908E+04  0.50400001928E-02 0.  1.
        1   -1    0    0  501    0  0.00000000000E+00  0.00000000000E+00 -0.17340041608E+04  0.17340041608E+04  0.50400001928E-02 0. -1.
    10030    2    1    2    0    0  0.00000000000E+00  0.00000000000E+00 -0.52759486998E+03  0.29404134516E+04  0.28926933677E+04 0.  0.
        1    1    3    3  502    0 -0.84527217298E+03  0.96034725075E+03 -0.94958768959E+03  0.15932572513E+04  0.50400001928E-02 0. -1.
       -1    1    3    3    0  502  0.84527217298E+03 -0.96034725075E+03  0.42199281961E+03  0.13471562004E+04  0.50400001928E-02 0.  1.
</event>
<event>
 5   0  0.6578125E-06  0.2929431E+04  0.7818609E-02  0.8264174E-01
       -4   -1    0    0    0  501  0.00000000000E+00  0.00000000000E+00  0.12420357923E+04  0.12420364416E+04  0.12699999809E+01 0. -1.
        4   -1    0    0  501    0  0.00000000000E+00  0.00000000000E+00 -0.17273174646E+04  0.17273179315E+04  0.12699999809E+01 0.  1.
    10030    2    1    2    0    0  0.00000000000E+00  0.00000000000E+00 -0.48528167226E+03  0.29693543731E+04  0.29294311891E+04 0.  0.
        4    1    3    3  502    0  0.93301535670E+03  0.79770597104E+03  0.56733487815E+03  0.13523028318E+04  0.12699999809E+01 0. -1.
       -4    1    3    3    0  502 -0.93301535670E+03 -0.79770597104E+03 -0.10526165504E+04  0.16170515413E+04  0.12699999809E+01 0.  1.
</event>
<event>
 5   0  0.8055928E-06  0.2305357E+04  0.7818609E-02  0.8475812E-01
        1   -1    0    0  501    0  0.00000000000E+00  0.00000000000E+00  0.16370697651E+04  0.16370697651E+04  0.50400001928E-02 0.  1.
       -1   -1    0    0    0  501  0.00000000000E+00  0.00000000000E+00 -0.81161341029E+03  0.81161341030E+03  0.50400001928E-02 0. -1.
    10030    2    1    2    0    0  0.00000000000E+00  0.00000000000E+00  0.82545635481E+03  0.24486831754E+04  0.23053570439E+04 0.  0.
        2    1    3    3  502    0  0.90505963623E+03  0.17826620927E+03 -0.32144323615E+03  0.97685082821E+03  0.25500000920E-02 0. -1.
       -2    1    3    3    0  502 -0.90505963623E+03 -0.17826620927E+03  0.11468995910E+04  0.14718323472E+04  0.25500000920E-02 0.  1.
</event>
<event>
 5   0  0.1976233E-05  0.2789685E+04  0.7818609E-02  0.8306478E-01
        2   -1    0    0  501    0  0.00000000000E+00  0.00000000000E+00  0.17601294609E+04  0.17601294610E+04  0.25500000920E-02 0. -1.
       -2   -1    0    0    0  501  0.00000000000E+00  0.00000000000E+00 -0.11053654457E+04  0.11053654457E+04  0.25500000920E-02 0.  1.
    10030    2    1    2    0    0  0.00000000000E+00  0.00000000000E+00  0.65476401521E+03  0.28654949067E+04  0.27896854921E+04 0.  0.
        2    1    3    3  502    0  0.62614186102E+03  0.49022079270E+02  0.16066702977E+04  0.17250641263E+04  0.25500000920E-02 0. -1.
       -2    1    3    3    0  502 -0.62614186102E+03 -0.49022079270E+02 -0.95190628244E+03  0.11404307804E+04  0.25500000920E-02 0.  1.
</event>
<event>
 5   0  0.1829810E-05  0.2919508E+04  0.7818609E-02  0.8267097E-01
        2   -1    0    0  501    0  0.00000000000E+00  0.00000000000E+00  0.15873429802E+04  0.15873429802E+04  0.25500000920E-02 0.  1.
       -2   -1    0    0    0  501  0.00000000000E+00  0.00000000000E+00 -0.13424204692E+04  0.13424204692E+04  0.25500000920E-02 0. -1.
    10030    2    1    2    0    0  0.00000000000E+00  0.00000000000E+00  0.24492251105E+03  0.29297634494E+04  0.29195079779E+04 0.  0.
        4    1    3    3  502    0  0.36311427859E+03  0.13954480657E+04  0.35075282065E+03  0.14839664543E+04  0.12699999809E+01 0.  1.
       -4    1    3    3    0  502 -0.36311427859E+03 -0.13954480657E+04 -0.10583030960E+03  0.14457969950E+04  0.12699999809E+01 0. -1.
</event>
<event>
 5   0  0.1960961E-05  0.1513274E+04  0.7818609E-02  0.8875674E-01
        2   -1    0    0  501    0  0.00000000000E+00  0.00000000000E+00  0.86550549279E+03  0.86550549280E+03  0.25500000920E-02 0.  1.
       -2   -1    0    0    0  501  0.00000000000E+00  0.00000000000E+00 -0.66146260561E+03  0.66146260561E+03  0.25500000920E-02 0. -1.
    10030    2    1    2    0    0  0.00000000000E+00  0.00000000000E+00  0.20404288718E+03  0.15269680984E+04  0.15132739586E+04 0.  0.
        5    1    3    3  502    0 -0.53667338251E+03  0.53259374686E+03  0.73427581879E+02  0.75966316119E+03  0.46999998093E+01 0.  1.
       -5    1    3    3    0  502  0.53667338251E+03 -0.53259374686E+03  0.13061530530E+03  0.76730493721E+03  0.46999998093E+01 0. -1.
</event>
<event>
 5   0  0.7305460E-06  0.2884914E+04  0.7818609E-02  0.8277380E-01
       -1   -1    0    0    0  501  0.00000000000E+00  0.00000000000E+00  0.11330105021E+04  0.11330105021E+04  0.50400001928E-02 0. -1.
        1   -1    0    0  501    0  0.00000000000E+00  0.00000000000E+00 -0.18364194553E+04  0.18364194553E+04  0.50400001928E-02 0.  1.
    10030    2    1    2    0    0  0.00000000000E+00  0.00000000000E+00 -0.70340895325E+03  0.29694299574E+04  0.28849142303E+04 0.  0.
        4    1    3    3  502    0 -0.13964832748E+04 -0.27988812938E+03 -0.11658751897E+03  0.14290196515E+04  0.12699999809E+01 0.  1.
       -4    1    3    3    0  502  0.13964832748E+04  0.27988812938E+03 -0.58682143428E+03  0.15404103059E+04  0.12699999809E+01 0. -1.
</event>
<event>
 5   0  0.7305460E-06  0.2944406E+04  0.7818609E-02  0.8259787E-01
        1   -1    0    0  501    0  0.00000000000E+00  0.00000000000E+00  0.15145002028E+04  0.15145002028E+04  0.50400001928E-02 0. -1.
       -1   -1    0    0    0  501  0.00000000000E+00  0.00000000000E+00 -0.14310871992E+04  0.14310871992E+04  0.50400001928E-02 0.  1.
    10030    2    1    2    0    0  0.00000000000E+00  0.00000000000E+00  0.83413003616E+02  0.29455874020E+04  0.29444061224E+04 0.  0.
        4    1    3    3  502    0  0.74389487579E+03  0.61739857083E+03  0.11524760812E+04  0.15042484210E+04  0.12699999809E+01 0. -1.
       -4    1    3    3    0  502 -0.74389487579E+03 -0.61739857083E+03 -0.10690630775E+04  0.14413389810E+04  0.12699999809E+01 0.  1.
</event>
<event>
 5   0  0.1976233E-05  0.2777504E+04  0.7818609E-02  0.8310287E-01
       -2   -1    0    0    0  501  0.00000000000E+00  0.00000000000E+00  0.13944641207E+04  0.13944641207E+04  0.25500000920E-02 0.  1.
        2   -1    0    0  501    0  0.00000000000E+00  0.00000000000E+00 -0.13830635589E+04  0.13830635589E+04  0.25500000920E-02 0. -1.
    10030    2    1    2    0    0  0.00000000000E+00  0.00000000000E+00  0.11400561810E+02  0.27775276796E+04  0.27775042823E+04 0.  0.
        2    1    3    3  502    0  0.68560766676E+03 -0.36084851926E+03 -0.11468557320E+04  0.13840330909E+04  0.25500000920E-02 0. -1.
       -2    1    3    3    0  502 -0.68560766676E+03  0.36084851926E+03  0.11582562938E+04  0.13934945887E+04  0.25500000920E-02 0.  1.
</event>
<event>
 5   0  0.1918901E-05  0.2926999E+04  0.7818609E-02  0.8264889E-01
       -2   -1    0    0    0  501  0.00000000000E+00  0.00000000000E+00  0.91433737904E+03  0.91433737904E+03  0.25500000920E-02 0. -1.
        2   -1    0    0  501    0  0.00000000000E+00  0.00000000000E+00 -0.23424956346E+04  0.23424956346E+04  0.25500000920E-02 0.  1.
    10030    2    1    2    0    0  0.00000000000E+00  0.00000000000E+00 -0.14281582555E+04  0.32568330136E+04  0.29269993638E+04 0.  0.
        1    1    3    3  502    0  0.11821843810E+04  0.82962213266E+03 -0.97738537226E+03  0.17438792847E+04  0.50400001928E-02 0.  1.
       -1    1    3    3    0  502 -0.11821843810E+04 -0.82962213266E+03 -0.45077288328E+03  0.15129537289E+04  0.50400001928E-02 0. -1.
</event>
<event>
 5   0  0.1829810E-05  0.2842191E+04  0.7818609E-02  0.8290288E-01
       -2   -1    0    0    0  501  0.00000000000E+00  0.00000000000E+00  0.15235958051E+04  0.15235958051E+04  0.25500000920E-02 0. -1.
        2   -1    0    0  501    0  0.00000000000E+00  0.00000000000E+00 -0.13254911444E+04  0.13254911444E+04  0.25500000920E-02 0.  1.
    10030    2    1    2    0    0  0.00000000000E+00  0.00000000000E+00  0.19810466062E+03  0.28490869495E+04  0.28421912302E+04 0.  0.
        4    1    3    3  502    0 -0.61130879670E+03  0.12422739795E+04 -0.22198715921E+03  0.14022207376E+04  0.12699999809E+01 0. -1.
       -4    1    3    3    0  502  0.61130879670E+03 -0.12422739795E+04  0.42009181983E+03  0.14468662119E+04  0.12699999809E+01 0.  1.
</event>
<event>
 5   0  0.8055928E-06  0.2206206E+04  0.7818609E-02  0.8515850E-01
        1   -1    0    0  501    0  0.00000000000E+00  0.00000000000E+00  0.14678572345E+04  0.14678572345E+04  0.50400001928E-02 0.  1.
       -1   -1    0    0    0  501  0.00000000000E+00  0.00000000000E+00 -0.82898809318E+03  0.82898809319E+03  0.50400001928E-02 0. -1.
    10030    2    1    2    0    0  0.00000000000E+00  0.00000000000E+00  0.63886914136E+03  0.22968453277E+04  0.22062059468E+04 0.  0.
        2    1    3    3  502    0  0.43811959757E+03  0.21009718275E+03  0.13504474645E+04  0.14351996245E+04  0.25500000920E-02 0.  1.
       -2    1    3    3    0  502 -0.43811959757E+03 -0.21009718275E+03 -0.71157832309E+03  0.86164570322E+03  0.25500000920E-02 0. -1.
</event>
<event>
 5   0  0.1960961E-05  0.1724511E+04  0.7818609E-02  0.8747507E-01
       -2   -1    0    0    0  501  0.00000000000E+00  0.00000000000E+00  0.78317579199E+03  0.78317579199E+03  0.25500000920E-02 0. -1.
        2   -1    0    0  501    0  0.00000000000E+00  0.00000000000E+00 -0.94931986358E+03  0.94931986359E+03  0.25500000920E-02 0.  1.
    10030    2    1    2    0    0  0.00000000000E+00  0.00000000000E+00 -0.16614407160E+03  0.17324956556E+04  0.17245107550E+04 0.  0.
        5    1    3    3  502    0  0.82819840389E+03 -0.15959411071E+03  0.96864419160E+02  0.84899215667E+03  0.46999998093E+01 0.  1.
       -5    1    3    3    0  502 -0.82819840389E+03  0.15959411071E+03 -0.26300849076E+03  0.88350349891E+03  0.46999998093E+01 0. -1.
</event>
<event>
 5   0  0.7305460E-06  0.2911758E+04  0.7818609E-02  0.8269388E-01
        1   -1    0    0  501    0  0.00000000000E+00  0.00000000000E+00  0.11770375590E+04  0.11770375590E+04  0.50400001928E-02 0.  1.
       -1   -1    0    0    0  501  0.00000000000E+00  0.00000000000E+00 -0.18007783923E+04  0.18007783923E+04  0.50400001928E-02 0. -1.
    10030    2    1    2    0    0  0.00000000000E+00  0.00000000000E+00 -0.62374083332E+03  0.29778159513E+04  0.29117580965E+04 0.  0.
        4    1    3    3  502    0  0.11691922298E+04  0.85112046265E+03 -0.14023667713E+03  0.14529571400E+04  0.12699999809E+01 0. -1.
       -4    1    3    3    0  502 -0.11691922298E+04 -0.85112046265E+03 -0.48350415620E+03  0.15248588112E+04  0.12699999809E+01 0.  1.
</event>
<event>
 5   0  0.8122088E-06  0.2954823E+04  0.7818609E-02  0.8256750E-01
        1   -1    0    0  501    0  0.00000000000E+00  0.00000000000E+00  0.21786072078E+04  0.21786072078E+04  0.50400001928E-02 0.  1.
       -1   -1    0    0    0  501  0.00000000000E+00  0.00000000000E+00 -0.10018991287E+04  0.10018991287E+04  0.50400001928E-02 0. -1.
    10030    2    1    2    0    0  0.00000000000E+00  0.00000000000E+00  0.11767080791E+04  0.31805063365E+04  0.29548229478E+04 0.  0.
        1    1    3    3  502    0 -0.10049523195E+04 -0.79141210696E+03  0.13840604963E+04  0.18846447264E+04  0.50400001928E-02 0.  1.
       -1    1    3    3    0  502  0.10049523195E+04  0.79141210696E+03 -0.20735241725E+03  0.12958616100E+04  0.50400001928E-02 0. -1.
</event>
<event>
 5   0  0.8122088E-06  0.2730985E+04  0.7818609E-02  0.8325021E-01
        1   -1    0    0  501    0  0.00000000000E+00  0.00000000000E+00  0.19933350812E+04  0.19933350812E+04  0.50400001928E-02 0.  1.
       -1   -1    0    0    0  501  0.00000000000E+00  0.00000000000E+00 -0.93540187235E+03  0.93540187237E+03  0.50400001928E-02 0. -1.
    10030    2    1    2    0    0  0.00000000000E+00  0.00000000000E+00  0.10579332089E+04  0.29287369536E+04  0.27309847068E+04 0.  0.
        1    1    3    3  502    0 -0.17155419090E+03  0.88150891447E+03 -0.57414757374E+03  0.10658959814E+04  0.50400001928E-02 0. -1.
       -1    1    3    3    0  502  0.17155419090E+03 -0.88150891447E+03  0.16320807826E+04  0.18628409722E+04  0.50400001928E-02 0.  1.
</event>
<event>
 5   0  0.8055928E-06  0.2882942E+04  0.7818609E-02  0.8277971E-01
       -1   -1    0    0    0  501  0.00000000000E+00  0.00000000000E+00  0.83611366207E+03  0.83611366209E+03  0.50400001928E-02 0.  1.
        1   -1    0    0  501    0  0.00000000000E+00  0.00000000000E+00 -0.24851155721E+04  0.24851155721E+04  0.50400001928E-02 0. -1.
    10030    2    1    2    0    0  0.00000000000E+00  0.00000000000E+00 -0.16490019100E+04  0.33212292342E+04  0.28829423037E+04 0.  0.
        2    1    3    3  502    0 -0.90744165592E+03  0.44419971803E+03 -0.20089486045E+04  0.22486970103E+04  0.25500000920E-02 0. -1.
       -2    1    3    3    0  502  0.90744165592E+03 -0.44419971803E+03  0.35994669451E+03  0.10725322239E+04  0.25500000920E-02 0.  1.
</event>
<event>
 5   0  0.8234888E-06  0.2884145E+04  0.7818609E-02  0.8277610E-01
        1   -1    0    0  501    0  0.00000000000E+00  0.00000000000E+00  0.20194566248E+04  0.20194566248E+04  0.50400001928E-02 0.  1.
       -1   -1    0    0    0  501  0.00000000000E+00  0.00000000000E+00 -0.10297688406E+04  0.10297688406E+04  0.50400001928E-02 0. -1.
    10030    2    1    2    0    0  0.00000000000E+00  0.00000000000E+00  0.98968778421E+03  0.30492254655E+04  0.28841452857E+04 0.  0.
        3    1    3    3  502    0  0.22713870199E+03 -0.28602202162E+03  0.19697457271E+04  0.20033219478E+04  0.10100000352E+00 0.  1.
       -3    1    3    3    0  502 -0.22713870199E+03  0.28602202162E+03 -0.98005794287E+03  0.10459035177E+04  0.10100000352E+00 0. -1.
</event>
<event>
 5   0  0.1918901E-05  0.2724586E+04  0.7818609E-02  0.8327072E-01
       -2   -1    0    0    0  501  0.00000000000E+00  0.00000000000E+00  0.76154424563E+03  0.76154424563E+03  0.25500000920E-02 0.  1.
        2   -1    0    0  501    0  0.00000000000E+00  0.00000000000E+00 -0.24369455471E+04  0.24369455471E+04  0.25500000920E-02 0. -1.
    10030    2    1    2    0    0  0.00000000000E+00  0.00000000000E+00 -0.16754013015E+04  0.31984897928E+04  0.27245857361E+04 0.  0.
        1    1    3    3  502    0 -0.61164998134E+02 -0.90196679046E+03 -0.20340542971E+04  0.22259070357E+04  0.50400001928E-02 0. -1.
       -1    1    3    3    0  502  0.61164998134E+02  0.90196679046E+03  0.35865299557E+03  0.97258275707E+03  0.50400001928E-02 0.  1.
</event>
<event>
 5   0  0.8234888E-06  0.2831443E+04  0.7818609E-02  0.8293573E-01
        1   -1    0    0  501    0  0.00000000000E+00  0.00000000000E+00  0.22625890906E+04  0.22625890906E+04  0.50400001928E-02 0. -1.
       -1   -1    0    0    0  501  0.00000000000E+00  0.00000000000E+00 -0.88582893905E+03  0.88582893906E+03  0.50400001928E-02 0.  1.
    10030    2    1    2    0    0  0.00000000000E+00  0.00000000000E+00  0.13767601516E+04  0.31484180297E+04  0.28314426667E+04 0.  0.
        3    1    3    3  502    0  0.12617780454E+04 -0.61349571965E+03  0.89878835392E+03  0.16662176777E+04  0.10100000352E+00 0.  1.
       -3    1    3    3    0  502 -0.12617780454E+04  0.61349571965E+03  0.47797179766E+03  0.14822003520E+04  0.10100000352E+00 0. -1.
</event>
<event>
 5   0  0.1829810E-05  0.3033776E+04  0.7818609E-02  0.8234151E-01
       -2   -1    0    0    0  501  0.00000000000E+00  0.00000000000E+00  0.91761121020E+03  0.91761121021E+03  0.25500000920E-02 0.  1.
        2   -1    0    0  501    0  0.00000000000E+00  0.00000000000E+00 -0.25075431379E+04  0.25075431379E+04  0.25500000920E-02 0. -1.
    10030    2    1    2    0    0  0.00000000000E+00  0.00000000000E+00 -0.15899319277E+04  0.34251543481E+04  0.30337763223E+04 0.  0.
        4    1    3    3  502    0 -0.10529322911E+03 -0.78813477917E+03  0.66346666252E+03  0.10355832750E+04  0.12699999809E+01 0.  1.
       -4    1    3    3    0  502  0.10529322911E+03  0.78813477917E+03 -0.22533985902E+04  0.23895710731E+04  0.12699999809E+01 0. -1.
</event>
<event>
 5   0  0.1937947E-05  0.2337855E+04  0.7818609E-02  0.8463143E-01
        2   -1    0    0  501    0  0.00000000000E+00  0.00000000000E+00  0.15220775381E+04  0.15220775381E+04  0.25500000920E-02 0. -1.
       -2   -1    0    0    0  501  0.00000000000E+00  0.00000000000E+00 -0.89771449181E+03  0.89771449181E+03  0.25500000920E-02 0.  1.
    10030    2    1    2    0    0  0.00000000000E+00  0.00000000000E+00  0.62436304631E+03  0.24197920299E+04  0.23378546265E+04 0.  0.
        3    1    3    3  502    0  0.43846987218E+02 -0.11022616285E+04  0.71236892379E+03  0.13131537419E+04  0.10100000352E+00 0. -1.
       -3    1    3    3    0  502 -0.43846987218E+02  0.11022616285E+04 -0.88005877479E+02  0.11066382881E+04  0.10100000352E+00 0.  1.
</event>
<event>
 5   0  0.1976233E-05  0.2904510E+04  0.7818609E-02  0.8271537E-01
        2   -1    0    0  501    0  0.00000000000E+00  0.00000000000E+00  0.20339744882E+04  0.20339744882E+04  0.25500000920E-02 0.  1.
       -2   -1    0    0    0  501  0.00000000000E+00  0.00000000000E+00 -0.10369078250E+04  0.10369078250E+04  0.25500000920E-02 0. -1.
    10030    2    1    2    0    0  0.00000000000E+00  0.00000000000E+00  0.99706666323E+03  0.30708823132E+04  0.29045096403E+04 0.  0.
        2    1    3    3  502    0  0.13339917757E+04 -0.10192399237E+02  0.11053481569E+04  0.17324642827E+04  0.25500000920E-02 0.  1.
       -2    1    3    3    0  502 -0.13339917757E+04  0.10192399237E+02 -0.10828149370E+03  0.13384180306E+04  0.25500000920E-02 0. -1.
</event>
<event>
 5   0  0.7971153E-06  0.2966374E+04  0.7818609E-02  0.8253399E-01
       -1   -1    0    0    0  501  0.00000000000E+00  0.00000000000E+00  0.13658313537E+04  0.13658313537E+04  0.50400001928E-02 0.  1.
        1   -1    0    0  501    0  0.00000000000E+00  0.00000000000E+00 -0.16106256083E+04  0.16106256083E+04  0.50400001928E-02 0. -1.
    10030    2    1    2    0    0  0.00000000000E+00  0.00000000000E+00 -0.24479425456E+03  0.29764569621E+04  0.29663735132E+04 0.  0.
        5    1    3    3  502    0 -0.83440126294E+03 -0.36259262627E+03 -0.12977550363E+04  0.15848940357E+04  0.46999998093E+01 0.  1.
       -5    1    3    3    0  502  0.83440126294E+03  0.36259262627E+03  0.10529607817E+04  0.13915629264E+04  0.46999998093E+01 0. -1.
</event>
<event>
 5   0  0.8122088E-06  0.2554582E+04  0.7818609E-02  0.8383794E-01
       -1   -1    0    0    0  501  0.00000000000E+00  0.00000000000E+00  0.15513179196E+04  0.15513179196E+04  0.50400001928E-02 0. -1.
        1   -1    0    0  501    0  0.00000000000E+00  0.00000000000E+00 -0.10516683158E+04  0.10516683158E+04  0.50400001928E-02 0.  1.
    10030    2    1    2    0    0  0.00000000000E+00  0.00000000000E+00  0.49964960380E+03  0.26029862355E+04  0.25545816909E+04 0.  0.
        1    1    3    3  502    0  0.71443968477E+03  0.10515015264E+04  0.37624165433E+03  0.13257591432E+04  0.50400001928E-02 0. -1.
       -1    1    3    3    0  502 -0.71443968477E+03 -0.10515015264E+04  0.12340794947E+03  0.12772270923E+04  0.50400001928E-02 0.  1.
</event>
<event>
 5   0  0.1829810E-05  0.2907903E+04  0.7818609E-02  0.8270530E-01
       -2   -1    0    0    0  501  0.00000000000E+00  0.00000000000E+00  0.21747110992E+04  0.21747110992E+04  0.25500000920E-02 0.  1.
        2   -1    0    0  501    0  0.00000000000E+00  0.00000000000E+00 -0.97207188738E+03  0.97207188738E+03  0.25500000920E-02 0. -1.
    10030    2    1    2    0    0  0.00000000000E+00  0.00000000000E+00  0.12026392119E+04  0.31467829866E+04  0.29079033841E+04 0.  0.
        4    1    3    3  502    0 -0.60306610903E+03 -0.84784284299E+03  0.17003518260E+04  0.19934202174E+04  0.12699999809E+01 0.  1.
       -4    1    3    3    0  502  0.60306610903E+03  0.84784284299E+03 -0.49771261409E+03  0.11533627692E+04  0.12699999809E+01 0. -1.
</event>
<event>
 5   0  0.1829810E-05  0.1514266E+04  0.7818609E-02  0.8875021E-01
       -2   -1    0    0    0  501  0.00000000000E+00  0.00000000000E+00  0.96293762455E+03  0.96293762456E+03  0.25500000920E-02 0.  1.
        2   -1    0    0  501    0  0.00000000000E+00  0.00000000000E+00 -0.59531445235E+03  0.59531445236E+03  0.25500000920E-02 0. -1.
    10030    2    1    2    0    0  0.00000000000E+00  0.00000000000E+00  0.36762317220E+03  0.15582520769E+04  0.15142664027E+04 0.  0.
        4    1    3    3  502    0  0.43809830103E+03  0.51840474051E+03 -0.16145720366E+03  0.69767014975E+03  0.12699999809E+01 0. -1.
       -4    1    3    3    0  502 -0.43809830103E+03 -0.51840474051E+03  0.52908037586E+03  0.86058192716E+03  0.12699999809E+01 0.  1.
</event>
<event>
 5   0  0.1960961E-05  0.2798254E+04  0.7818609E-02  0.8303811E-01
       -2   -1    0    0    0  501  0.00000000000E+00  0.00000000000E+00  0.12513869291E+04  0.12513869291E+04  0.25500000920E-02 0. -1.
        2   -1    0    0  501    0  0.00000000000E+00  0.00000000000E+00 -0.15643097293E+04  0.15643097293E+04  0.25500000920E-02 0.  1.
    10030    2    1    2    0    0  0.00000000000E+00  0.00000000000E+00 -0.31292280022E+03  0.28156966584E+04  0.27982542760E+04 0.  0.
        5    1    3    3  502    0  0.37256041918E+03  0.13441292809E+04 -0.26691753584E+03  0.14201238856E+04  0.46999998093E+01 0.  1.
       -5    1    3    3    0  502 -0.37256041918E+03 -0.13441292809E+04 -0.46005264383E+02  0.13955727727E+04  0.46999998093E+01 0. -1.
</event>
<event>
 5   0  0.1937947E-05  0.2941199E+04  0.7818609E-02  0.8260724E-01
        2   -1    0    0  501    0  0.00000000000E+00  0.00000000000E+00  0.89706311716E+03  0.89706311716E+03  0.25500000920E-02 0. -1.
       -2   -1    0    0    0  501  0.00000000000E+00  0.00000000000E+00 -0.24108260640E+04  0.24108260640E+04  0.25500000920E-02 0.  1.
    10030    2    1    2    0    0  0.00000000000E+00  0.00000000000E+00 -0.15137629468E+04  0.33078891812E+04  0.29411991731E+04 0.  0.
        3    1    3    3  502    0  0.47752095244E+03  0.58172332771E+03 -0.21778187572E+04  0.23041967883E+04  0.10100000352E+00 0.  1.
       -3    1    3    3    0  502 -0.47752095244E+03 -0.58172332771E+03  0.66405581033E+03  0.10036923928E+04  0.10100000352E+00 0. -1.
</event>
<event>
 5   0  0.1829810E-05  0.2925597E+04  0.7818609E-02  0.8265302E-01
       -2   -1    0    0    0  501  0.00000000000E+00  0.00000000000E+00  0.12346090492E+04  0.12346090492E+04  0.25500000920E-02 0. -1.
        2   -1    0    0  501    0  0.00000000000E+00  0.00000000000E+00 -0.17331631467E+04  0.17331631467E+04  0.25500000920E-02 0.  1.
    10030    2    1    2    0    0  0.00000000000E+00  0.00000000000E+00 -0.49855409743E+03  0.29677721959E+04  0.29255966261E+04 0.  0.
        4    1    3    3  502    0  0.13908870938E+04 -0.45264218303E+03 -0.26757701951E+03  0.14869602980E+04  0.12699999809E+01 0.  1.
       -4    1    3    3    0  502 -0.13908870938E+04  0.45264218303E+03 -0.23097707792E+03  0.14808118979E+04  0.12699999809E+01 0. -1.
</event>
<event>
 5   0  0.7971153E-06  0.2897669E+04  0.7818609E-02  0.8273571E-01
        1   -1    0    0  501    0  0.00000000000E+00  0.00000000000E+00  0.14823277827E+04  0.14823277828E+04  0.50400001928E-02 0. -1.
       -1   -1    0    0    0  501  0.00000000000E+00  0.00000000000E+00 -0.14160976655E+04  0.14160976655E+04  0.50400001928E-02 0.  1.
    10030    2    1    2    0    0  0.00000000000E+00  0.00000000000E+00  0.66230117253E+02  0.28984254483E+04  0.28976686579E+04 0.  0.
        5    1    3    3  502    0 -0.15795006148E+02  0.54134509479E+03 -0.13110345605E+04  0.14184983972E+04  0.46999998093E+01 0.  1.
       -5    1    3    3    0  502  0.15795006148E+02 -0.54134509479E+03  0.13772646778E+04  0.14799270511E+04  0.46999998093E+01 0. -1.
</event>
<event>
 5   0  0.8055928E-06  0.1542178E+04  0.7818609E-02  0.8856879E-01
        1   -1    0    0  501    0  0.00000000000E+00  0.00000000000E+00  0.13929749084E+04  0.13929749084E+04  0.50400001928E-02 0.  1.
       -1   -1    0    0    0  501  0.00000000000E+00  0.00000000000E+00 -0.42684078885E+03  0.42684078888E+03  0.50400001928E-02 0. -1.
    10030    2    1    2    0    0  0.00000000000E+00  0.00000000000E+00  0.96613411951E+03  0.18198156973E+04  0.15421783409E+04 0.  0.
        2    1    3    3  502    0  0.39836406883E+03  0.74056789045E+02  0.12572240226E+04  0.13209052133E+04  0.25500000920E-02 0.  1.
       -2    1    3    3    0  502 -0.39836406883E+03 -0.74056789045E+02 -0.29108990312E+03  0.49891048400E+03  0.25500000920E-02 0. -1.
</event>
<event>
 5   0  0.1829810E-05  0.2862527E+04  0.7818609E-02  0.8284115E-01
       -2   -1    0    0    0  501  0.00000000000E+00  0.00000000000E+00  0.14030857562E+04  0.14030857563E+04  0.25500000920E-02 0. -1.
        2   -1    0    0  501    0  0.00000000000E+00  0.00000000000E+00 -0.14600068106E+04  0.14600068106E+04  0.25500000920E-02 0.  1.
    10030    2    1    2    0    0  0.00000000000E+00  0.00000000000E+00 -0.56921054309E+02  0.28630925668E+04  0.28625266880E+04 0.  0.
        4    1    3    3  502    0  0.10139453883E+04 -0.14861937608E+03  0.97090673792E+03  0.14116778939E+04  0.12699999809E+01 0. -1.
       -4    1    3    3    0  502 -0.10139453883E+04  0.14861937608E+03 -0.10278277922E+04  0.14514146729E+04  0.12699999809E+01 0.  1.
</event>
<event>
 5   0  0.1937947E-05  0.1459441E+04  0.7818609E-02  0.8911881E-01
        2   -1    0    0  501    0  0.00000000000E+00  0.00000000000E+00  0.14102428633E+04  0.14102428633E+04  0.25500000920E-02 0. -1.
       -2   -1    0    0    0  501  0.00000000000E+00  0.00000000000E+00 -0.37758878354E+03  0.37758878355E+03  0.25500000920E-02 0.  1.
    10030    2    1    2    0    0  0.00000000000E+00  0.00000000000E+00  0.10326540798E+04  0.17878316469E+04  0.14594408344E+04 0.  0.
        3    1    3    3  502    0  0.63624660989E+03 -0.35715968759E+03  0.50295891335E+03  0.88619437470E+03  0.10100000352E+00 0.  1.
       -3    1    3    3    0  502 -0.63624660989E+03  0.35715968759E+03  0.52969516642E+03  0.90163727217E+03  0.10100000352E+00 0. -1.
</event>
<event>
 5   0  0.6578125E-06  0.2912526E+04  0.7818609E-02  0.8269160E-01
        3   -1    0    0  501    0  0.00000000000E+00  0.00000000000E+00  0.14986374023E+04  0.14986374057E+04  0.10100000352E+00 0.  1.
       -3   -1    0    0    0  501  0.00000000000E+00  0.00000000000E+00 -0.14150865362E+04  0.14150865398E+04  0.10100000352E+00 0. -1.
    10030    2    1    2    0    0  0.00000000000E+00  0.00000000000E+00  0.83550866084E+02  0.29137239456E+04  0.29125257911E+04 0.  0.
        5    1    3    3  502    0  0.20038713646E+03 -0.23801934039E+03  0.14649889878E+04  0.14976725394E+04  0.46999998093E+01 0.  1.
       -5    1    3    3    0  502 -0.20038713646E+03  0.23801934039E+03 -0.13814381217E+04  0.14160514062E+04  0.46999998093E+01 0. -1.
</event>
<event>
 5   0  0.1976233E-05  0.2861737E+04  0.7818609E-02  0.8284354E-01
        2   -1    0    0  501    0  0.00000000000E+00  0.00000000000E+00  0.14499935899E+04  0.14499935899E+04  0.25500000920E-02 0.  1.
       -2   -1    0    0    0  501  0.00000000000E+00  0.00000000000E+00 -0.14119953424E+04  0.14119953424E+04  0.25500000920E-02 0. -1.
    10030    2    1    2    0    0  0.00000000000E+00  0.00000000000E+00  0.37998247545E+02  0.28619889323E+04  0.28617366724E+04 0.  0.
        2    1    3    3  502    0 -0.73358311676E+03  0.33236690776E+03 -0.11638021517E+04  0.14152905705E+04  0.25500000920E-02 0. -1.
       -2    1    3    3    0  502  0.73358311676E+03 -0.33236690776E+03  0.12018003992E+04  0.14466983619E+04  0.25500000920E-02 0.  1.
</event>
<event>
 5   0  0.1829810E-05  0.2891261E+04  0.7818609E-02  0.8275482E-01
       -2   -1    0    0    0  501  0.00000000000E+00  0.00000000000E+00  0.12328643305E+04  0.12328643305E+04  0.25500000920E-02 0. -1.
        2   -1    0    0  501    0  0.00000000000E+00  0.00000000000E+00 -0.16951150839E+04  0.16951150839E+04  0.25500000920E-02 0.  1.
    10030    2    1    2    0    0  0.00000000000E+00  0.00000000000E+00 -0.46225075337E+03  0.29279794145E+04  0.28912605715E+04 0.  0.
        4    1    3    3  502    0  0.40056057598E+03  0.13564398732E+04 -0.53403509488E+03  0.15118111655E+04  0.12699999809E+01 0.  1.
       -4    1    3    3    0  502 -0.40056057598E+03 -0.13564398732E+04  0.71784341513E+02  0.14161682489E+04  0.12699999809E+01 0. -1.
</event>
<event>
 5   0  0.8122088E-06  0.2898573E+04  0.7818609E-02  0.8273302E-01
        1   -1    0    0  501    0  0.00000000000E+00  0.00000000000E+00  0.12548864808E+04  0.12548864808E+04  0.50400001928E-02 0.  1.
       -1   -1    0    0    0  501  0.00000000000E+00  0.00000000000E+00 -0.16738022723E+04  0.16738022723E+04  0.50400001928E-02 0. -1.
    10030    2    1    2    0    0  0.00000000000E+00  0.00000000000E+00 -0.41891579143E+03  0.29286887531E+04  0.28985733339E+04 0.  0.
        1    1    3    3  502    0 -0.87182468465E+03 -0.64382639576E+03  0.76274556578E+03  0.13252816707E+04  0.50400001928E-02 0.  1.
       -1    1    3    3    0  502  0.87182468465E+03  0.64382639576E+03 -0.11816613572E+04  0.16034070824E+04  0.50400001928E-02 0. -1.
</event>
<event>
 5   0  0.1976233E-05  0.2893533E+04  0.7818609E-02  0.8274804E-01
       -2   -1    0    0    0  501  0.00000000000E+00  0.00000000000E+00  0.11525975898E+04  0.11525975898E+04  0.25500000920E-02 0.  1.
        2   -1    0    0  501    0  0.00000000000E+00  0.00000000000E+00 -0.18160134371E+04  0.18160134371E+04  0.25500000920E-02 0. -1.
    10030    2    1    2    0    0  0.00000000000E+00  0.00000000000E+00 -0.66341584728E+03  0.29686110269E+04  0.28935325889E+04 0.  0.
        2    1    3    3  502    0 -0.58994676142E+03 -0.87528937938E+03  0.68339081023E+03  0.12574544439E+04  0.25500000920E-02 0.  1.
       -2    1    3    3    0  502  0.58994676142E+03  0.87528937938E+03 -0.13468066575E+04  0.17111565830E+04  0.25500000920E-02 0. -1.
</event>
<event>
 5   0  0.7971153E-06  0.2064377E+04  0.7818609E-02  0.8577100E-01
       -1   -1    0    0    0  501  0.00000000000E+00  0.00000000000E+00  0.49407343605E+03  0.49407343608E+03  0.50400001928E-02 0.  1.
        1   -1    0    0  501    0  0.00000000000E+00  0.00000000000E+00 -0.21563855617E+04  0.21563855617E+04  0.50400001928E-02 0. -1.
    10030    2    1    2    0    0  0.00000000000E+00  0.00000000000E+00 -0.16623121256E+04  0.26504589978E+04  0.20643767330E+04 0.  0.
        5    1    3    3  502    0 -0.80333743402E+03  0.53852925631E+03 -0.12941199731E+04  0.16155907240E+04  0.46999998093E+01 0. -1.
       -5    1    3    3    0  502  0.80333743402E+03 -0.53852925631E+03 -0.36819215251E+03  0.10348682737E+04  0.46999998093E+01 0.  1.
</event>
<event>
 5   0  0.8234888E-06  0.2888371E+04  0.7818609E-02  0.8276346E-01
        1   -1    0    0  501    0  0.00000000000E+00  0.00000000000E+00  0.17020457693E+04  0.17020457693E+04  0.50400001928E-02 0. -1.
       -1   -1    0    0    0  501  0.00000000000E+00  0.00000000000E+00 -0.12253906981E+04  0.12253906981E+04  0.50400001928E-02 0.  1.
    10030    2    1    2    0    0  0.00000000000E+00  0.00000000000E+00  0.47665507120E+03  0.29274364673E+04  0.28883705118E+04 0.  0.
        3    1    3    3  502    0 -0.11100936939E+03  0.42738958477E+03  0.16319472856E+04  0.16906320979E+04  0.10100000352E+00 0. -1.
       -3    1    3    3    0  502  0.11100936939E+03 -0.42738958477E+03 -0.11552922144E+04  0.12368043694E+04  0.10100000352E+00 0.  1.
</event>
<event>
 5   0  0.1960961E-05  0.3002068E+04  0.7818609E-02  0.8243141E-01
       -2   -1    0    0    0  501  0.00000000000E+00  0.00000000000E+00  0.12259100726E+04  0.12259100726E+04  0.25500000920E-02 0. -1.
        2   -1    0    0  501    0  0.00000000000E+00  0.00000000000E+00 -0.18379025439E+04  0.18379025439E+04  0.25500000920E-02 0.  1.
    10030    2    1    2    0    0  0.00000000000E+00  0.00000000000E+00 -0.61199247133E+03  0.30638126164E+04  0.30020681144E+04 0.  0.
        5    1    3    3  502    0 -0.14865209294E+03 -0.99738904648E+03 -0.14407086769E+04  0.17585636003E+04  0.46999998093E+01 0.  1.
       -5    1    3    3    0  502  0.14865209294E+03  0.99738904648E+03  0.82871620553E+03  0.13052490161E+04  0.46999998093E+01 0. -1.
</event>
<event>
 5   0  0.7971153E-06  0.2967189E+04  0.7818609E-02  0.8253163E-01
        1   -1    0    0  501    0  0.00000000000E+00  0.00000000000E+00  0.15544354395E+04  0.15544354395E+04  0.50400001928E-02 0. -1.
       -1   -1    0    0    0  501  0.00000000000E+00  0.00000000000E+00 -0.14159819753E+04  0.14159819753E+04  0.50400001928E-02 0.  1.
    10030    2    1    2    0    0  0.00000000000E+00  0.00000000000E+00  0.13845346422E+03  0.29704174148E+04  0.29671889486E+04 0.  0.
        5    1    3    3  502    0  0.22581096057E+03  0.12501994636E+04 -0.69779305061E+03  0.14494573192E+04  0.46999998093E+01 0.  1.
       -5    1    3    3    0  502 -0.22581096057E+03 -0.12501994636E+04  0.83624651483E+03  0.15209600956E+04  0.46999998093E+01 0. -1.
</event>
<event>
 5   0  0.1937947E-05  0.2151623E+04  0.7818609E-02  0.8538838E-01
       -2   -1    0    0    0  501  0.00000000000E+00  0.00000000000E+00  0.48042637897E+03  0.48042637897E+03  0.25500000920E-02 0.  1.
        2   -1    0    0  501    0  0.00000000000E+00  0.00000000000E+00 -0.24090490272E+04  0.24090490272E+04  0.25500000920E-02 0. -1.
    10030    2    1    2    0    0  0.00000000000E+00  0.00000000000E+00 -0.19286226483E+04  0.28894754062E+04  0.21516232950E+04 0.  0.
        3    1    3    3  502    0 -0.85924812085E+03  0.23736301762E+03 -0.17731088358E+04  0.19845814393E+04  0.10100000352E+00 0. -1.
       -3    1    3    3    0  502  0.85924812085E+03 -0.23736301762E+03 -0.15551381246E+03  0.90489396693E+03  0.10100000352E+00 0.  1.
</event>
<event>
 5   0  0.8122088E-06  0.2870595E+04  0.7818609E-02  0.8281680E-01
        1   -1    0    0  501    0  0.00000000000E+00  0.00000000000E+00  0.10375809843E+04  0.10375809843E+04  0.50400001928E-02 0.  1.
       -1   -1    0    0    0  501  0.00000000000E+00  0.00000000000E+00 -0.19854635842E+04  0.19854635842E+04  0.50400001928E-02 0. -1.
    10030    2    1    2    0    0  0.00000000000E+00  0.00000000000E+00 -0.94788259985E+03  0.30230445685E+04  0.28705952415E+04 0.  0.
        1    1    3    3  502    0 -0.41135101961E+03 -0.10646520224E+04 -0.13904384763E+04  0.17988920887E+04  0.50400001928E-02 0. -1.
       -1    1    3    3    0  502  0.41135101961E+03  0.10646520224E+04  0.44255587648E+03  0.12241524799E+04  0.50400001928E-02 0.  1.
</event>
<event>
 5   0  0.7971153E-06  0.2316755E+04  0.7818609E-02  0.8471344E-01
        1   -1    0    0  501    0  0.00000000000E+00  0.00000000000E+00  0.17878402932E+04  0.17878402932E+04  0.50400001928E-02 0. -1.
       -1   -1    0    0    0  501  0.00000000000E+00  0.00000000000E+00 -0.75053569886E+03  0.75053569888E+03  0.50400001928E-02 0.  1.
    10030    2    1    2    0    0  0.00000000000E+00  0.00000000000E+00  0.10373045944E+04  0.25383759921E+04  0.23167545955E+04 0.  0.
        5    1    3    3  502    0 -0.34714941106E+03  0.22248031852E+03 -0.66739966304E+03  0.78450914969E+03  0.46999998093E+01 0.  1.
       -5    1    3    3    0  502  0.34714941106E+03 -0.22248031852E+03  0.17047042574E+04  0.17538668424E+04  0.46999998093E+01 0. -1.
</event>
<event>
 5   0  0.1937947E-05  0.2905003E+04  0.7818609E-02  0.8271391E-01
       -2   -1    0    0    0  501  0.00000000000E+00  0.00000000000E+00  0.79630056593E+03  0.79630056593E+03  0.25500000920E-02 0. -1.
        2   -1    0    0  501    0  0.00000000000E+00  0.00000000000E+00 -0.26494517287E+04  0.26494517287E+04  0.25500000920E-02 0.  1.
    10030    2    1    2    0    0  0.00000000000E+00  0.00000000000E+00 -0.18531511628E+04  0.34457522947E+04  0.29050025205E+04 0.  0.
        3    1    3    3  502    0  0.35114761051E+03  0.25641008462E+03 -0.25704488764E+04  0.26069634083E+04  0.10100000352E+00 0.  1.
       -3    1    3    3    0  502 -0.35114761051E+03 -0.25641008462E+03  0.71729771356E+03  0.83878888639E+03  0.10100000352E+00 0. -1.
</event>
<event>
 5   0  0.1960961E-05  0.3249135E+04  0.7818609E-02  0.8175960E-01
        2   -1    0    0  501    0  0.00000000000E+00  0.00000000000E+00  0.24940583980E+04  0.24940583980E+04  0.25500000920E-02 0. -1.
       -2   -1    0    0    0  501  0.00000000000E+00  0.00000000000E+00 -0.10582026364E+04  0.10582026365E+04  0.25500000920E-02 0.  1.
    10030    2    1    2    0    0  0.00000000000E+00  0.00000000000E+00  0.14358557615E+04  0.35522610344E+04  0.32491347600E+04 0.  0.
        5    1    3    3  502    0 -0.13077130737E+04  0.31707237028E+03  0.17130953491E+04  0.21783861311E+04  0.46999998093E+01 0. -1.
       -5    1    3    3    0  502  0.13077130737E+04 -0.31707237028E+03 -0.27723958760E+03  0.13738749033E+04  0.46999998093E+01 0.  1.
</event>
<event>
 5   0  0.1960961E-05  0.1823411E+04  0.7818609E-02  0.8693948E-01
        2   -1    0    0  501    0  0.00000000000E+00  0.00000000000E+00  0.21685590158E+04  0.21685590158E+04  0.25500000920E-02 0.  1.
       -2   -1    0    0    0  501  0.00000000000E+00  0.00000000000E+00 -0.38329911187E+03  0.38329911188E+03  0.25500000920E-02 0. -1.
    10030    2    1    2    0    0  0.00000000000E+00  0.00000000000E+00  0.17852599039E+04  0.25518581277E+04  0.18234108092E+04 0.  0.
        5    1    3    3  502    0  0.19735005443E+03 -0.65138831033E+03  0.17415271897E+04  0.18698109042E+04  0.46999998093E+01 0.  1.
       -5    1    3    3    0  502 -0.19735005443E+03  0.65138831033E+03  0.43732714225E+02  0.68204722352E+03  0.46999998093E+01 0. -1.
</event>
<event>
 5   0  0.7305460E-06  0.2952118E+04  0.7818609E-02  0.8257537E-01
        1   -1    0    0  501    0  0.00000000000E+00  0.00000000000E+00  0.20273640090E+04  0.20273640090E+04  0.50400001928E-02 0. -1.
       -1   -1    0    0    0  501  0.00000000000E+00  0.00000000000E+00 -0.10746717851E+04  0.10746717851E+04  0.50400001928E-02 0.  1.
    10030    2    1    2    0    0  0.00000000000E+00  0.00000000000E+00  0.95269222387E+03  0.31020357941E+04  0.29521184926E+04 0.  0.
        4    1    3    3  502    0  0.29890090975E+03 -0.60612226368E+03  0.18552453621E+04  0.19745032081E+04  0.12699999809E+01 0. -1.
       -4    1    3    3    0  502 -0.29890090975E+03  0.60612226368E+03 -0.90255313820E+03  0.11275325860E+04  0.12699999809E+01 0.  1.
</event>
<event>
 5   0  0.6578125E-06  0.2865225E+04  0.7818609E-02  0.8283300E-01
       -3   -1    0    0    0  501  0.00000000000E+00  0.00000000000E+00  0.16268398826E+04  0.16268398858E+04  0.10100000352E+00 0.  1.
        3   -1    0    0  501    0  0.00000000000E+00  0.00000000000E+00 -0.12615739178E+04  0.12615739218E+04  0.10100000352E+00 0. -1.
    10030    2    1    2    0    0  0.00000000000E+00  0.00000000000E+00  0.36526596489E+03  0.28884138076E+04  0.28652251393E+04 0.  0.
        1    1    3    3  502    0 -0.24673283142E+03  0.64572830845E+03 -0.10823277512E+04  0.12842412155E+04  0.50400001928E-02 0. -1.
       -1    1    3    3    0  502  0.24673283142E+03 -0.64572830845E+03  0.14475937161E+04  0.16041725921E+04  0.50400001928E-02 0.  1.
</event>
<event>
 5   0  0.7305460E-06  0.2916508E+04  0.7818609E-02  0.8267983E-01
        1   -1    0    0  501    0  0.00000000000E+00  0.00000000000E+00  0.15533540466E+04  0.15533540466E+04  0.50400001928E-02 0. -1.
       -1   -1    0    0    0  501  0.00000000000E+00  0.00000000000E+00 -0.13689766224E+04  0.13689766224E+04  0.50400001928E-02 0.  1.
    10030    2    1    2    0    0  0.00000000000E+00  0.00000000000E+00  0.18437742422E+03  0.29223306690E+04  0.29165084441E+04 0.  0.
        4    1    3    3  502    0 -0.96712913328E+03 -0.42822413632E+03 -0.91370233877E+03  0.13977010582E+04  0.12699999809E+01 0.  1.
       -4    1    3    3    0  502  0.96712913328E+03  0.42822413632E+03  0.10980797630E+04  0.15246296108E+04  0.12699999809E+01 0. -1.
</event>
<event>
 5   0  0.8234888E-06  0.2886123E+04  0.7818609E-02  0.8277018E-01
       -1   -1    0    0    0  501  0.00000000000E+00  0.00000000000E+00  0.10360572346E+04  0.10360572346E+04  0.50400001928E-02 0. -1.
        1   -1    0    0  501    0  0.00000000000E+00  0.00000000000E+00 -0.20099526100E+04  0.20099526100E+04  0.50400001928E-02 0.  1.
    10030    2    1    2    0    0  0.00000000000E+00  0.00000000000E+00 -0.97389537540E+03  0.30460098447E+04  0.28861226189E+04 0.  0.
        3    1    3    3  502    0 -0.65607424422E+03  0.11452324004E+02  0.86950085016E+03  0.10893100148E+04  0.10100000352E+00 0. -1.
       -3    1    3    3    0  502  0.65607424422E+03 -0.11452324004E+02 -0.18433962256E+04  0.19566998299E+04  0.10100000352E+00 0.  1.
</event>
<event>
 5   0  0.7305460E-06  0.2916443E+04  0.7818609E-02  0.8268002E-01
        1   -1    0    0  501    0  0.00000000000E+00  0.00000000000E+00  0.15417564850E+04  0.15417564850E+04  0.50400001928E-02 0. -1.
       -1   -1    0    0    0  501  0.00000000000E+00  0.00000000000E+00 -0.13792129441E+04  0.13792129441E+04  0.50400001928E-02 0.  1.
    10030    2    1    2    0    0  0.00000000000E+00  0.00000000000E+00  0.16254354092E+03  0.29209694291E+04  0.29164433825E+04 0.  0.
        4    1    3    3  502    0 -0.10479581471E+04 -0.87329186609E+03 -0.43484720372E+03  0.14317641793E+04  0.12699999809E+01 0.  1.
       -4    1    3    3    0  502  0.10479581471E+04  0.87329186609E+03  0.59739074464E+03  0.14892052499E+04  0.12699999809E+01 0. -1.
</event>
<event>
 5   0  0.1937947E-05  0.2927389E+04  0.7818609E-02  0.8264775E-01
        2   -1    0    0  501    0  0.00000000000E+00  0.00000000000E+00  0.17655037220E+04  0.17655037220E+04  0.25500000920E-02 0.  1.
       -2   -1    0    0    0  501  0.00000000000E+00  0.00000000000E+00 -0.12134789305E+04  0.12134789305E+04  0.25500000920E-02 0. -1.
    10030    2    1    2    0    0  0.00000000000E+00  0.00000000000E+00  0.55202479153E+03  0.29789826525E+04  0.29273889857E+04 0.  0.
        3    1    3    3  502    0  0.93260098229E+03 -0.11017921026E+04  0.52258666496E+03  0.15351831363E+04  0.10100000352E+00 0.  1.
       -3    1    3    3    0  502 -0.93260098229E+03  0.11017921026E+04  0.29438126569E+02  0.14437995162E+04  0.10100000352E+00 0. -1.
</event>
<event>
 5   0  0.1960961E-05  0.1752538E+04  0.7818609E-02  0.8731954E-01
        2   -1    0    0  501    0  0.00000000000E+00  0.00000000000E+00  0.80609188311E+03  0.80609188311E+03  0.25500000920E-02 0. -1.
       -2   -1    0    0    0  501  0.00000000000E+00  0.00000000000E+00 -0.95255617151E+03  0.95255617152E+03  0.25500000920E-02 0.  1.
    10030    2    1    2    0    0  0.00000000000E+00  0.00000000000E+00 -0.14646428841E+03  0.17586480546E+04  0.17525384995E+04 0.  0.
        5    1    3    3  502    0 -0.80831833419E+03  0.32612861050E+03  0.17010822260E+02  0.87180838379E+03  0.46999998093E+01 0. -1.
       -5    1    3    3    0  502  0.80831833419E+03 -0.32612861050E+03 -0.16347511067E+03  0.88683967084E+03  0.46999998093E+01 0.  1.
</event>
<event>
 5   0  0.1960961E-05  0.3127619E+04  0.7818609E-02  0.8208199E-01
       -2   -1    0    0    0  501  0.00000000000E+00  0.00000000000E+00  0.14534019130E+04  0.14534019130E+04  0.25500000920E-02 0. -1.
        2   -1    0    0  501    0  0.00000000000E+00  0.00000000000E+00 -0.16826038788E+04  0.16826038788E+04  0.25500000920E-02 0.  1.
    10030    2    1    2    0    0  0.00000000000E+00  0.00000000000E+00 -0.22920196575E+03  0.31360057918E+04  0.31276187084E+04 0.  0.
        5    1    3    3  502    0 -0.36870890786E+03 -0.15088084029E+04 -0.29682592220E+03  0.15813212113E+04  0.46999998093E+01 0. -1.
       -5    1    3    3    0  502  0.36870890786E+03  0.15088084029E+04  0.67623956452E+02  0.15546845805E+04  0.46999998093E+01 0.  1.
</event>
<event>
 5   0  0.8122088E-06  0.2718424E+04  0.7818609E-02  0.8329052E-01
       -1   -1    0    0    0  501  0.00000000000E+00  0.00000000000E+00  0.10762111220E+04  0.10762111220E+04  0.50400001928E-02 0.  1.
        1   -1    0    0  501    0  0.00000000000E+00  0.00000000000E+00 -0.17166313541E+04  0.17166313541E+04  0.50400001928E-02 0. -1.
    10030    2    1    2    0    0  0.00000000000E+00  0.00000000000E+00 -0.64042023213E+03  0.27928424762E+04  0.27184243640E+04 0.  0.
        1    1    3    3  502    0 -0.41631073123E+03  0.10967677787E+04 -0.10254744247E+04  0.15581437613E+04  0.50400001928E-02 0. -1.
       -1    1    3    3    0  502  0.41631073123E+03 -0.10967677787E+04  0.38505419256E+03  0.12346987149E+04  0.50400001928E-02 0.  1.
</event>
<event>
 5   0  0.1918901E-05  0.2924070E+04  0.7818609E-02  0.8265752E-01
       -2   -1    0    0    0  501  0.00000000000E+00  0.00000000000E+00  0.23165288247E+04  0.23165288247E+04  0.25500000920E-02 0.  1.
        2   -1    0    0  501    0  0.00000000000E+00  0.00000000000E+00 -0.92273646425E+03  0.92273646425E+03  0.25500000920E-02 0. -1.
    10030    2    1    2    0    0  0.00000000000E+00  0.00000000000E+00  0.13937923604E+04  0.32392652889E+04  0.29240695047E+04 0.  0.
        1    1    3    3  502    0 -0.34369157859E+03 -0.11108307242E+04 -0.28490943536E+03  0.11971809326E+04  0.50400001928E-02 0. -1.
       -1    1    3    3    0  502  0.34369157859E+03  0.11108307242E+04  0.16787017958E+04  0.20420843563E+04  0.50400001928E-02 0.  1.
</event>
<event>
 5   0  0.1918901E-05  0.2970036E+04  0.7818609E-02  0.8252339E-01
       -2   -1    0    0    0  501  0.00000000000E+00  0.00000000000E+00  0.26398350493E+04  0.26398350493E+04  0.25500000920E-02 0.  1.
        2   -1    0    0  501    0  0.00000000000E+00  0.00000000000E+00 -0.83538513620E+03  0.83538513620E+03  0.25500000920E-02 0. -1.
    10030    2    1    2    0    0  0.00000000000E+00  0.00000000000E+00  0.18044499131E+04  0.34752201855E+04  0.29700363380E+04 0.  0.
        1    1    3    3  502    0  0.54864056548E+03 -0.75418866094E+03 -0.44996575858E+03  0.10355076969E+04  0.50400001928E-02 0. -1.
       -1    1    3    3    0  502 -0.54864056548E+03  0.75418866094E+03  0.22544156717E+04  0.24397124886E+04  0.50400001928E-02 0.  1.
</event>
<event>
 5   0  0.8234888E-06  0.2834183E+04  0.7818609E-02  0.8292734E-01
        1   -1    0    0  501    0  0.00000000000E+00  0.00000000000E+00  0.17462665774E+04  0.17462665774E+04  0.50400001928E-02 0. -1.
       -1   -1    0    0    0  501  0.00000000000E+00  0.00000000000E+00 -0.11499664594E+04  0.11499664594E+04  0.50400001928E-02 0.  1.
    10030    2    1    2    0    0  0.00000000000E+00  0.00000000000E+00  0.59630011805E+03  0.28962330368E+04  0.28341827698E+04 0.  0.
        3    1    3    3  502    0  0.91887859242E+02 -0.20638616495E+03  0.17277456371E+04  0.17424533349E+04  0.10100000352E+00 0. -1.
       -3    1    3    3    0  502 -0.91887859242E+02  0.20638616495E+03 -0.11314455190E+04  0.11537797019E+04  0.10100000352E+00 0.  1.
</event>
<event>
 5   0  0.1829810E-05  0.2991964E+04  0.7818609E-02  0.8246029E-01
       -2   -1    0    0    0  501  0.00000000000E+00  0.00000000000E+00  0.10970499896E+04  0.10970499896E+04  0.25500000920E-02 0.  1.
        2   -1    0    0  501    0  0.00000000000E+00  0.00000000000E+00 -0.20399815690E+04  0.20399815690E+04  0.25500000920E-02 0. -1.
    10030    2    1    2    0    0  0.00000000000E+00  0.00000000000E+00 -0.94293157945E+03  0.31370315586E+04  0.29919637425E+04 0.  0.
        4    1    3    3  502    0 -0.10678932422E+04 -0.25513185193E+03  0.59390720331E+03  0.12482850707E+04  0.12699999809E+01 0.  1.
       -4    1    3    3    0  502  0.10678932422E+04  0.25513185193E+03 -0.15368387828E+04  0.18887464880E+04  0.12699999809E+01 0. -1.
</event>
<event>
 5   0  0.8055928E-06  0.3137947E+04  0.7818609E-02  0.8205400E-01
       -1   -1    0    0    0  501  0.00000000000E+00  0.00000000000E+00  0.16163637918E+04  0.16163637918E+04  0.50400001928E-02 0. -1.
        1   -1    0    0  501    0  0.00000000000E+00  0.00000000000E+00 -0.15229725244E+04  0.15229725244E+04  0.50400001928E-02 0.  1.
    10030    2    1    2    0    0  0.00000000000E+00  0.00000000000E+00  0.93391267436E+02  0.31393363162E+04  0.31379468730E+04 0.  0.
        2    1    3    3  502    0 -0.32153006527E+03 -0.20863721805E+03 -0.14754137334E+04  0.15243873380E+04  0.25500000920E-02 0.  1.
       -2    1    3    3    0  502  0.32153006527E+03  0.20863721805E+03  0.15688050008E+04  0.16149489782E+04  0.25500000920E-02 0. -1.
</event>
<event>
 5   0  0.1976233E-05  0.3020356E+04  0.7818609E-02  0.8237942E-01
       -2   -1    0    0    0  501  0.00000000000E+00  0.00000000000E+00  0.13719500764E+04  0.13719500764E+04  0.25500000920E-02 0.  1.
        2   -1    0    0  501    0  0.00000000000E+00  0.00000000000E+00 -0.16623323608E+04  0.16623323608E+04  0.25500000920E-02 0. -1.
    10030    2    1    2    0    0  0.00000000000E+00  0.00000000000E+00 -0.29038228444E+03  0.30342824372E+04  0.30203556144E+04 0.  0.
        2    1    3    3  502    0  0.53391701196E+01  0.13315917011E+04 -0.86084659592E+03  0.15856297887E+04  0.25500000920E-02 0. -1.
       -2    1    3    3    0  502 -0.53391701196E+01 -0.13315917011E+04  0.57046431148E+03  0.14486526485E+04  0.25500000920E-02 0.  1.
</event>
<event>
 5   0  0.8122088E-06  0.1743548E+04  0.7818609E-02  0.8736910E-01
       -1   -1    0    0    0  501  0.00000000000E+00  0.00000000000E+00  0.10588889416E+04  0.10588889416E+04  0.50400001928E-02 0.  1.
        1   -1    0    0  501    0  0.00000000000E+00  0.00000000000E+00 -0.71772360561E+03  0.71772360563E+03  0.50400001928E-02 0. -1.
    10030    2    1    2    0    0  0.00000000000E+00  0.00000000000E+00  0.34116533597E+03  0.17766125472E+04  0.17435476353E+04 0.  0.
        1    1    3    3  502    0 -0.79275049359E+03 -0.89457813782E+02 -0.18755611828E+03  0.81953239293E+03  0.50400001928E-02 0. -1.
       -1    1    3    3    0  502  0.79275049359E+03  0.89457813782E+02  0.52872145426E+03  0.95708015429E+03  0.50400001928E-02 0.  1.
</event>
<event>
 5   0  0.1976233E-05  0.1732459E+04  0.7818609E-02  0.8743065E-01
        2   -1    0    0  501    0  0.00000000000E+00  0.00000000000E+00  0.41282672815E+03  0.41282672815E+03  0.25500000920E-02 0.  1.
       -2   -1    0    0    0  501  0.00000000000E+00  0.00000000000E+00 -0.18175995553E+04  0.18175995553E+04  0.25500000920E-02 0. -1.
    10030    2    1    2    0    0  0.00000000000E+00  0.00000000000E+00 -0.14047728271E+04  0.22304262834E+04  0.17324591510E+04 0.  0.
        2    1    3    3  502    0 -0.82338165652E+03  0.48875417344E+02 -0.36174518251E+03  0.90066960412E+03  0.25500000920E-02 0.  1.
       -2    1    3    3    0  502  0.82338165652E+03 -0.48875417344E+02 -0.10430276446E+04  0.13297566793E+04  0.25500000920E-02 0. -1.
</event>
<event>
 5   0  0.1960961E-05  0.2949006E+04  0.7818609E-02  0.8258444E-01
        2   -1    0    0  501    0  0.00000000000E+00  0.00000000000E+00  0.21301633612E+04  0.21301633612E+04  0.25500000920E-02 0.  1.
       -2   -1    0    0    0  501  0.00000000000E+00  0.00000000000E+00 -0.10206534876E+04  0.10206534876E+04  0.25500000920E-02 0. -1.
    10030    2    1    2    0    0  0.00000000000E+00  0.00000000000E+00  0.11095098736E+04  0.31508168488E+04  0.29490057062E+04 0.  0.
        5    1    3    3  502    0 -0.52918808792E+03  0.52845848504E+03  0.19124764668E+04  0.20535083951E+04  0.46999998093E+01 0.  1.
       -5    1    3    3    0  502  0.52918808792E+03 -0.52845848504E+03 -0.80296659317E+03  0.10973084537E+04  0.46999998093E+01 0. -1.
</event>
<event>
 5   0  0.1960961E-05  0.2542049E+04  0.7818609E-02  0.8388157E-01
        2   -1    0    0  501    0  0.00000000000E+00  0.00000000000E+00  0.11453768883E+04  0.11453768883E+04  0.25500000920E-02 0. -1.
       -2   -1    0    0    0  501  0.00000000000E+00  0.00000000000E+00 -0.14104557566E+04  0.14104557566E+04  0.25500000920E-02 0.  1.
    10030    2    1    2    0    0  0.00000000000E+00  0.00000000000E+00 -0.26507886832E+03  0.25558326449E+04  0.25420491149E+04 0.  0.
        5    1    3    3  502    0 -0.66375614013E+03 -0.92226399075E+00 -0.12223486002E+04  0.13909461724E+04  0.46999998093E+01 0.  1.
       -5    1    3    3    0  502  0.66375614013E+03  0.92226399075E+00  0.95726973190E+03  0.11648864725E+04  0.46999998093E+01 0. -1.
</event>
<event>
 5   0  0.1960961E-05  0.2013102E+04  0.7818609E-02  0.8600519E-01
        2   -1    0    0  501    0  0.00000000000E+00  0.00000000000E+00  0.22487243633E+04  0.22487243633E+04  0.25500000920E-02 0. -1.
       -2   -1    0    0    0  501  0.00000000000E+00  0.00000000000E+00 -0.45054204207E+03  0.45054204208E+03  0.25500000920E-02 0.  1.
    10030    2    1    2    0    0  0.00000000000E+00  0.00000000000E+00  0.17981823212E+04  0.26992664053E+04  0.20131019514E+04 0.  0.
        5    1    3    3  502    0  0.84446471111E+03 -0.19947438622E+03  0.21511065868E+03  0.89398286592E+03  0.46999998093E+01 0.  1.
       -5    1    3    3    0  502 -0.84446471111E+03  0.19947438622E+03  0.15830716625E+04  0.18052835394E+04  0.46999998093E+01 0. -1.
</event>
<event>
 5   0  0.8122088E-06  0.2845962E+04  0.7818609E-02  0.8289139E-01
        1   -1    0    0  501    0  0.00000000000E+00  0.00000000000E+00  0.13740523764E+04  0.13740523764E+04  0.50400001928E-02 0. -1.
       -1   -1    0    0    0  501  0.00000000000E+00  0.00000000000E+00 -0.14736521765E+04  0.14736521765E+04  0.50400001928E-02 0.  1.
    10030    2    1    2    0    0  0.00000000000E+00  0.00000000000E+00 -0.99599800102E+02  0.28477045529E+04  0.28459622451E+04 0.  0.
        1    1    3    3  502    0  0.10333931083E+04  0.87868254180E+03 -0.48005261717E+03  0.14389005667E+04  0.50400001928E-02 0.  1.
       -1    1    3    3    0  502 -0.10333931083E+04 -0.87868254180E+03  0.38045281707E+03  0.14088039862E+04  0.50400001928E-02 0. -1.
</event>
<event>
 5   0  0.8234888E-06  0.2816806E+04  0.7818609E-02  0.8298070E-01
        1   -1    0    0  501    0  0.00000000000E+00  0.00000000000E+00  0.13826757629E+04  0.13826757629E+04  0.50400001928E-02 0.  1.
       -1   -1    0    0    0  501  0.00000000000E+00  0.00000000000E+00 -0.14346091769E+04  0.14346091769E+04  0.50400001928E-02 0. -1.
    10030    2    1    2    0    0  0.00000000000E+00  0.00000000000E+00 -0.51933413991E+02  0.28172849399E+04  0.28168062328E+04 0.  0.
        3    1    3    3  502    0  0.44137042523E+03  0.39206721081E+03 -0.13048844434E+04  0.14322178504E+04  0.10100000352E+00 0. -1.
       -3    1    3    3    0  502 -0.44137042523E+03 -0.39206721081E+03  0.12529510294E+04  0.13850670895E+04  0.10100000352E+00 0.  1.
</event>
<event>
 5   0  0.8234888E-06  0.1980902E+04  0.7818609E-02  0.8615602E-01
       -1   -1    0    0    0  501  0.00000000000E+00  0.00000000000E+00  0.52119446926E+03  0.52119446928E+03  0.50400001928E-02 0.  1.
        1   -1    0    0  501    0  0.00000000000E+00  0.00000000000E+00 -0.18822019797E+04  0.18822019797E+04  0.50400001928E-02 0. -1.
    10030    2    1    2    0    0  0.00000000000E+00  0.00000000000E+00 -0.13610075105E+04  0.24033964490E+04  0.19809020792E+04 0.  0.
        3    1    3    3  502    0 -0.42330691607E+03  0.78374079335E+02 -0.17627515727E+04  0.18145589984E+04  0.10100000352E+00 0. -1.
       -3    1    3    3    0  502  0.42330691607E+03 -0.78374079335E+02  0.40174406221E+03  0.58883745060E+03  0.10100000352E+00 0.  1.
</event>
<event>
 5   0  0.1918901E-05  0.2864680E+04  0.7818609E-02  0.8283464E-01
        2   -1    0    0  501    0  0.00000000000E+00  0.00000000000E+00  0.12716218498E+04  0.12716218498E+04  0.25500000920E-02 0.  1.
       -2   -1    0    0    0  501  0.00000000000E+00  0.00000000000E+00 -0.16133708123E+04  0.16133708123E+04  0.25500000920E-02 0. -1.
    10030    2    1    2    0    0  0.00000000000E+00  0.00000000000E+00 -0.34174896247E+03  0.28849926621E+04  0.28646797913E+04 0.  0.
        1    1    3    3  502    0 -0.84127524890E+03 -0.10883249757E+04 -0.57295764865E+03  0.14901260901E+04  0.50400001928E-02 0. -1.
       -1    1    3    3    0  502  0.84127524890E+03  0.10883249757E+04  0.23120868617E+03  0.13948665720E+04  0.50400001928E-02 0.  1.
</event>
<event>
 5   0  0.7971153E-06  0.2905995E+04  0.7818609E-02  0.8271096E-01
        1   -1    0    0  501    0  0.00000000000E+00  0.00000000000E+00  0.15685576185E+04  0.15685576185E+04  0.50400001928E-02 0.  1.
       -1   -1    0    0    0  501  0.00000000000E+00  0.00000000000E+00 -0.13459513123E+04  0.13459513123E+04  0.50400001928E-02 0. -1.
    10030    2    1    2    0    0  0.00000000000E+00  0.00000000000E+00  0.22260630617E+03  0.29145089308E+04  0.29059953097E+04 0.  0.
        5    1    3    3  502    0 -0.10938839607E+04 -0.51093932731E+03  0.92208913098E+03  0.15191812174E+04  0.46999998093E+01 0.  1.
       -5    1    3    3    0  502  0.10938839607E+04  0.51093932731E+03 -0.69948282482E+03  0.13953277134E+04  0.46999998093E+01 0. -1.
</event>
<event>
 5   0  0.1918901E-05  0.2638249E+04  0.7818609E-02  0.8355324E-01
       -2   -1    0    0    0  501  0.00000000000E+00  0.00000000000E+00  0.10557136387E+04  0.10557136387E+04  0.25500000920E-02 0. -1.
        2   -1    0    0  501    0  0.00000000000E+00  0.00000000000E+00 -0.16482587078E+04  0.16482587078E+04  0.25500000920E-02 0.  1.
    10030    2    1    2    0    0  0.00000000000E+00  0.00000000000E+00 -0.59254506914E+03  0.27039723464E+04  0.26382488115E+04 0.  0.
        1    1    3    3  502    0 -0.12899169452E+04  0.14829260507E+03 -0.57635789743E+02  0.12996916197E+04  0.50400001928E-02 0. -1.
       -1    1    3    3    0  502  0.12899169452E+04 -0.14829260507E+03 -0.53490927939E+03  0.14042807267E+04  0.50400001928E-02 0.  1.
</event>
<event>
 5   0  0.1937947E-05  0.2880385E+04  0.7818609E-02  0.8278738E-01
        2   -1    0    0  501    0  0.00000000000E+00  0.00000000000E+00  0.87763186331E+03  0.87763186332E+03  0.25500000920E-02 0.  1.
       -2   -1    0    0    0  501  0.00000000000E+00  0.00000000000E+00 -0.23633529029E+04  0.23633529029E+04  0.25500000920E-02 0. -1.
    10030    2    1    2    0    0  0.00000000000E+00  0.00000000000E+00 -0.14857210396E+04  0.32409847663E+04  0.28803845659E+04 0.  0.
        3    1    3    3  502    0 -0.74817811873E+03 -0.65661875077E+03  0.42822303040E+03  0.10836483079E+04  0.10100000352E+00 0.  1.
       -3    1    3    3    0  502  0.74817811873E+03  0.65661875077E+03 -0.19139440700E+04  0.21573364584E+04  0.10100000352E+00 0. -1.
</event>
<event>
 5   0  0.1976233E-05  0.2936718E+04  0.7818609E-02  0.8262036E-01
        2   -1    0    0  501    0  0.00000000000E+00  0.00000000000E+00  0.19564447309E+04  0.19564447309E+04  0.25500000920E-02 0.  1.
       -2   -1    0    0    0  501  0.00000000000E+00  0.00000000000E+00 -0.11020390594E+04  0.11020390594E+04  0.25500000920E-02 0. -1.
    10030    2    1    2    0    0  0.00000000000E+00  0.00000000000E+00  0.85440567156E+03  0.30584837903E+04  0.29367182439E+04 0.  0.
        2    1    3    3  502    0  0.10873975018E+04  0.47530793519E+03  0.13277689329E+04  0.17808204006E+04  0.25500000920E-02 0.  1.
       -2    1    3    3    0  502 -0.10873975018E+04 -0.47530793519E+03 -0.47336326137E+03  0.12776633897E+04  0.25500000920E-02 0. -1.
</event>
<event>
 5   0  0.8055928E-06  0.2033413E+04  0.7818609E-02  0.8591156E-01
        1   -1    0    0  501    0  0.00000000000E+00  0.00000000000E+00  0.14853779746E+04  0.14853779747E+04  0.50400001928E-02 0.  1.
       -1   -1    0    0    0  501  0.00000000000E+00  0.00000000000E+00 -0.69591170497E+03  0.69591170499E+03  0.50400001928E-02 0. -1.
    10030    2    1    2    0    0  0.00000000000E+00  0.00000000000E+00  0.78946626968E+03  0.21812896796E+04  0.20334128148E+04 0.  0.
        2    1    3    3  502    0 -0.71346941958E+03 -0.30427809217E+03 -0.31038829606E+03  0.83544279540E+03  0.25500000920E-02 0. -1.
       -2    1    3    3    0  502  0.71346941958E+03  0.30427809217E+03  0.10998545657E+04  0.13458468842E+04  0.25500000920E-02 0.  1.
</event>
<event>
 5   0  0.1960961E-05  0.2888738E+04  0.7818609E-02  0.8276236E-01
       -2   -1    0    0    0  501  0.00000000000E+00  0.00000000000E+00  0.17540861406E+04  0.17540861406E+04  0.25500000920E-02 0. -1.
        2   -1    0    0  501    0  0.00000000000E+00  0.00000000000E+00 -0.11893385470E+04  0.11893385470E+04  0.25500000920E-02 0.  1.
    10030    2    1    2    0    0  0.00000000000E+00  0.00000000000E+00  0.56474759363E+03  0.29434246876E+04  0.28887383141E+04 0.  0.
        5    1    3    3  502    0  0.49546049586E+03  0.16308202491E+03 -0.10900104865E+04  0.12083963756E+04  0.46999998093E+01 0.  1.
       -5    1    3    3    0  502 -0.49546049586E+03 -0.16308202491E+03  0.16547580801E+04  0.17350283120E+04  0.46999998093E+01 0. -1.
</event>
<event>
 5   0  0.1960961E-05  0.2843512E+04  0.7818609E-02  0.8289885E-01
       -2   -1    0    0    0  501  0.00000000000E+00  0.00000000000E+00  0.13169561524E+04  0.13169561524E+04  0.25500000920E-02 0. -1.
        2   -1    0    0  501    0  0.00000000000E+00  0.00000000000E+00 -0.15348957031E+04  0.15348957031E+04  0.25500000920E-02 0.  1.
    10030    2    1    2    0    0  0.00000000000E+00  0.00000000000E+00 -0.21793955072E+03  0.28518518555E+04  0.28435121519E+04 0.  0.
        5    1    3    3  502    0  0.78227586042E+03 -0.11580392194E+04 -0.37119001534E+03  0.14459648934E+04  0.46999998093E+01 0. -1.
       -5    1    3    3    0  502 -0.78227586042E+03  0.11580392194E+04  0.15325046462E+03  0.14058869621E+04  0.46999998093E+01 0.  1.
</event>
<event>
 5   0  0.1918901E-05  0.2250635E+04  0.7818609E-02  0.8497644E-01
        2   -1    0    0  501    0  0.00000000000E+00  0.00000000000E+00  0.15340998810E+04  0.15340998810E+04  0.25500000920E-02 0.  1.
       -2   -1    0    0    0  501  0.00000000000E+00  0.00000000000E+00 -0.82546065820E+03  0.82546065820E+03  0.25500000920E-02 0. -1.
    10030    2    1    2    0    0  0.00000000000E+00  0.00000000000E+00  0.70863922282E+03  0.23595605392E+04  0.22506346639E+04 0.  0.
        1    1    3    3  502    0  0.77022464517E+03 -0.77329510606E+03  0.64164140039E+03  0.12660706978E+04  0.50400001928E-02 0.  1.
       -1    1    3    3    0  502 -0.77022464517E+03  0.77329510606E+03  0.66997822421E+02  0.10934898414E+04  0.50400001928E-02 0. -1.
</event>
<event>
 5   0  0.1829810E-05  0.2873903E+04  0.7818609E-02  0.8280685E-01
       -2   -1    0    0    0  501  0.00000000000E+00  0.00000000000E+00  0.11130891044E+04  0.11130891044E+04  0.25500000920E-02 0. -1.
        2   -1    0    0  501    0  0.00000000000E+00  0.00000000000E+00 -0.18550448297E+04  0.18550448297E+04  0.25500000920E-02 0.  1.
    10030    2    1    2    0    0  0.00000000000E+00  0.00000000000E+00 -0.74195572531E+03  0.29681339342E+04  0.28739034001E+04 0.  0.
        4    1    3    3  502    0 -0.70394219064E+02  0.67421655988E+03 -0.16795273218E+04  0.18111700509E+04  0.12699999809E+01 0.  1.
       -4    1    3    3    0  502  0.70394219064E+02 -0.67421655988E+03  0.93757159652E+03  0.11569638833E+04  0.12699999809E+01 0. -1.
</event>
<event>
 5   0  0.8055928E-06  0.2829250E+04  0.7818609E-02  0.8294244E-01
       -1   -1    0    0    0  501  0.00000000000E+00  0.00000000000E+00  0.19000483687E+04  0.19000483687E+04  0.50400001928E-02 0.  1.
        1   -1    0    0  501    0  0.00000000000E+00  0.00000000000E+00 -0.10532177069E+04  0.10532177069E+04  0.50400001928E-02 0. -1.
    10030    2    1    2    0    0  0.00000000000E+00  0.00000000000E+00  0.84683066183E+03  0.29532660756E+04  0.28292504914E+04 0.  0.
        2    1    3    3  502    0  0.12591373666E+04 -0.12951813488E+03  0.10827369865E+04  0.16656894180E+04  0.25500000920E-02 0. -1.
       -2    1    3    3    0  502 -0.12591373666E+04  0.12951813488E+03 -0.23590632466E+03  0.12875766576E+04  0.25500000920E-02 0.  1.
</event>
<event>
 5   0  0.8055928E-06  0.2978447E+04  0.7818609E-02  0.8249912E-01
       -1   -1    0    0    0  501  0.00000000000E+00  0.00000000000E+00  0.15197495527E+04  0.15197495527E+04  0.50400001928E-02 0. -1.
        1   -1    0    0  501    0  0.00000000000E+00  0.00000000000E+00 -0.14593109810E+04  0.14593109811E+04  0.50400001928E-02 0.  1.
    10030    2    1    2    0    0  0.00000000000E+00  0.00000000000E+00  0.60438571694E+02  0.29790605338E+04  0.29784473880E+04 0.  0.
        2    1    3    3  502    0 -0.39330328777E+03 -0.13393559136E+03 -0.14001663670E+04  0.14605108949E+04  0.25500000920E-02 0.  1.
       -2    1    3    3    0  502  0.39330328777E+03  0.13393559136E+03  0.14606049387E+04  0.15185496389E+04  0.25500000920E-02 0. -1.
</event>
<event>
 5   0  0.1960961E-05  0.2460807E+04  0.7818609E-02  0.8417083E-01
       -2   -1    0    0    0  501  0.00000000000E+00  0.00000000000E+00  0.97100708291E+03  0.97100708292E+03  0.25500000920E-02 0.  1.
        2   -1    0    0  501    0  0.00000000000E+00  0.00000000000E+00 -0.15590950346E+04  0.15590950346E+04  0.25500000920E-02 0. -1.
    10030    2    1    2    0    0  0.00000000000E+00  0.00000000000E+00 -0.58808795164E+03  0.25301021175E+04  0.24608066332E+04 0.  0.
        5    1    3    3  502    0  0.10482660389E+04 -0.23059892434E+03 -0.91250801901E+03  0.14088046447E+04  0.46999998093E+01 0. -1.
       -5    1    3    3    0  502 -0.10482660389E+04  0.23059892434E+03  0.32442006737E+03  0.11212974727E+04  0.46999998093E+01 0.  1.
</event>
<event>
 5   0  0.1937947E-05  0.2653644E+04  0.7818609E-02  0.8350205E-01
        2   -1    0    0  501    0  0.00000000000E+00  0.00000000000E+00  0.19824141276E+04  0.19824141276E+04  0.25500000920E-02 0. -1.
       -2   -1    0    0    0  501  0.00000000000E+00  0.00000000000E+00 -0.88803658320E+03  0.88803658321E+03  0.25500000920E-02 0.  1.
    10030    2    1    2    0    0  0.00000000000E+00  0.00000000000E+00  0.10943775444E+04  0.28704507108E+04  0.26536437352E+04 0.  0.
        3    1    3    3  502    0 -0.42569991903E+03 -0.89010106840E+03  0.15067720750E+04  0.18010725774E+04  0.10100000352E+00 0. -1.
       -3    1    3    3    0  502  0.42569991903E+03  0.89010106840E+03 -0.41239453060E+03  0.10693781334E+04  0.10100000352E+00 0.  1.
</event>
<event>
 5   0  0.8055928E-06  0.2831809E+04  0.7818609E-02  0.8293461E-01
        1   -1    0    0  501    0  0.00000000000E+00  0.00000000000E+00  0.21442622030E+04  0.21442622030E+04  0.50400001928E-02 0.  1.
       -1   -1    0    0    0  501  0.00000000000E+00  0.00000000000E+00 -0.93495327046E+03  0.93495327047E+03  0.50400001928E-02 0. -1.
    10030    2    1    2    0    0  0.00000000000E+00  0.00000000000E+00  0.12093089325E+04  0.30792154735E+04  0.28318085807E+04 0.  0.
        2    1    3    3  502    0  0.10433562162E+03 -0.14028515809E+04  0.42963740539E+03  0.14708727954E+04  0.25500000920E-02 0. -1.
       -2    1    3    3    0  502 -0.10433562162E+03  0.14028515809E+04  0.77967152714E+03  0.16083426781E+04  0.25500000920E-02 0.  1.
</event>
<event>
 5   0  0.1829810E-05  0.2842661E+04  0.7818609E-02  0.8290145E-01
       -2   -1    0    0    0  501  0.00000000000E+00  0.00000000000E+00  0.76245903437E+03  0.76245903438E+03  0.25500000920E-02 0.  1.
        2   -1    0    0  501    0  0.00000000000E+00  0.00000000000E+00 -0.26495596053E+04  0.26495596053E+04  0.25500000920E-02 0. -1.
    10030    2    1    2    0    0  0.00000000000E+00  0.00000000000E+00 -0.18871005709E+04  0.34120186397E+04  0.28426611885E+04 0.  0.
        4    1    3    3  502    0  0.16580589397E+03  0.11304813383E+04 -0.19582744485E+04  0.22672273991E+04  0.12699999809E+01 0. -1.
       -4    1    3    3    0  502 -0.16580589397E+03 -0.11304813383E+04  0.71173877639E+02  0.11447912405E+04  0.12699999809E+01 0.  1.
</event>
<event>
 5   0  0.7305460E-06  0.2871454E+04  0.7818609E-02  0.8281422E-01
        1   -1    0    0  501    0  0.00000000000E+00  0.00000000000E+00  0.17350561143E+04  0.17350561143E+04  0.50400001928E-02 0. -1.
       -1   -1    0    0    0  501  0.00000000000E+00  0.00000000000E+00 -0.11880378826E+04  0.11880378826E+04  0.50400001928E-02 0.  1.
    10030    2    1    2    0    0  0.00000000000E+00  0.00000000000E+00  0.54701823173E+03  0.29230939969E+04  0.28714542603E+04 0.  0.
        4    1    3    3  502    0 -0.13238805015E+04  0.48171092532E+03  0.55526412912E+03  0.15142737083E+04  0.12699999809E+01 0.  1.
       -4    1    3    3    0  502  0.13238805015E+04 -0.48171092532E+03 -0.82458973888E+01  0.14088202886E+04  0.12699999809E+01 0. -1.
</event>
<event>
 5   0  0.8234888E-06  0.2874182E+04  0.7818609E-02  0.8280601E-01
       -1   -1    0    0    0  501  0.00000000000E+00  0.00000000000E+00  0.68012396827E+03  0.68012396829E+03  0.50400001928E-02 0. -1.
        1   -1    0    0  501    0  0.00000000000E+00  0.00000000000E+00 -0.30365495590E+04  0.30365495590E+04  0.50400001928E-02 0.  1.
    10030    2    1    2    0    0  0.00000000000E+00  0.00000000000E+00 -0.23564255907E+04  0.37166735273E+04  0.28741817173E+04 0.  0.
        3    1    3    3  502    0 -0.21072259884E+03  0.65877437141E+02  0.65806265075E+03  0.69411116754E+03  0.10100000352E+00 0. -1.
       -3    1    3    3    0  502  0.21072259884E+03 -0.65877437141E+02 -0.30144882415E+04  0.30225623598E+04  0.10100000352E+00 0.  1.
</event>
<event>
 5   0  0.1918901E-05  0.1455654E+04  0.7818609E-02  0.8914490E-01
       -2   -1    0    0    0  501  0.00000000000E+00  0.00000000000E+00  0.97039757185E+03  0.97039757185E+03  0.25500000920E-02 0.  1.
        2   -1    0    0  501    0  0.00000000000E+00  0.00000000000E+00 -0.54589219629E+03  0.54589219629E+03  0.25500000920E-02 0. -1.
    10030    2    1    2    0    0  0.00000000000E+00  0.00000000000E+00  0.42450537556E+03  0.15162897681E+04  0.14556544395E+04 0.  0.
        1    1    3    3  502    0  0.61703233642E+03  0.14280908452E+03 -0.16130682768E+03  0.65356195689E+03  0.50400001928E-02 0. -1.
       -1    1    3    3    0  502 -0.61703233642E+03 -0.14280908452E+03  0.58581220324E+03  0.86272781125E+03  0.50400001928E-02 0.  1.
</event>
<event>
 5   0  0.8055928E-06  0.2953277E+04  0.7818609E-02  0.8257200E-01
        1   -1    0    0  501    0  0.00000000000E+00  0.00000000000E+00  0.19540261943E+04  0.19540261943E+04  0.50400001928E-02 0. -1.
       -1   -1    0    0    0  501  0.00000000000E+00  0.00000000000E+00 -0.11158812947E+04  0.11158812947E+04  0.50400001928E-02 0.  1.
    10030    2    1    2    0    0  0.00000000000E+00  0.00000000000E+00  0.83814489960E+03  0.30699074890E+04  0.29532770134E+04 0.  0.
        2    1    3    3  502    0  0.36255324394E+02 -0.14761860646E+04  0.42389614112E+03  0.15362707067E+04  0.25500000920E-02 0. -1.
       -2    1    3    3    0  502 -0.36255324394E+02  0.14761860646E+04  0.41424875848E+03  0.15336367822E+04  0.25500000920E-02 0.  1.
</event>
<event>
 5   0  0.1918901E-05  0.2877502E+04  0.7818609E-02  0.8279603E-01
       -2   -1    0    0    0  501  0.00000000000E+00  0.00000000000E+00  0.12313012684E+04  0.12313012684E+04  0.25500000920E-02 0. -1.
        2   -1    0    0  501    0  0.00000000000E+00  0.00000000000E+00 -0.16811523047E+04  0.16811523047E+04  0.25500000920E-02 0.  1.
    10030    2    1    2    0    0  0.00000000000E+00  0.00000000000E+00 -0.44985103627E+03  0.29124535731E+04  0.28775023651E+04 0.  0.
        1    1    3    3  502    0  0.45873061313E+03  0.86608568630E+03 -0.12910317257E+04  0.16208951565E+04  0.50400001928E-02 0.  1.
       -1    1    3    3    0  502 -0.45873061313E+03 -0.86608568630E+03  0.84118068942E+03  0.12915584167E+04  0.50400001928E-02 0. -1.
</event>
<event>
 5   0  0.1937947E-05  0.2616037E+04  0.7818609E-02  0.8362774E-01
       -2   -1    0    0    0  501  0.00000000000E+00  0.00000000000E+00  0.78370109035E+03  0.78370109036E+03  0.25500000920E-02 0. -1.
        2   -1    0    0  501    0  0.00000000000E+00  0.00000000000E+00 -0.21831180608E+04  0.21831180608E+04  0.25500000920E-02 0.  1.
    10030    2    1    2    0    0  0.00000000000E+00  0.00000000000E+00 -0.13994169705E+04  0.29668191512E+04  0.26160367005E+04 0.  0.
        3    1    3    3  502    0 -0.58168087728E+03 -0.63002738053E+03  0.42047371759E+03  0.95503157047E+03  0.10100000352E+00 0. -1.
       -3    1    3    3    0  502  0.58168087728E+03  0.63002738053E+03 -0.18198906881E+04  0.20117875807E+04  0.10100000352E+00 0.  1.
</event>
<event>
 5   0  0.8122088E-06  0.1458843E+04  0.7818609E-02  0.8912293E-01
       -1   -1    0    0    0  501  0.00000000000E+00  0.00000000000E+00  0.37911415222E+03  0.37911415225E+03  0.50400001928E-02 0. -1.
        1   -1    0    0  501    0  0.00000000000E+00  0.00000000000E+00 -0.14034178275E+04  0.14034178275E+04  0.50400001928E-02 0.  1.
    10030    2    1    2    0    0  0.00000000000E+00  0.00000000000E+00 -0.10243036753E+04  0.17825319798E+04  0.14588427742E+04 0.  0.
        1    1    3    3  502    0 -0.13867162017E+03 -0.11982992565E+02 -0.13870408046E+04  0.13940070316E+04  0.50400001928E-02 0.  1.
       -1    1    3    3    0  502  0.13867162017E+03  0.11982992565E+02  0.36273712933E+03  0.38852494820E+03  0.50400001928E-02 0. -1.
</event>
<event>
 5   0  0.8122088E-06  0.2466274E+04  0.7818609E-02  0.8415100E-01
       -1   -1    0    0    0  501  0.00000000000E+00  0.00000000000E+00  0.14600771113E+04  0.14600771113E+04  0.50400001928E-02 0. -1.
        1   -1    0    0  501    0  0.00000000000E+00  0.00000000000E+00 -0.10414700928E+04  0.10414700928E+04  0.50400001928E-02 0.  1.
    10030    2    1    2    0    0  0.00000000000E+00  0.00000000000E+00  0.41860701856E+03  0.25015472041E+04  0.24662738247E+04 0.  0.
        1    1    3    3  502    0  0.51459863083E+03 -0.11079574508E+04  0.38836795089E+02  0.12222478309E+04  0.50400001928E-02 0.  1.
       -1    1    3    3    0  502 -0.51459863083E+03  0.11079574508E+04  0.37977022347E+03  0.12792993732E+04  0.50400001928E-02 0. -1.
</event>
<event>
 5   0  0.1918901E-05  0.2700656E+04  0.7818609E-02  0.8334792E-01
       -2   -1    0    0    0  501  0.00000000000E+00  0.00000000000E+00  0.76475535556E+03  0.76475535556E+03  0.25500000920E-02 0.  1.
        2   -1    0    0  501    0  0.00000000000E+00  0.00000000000E+00 -0.23842729761E+04  0.23842729761E+04  0.25500000920E-02 0. -1.
    10030    2    1    2    0    0  0.00000000000E+00  0.00000000000E+00 -0.16195176206E+04  0.31490283317E+04  0.27006558667E+04 0.  0.
        1    1    3    3  502    0  0.64179688446E+03  0.56766304524E+03  0.40718156850E+03  0.94865241453E+03  0.50400001928E-02 0.  1.
       -1    1    3    3    0  502 -0.64179688446E+03 -0.56766304524E+03 -0.20266991891E+04  0.22003759172E+04  0.50400001928E-02 0. -1.
</event>
<event>
 5   0  0.8055928E-06  0.2836351E+04  0.7818609E-02  0.8292071E-01
        1   -1    0    0  501    0  0.00000000000E+00  0.00000000000E+00  0.15267274302E+04  0.15267274302E+04  0.50400001928E-02 0. -1.
       -1   -1    0    0    0  501  0.00000000000E+00  0.00000000000E+00 -0.13173415936E+04  0.13173415936E+04  0.50400001928E-02 0.  1.
    10030    2    1    2    0    0  0.00000000000E+00  0.00000000000E+00  0.20938583657E+03  0.28440690238E+04  0.28363508569E+04 0.  0.
        2    1    3    3  502    0 -0.77137929683E+03  0.23543955055E+02  0.12977377899E+04  0.15098687720E+04  0.25500000920E-02 0. -1.
       -2    1    3    3    0  502  0.77137929683E+03 -0.23543955055E+02 -0.10883519534E+04  0.13342002517E+04  0.25500000920E-02 0.  1.
</event>
<event>
 5   0  0.8122088E-06  0.2964898E+04  0.7818609E-02  0.8253826E-01
        1   -1    0    0  501    0  0.00000000000E+00  0.00000000000E+00  0.15173579269E+04  0.15173579269E+04  0.50400001928E-02 0.  1.
       -1   -1    0    0    0  501  0.00000000000E+00  0.00000000000E+00 -0.14483436521E+04  0.14483436521E+04  0.50400001928E-02 0. -1.
    10030    2    1    2    0    0  0.00000000000E+00  0.00000000000E+00  0.69014274831E+02  0.29657015790E+04  0.29648984613E+04 0.  0.
        1    1    3    3  502    0  0.11457460884E+04  0.75644226541E+01 -0.90641998117E+03  0.14609546543E+04  0.50400001928E-02 0. -1.
       -1    1    3    3    0  502 -0.11457460884E+04 -0.75644226541E+01  0.97543425600E+03  0.15047469247E+04  0.50400001928E-02 0.  1.
</event>
<event>
 5   0  0.1937947E-05  0.2406338E+04  0.7818609E-02  0.8437135E-01
       -2   -1    0    0    0  501  0.00000000000E+00  0.00000000000E+00  0.82977843114E+03  0.82977843114E+03  0.25500000920E-02 0. -1.
        2   -1    0    0  501    0  0.00000000000E+00  0.00000000000E+00 -0.17445806784E+04  0.17445806784E+04  0.25500000920E-02 0.  1.
    10030    2    1    2    0    0  0.00000000000E+00  0.00000000000E+00 -0.91480224730E+03  0.25743591096E+04  0.24063378137E+04 0.  0.
        3    1    3    3  502    0 -0.29902841210E+01  0.36610235924E+02  0.82917842837E+03  0.82999164300E+03  0.10100000352E+00 0. -1.
       -3    1    3    3    0  502  0.29902841210E+01 -0.36610235924E+02 -0.17439806757E+04  0.17443674666E+04  0.10100000352E+00 0.  1.
</event>
<event>
 5   0  0.7305460E-06  0.2984399E+04  0.7818609E-02  0.8248200E-01
       -1   -1    0    0    0  501  0.00000000000E+00  0.00000000000E+00  0.12584538661E+04  0.12584538661E+04  0.50400001928E-02 0.  1.
        1   -1    0    0  501    0  0.00000000000E+00  0.00000000000E+00 -0.17693608573E+04  0.17693608573E+04  0.50400001928E-02 0. -1.
    10030    2    1    2    0    0  0.00000000000E+00  0.00000000000E+00 -0.51090699119E+03  0.30278147234E+04  0.29843987746E+04 0.  0.
        4    1    3    3  502    0  0.93322140985E+02 -0.14157106335E+04  0.21356144006E+03  0.14347667830E+04  0.12699999809E+01 0.  1.
       -4    1    3    3    0  502 -0.93322140985E+02  0.14157106335E+04 -0.72446843125E+03  0.15930479405E+04  0.12699999809E+01 0. -1.
</event>
<event>
 5   0  0.7305460E-06  0.1457880E+04  0.7818609E-02  0.8912956E-01
        1   -1    0    0  501    0  0.00000000000E+00  0.00000000000E+00  0.85870427748E+03  0.85870427750E+03  0.50400001928E-02 0. -1.
       -1   -1    0    0    0  501  0.00000000000E+00  0.00000000000E+00 -0.61878512292E+03  0.61878512294E+03  0.50400001928E-02 0.  1.
    10030    2    1    2    0    0  0.00000000000E+00  0.00000000000E+00  0.23991915456E+03  0.14774894004E+04  0.14578798742E+04 0.  0.
        4    1    3    3  502    0  0.45426190155E+02  0.52024413204E+03  0.63536111869E+03  0.82243714636E+03  0.12699999809E+01 0. -1.
       -4    1    3    3    0  502 -0.45426190155E+02 -0.52024413204E+03 -0.39544196413E+03  0.65505225408E+03  0.12699999809E+01 0.  1.
</event>
<event>
 5   0  0.7305460E-06  0.2957418E+04  0.7818609E-02  0.8255996E-01
        1   -1    0    0  501    0  0.00000000000E+00  0.00000000000E+00  0.12604864351E+04  0.12604864351E+04  0.50400001928E-02 0.  1.
       -1   -1    0    0    0  501  0.00000000000E+00  0.00000000000E+00 -0.17347117446E+04  0.17347117446E+04  0.50400001928E-02 0. -1.
    10030    2    1    2    0    0  0.00000000000E+00  0.00000000000E+00 -0.47422530951E+03  0.29951981797E+04  0.29574182139E+04 0.  0.
        4    1    3    3  502    0  0.55330749019E+03 -0.83627745226E+02  0.11491077187E+04  0.12781208630E+04  0.12699999809E+01 0.  1.
       -4    1    3    3    0  502 -0.55330749019E+03  0.83627745226E+02 -0.16233330282E+04  0.17170773167E+04  0.12699999809E+01 0. -1.
</event>
<event>
 5   0  0.1976233E-05  0.1491080E+04  0.7818609E-02  0.8890407E-01
        2   -1    0    0  501    0  0.00000000000E+00  0.00000000000E+00  0.16540069427E+04  0.16540069427E+04  0.25500000920E-02 0. -1.
       -2   -1    0    0    0  501  0.00000000000E+00  0.00000000000E+00 -0.33605041105E+03  0.33605041106E+03  0.25500000920E-02 0.  1.
    10030    2    1    2    0    0  0.00000000000E+00  0.00000000000E+00  0.13179565316E+04  0.19900573537E+04  0.14910797604E+04 0.  0.
        2    1    3    3  502    0 -0.15427144196E+03  0.54082126025E+03  0.13121929148E+04  0.14276335521E+04  0.25500000920E-02 0. -1.
       -2    1    3    3    0  502  0.15427144196E+03 -0.54082126025E+03  0.57636167699E+01  0.56242380162E+03  0.25500000920E-02 0.  1.
</event>
<event>
 5   0  0.1829810E-05  0.2944383E+04  0.7818609E-02  0.8259793E-01
       -2   -1    0    0    0  501  0.00000000000E+00  0.00000000000E+00  0.13880498785E+04  0.13880498785E+04  0.25500000920E-02 0. -1.
        2   -1    0    0  501    0  0.00000000000E+00  0.00000000000E+00 -0.15614338599E+04  0.15614338599E+04  0.25500000920E-02 0.  1.
    10030    2    1    2    0    0  0.00000000000E+00  0.00000000000E+00 -0.17338398147E+03  0.29494837384E+04  0.29443831813E+04 0.  0.
        4    1    3    3  502    0  0.70643417426E+03  0.33318685124E+03 -0.13367655034E+04  0.15482268388E+04  0.12699999809E+01 0.  1.
       -4    1    3    3    0  502 -0.70643417426E+03 -0.33318685124E+03  0.11633815219E+04  0.14012568996E+04  0.12699999809E+01 0. -1.
</event>
<event>
 5   0  0.1937947E-05  0.2832586E+04  0.7818609E-02  0.8293222E-01
        2   -1    0    0  501    0  0.00000000000E+00  0.00000000000E+00  0.19292543079E+04  0.19292543079E+04  0.25500000920E-02 0. -1.
       -2   -1    0    0    0  501  0.00000000000E+00  0.00000000000E+00 -0.10397210066E+04  0.10397210066E+04  0.25500000920E-02 0.  1.
    10030    2    1    2    0    0  0.00000000000E+00  0.00000000000E+00  0.88953330129E+03  0.29689753145E+04  0.28325862606E+04 0.  0.
        3    1    3    3  502    0 -0.10207728178E+04  0.21609816674E+03 -0.55905830565E+03  0.11837321330E+04  0.10100000352E+00 0.  1.
       -3    1    3    3    0  502  0.10207728178E+04 -0.21609816674E+03  0.14485916069E+04  0.17852431815E+04  0.10100000352E+00 0. -1.
</event>
<event>
 5   0  0.8234888E-06  0.2894575E+04  0.7818609E-02  0.8274493E-01
        1   -1    0    0  501    0  0.00000000000E+00  0.00000000000E+00  0.22912602021E+04  0.22912602021E+04  0.50400001928E-02 0.  1.
       -1   -1    0    0    0  501  0.00000000000E+00  0.00000000000E+00 -0.91418766145E+03  0.91418766146E+03  0.50400001928E-02 0. -1.
    10030    2    1    2    0    0  0.00000000000E+00  0.00000000000E+00  0.13770725407E+04  0.32054478636E+04  0.28945754825E+04 0.  0.
        3    1    3    3  502    0 -0.17538633586E+03 -0.89688655626E+03 -0.55425666261E+03  0.10688153816E+04  0.10100000352E+00 0. -1.
       -3    1    3    3    0  502  0.17538633586E+03  0.89688655626E+03  0.19313292033E+04  0.21366324820E+04  0.10100000352E+00 0.  1.
</event>
<event>
 5   0  0.1937947E-05  0.2996702E+04  0.7818609E-02  0.8244673E-01
        2   -1    0    0  501    0  0.00000000000E+00  0.00000000000E+00  0.23952646425E+04  0.23952646425E+04  0.25500000920E-02 0.  1.
       -2   -1    0    0    0  501  0.00000000000E+00  0.00000000000E+00 -0.93728906590E+03  0.93728906590E+03  0.25500000920E-02 0. -1.
    10030    2    1    2    0    0  0.00000000000E+00  0.00000000000E+00  0.14579755766E+04  0.33325537084E+04  0.29967017598E+04 0.  0.
        3    1    3    3  502    0  0.10458875749E+04 -0.42781098112E+03 -0.36523429144E+03  0.11875601681E+04  0.10100000352E+00 0. -1.
       -3    1    3    3    0  502 -0.10458875749E+04  0.42781098112E+03  0.18232098680E+04  0.21449935403E+04  0.10100000352E+00 0.  1.
</event>
<event>
 5   0  0.1976233E-05  0.2854259E+04  0.7818609E-02  0.8286618E-01
        2   -1    0    0  501    0  0.00000000000E+00  0.00000000000E+00  0.14307212396E+04  0.14307212396E+04  0.25500000920E-02 0. -1.
       -2   -1    0    0    0  501  0.00000000000E+00  0.00000000000E+00 -0.14235472400E+04  0.14235472400E+04  0.25500000920E-02 0.  1.
    10030    2    1    2    0    0  0.00000000000E+00  0.00000000000E+00  0.71739996001E+01  0.28542684796E+04  0.28542594640E+04 0.  0.
        2    1    3    3  502    0  0.10383528926E+04 -0.81007562371E+02  0.97927461941E+03  0.14295865608E+04  0.25500000920E-02 0. -1.
       -2    1    3    3    0  502 -0.10383528926E+04  0.81007562371E+02 -0.97210061981E+03  0.14246819188E+04  0.25500000920E-02 0.  1.
</event>
<event>
 5   0  0.8234888E-06  0.2828395E+04  0.7818609E-02  0.8294507E-01
        1   -1    0    0  501    0  0.00000000000E+00  0.00000000000E+00  0.18199607335E+04  0.18199607335E+04  0.50400001928E-02 0.  1.
       -1   -1    0    0    0  501  0.00000000000E+00  0.00000000000E+00 -0.10988994716E+04  0.10988994716E+04  0.50400001928E-02 0. -1.
    10030    2    1    2    0    0  0.00000000000E+00  0.00000000000E+00  0.72106126191E+03  0.29188602051E+04  0.28283945187E+04 0.  0.
        3    1    3    3  502    0 -0.12321979265E+04 -0.57777625944E+03  0.75729724549E+03  0.15574454290E+04  0.10100000352E+00 0.  1.
       -3    1    3    3    0  502  0.12321979265E+04  0.57777625944E+03 -0.36235983588E+02  0.13614147761E+04  0.10100000352E+00 0. -1.
</event>
<event>
 5   0  0.1960961E-05  0.2936432E+04  0.7818609E-02  0.8262120E-01
        2   -1    0    0  501    0  0.00000000000E+00  0.00000000000E+00  0.22683070158E+04  0.22683070158E+04  0.25500000920E-02 0. -1.
       -2   -1    0    0    0  501  0.00000000000E+00  0.00000000000E+00 -0.95033770318E+03  0.95033770319E+03  0.25500000920E-02 0.  1.
    10030    2    1    2    0    0  0.00000000000E+00  0.00000000000E+00  0.13179693126E+04  0.32186447190E+04  0.29364316301E+04 0.  0.
        5    1    3    3  502    0 -0.98154179701E+03  0.10007634860E+04  0.11376257397E+04  0.18053161130E+04  0.46999998093E+01 0. -1.
       -5    1    3    3    0  502  0.98154179701E+03 -0.10007634860E+04  0.18034357297E+03  0.14133286060E+04  0.46999998093E+01 0.  1.
</event>
<event>
 5   0  0.6578125E-06  0.2888124E+04  0.7818609E-02  0.8276420E-01
        3   -1    0    0  501    0  0.00000000000E+00  0.00000000000E+00  0.26102511520E+04  0.26102511540E+04  0.10100000352E+00 0.  1.
       -3   -1    0    0    0  501  0.00000000000E+00  0.00000000000E+00 -0.79889440807E+03  0.79889441445E+03  0.10100000352E+00 0. -1.
    10030    2    1    2    0    0  0.00000000000E+00  0.00000000000E+00  0.18113567440E+04  0.34091455685E+04  0.28881240024E+04 0.  0.
        1    1    3    3  502    0 -0.11173418057E+04 -0.57812218395E+03  0.17425464021E+04  0.21492198431E+04  0.50400001928E-02 0.  1.
       -1    1    3    3    0  502  0.11173418057E+04  0.57812218395E+03  0.68810341855E+02  0.12599257254E+04  0.50400001928E-02 0. -1.
</event>
<event>
 5   0  0.1960961E-05  0.1482397E+04  0.7818609E-02  0.8896244E-01
        2   -1    0    0  501    0  0.00000000000E+00  0.00000000000E+00  0.53842803870E+03  0.53842803871E+03  0.25500000920E-02 0. -1.
       -2   -1    0    0    0  501  0.00000000000E+00  0.00000000000E+00 -0.10203321229E+04  0.10203321229E+04  0.25500000920E-02 0.  1.
    10030    2    1    2    0    0  0.00000000000E+00  0.00000000000E+00 -0.48190408421E+03  0.15587601616E+04  0.14823972798E+04 0.  0.
        5    1    3    3  502    0  0.12645077505E+03  0.62328560003E+03  0.15928455988E+03  0.65564349972E+03  0.46999998093E+01 0. -1.
       -5    1    3    3    0  502 -0.12645077505E+03 -0.62328560003E+03 -0.64118864409E+03  0.90311666191E+03  0.46999998093E+01 0.  1.
</event>
<event>
 5   0  0.1918901E-05  0.2790303E+04  0.7818609E-02  0.8306285E-01
        2   -1    0    0  501    0  0.00000000000E+00  0.00000000000E+00  0.17738248548E+04  0.17738248548E+04  0.25500000920E-02 0. -1.
       -2   -1    0    0    0  501  0.00000000000E+00  0.00000000000E+00 -0.10973171272E+04  0.10973171272E+04  0.25500000920E-02 0.  1.
    10030    2    1    2    0    0  0.00000000000E+00  0.00000000000E+00  0.67650772761E+03  0.28711419820E+04  0.27903034916E+04 0.  0.
        1    1    3    3  502    0 -0.82744278291E+03  0.54500047637E+02  0.14927286547E+04  0.17075920621E+04  0.50400001928E-02 0. -1.
       -1    1    3    3    0  502  0.82744278291E+03 -0.54500047637E+02 -0.81622092707E+03  0.11635499199E+04  0.50400001928E-02 0.  1.
</event>
<event>
 5   0  0.1829810E-05  0.2419367E+04  0.7818609E-02  0.8432288E-01
        2   -1    0    0  501    0  0.00000000000E+00  0.00000000000E+00  0.75938927100E+03  0.75938927101E+03  0.25500000920E-02 0.  1.
       -2   -1    0    0    0  501  0.00000000000E+00  0.00000000000E+00 -0.19269889681E+04  0.19269889681E+04  0.25500000920E-02 0. -1.
    10030    2    1    2    0    0  0.00000000000E+00  0.00000000000E+00 -0.11675996971E+04  0.26863782391E+04  0.24193674774E+04 0.  0.
        4    1    3    3  502    0 -0.14383060071E+03 -0.99179136902E+03 -0.13360627864E+04  0.16701505152E+04  0.12699999809E+01 0. -1.
       -4    1    3    3    0  502  0.14383060071E+03  0.99179136902E+03  0.16846308935E+03  0.10162277239E+04  0.12699999809E+01 0.  1.
</event>
<event>
 5   0  0.8234888E-06  0.2779109E+04  0.7818609E-02  0.8309784E-01
       -1   -1    0    0    0  501  0.00000000000E+00  0.00000000000E+00  0.15624899285E+04  0.15624899285E+04  0.50400001928E-02 0. -1.
        1   -1    0    0  501    0  0.00000000000E+00  0.00000000000E+00 -0.12357593462E+04  0.12357593462E+04  0.50400001928E-02 0.  1.
    10030    2    1    2    0    0  0.00000000000E+00  0.00000000000E+00  0.32673058229E+03  0.27982492747E+04  0.27791088734E+04 0.  0.
        3    1    3    3  502    0 -0.60492385484E+03  0.55504729690E+03  0.12921802669E+04  0.15309278965E+04  0.10100000352E+00 0. -1.
       -3    1    3    3    0  502  0.60492385484E+03 -0.55504729690E+03 -0.96544968461E+03  0.12673213782E+04  0.10100000352E+00 0.  1.
</event>
<event>
 5   0  0.7305460E-06  0.2909344E+04  0.7818609E-02  0.8270103E-01
        1   -1    0    0  501    0  0.00000000000E+00  0.00000000000E+00  0.18664800709E+04  0.18664800709E+04  0.50400001928E-02 0. -1.
       -1   -1    0    0    0  501  0.00000000000E+00  0.00000000000E+00 -0.11337222219E+04  0.11337222219E+04  0.50400001928E-02 0.  1.
    10030    2    1    2    0    0  0.00000000000E+00  0.00000000000E+00  0.73275784904E+03  0.30002022928E+04  0.29093435226E+04 0.  0.
        4    1    3    3  502    0  0.99590700844E+02 -0.18573360912E+03 -0.11178949574E+04  0.11375878120E+04  0.12699999809E+01 0.  1.
       -4    1    3    3    0  502 -0.99590700844E+02  0.18573360912E+03  0.18506528065E+04  0.18626144808E+04  0.12699999809E+01 0. -1.
</event>
<event>
 5   0  0.1918901E-05  0.2908301E+04  0.7818609E-02  0.8270412E-01
       -2   -1    0    0    0  501  0.00000000000E+00  0.00000000000E+00  0.10901879922E+04  0.10901879922E+04  0.25500000920E-02 0. -1.
        2   -1    0    0  501    0  0.00000000000E+00  0.00000000000E+00 -0.19396229133E+04  0.19396229133E+04  0.25500000920E-02 0.  1.
    10030    2    1    2    0    0  0.00000000000E+00  0.00000000000E+00 -0.84943492111E+03  0.30298109056E+04  0.29083009539E+04 0.  0.
        1    1    3    3  502    0  0.13572558367E+04  0.16007400854E+03 -0.94224908303E+03  0.16600001292E+04  0.50400001928E-02 0.  1.
       -1    1    3    3    0  502 -0.13572558367E+04 -0.16007400854E+03  0.92814161923E+02  0.13698107764E+04  0.50400001928E-02 0. -1.
</event>
<event>
 5   0  0.8122088E-06  0.2865361E+04  0.7818609E-02  0.8283259E-01
       -1   -1    0    0    0  501  0.00000000000E+00  0.00000000000E+00  0.90373802055E+03  0.90373802056E+03  0.50400001928E-02 0. -1.
        1   -1    0    0  501    0  0.00000000000E+00  0.00000000000E+00 -0.22712036709E+04  0.22712036709E+04  0.50400001928E-02 0.  1.
    10030    2    1    2    0    0  0.00000000000E+00  0.00000000000E+00 -0.13674656504E+04  0.31749416915E+04  0.28653607869E+04 0.  0.
        1    1    3    3  502    0 -0.12147814857E+04 -0.59866483665E+03 -0.12016517166E+04  0.18105414916E+04  0.50400001928E-02 0.  1.
       -1    1    3    3    0  502  0.12147814857E+04  0.59866483665E+03 -0.16581393374E+03  0.13644001999E+04  0.50400001928E-02 0. -1.
</event>
<event>
 5   0  0.1829810E-05  0.2968957E+04  0.7818609E-02  0.8252651E-01
       -2   -1    0    0    0  501  0.00000000000E+00  0.00000000000E+00  0.87194155333E+03  0.87194155334E+03  0.25500000920E-02 0.  1.
        2   -1    0    0  501    0  0.00000000000E+00  0.00000000000E+00 -0.25273219090E+04  0.25273219090E+04  0.25500000920E-02 0. -1.
    10030    2    1    2    0    0  0.00000000000E+00  0.00000000000E+00 -0.16553803556E+04  0.33992634623E+04  0.29689573868E+04 0.  0.
        4    1    3    3  502    0  0.12563809387E+04  0.40606347649E+03 -0.16044716911E+04  0.20779104001E+04  0.12699999809E+01 0. -1.
       -4    1    3    3    0  502 -0.12563809387E+04 -0.40606347649E+03 -0.50908664506E+02  0.13213530623E+04  0.12699999809E+01 0.  1.
</event>
<event>
 5   0  0.1937947E-05  0.2970693E+04  0.7818609E-02  0.8252149E-01
        2   -1    0    0  501    0  0.00000000000E+00  0.00000000000E+00  0.12513174225E+04  0.12513174225E+04  0.25500000920E-02 0.  1.
       -2   -1    0    0    0  501  0.00000000000E+00  0.00000000000E+00 -0.17631452792E+04  0.17631452792E+04  0.25500000920E-02 0. -1.
    10030    2    1    2    0    0  0.00000000000E+00  0.00000000000E+00 -0.51182785669E+03  0.30144627017E+04  0.29706931220E+04 0.  0.
        3    1    3    3  502    0  0.78642043393E+03  0.24248576540E+03 -0.15106592227E+04  0.17202754845E+04  0.10100000352E+00 0. -1.
       -3    1    3    3    0  502 -0.78642043393E+03 -0.24248576540E+03  0.99883136597E+03  0.12941872172E+04  0.10100000352E+00 0.  1.
</event>
<event>
 5   0  0.1960961E-05  0.2807659E+04  0.7818609E-02  0.8300895E-01
        2   -1    0    0  501    0  0.00000000000E+00  0.00000000000E+00  0.23304475274E+04  0.23304475274E+04  0.25500000920E-02 0. -1.
       -2   -1    0    0    0  501  0.00000000000E+00  0.00000000000E+00 -0.84564741521E+03  0.84564741522E+03  0.25500000920E-02 0.  1.
    10030    2    1    2    0    0  0.00000000000E+00  0.00000000000E+00  0.14848001122E+04  0.31760949426E+04  0.28076587598E+04 0.  0.
        5    1    3    3  502    0 -0.14571188314E+02  0.52898074548E+03 -0.72848963299E+03  0.90041778302E+03  0.46999998093E+01 0.  1.
       -5    1    3    3    0  502  0.14571188314E+02 -0.52898074548E+03  0.22132897451E+04  0.22756771596E+04  0.46999998093E+01 0. -1.
</event>
<event>
 5   0  0.7305460E-06  0.1765285E+04  0.7818609E-02  0.8724982E-01
       -1   -1    0    0    0  501  0.00000000000E+00  0.00000000000E+00  0.39553896853E+03  0.39553896857E+03  0.50400001928E-02 0. -1.
        1   -1    0    0  501    0  0.00000000000E+00  0.00000000000E+00 -0.19696101809E+04  0.19696101809E+04  0.50400001928E-02 0.  1.
    10030    2    1    2    0    0  0.00000000000E+00  0.00000000000E+00 -0.15740712124E+04  0.23651491495E+04  0.17652847696E+04 0.  0.
        4    1    3    3  502    0 -0.99820871971E+02  0.19637832573E+03  0.35811336686E+03  0.42044672638E+03  0.12699999809E+01 0. -1.
       -4    1    3    3    0  502  0.99820871971E+02 -0.19637832573E+03 -0.19321845792E+04  0.19447024231E+04  0.12699999809E+01 0.  1.
</event>
<event>
 5   0  0.7305460E-06  0.2888971E+04  0.7818609E-02  0.8276166E-01
        1   -1    0    0  501    0  0.00000000000E+00  0.00000000000E+00  0.16885989376E+04  0.16885989376E+04  0.50400001928E-02 0.  1.
       -1   -1    0    0    0  501  0.00000000000E+00  0.00000000000E+00 -0.12356626084E+04  0.12356626084E+04  0.50400001928E-02 0. -1.
    10030    2    1    2    0    0  0.00000000000E+00  0.00000000000E+00  0.45293632919E+03  0.29242615460E+04  0.28889711440E+04 0.  0.
        4    1    3    3  502    0  0.98900425425E+03 -0.10426985699E+04  0.79131741656E+02  0.14393099625E+04  0.12699999809E+01 0.  1.
       -4    1    3    3    0  502 -0.98900425425E+03  0.10426985699E+04  0.37380458754E+03  0.14849515835E+04  0.12699999809E+01 0. -1.
</event>
<event>
 5   0  0.8122088E-06  0.2840302E+04  0.7818609E-02  0.8290864E-01
       -1   -1    0    0    0  501  0.00000000000E+00  0.00000000000E+00  0.11155364973E+04  0.11155364973E+04  0.50400001928E-02 0. -1.
        1   -1    0    0  501    0  0.00000000000E+00  0.00000000000E+00 -0.18079450669E+04  0.18079450669E+04  0.50400001928E-02 0.  1.
    10030    2    1    2    0    0  0.00000000000E+00  0.00000000000E+00 -0.69240856964E+03  0.29234815642E+04  0.28403018904E+04 0.  0.
        1    1    3    3  502    0  0.97622315511E+03 -0.15817427873E+03  0.70285830437E+03  0.12132767809E+04  0.50400001928E-02 0. -1.
       -1    1    3    3    0  502 -0.97622315511E+03  0.15817427873E+03 -0.13952668740E+04  0.17102047833E+04  0.50400001928E-02 0.  1.
</event>
<event>
 5   0  0.1960961E-05  0.2794861E+04  0.7818609E-02  0.8304866E-01
        2   -1    0    0  501    0  0.00000000000E+00  0.00000000000E+00  0.81328073195E+03  0.81328073195E+03  0.25500000920E-02 0.  1.
       -2   -1    0    0    0  501  0.00000000000E+00  0.00000000000E+00 -0.24011538629E+04  0.24011538629E+04  0.25500000920E-02 0. -1.
    10030    2    1    2    0    0  0.00000000000E+00  0.00000000000E+00 -0.15878731310E+04  0.32144345949E+04  0.27948611208E+04 0.  0.
        5    1    3    3  502    0  0.91444615855E+03  0.64320928831E+01  0.42135618639E+03  0.10068844395E+04  0.46999998093E+01 0.  1.
       -5    1    3    3    0  502 -0.91444615855E+03 -0.64320928831E+01 -0.20092293174E+04  0.22075501554E+04  0.46999998093E+01 0. -1.
</event>
<event>
 5   0  0.1829810E-05  0.2928780E+04  0.7818609E-02  0.8264366E-01
       -2   -1    0    0    0  501  0.00000000000E+00  0.00000000000E+00  0.15558669395E+04  0.15558669395E+04  0.25500000920E-02 0.  1.
        2   -1    0    0  501    0  0.00000000000E+00  0.00000000000E+00 -0.13782915087E+04  0.13782915087E+04  0.25500000920E-02 0. -1.
    10030    2    1    2    0    0  0.00000000000E+00  0.00000000000E+00  0.17757543073E+03  0.29341584482E+04  0.29287800815E+04 0.  0.
        4    1    3    3  502    0 -0.10208914240E+04  0.39519204237E+03  0.10632200155E+04  0.15260519205E+04  0.12699999809E+01 0.  1.
       -4    1    3    3    0  502  0.10208914240E+04 -0.39519204237E+03 -0.88564458473E+03  0.14081065277E+04  0.12699999809E+01 0. -1.
</event>
<event>
 5   0  0.1918901E-05  0.2902069E+04  0.7818609E-02  0.8272262E-01
       -2   -1    0    0    0  501  0.00000000000E+00  0.00000000000E+00  0.23213660539E+04  0.23213660539E+04  0.25500000920E-02 0.  1.
        2   -1    0    0  501    0  0.00000000000E+00  0.00000000000E+00 -0.90700957214E+03  0.90700957215E+03  0.25500000920E-02 0. -1.
    10030    2    1    2    0    0  0.00000000000E+00  0.00000000000E+00  0.14143564817E+04  0.32283756260E+04  0.29020690766E+04 0.  0.
        1    1    3    3  502    0 -0.10348513624E+03 -0.27392290714E+03  0.22881569262E+04  0.23068170824E+04  0.50400001928E-02 0.  1.
       -1    1    3    3    0  502  0.10348513624E+03  0.27392290714E+03 -0.87380044451E+03  0.92155854363E+03  0.50400001928E-02 0. -1.
</event>
<event>
 5   0  0.1918901E-05  0.2770449E+04  0.7818609E-02  0.8312502E-01
       -2   -1    0    0    0  501  0.00000000000E+00  0.00000000000E+00  0.11035779258E+04  0.11035779258E+04  0.25500000920E-02 0. -1.
        2   -1    0    0  501    0  0.00000000000E+00  0.00000000000E+00 -0.17387505047E+04  0.17387505047E+04  0.25500000920E-02 0.  1.
    10030    2    1    2    0    0  0.00000000000E+00  0.00000000000E+00 -0.63517257889E+03  0.28423284305E+04  0.27704488268E+04 0.  0.
        1    1    3    3  502    0 -0.10854119173E+03 -0.12813272660E+04 -0.84598878180E+03  0.15392458451E+04  0.50400001928E-02 0.  1.
       -1    1    3    3    0  502  0.10854119173E+03  0.12813272660E+04  0.21081620290E+03  0.13030825853E+04  0.50400001928E-02 0. -1.
</event>
<event>
 5   0  0.8055928E-06  0.2920837E+04  0.7818609E-02  0.8266705E-01
       -1   -1    0    0    0  501  0.00000000000E+00  0.00000000000E+00  0.16028412952E+04  0.16028412952E+04  0.50400001928E-02 0. -1.
        1   -1    0    0  501    0  0.00000000000E+00  0.00000000000E+00 -0.13306507892E+04  0.13306507893E+04  0.50400001928E-02 0.  1.
    10030    2    1    2    0    0  0.00000000000E+00  0.00000000000E+00  0.27219050596E+03  0.29334920845E+04  0.29208368900E+04 0.  0.
        2    1    3    3  502    0 -0.86025109044E+03  0.75504178446E+03  0.10470543812E+04  0.15512713857E+04  0.25500000920E-02 0. -1.
       -2    1    3    3    0  502  0.86025109044E+03 -0.75504178446E+03 -0.77486387527E+03  0.13822206988E+04  0.25500000920E-02 0.  1.
</event>
<event>
 5   0  0.7971153E-06  0.2925144E+04  0.7818609E-02  0.8265436E-01
       -1   -1    0    0    0  501  0.00000000000E+00  0.00000000000E+00  0.91679343844E+03  0.91679343846E+03  0.50400001928E-02 0.  1.
        1   -1    0    0  501    0  0.00000000000E+00  0.00000000000E+00 -0.23332592123E+04  0.23332592123E+04  0.50400001928E-02 0. -1.
    10030    2    1    2    0    0  0.00000000000E+00  0.00000000000E+00 -0.14164657739E+04  0.32500526508E+04  0.29251439186E+04 0.  0.
        5    1    3    3  502    0 -0.10079621072E+04 -0.10161527519E+04 -0.37391093518E+03  0.14793192698E+04  0.46999998093E+01 0.  1.
       -5    1    3    3    0  502  0.10079621072E+04  0.10161527519E+04 -0.10425548387E+04  0.17707333809E+04  0.46999998093E+01 0. -1.
</event>
<event>
 5   0  0.1960961E-05  0.1723288E+04  0.7818609E-02  0.8748193E-01
        2   -1    0    0  501    0  0.00000000000E+00  0.00000000000E+00  0.85520858153E+03  0.85520858154E+03  0.25500000920E-02 0. -1.
       -2   -1    0    0    0  501  0.00000000000E+00  0.00000000000E+00 -0.86812804745E+03  0.86812804745E+03  0.25500000920E-02 0.  1.
    10030    2    1    2    0    0  0.00000000000E+00  0.00000000000E+00 -0.12919465917E+02  0.17233366290E+04  0.17232882011E+04 0.  0.
        5    1    3    3  502    0 -0.38157988164E+03  0.25300642966E+03 -0.73640695849E+03  0.86714056417E+03  0.46999998093E+01 0.  1.
       -5    1    3    3    0  502  0.38157988164E+03 -0.25300642966E+03  0.72348749257E+03  0.85619606482E+03  0.46999998093E+01 0. -1.
</event>
<event>
 5   0  0.7305460E-06  0.2898194E+04  0.7818609E-02  0.8273415E-01
       -1   -1    0    0    0  501  0.00000000000E+00  0.00000000000E+00  0.17573817218E+04  0.17573817218E+04  0.50400001928E-02 0. -1.
        1   -1    0    0  501    0  0.00000000000E+00  0.00000000000E+00 -0.11948922455E+04  0.11948922455E+04  0.50400001928E-02 0.  1.
    10030    2    1    2    0    0  0.00000000000E+00  0.00000000000E+00  0.56248947633E+03  0.29522739673E+04  0.28981937767E+04 0.  0.
        4    1    3    3  502    0 -0.13597563369E+04 -0.35815561815E+02  0.79022838885E+03  0.15731123831E+04  0.12699999809E+01 0. -1.
       -4    1    3    3    0  502  0.13597563369E+04  0.35815561815E+02 -0.22773891252E+03  0.13791615843E+04  0.12699999809E+01 0.  1.
</event>
<event>
 5   0  0.1976233E-05  0.2953911E+04  0.7818609E-02  0.8257016E-01
        2   -1    0    0  501    0  0.00000000000E+00  0.00000000000E+00  0.19750079870E+04  0.19750079870E+04  0.25500000920E-02 0. -1.
       -2   -1    0    0    0  501  0.00000000000E+00  0.00000000000E+00 -0.11045009211E+04  0.11045009211E+04  0.25500000920E-02 0.  1.
    10030    2    1    2    0    0  0.00000000000E+00  0.00000000000E+00  0.87050706581E+03  0.30795089081E+04  0.29539114007E+04 0.  0.
        2    1    3    3  502    0  0.12519808462E+04  0.76536153915E+03  0.26029716749E+03  0.14902982723E+04  0.25500000920E-02 0.  1.
       -2    1    3    3    0  502 -0.12519808462E+04 -0.76536153915E+03  0.61020989832E+03  0.15892106358E+04  0.25500000920E-02 0. -1.
</event>
<event>
 5   0  0.8122088E-06  0.2860712E+04  0.7818609E-02  0.8284664E-01
        1   -1    0    0  501    0  0.00000000000E+00  0.00000000000E+00  0.20554349640E+04  0.20554349640E+04  0.50400001928E-02 0. -1.
       -1   -1    0    0    0  501  0.00000000000E+00  0.00000000000E+00 -0.99536971149E+03  0.99536971150E+03  0.50400001928E-02 0.  1.
    10030    2    1    2    0    0  0.00000000000E+00  0.00000000000E+00  0.10600652525E+04  0.30508046755E+04  0.28607115948E+04 0.  0.
        1    1    3    3  502    0 -0.70114235290E+03 -0.69619595578E+03  0.16329850245E+04  0.19086459856E+04  0.50400001928E-02 0. -1.
       -1    1    3    3    0  502  0.70114235290E+03  0.69619595578E+03 -0.57291977200E+03  0.11421586900E+04  0.50400001928E-02 0.  1.
</event>
<event>
 5   0  0.1937947E-05  0.2451047E+04  0.7818609E-02  0.8420636E-01
        2   -1    0    0  501    0  0.00000000000E+00  0.00000000000E+00  0.14356626444E+04  0.14356626444E+04  0.25500000920E-02 0.  1.
       -2   -1    0    0    0  501  0.00000000000E+00  0.00000000000E+00 -0.10461423852E+04  0.10461423852E+04  0.25500000920E-02 0. -1.
    10030    2    1    2    0    0  0.00000000000E+00  0.00000000000E+00  0.38952025925E+03  0.24818050296E+04  0.24510467504E+04 0.  0.
        3    1    3    3  502    0 -0.47377699572E+03 -0.34427553785E+03  0.12847997359E+04  0.14119846526E+04  0.10100000352E+00 0.  1.
       -3    1    3    3    0  502  0.47377699572E+03  0.34427553785E+03 -0.89527947662E+03  0.10698203770E+04  0.10100000352E+00 0. -1.
</event>
<event>
 5   0  0.1960961E-05  0.2744988E+04  0.7818609E-02  0.8320554E-01
        2   -1    0    0  501    0  0.00000000000E+00  0.00000000000E+00  0.24846387396E+04  0.24846387396E+04  0.25500000920E-02 0. -1.
       -2   -1    0    0    0  501  0.00000000000E+00  0.00000000000E+00 -0.75815441423E+03  0.75815441424E+03  0.25500000920E-02 0.  1.
    10030    2    1    2    0    0  0.00000000000E+00  0.00000000000E+00  0.17264843253E+04  0.32427931538E+04  0.27449880351E+04 0.  0.
        5    1    3    3  502    0  0.11019200554E+04 -0.73196150205E+03  0.12952391249E+04  0.18513945905E+04  0.46999998093E+01 0. -1.
       -5    1    3    3    0  502 -0.11019200554E+04  0.73196150205E+03  0.43124520046E+03  0.13913985633E+04  0.46999998093E+01 0.  1.
</event>
<event>
 5   0  0.8122088E-06  0.2836213E+04  0.7818609E-02  0.8292113E-01
        1   -1    0    0  501    0  0.00000000000E+00  0.00000000000E+00  0.83839805981E+03  0.83839805983E+03  0.50400001928E-02 0. -1.
       -1   -1    0    0    0  501  0.00000000000E+00  0.00000000000E+00 -0.23986536799E+04  0.23986536799E+04  0.50400001928E-02 0.  1.
    10030    2    1    2    0    0  0.00000000000E+00  0.00000000000E+00 -0.15602556201E+04  0.32370517397E+04  0.28362133851E+04 0.  0.
        1    1    3    3  502    0 -0.10282999005E+04  0.60358202155E+03  0.96034076543E+02  0.11962167387E+04  0.50400001928E-02 0. -1.
       -1    1    3    3    0  502  0.10282999005E+04 -0.60358202155E+03 -0.16562896966E+04  0.20408350010E+04  0.50400001928E-02 0.  1.
</event>
<event>
 5   0  0.7305460E-06  0.2777718E+04  0.7818609E-02  0.8310220E-01
        1   -1    0    0  501    0  0.00000000000E+00  0.00000000000E+00  0.18266537410E+04  0.18266537410E+04  0.50400001928E-02 0.  1.
       -1   -1    0    0    0  501  0.00000000000E+00  0.00000000000E+00 -0.10559907437E+04  0.10559907437E+04  0.50400001928E-02 0. -1.
    10030    2    1    2    0    0  0.00000000000E+00  0.00000000000E+00  0.77066299731E+03  0.28826444847E+04  0.27777180868E+04 0.  0.
        4    1    3    3  502    0 -0.12245776691E+04  0.38046324707E+03 -0.16828494471E+03  0.12933151919E+04  0.12699999809E+01 0. -1.
       -4    1    3    3    0  502  0.12245776691E+04 -0.38046324707E+03  0.93894794202E+03  0.15893292928E+04  0.12699999809E+01 0.  1.
</event>
<event>
 5   0  0.6578125E-06  0.1530725E+04  0.7818609E-02  0.8864275E-01
        3   -1    0    0  501    0  0.00000000000E+00  0.00000000000E+00  0.40527699769E+03  0.40527701028E+03  0.10100000352E+00 0. -1.
       -3   -1    0    0    0  501  0.00000000000E+00  0.00000000000E+00 -0.14453802868E+04  0.14453802903E+04  0.10100000352E+00 0.  1.
    10030    2    1    2    0    0  0.00000000000E+00  0.00000000000E+00 -0.10401032891E+04  0.18506573006E+04  0.15307245318E+04 0.  0.
        1    1    3    3  502    0 -0.21689296465E+03  0.62071937552E+03 -0.46459665904E+02  0.65916128667E+03  0.50400001928E-02 0. -1.
       -1    1    3    3    0  502  0.21689296465E+03 -0.62071937552E+03 -0.99364362317E+03  0.11914960139E+04  0.50400001928E-02 0.  1.
</event>
<event>
 5   0  0.7971153E-06  0.2124876E+04  0.7818609E-02  0.8550364E-01
        1   -1    0    0  501    0  0.00000000000E+00  0.00000000000E+00  0.52267710868E+03  0.52267710871E+03  0.50400001928E-02 0.  1.
       -1   -1    0    0    0  501  0.00000000000E+00  0.00000000000E+00 -0.21596027793E+04  0.21596027793E+04  0.50400001928E-02 0. -1.
    10030    2    1    2    0    0  0.00000000000E+00  0.00000000000E+00 -0.16369256706E+04  0.26822798880E+04  0.21248764074E+04 0.  0.
        5    1    3    3  502    0 -0.55938893281E+03  0.45201438200E+03  0.16867024072E+03  0.73871829528E+03  0.46999998093E+01 0.  1.
       -5    1    3    3    0  502  0.55938893281E+03 -0.45201438200E+03 -0.18055959114E+04  0.19435615927E+04  0.46999998093E+01 0. -1.
</event>
<event>
 5   0  0.1960961E-05  0.2246357E+04  0.7818609E-02  0.8499377E-01
       -2   -1    0    0    0  501  0.00000000000E+00  0.00000000000E+00  0.92532642408E+03  0.92532642409E+03  0.25500000920E-02 0. -1.
        2   -1    0    0  501    0  0.00000000000E+00  0.00000000000E+00 -0.13633348991E+04  0.13633348991E+04  0.25500000920E-02 0.  1.
    10030    2    1    2    0    0  0.00000000000E+00  0.00000000000E+00 -0.43800847498E+03  0.22886613232E+04  0.22463568790E+04 0.  0.
        5    1    3    3  502    0 -0.10637946077E+04 -0.28763970305E+03 -0.44014522367E+03  0.11866530555E+04  0.46999998093E+01 0.  1.
       -5    1    3    3    0  502  0.10637946077E+04  0.28763970305E+03  0.21367486902E+01  0.11020082676E+04  0.46999998093E+01 0. -1.
</event>
<event>
 5   0  0.1960961E-05  0.2965138E+04  0.7818609E-02  0.8253757E-01
        2   -1    0    0  501    0  0.00000000000E+00  0.00000000000E+00  0.19188206361E+04  0.19188206361E+04  0.25500000920E-02 0.  1.
       -2   -1    0    0    0  501  0.00000000000E+00  0.00000000000E+00 -0.11455009991E+04  0.11455009991E+04  0.25500000920E-02 0. -1.
    10030    2    1    2    0    0  0.00000000000E+00  0.00000000000E+00  0.77331963707E+03  0.30643216352E+04  0.29651380782E+04 0.  0.
        5    1    3    3  502    0  0.40932597181E+03  0.11614790512E+04 -0.46642632735E+03  0.13168739296E+04  0.46999998093E+01 0. -1.
       -5    1    3    3    0  502 -0.40932597181E+03 -0.11614790512E+04  0.12397459644E+04  0.17474477056E+04  0.46999998093E+01 0.  1.
</event>
<event>
 5   0  0.1937947E-05  0.2963367E+04  0.7818609E-02  0.8254270E-01
        2   -1    0    0  501    0  0.00000000000E+00  0.00000000000E+00  0.69591717165E+03  0.69591717165E+03  0.25500000920E-02 0. -1.
       -2   -1    0    0    0  501  0.00000000000E+00  0.00000000000E+00 -0.31546646093E+04  0.31546646093E+04  0.25500000920E-02 0.  1.
    10030    2    1    2    0    0  0.00000000000E+00  0.00000000000E+00 -0.24587474377E+04  0.38505817810E+04  0.29633665129E+04 0.  0.
        3    1    3    3  502    0 -0.35240880343E+01 -0.37015553750E+03 -0.30936119460E+04  0.31156800901E+04  0.10100000352E+00 0.  1.
       -3    1    3    3    0  502  0.35240880343E+01  0.37015553750E+03  0.63486450833E+03  0.73490169089E+03  0.10100000352E+00 0. -1.
</event>
<event>
 5   0  0.1960961E-05  0.3198554E+04  0.7818609E-02  0.8189199E-01
        2   -1    0    0  501    0  0.00000000000E+00  0.00000000000E+00  0.24336677501E+04  0.24336677501E+04  0.25500000920E-02 0. -1.
       -2   -1    0    0    0  501  0.00000000000E+00  0.00000000000E+00 -0.10509594858E+04  0.10509594858E+04  0.25500000920E-02 0.  1.
    10030    2    1    2    0    0  0.00000000000E+00  0.00000000000E+00  0.13827082643E+04  0.34846272359E+04  0.31985535526E+04 0.  0.
        5    1    3    3  502    0 -0.11506927645E+04 -0.99623624837E+03  0.12262713154E+04  0.19545700115E+04  0.46999998093E+01 0.  1.
       -5    1    3    3    0  502  0.11506927645E+04  0.99623624837E+03  0.15643694897E+03  0.15300572244E+04  0.46999998093E+01 0. -1.
</event>
<event>
 5   0  0.8055928E-06  0.2850286E+04  0.7818609E-02  0.8287824E-01
       -1   -1    0    0    0  501  0.00000000000E+00  0.00000000000E+00  0.94252717191E+03  0.94252717192E+03  0.50400001928E-02 0.  1.
        1   -1    0    0  501    0  0.00000000000E+00  0.00000000000E+00 -0.21548798709E+04  0.21548798709E+04  0.50400001928E-02 0. -1.
    10030    2    1    2    0    0  0.00000000000E+00  0.00000000000E+00 -0.12123526990E+04  0.30974070428E+04  0.28502861825E+04 0.  0.
        2    1    3    3  502    0 -0.45489014995E+03 -0.13430211579E+04 -0.76139563059E+03  0.16094577303E+04  0.25500000920E-02 0. -1.
       -2    1    3    3    0  502  0.45489014995E+03  0.13430211579E+04 -0.45095706839E+03  0.14879493126E+04  0.25500000920E-02 0.  1.
</event>
<event>
 5   0  0.1937947E-05  0.1813600E+04  0.7818609E-02  0.8699101E-01
        2   -1    0    0  501    0  0.00000000000E+00  0.00000000000E+00  0.94113563862E+03  0.94113563862E+03  0.25500000920E-02 0. -1.
       -2   -1    0    0    0  501  0.00000000000E+00  0.00000000000E+00 -0.87371677329E+03  0.87371677329E+03  0.25500000920E-02 0.  1.
    10030    2    1    2    0    0  0.00000000000E+00  0.00000000000E+00  0.67418865329E+02  0.18148524119E+04  0.18135997281E+04 0.  0.
        3    1    3    3  502    0 -0.29258700330E+03  0.54062696434E+03  0.70080420635E+03  0.93220771018E+03  0.10100000352E+00 0. -1.
       -3    1    3    3    0  502  0.29258700330E+03 -0.54062696434E+03 -0.63338534102E+03  0.88264470174E+03  0.10100000352E+00 0.  1.
</event>
<event>
 5   0  0.1829810E-05  0.2899089E+04  0.7818609E-02  0.8273149E-01
        2   -1    0    0  501    0  0.00000000000E+00  0.00000000000E+00  0.26004528770E+04  0.26004528770E+04  0.25500000920E-02 0. -1.
       -2   -1    0    0    0  501  0.00000000000E+00  0.00000000000E+00 -0.80800525984E+03  0.80800525985E+03  0.25500000920E-02 0.  1.
    10030    2    1    2    0    0  0.00000000000E+00  0.00000000000E+00  0.17924476171E+04  0.34084581368E+04  0.28990892381E+04 0.  0.
        4    1    3    3  502    0 -0.23205562695E+03  0.75603956279E+03 -0.53201286389E+03  0.95314476065E+03  0.12699999809E+01 0.  1.
       -4    1    3    3    0  502  0.23205562695E+03 -0.75603956279E+03  0.23244604810E+04  0.24553133762E+04  0.12699999809E+01 0. -1.
</event>
<event>
 5   0  0.1937947E-05  0.3021380E+04  0.7818609E-02  0.8237652E-01
        2   -1    0    0  501    0  0.00000000000E+00  0.00000000000E+00  0.19342456708E+04  0.19342456708E+04  0.25500000920E-02 0.  1.
       -2   -1    0    0    0  501  0.00000000000E+00  0.00000000000E+00 -0.11798836478E+04  0.11798836478E+04  0.25500000920E-02 0. -1.
    10030    2    1    2    0    0  0.00000000000E+00  0.00000000000E+00  0.75436202295E+03  0.31141293186E+04  0.30213803719E+04 0.  0.
        3    1    3    3  502    0 -0.11445247885E+04 -0.95085397768E+03  0.64620007779E+03  0.16222314351E+04  0.10100000352E+00 0. -1.
       -3    1    3    3    0  502  0.11445247885E+04  0.95085397768E+03  0.10816194516E+03  0.14918978835E+04  0.10100000352E+00 0.  1.
</event>
<event>
 5   0  0.8055928E-06  0.2882623E+04  0.7818609E-02  0.8278067E-01
       -1   -1    0    0    0  501  0.00000000000E+00  0.00000000000E+00  0.16710046068E+04  0.16710046068E+04  0.50400001928E-02 0.  1.
        1   -1    0    0  501    0  0.00000000000E+00  0.00000000000E+00 -0.12431914808E+04  0.12431914808E+04  0.50400001928E-02 0. -1.
    10030    2    1    2    0    0  0.00000000000E+00  0.00000000000E+00  0.42781312596E+03  0.29141960876E+04  0.28826228970E+04 0.  0.
        2    1    3    3  502    0  0.12355656020E+04  0.95546265936E+02  0.95792070434E+03  0.15663216533E+04  0.25500000920E-02 0.  1.
       -2    1    3    3    0  502 -0.12355656020E+04 -0.95546265936E+02 -0.53010757838E+03  0.13478744342E+04  0.25500000920E-02 0. -1.
</event>
<event>
 5   0  0.1976233E-05  0.2947046E+04  0.7818609E-02  0.8259016E-01
       -2   -1    0    0    0  501  0.00000000000E+00  0.00000000000E+00  0.19976904900E+04  0.19976904900E+04  0.25500000920E-02 0.  1.
        2   -1    0    0  501    0  0.00000000000E+00  0.00000000000E+00 -0.10868897979E+04  0.10868897979E+04  0.25500000920E-02 0. -1.
    10030    2    1    2    0    0  0.00000000000E+00  0.00000000000E+00  0.91080069212E+03  0.30845802879E+04  0.29470455802E+04 0.  0.
        2    1    3    3  502    0  0.51575714907E+03 -0.88921131761E+03  0.15604005466E+04  0.18685695251E+04  0.25500000920E-02 0.  1.
       -2    1    3    3    0  502 -0.51575714907E+03  0.88921131761E+03 -0.64959985451E+03  0.12160107628E+04  0.25500000920E-02 0. -1.
</event>
<event>
 5   0  0.7305460E-06  0.2891602E+04  0.7818609E-02  0.8275381E-01
        1   -1    0    0  501    0  0.00000000000E+00  0.00000000000E+00  0.19977503239E+04  0.19977503239E+04  0.50400001928E-02 0. -1.
       -1   -1    0    0    0  501  0.00000000000E+00  0.00000000000E+00 -0.10463472315E+04  0.10463472315E+04  0.50400001928E-02 0.  1.
    10030    2    1    2    0    0  0.00000000000E+00  0.00000000000E+00  0.95140309239E+03  0.30440975554E+04  0.28916019925E+04 0.  0.
        4    1    3    3  502    0  0.79530643017E+02  0.33210601704E+03 -0.10032799944E+04  0.10598074777E+04  0.12699999809E+01 0.  1.
       -4    1    3    3    0  502 -0.79530643017E+02 -0.33210601704E+03  0.19546830868E+04  0.19842900777E+04  0.12699999809E+01 0. -1.
</event>
<event>
 5   0  0.7305460E-06  0.2829990E+04  0.7818609E-02  0.8294018E-01
        1   -1    0    0  501    0  0.00000000000E+00  0.00000000000E+00  0.12115444851E+04  0.12115444851E+04  0.50400001928E-02 0. -1.
       -1   -1    0    0    0  501  0.00000000000E+00  0.00000000000E+00 -0.16526107679E+04  0.16526107679E+04  0.50400001928E-02 0.  1.
    10030    2    1    2    0    0  0.00000000000E+00  0.00000000000E+00 -0.44106628275E+03  0.28641552530E+04  0.28299904324E+04 0.  0.
        4    1    3    3  502    0  0.53596412542E+03  0.12959728973E+04 -0.30095224272E+02  0.14027510933E+04  0.12699999809E+01 0.  1.
       -4    1    3    3    0  502 -0.53596412542E+03 -0.12959728973E+04 -0.41097105848E+03  0.14614041597E+04  0.12699999809E+01 0. -1.
</event>
<event>
 5   0  0.1829810E-05  0.2831672E+04  0.7818609E-02  0.8293503E-01
       -2   -1    0    0    0  501  0.00000000000E+00  0.00000000000E+00  0.23335024596E+04  0.23335024596E+04  0.25500000920E-02 0.  1.
        2   -1    0    0  501    0  0.00000000000E+00  0.00000000000E+00 -0.85904816852E+03  0.85904816852E+03  0.25500000920E-02 0. -1.
    10030    2    1    2    0    0  0.00000000000E+00  0.00000000000E+00  0.14744542911E+04  0.31925506282E+04  0.28316716011E+04 0.  0.
        4    1    3    3  502    0  0.58344708520E+03 -0.12899664075E+04  0.72271997835E+03  0.15895752935E+04  0.12699999809E+01 0. -1.
       -4    1    3    3    0  502 -0.58344708520E+03  0.12899664075E+04  0.75173431276E+03  0.16029753347E+04  0.12699999809E+01 0.  1.
</event>
<event>
 5   0  0.8234888E-06  0.2708599E+04  0.7818609E-02  0.8332220E-01
        1   -1    0    0  501    0  0.00000000000E+00  0.00000000000E+00  0.95111919461E+03  0.95111919463E+03  0.50400001928E-02 0. -1.
       -1   -1    0    0    0  501  0.00000000000E+00  0.00000000000E+00 -0.19283877423E+04  0.19283877423E+04  0.50400001928E-02 0.  1.
    10030    2    1    2    0    0  0.00000000000E+00  0.00000000000E+00 -0.97726854767E+03  0.28795069369E+04  0.27085986018E+04 0.  0.
        3    1    3    3  502    0  0.34784402495E+03 -0.44873652144E+03  0.81848693104E+03  0.99613292178E+03  0.10100000352E+00 0. -1.
       -3    1    3    3    0  502 -0.34784402495E+03  0.44873652144E+03 -0.17957554787E+04  0.18833740151E+04  0.10100000352E+00 0.  1.
</event>
<event>
 5   0  0.6578125E-06  0.1426840E+04  0.7818609E-02  0.8934616E-01
        4   -1    0    0  501    0  0.00000000000E+00  0.00000000000E+00  0.12642833763E+04  0.12642840142E+04  0.12699999809E+01 0.  1.
       -4   -1    0    0    0  501  0.00000000000E+00  0.00000000000E+00 -0.40257255537E+03  0.40257455861E+03  0.12699999809E+01 0. -1.
    10030    2    1    2    0    0  0.00000000000E+00  0.00000000000E+00  0.86171082096E+03  0.16668585728E+04  0.14268398518E+04 0.  0.
        3    1    3    3  502    0  0.25300339857E+02  0.71124143298E+03  0.37287255906E+03  0.80345406757E+03  0.10100000352E+00 0. -1.
       -3    1    3    3    0  502 -0.25300339857E+02 -0.71124143298E+03  0.48883826190E+03  0.86340450525E+03  0.10100000352E+00 0.  1.
</event>
<event>
 5   0  0.1918901E-05  0.2967855E+04  0.7818609E-02  0.8252970E-01
       -2   -1    0    0    0  501  0.00000000000E+00  0.00000000000E+00  0.10594171727E+04  0.10594171727E+04  0.25500000920E-02 0. -1.
        2   -1    0    0  501    0  0.00000000000E+00  0.00000000000E+00 -0.20785403160E+04  0.20785403160E+04  0.25500000920E-02 0.  1.
    10030    2    1    2    0    0  0.00000000000E+00  0.00000000000E+00 -0.10191231433E+04  0.31379574887E+04  0.29678553233E+04 0.  0.
        1    1    3    3  502    0 -0.33191407139E+03 -0.14397507494E+04 -0.36385095059E+03  0.15216559025E+04  0.50400001928E-02 0. -1.
       -1    1    3    3    0  502  0.33191407139E+03  0.14397507494E+04 -0.65527219272E+03  0.16163015863E+04  0.50400001928E-02 0.  1.
</event>
<event>
 5   0  0.1937947E-05  0.2961694E+04  0.7818609E-02  0.8254755E-01
       -2   -1    0    0    0  501  0.00000000000E+00  0.00000000000E+00  0.10462386989E+04  0.10462386989E+04  0.25500000920E-02 0. -1.
        2   -1    0    0  501    0  0.00000000000E+00  0.00000000000E+00 -0.20959918349E+04  0.20959918349E+04  0.25500000920E-02 0.  1.
    10030    2    1    2    0    0  0.00000000000E+00  0.00000000000E+00 -0.10497531359E+04  0.31422305338E+04  0.29616939547E+04 0.  0.
        3    1    3    3  502    0  0.24773744424E+03 -0.45052054076E+03  0.94850429304E+03  0.10788897085E+04  0.10100000352E+00 0. -1.
       -3    1    3    3    0  502 -0.24773744424E+03  0.45052054076E+03 -0.19982574290E+04  0.20633408254E+04  0.10100000352E+00 0.  1.
</event>
<event>
 5   0  0.1829810E-05  0.3055952E+04  0.7818609E-02  0.8227932E-01
       -2   -1    0    0    0  501  0.00000000000E+00  0.00000000000E+00  0.21155280986E+04  0.21155280986E+04  0.25500000920E-02 0. -1.
        2   -1    0    0  501    0  0.00000000000E+00  0.00000000000E+00 -0.11036061995E+04  0.11036061995E+04  0.25500000920E-02 0.  1.
    10030    2    1    2    0    0  0.00000000000E+00  0.00000000000E+00  0.10119218991E+04  0.32191342981E+04  0.30559515211E+04 0.  0.
        4    1    3    3  502    0 -0.11634960484E+04 -0.63798130875E+03 -0.29209875014E+03  0.13587002973E+04  0.12699999809E+01 0.  1.
       -4    1    3    3    0  502  0.11634960484E+04  0.63798130875E+03  0.13040206492E+04  0.18604340008E+04  0.12699999809E+01 0. -1.
</event>
<event>
 5   0  0.8122088E-06  0.2977822E+04  0.7818609E-02  0.8250092E-01
       -1   -1    0    0    0  501  0.00000000000E+00  0.00000000000E+00  0.18620558351E+04  0.18620558351E+04  0.50400001928E-02 0.  1.
        1   -1    0    0  501    0  0.00000000000E+00  0.00000000000E+00 -0.11905421514E+04  0.11905421514E+04  0.50400001928E-02 0. -1.
    10030    2    1    2    0    0  0.00000000000E+00  0.00000000000E+00  0.67151368372E+03  0.30525979865E+04  0.29778219960E+04 0.  0.
        1    1    3    3  502    0  0.12750482414E+04  0.54557551050E+03  0.89107498379E+03  0.16484584564E+04  0.50400001928E-02 0. -1.
       -1    1    3    3    0  502 -0.12750482414E+04 -0.54557551050E+03 -0.21956130007E+03  0.14041395302E+04  0.50400001928E-02 0.  1.
</event>
<event>
 5   0  0.1829810E-05  0.3089980E+04  0.7818609E-02  0.8218493E-01
        2   -1    0    0  501    0  0.00000000000E+00  0.00000000000E+00  0.17324989784E+04  0.17324989784E+04  0.25500000920E-02 0. -1.
       -2   -1    0    0    0  501  0.00000000000E+00  0.00000000000E+00 -0.13777754835E+04  0.13777754835E+04  0.25500000920E-02 0.  1.
    10030    2    1    2    0    0  0.00000000000E+00  0.00000000000E+00  0.35472349484E+03  0.31102744619E+04  0.30899803350E+04 0.  0.
        4    1    3    3  502    0 -0.11106110654E+03  0.14735580947E+04  0.63119429716E+03  0.16068963506E+04  0.12699999809E+01 0. -1.
       -4    1    3    3    0  502  0.11106110654E+03 -0.14735580947E+04 -0.27647080233E+03  0.15033781113E+04  0.12699999809E+01 0.  1.
</event>
<event>
 5   0  0.8234888E-06  0.2550269E+04  0.7818609E-02  0.8385293E-01
        1   -1    0    0  501    0  0.00000000000E+00  0.00000000000E+00  0.87907925180E+03  0.87907925182E+03  0.50400001928E-02 0. -1.
       -1   -1    0    0    0  501  0.00000000000E+00  0.00000000000E+00 -0.18496259297E+04  0.18496259297E+04  0.50400001928E-02 0.  1.
    10030    2    1    2    0    0  0.00000000000E+00  0.00000000000E+00 -0.97054667790E+03  0.27287051815E+04  0.25502688317E+04 0.  0.
        3    1    3    3  502    0 -0.68419892336E+03  0.87788707889E+03 -0.11510253078E+04  0.16011474508E+04  0.10100000352E+00 0.  1.
       -3    1    3    3    0  502  0.68419892336E+03 -0.87788707889E+03  0.18047862985E+03  0.11275577307E+04  0.10100000352E+00 0. -1.
</event>
<event>
 5   0  0.1937947E-05  0.3096110E+04  0.7818609E-02  0.8216806E-01
        2   -1    0    0  501    0  0.00000000000E+00  0.00000000000E+00  0.10222472143E+04  0.10222472143E+04  0.25500000920E-02 0. -1.
       -2   -1    0    0    0  501  0.00000000000E+00  0.00000000000E+00 -0.23443196105E+04  0.23443196105E+04  0.25500000920E-02 0.  1.
    10030    2    1    2    0    0  0.00000000000E+00  0.00000000000E+00 -0.13220723962E+04  0.33665668249E+04  0.30961099408E+04 0.  0.
        3    1    3    3  502    0 -0.10626603826E+03 -0.49392382599E+03 -0.22521513412E+04  0.23081245397E+04  0.10100000352E+00 0.  1.
       -3    1    3    3    0  502  0.10626603826E+03  0.49392382599E+03  0.93007894505E+03  0.10584422851E+04  0.10100000352E+00 0. -1.
</event>
<event>
 5   0  0.1937947E-05  0.2787833E+04  0.7818609E-02  0.8307056E-01
       -2   -1    0    0    0  501  0.00000000000E+00  0.00000000000E+00  0.99947909949E+03  0.99947909949E+03  0.25500000920E-02 0. -1.
        2   -1    0    0  501    0  0.00000000000E+00  0.00000000000E+00 -0.19440155474E+04  0.19440155474E+04  0.25500000920E-02 0.  1.
    10030    2    1    2    0    0  0.00000000000E+00  0.00000000000E+00 -0.94453644790E+03  0.29434946469E+04  0.27878327846E+04 0.  0.
        3    1    3    3  502    0 -0.91604721189E+03  0.87054361983E+03  0.14880598752E+03  0.12724511466E+04  0.10100000352E+00 0. -1.
       -3    1    3    3    0  502  0.91604721189E+03 -0.87054361983E+03 -0.10933424354E+04  0.16710435003E+04  0.10100000352E+00 0.  1.
</event>
<event>
 5   0  0.7305460E-06  0.1602478E+04  0.7818609E-02  0.8819027E-01
       -1   -1    0    0    0  501  0.00000000000E+00  0.00000000000E+00  0.47422683747E+03  0.47422683750E+03  0.50400001928E-02 0. -1.
        1   -1    0    0  501    0  0.00000000000E+00  0.00000000000E+00 -0.13537487160E+04  0.13537487160E+04  0.50400001928E-02 0.  1.
    10030    2    1    2    0    0  0.00000000000E+00  0.00000000000E+00 -0.87952187851E+03  0.18279755535E+04  0.16024780465E+04 0.  0.
        4    1    3    3  502    0 -0.70360406326E+03 -0.21659396576E+03 -0.79014871646E+02  0.74041649542E+03  0.12699999809E+01 0. -1.
       -4    1    3    3    0  502  0.70360406326E+03  0.21659396576E+03 -0.80050700686E+03  0.10875590581E+04  0.12699999809E+01 0.  1.
</event>
<event>
 5   0  0.8122088E-06  0.2891144E+04  0.7818609E-02  0.8275517E-01
       -1   -1    0    0    0  501  0.00000000000E+00  0.00000000000E+00  0.10952004327E+04  0.10952004328E+04  0.50400001928E-02 0. -1.
        1   -1    0    0  501    0  0.00000000000E+00  0.00000000000E+00 -0.19080323976E+04  0.19080323976E+04  0.50400001928E-02 0.  1.
    10030    2    1    2    0    0  0.00000000000E+00  0.00000000000E+00 -0.81283196487E+03  0.30032328304E+04  0.28911436544E+04 0.  0.
        1    1    3    3  502    0 -0.84040820213E+03  0.10965210361E+04 -0.84839219914E+03  0.16212383083E+04  0.50400001928E-02 0.  1.
       -1    1    3    3    0  502  0.84040820213E+03 -0.10965210361E+04  0.35560234266E+02  0.13819945221E+04  0.50400001928E-02 0. -1.
</event>
<event>
 5   0  0.1918901E-05  0.2912709E+04  0.7818609E-02  0.8269106E-01
       -2   -1    0    0    0  501  0.00000000000E+00  0.00000000000E+00  0.13752675947E+04  0.13752675947E+04  0.25500000920E-02 0.  1.
        2   -1    0    0  501    0  0.00000000000E+00  0.00000000000E+00 -0.15422219736E+04  0.15422219736E+04  0.25500000920E-02 0. -1.
    10030    2    1    2    0    0  0.00000000000E+00  0.00000000000E+00 -0.16695437899E+03  0.29174895683E+04  0.29127086391E+04 0.  0.
        1    1    3    3  502    0 -0.56684235230E+03  0.67238088651E+03 -0.12462278117E+04  0.15252836024E+04  0.50400001928E-02 0. -1.
       -1    1    3    3    0  502  0.56684235230E+03 -0.67238088651E+03  0.10792734327E+04  0.13922059659E+04  0.50400001928E-02 0.  1.
</event>
<event>
 5   0  0.7305460E-06  0.2908316E+04  0.7818609E-02  0.8270408E-01
       -1   -1    0    0    0  501  0.00000000000E+00  0.00000000000E+00  0.11101402677E+04  0.11101402677E+04  0.50400001928E-02 0. -1.
        1   -1    0    0  501    0  0.00000000000E+00  0.00000000000E+00 -0.19047821947E+04  0.19047821947E+04  0.50400001928E-02 0.  1.
    10030    2    1    2    0    0  0.00000000000E+00  0.00000000000E+00 -0.79464192698E+03  0.30149224623E+04  0.29083159494E+04 0.  0.
        4    1    3    3  502    0 -0.33883215752E+03 -0.65888643466E+03 -0.16944400689E+04  0.18493424034E+04  0.12699999809E+01 0.  1.
       -4    1    3    3    0  502  0.33883215752E+03  0.65888643466E+03  0.89979814194E+03  0.11655800590E+04  0.12699999809E+01 0. -1.
</event>
<event>
 5   0  0.1960961E-05  0.2845757E+04  0.7818609E-02  0.8289202E-01
        2   -1    0    0  501    0  0.00000000000E+00  0.00000000000E+00  0.20987060241E+04  0.20987060241E+04  0.25500000920E-02 0.  1.
       -2   -1    0    0    0  501  0.00000000000E+00  0.00000000000E+00 -0.96468163760E+03  0.96468163760E+03  0.25500000920E-02 0. -1.
    10030    2    1    2    0    0  0.00000000000E+00  0.00000000000E+00  0.11340243865E+04  0.30633876617E+04  0.28457569567E+04 0.  0.
        5    1    3    3  502    0 -0.80141033617E+03 -0.47858018383E+02 -0.69756576816E+03  0.10635642941E+04  0.46999998093E+01 0. -1.
       -5    1    3    3    0  502  0.80141033617E+03  0.47858018383E+02  0.18315901547E+04  0.19998233676E+04  0.46999998093E+01 0.  1.
</event>
<event>
 5   0  0.8055928E-06  0.2892446E+04  0.7818609E-02  0.8275129E-01
       -1   -1    0    0    0  501  0.00000000000E+00  0.00000000000E+00  0.11941193357E+04  0.11941193357E+04  0.50400001928E-02 0.  1.
        1   -1    0    0  501    0  0.00000000000E+00  0.00000000000E+00 -0.17515510575E+04  0.17515510575E+04  0.50400001928E-02 0. -1.
    10030    2    1    2    0    0  0.00000000000E+00  0.00000000000E+00 -0.55743172174E+03  0.29456703932E+04  0.28924460135E+04 0.  0.
        2    1    3    3  502    0  0.14424317162E+04 -0.87632563586E+01 -0.17251397756E+03  0.14527378026E+04  0.25500000920E-02 0. -1.
       -2    1    3    3    0  502 -0.14424317162E+04  0.87632563586E+01 -0.38491774418E+03  0.14929325907E+04  0.25500000920E-02 0.  1.
</event>
<event>
 5   0  0.7971153E-06  0.2908444E+04  0.7818609E-02  0.8270369E-01
       -1   -1    0    0    0  501  0.00000000000E+00  0.00000000000E+00  0.13628758477E+04  0.13628758477E+04  0.50400001928E-02 0.  1.
        1   -1    0    0  501    0  0.00000000000E+00  0.00000000000E+00 -0.15516910427E+04  0.15516910427E+04  0.50400001928E-02 0. -1.
    10030    2    1    2    0    0  0.00000000000E+00  0.00000000000E+00 -0.18881519507E+03  0.29145668904E+04  0.29084444263E+04 0.  0.
        5    1    3    3  502    0 -0.35733736676E+03 -0.14253403318E+03 -0.14997627598E+04  0.15483269584E+04  0.46999998093E+01 0. -1.
       -5    1    3    3    0  502  0.35733736676E+03  0.14253403318E+03  0.13109475648E+04  0.13662399320E+04  0.46999998093E+01 0.  1.
</event>
<event>
 5   0  0.8122088E-06  0.3034754E+04  0.7818609E-02  0.8233876E-01
       -1   -1    0    0    0  501  0.00000000000E+00  0.00000000000E+00  0.15850625362E+04  0.15850625363E+04  0.50400001928E-02 0. -1.
        1   -1    0    0  501    0  0.00000000000E+00  0.00000000000E+00 -0.14525814483E+04  0.14525814484E+04  0.50400001928E-02 0.  1.
    10030    2    1    2    0    0  0.00000000000E+00  0.00000000000E+00  0.13248108791E+03  0.30376439846E+04  0.30347536537E+04 0.  0.
        1    1    3    3  502    0 -0.11608904056E+04 -0.67852860180E+03 -0.63753993477E+03  0.14881279400E+04  0.50400001928E-02 0.  1.
       -1    1    3    3    0  502  0.11608904056E+04  0.67852860180E+03  0.77002102267E+03  0.15495160446E+04  0.50400001928E-02 0. -1.
</event>
<event>
 5   0  0.1960961E-05  0.2863877E+04  0.7818609E-02  0.8283707E-01
        2   -1    0    0  501    0  0.00000000000E+00  0.00000000000E+00  0.10568185541E+04  0.10568185541E+04  0.25500000920E-02 0. -1.
       -2   -1    0    0    0  501  0.00000000000E+00  0.00000000000E+00 -0.19402078492E+04  0.19402078492E+04  0.25500000920E-02 0.  1.
    10030    2    1    2    0    0  0.00000000000E+00  0.00000000000E+00 -0.88338929507E+03  0.29970264033E+04  0.28638768506E+04 0.  0.
        5    1    3    3  502    0 -0.53131173542E+03  0.24003015316E+03 -0.18103691363E+04  0.19019372057E+04  0.46999998093E+01 0.  1.
       -5    1    3    3    0  502  0.53131173542E+03 -0.24003015316E+03  0.92697984125E+03  0.10950891976E+04  0.46999998093E+01 0. -1.
</event>
<event>
 5   0  0.8055928E-06  0.3033297E+04  0.7818609E-02  0.8234286E-01
        1   -1    0    0  501    0  0.00000000000E+00  0.00000000000E+00  0.18756511996E+04  0.18756511996E+04  0.50400001928E-02 0. -1.
       -1   -1    0    0    0  501  0.00000000000E+00  0.00000000000E+00 -0.12263597454E+04  0.12263597454E+04  0.50400001928E-02 0.  1.
    10030    2    1    2    0    0  0.00000000000E+00  0.00000000000E+00  0.64929145417E+03  0.31020109450E+04  0.30332973001E+04 0.  0.
        2    1    3    3  502    0  0.62255249179E+03 -0.11589753298E+04 -0.44705275319E+03  0.13894788895E+04  0.25500000920E-02 0.  1.
       -2    1    3    3    0  502 -0.62255249179E+03  0.11589753298E+04  0.10963442074E+04  0.17125320555E+04  0.25500000920E-02 0. -1.
</event>
<event>
 5   0  0.8234888E-06  0.1977528E+04  0.7818609E-02  0.8617200E-01
        1   -1    0    0  501    0  0.00000000000E+00  0.00000000000E+00  0.17309849744E+04  0.17309849744E+04  0.50400001928E-02 0. -1.
       -1   -1    0    0    0  501  0.00000000000E+00  0.00000000000E+00 -0.56479633467E+03  0.56479633469E+03  0.50400001928E-02 0.  1.
    10030    2    1    2    0    0  0.00000000000E+00  0.00000000000E+00  0.11661886397E+04  0.22957813091E+04  0.19775277181E+04 0.  0.
        3    1    3    3  502    0 -0.47563442062E+03  0.85899354875E+03  0.71826196675E+03  0.12165517999E+04  0.10100000352E+00 0. -1.
       -3    1    3    3    0  502  0.47563442062E+03 -0.85899354875E+03  0.44792667299E+03  0.10792295092E+04  0.10100000352E+00 0.  1.
</event>
<event>
 5   0  0.1937947E-05  0.2938609E+04  0.7818609E-02  0.8261482E-01
        2   -1    0    0  501    0  0.00000000000E+00  0.00000000000E+00  0.11572634572E+04  0.11572634572E+04  0.25500000920E-02 0. -1.
       -2   -1    0    0    0  501  0.00000000000E+00  0.00000000000E+00 -0.18654835768E+04  0.18654835768E+04  0.25500000920E-02 0.  1.
    10030    2    1    2    0    0  0.00000000000E+00  0.00000000000E+00 -0.70822011968E+03  0.30227470340E+04  0.29386091767E+04 0.  0.
        3    1    3    3  502    0  0.11064460268E+04 -0.75670909757E+03  0.26480200858E+03  0.13663643666E+04  0.10100000352E+00 0.  1.
       -3    1    3    3    0  502 -0.11064460268E+04  0.75670909757E+03 -0.97302212827E+03  0.16563826674E+04  0.10100000352E+00 0. -1.
</event>
<event>
 5   0  0.1960961E-05  0.1513942E+04  0.7818609E-02  0.8875234E-01
       -2   -1    0    0    0  501  0.00000000000E+00  0.00000000000E+00  0.37112021635E+03  0.37112021636E+03  0.25500000920E-02 0.  1.
        2   -1    0    0  501    0  0.00000000000E+00  0.00000000000E+00 -0.15439880953E+04  0.15439880953E+04  0.25500000920E-02 0. -1.
    10030    2    1    2    0    0  0.00000000000E+00  0.00000000000E+00 -0.11728678790E+04  0.19151083117E+04  0.15139421336E+04 0.  0.
        5    1    3    3  502    0 -0.73682295620E+02  0.70368612211E+03 -0.92675823587E+03  0.11659786263E+04  0.46999998093E+01 0.  1.
       -5    1    3    3    0  502  0.73682295620E+02 -0.70368612211E+03 -0.24610964310E+03  0.74912968541E+03  0.46999998093E+01 0. -1.
</event>
<event>
 5   0  0.1918901E-05  0.2947678E+04  0.7818609E-02  0.8258832E-01
        2   -1    0    0  501    0  0.00000000000E+00  0.00000000000E+00  0.83155411981E+03  0.83155411982E+03  0.25500000920E-02 0. -1.
       -2   -1    0    0    0  501  0.00000000000E+00  0.00000000000E+00 -0.26122181135E+04  0.26122181135E+04  0.25500000920E-02 0.  1.
    10030    2    1    2    0    0  0.00000000000E+00  0.00000000000E+00 -0.17806639937E+04  0.34437722333E+04  0.29476775496E+04 0.  0.
        1    1    3    3  502    0 -0.70457254529E+03  0.11441543420E+04 -0.15977945371E+04  0.20876922696E+04  0.50400001928E-02 0.  1.
       -1    1    3    3    0  502  0.70457254529E+03 -0.11441543420E+04 -0.18286945661E+03  0.13560799637E+04  0.50400001928E-02 0. -1.
</event>
<event>
 5   0  0.7305460E-06  0.2953466E+04  0.7818609E-02  0.8257145E-01
       -1   -1    0    0    0  501  0.00000000000E+00  0.00000000000E+00  0.24085571670E+04  0.24085571670E+04  0.50400001928E-02 0. -1.
        1   -1    0    0  501    0  0.00000000000E+00  0.00000000000E+00 -0.90541376118E+03  0.90541376119E+03  0.50400001928E-02 0.  1.
    10030    2    1    2    0    0  0.00000000000E+00  0.00000000000E+00  0.15031434059E+04  0.33139709282E+04  0.29534663050E+04 0.  0.
        4    1    3    3  502    0  0.95421010318E+03  0.12497526944E+02  0.20161037283E+04  0.22305490278E+04  0.12699999809E+01 0. -1.
       -4    1    3    3    0  502 -0.95421010318E+03 -0.12497526944E+02 -0.51296032240E+03  0.10834219005E+04  0.12699999809E+01 0.  1.
</event>
<event>
 5   0  0.7971153E-06  0.2841349E+04  0.7818609E-02  0.8290545E-01
       -1   -1    0    0    0  501  0.00000000000E+00  0.00000000000E+00  0.11105257657E+04  0.11105257657E+04  0.50400001928E-02 0. -1.
        1   -1    0    0  501    0  0.00000000000E+00  0.00000000000E+00 -0.18174422692E+04  0.18174422692E+04  0.50400001928E-02 0.  1.
    10030    2    1    2    0    0  0.00000000000E+00  0.00000000000E+00 -0.70691650353E+03  0.29279680349E+04  0.28413493046E+04 0.  0.
        5    1    3    3  502    0 -0.10986129084E+04  0.55323155233E+03  0.37904117149E+03  0.12871323835E+04  0.46999998093E+01 0. -1.
       -5    1    3    3    0  502  0.10986129084E+04 -0.55323155233E+03 -0.10859576750E+04  0.16408356514E+04  0.46999998093E+01 0.  1.
</event>
<event>
 5   0  0.8122088E-06  0.3299550E+04  0.7818609E-02  0.8163010E-01
       -1   -1    0    0    0  501  0.00000000000E+00  0.00000000000E+00  0.16613496436E+04  0.16613496437E+04  0.50400001928E-02 0. -1.
        1   -1    0    0  501    0  0.00000000000E+00  0.00000000000E+00 -0.16382810857E+04  0.16382810857E+04  0.50400001928E-02 0.  1.
    10030    2    1    2    0    0  0.00000000000E+00  0.00000000000E+00  0.23068557934E+02  0.32996307294E+04  0.32995500893E+04 0.  0.
        1    1    3    3  502    0 -0.24475941313E+02 -0.29022049498E+03  0.16354368573E+04  0.16611684808E+04  0.50400001928E-02 0. -1.
       -1    1    3    3    0  502  0.24475941313E+02  0.29022049498E+03 -0.16123682993E+04  0.16384622486E+04  0.50400001928E-02 0.  1.
</event>
<event>
 5   0  0.1976233E-05  0.1613786E+04  0.7818609E-02  0.8812123E-01
       -2   -1    0    0    0  501  0.00000000000E+00  0.00000000000E+00  0.39407929151E+03  0.39407929152E+03  0.25500000920E-02 0.  1.
        2   -1    0    0  501    0  0.00000000000E+00  0.00000000000E+00 -0.16521452812E+04  0.16521452812E+04  0.25500000920E-02 0. -1.
    10030    2    1    2    0    0  0.00000000000E+00  0.00000000000E+00 -0.12580659897E+04  0.20462245727E+04  0.16137859113E+04 0.  0.
        2    1    3    3  502    0 -0.10887421237E+03  0.58350563020E+02  0.38201957503E+03  0.40149388294E+03  0.25500000920E-02 0.  1.
       -2    1    3    3    0  502  0.10887421237E+03 -0.58350563020E+02 -0.16400855647E+04  0.16447306898E+04  0.25500000920E-02 0. -1.
</event>
<event>
 5   0  0.8122088E-06  0.3020492E+04  0.7818609E-02  0.8237903E-01
       -1   -1    0    0    0  501  0.00000000000E+00  0.00000000000E+00  0.97607470058E+03  0.97607470059E+03  0.50400001928E-02 0. -1.
        1   -1    0    0  501    0  0.00000000000E+00  0.00000000000E+00 -0.23367505709E+04  0.23367505709E+04  0.50400001928E-02 0.  1.
    10030    2    1    2    0    0  0.00000000000E+00  0.00000000000E+00 -0.13606758703E+04  0.33128252715E+04  0.30204920883E+04 0.  0.
        1    1    3    3  502    0 -0.11370351289E+04  0.41210946949E+03 -0.16724025361E+04  0.20638830737E+04  0.50400001928E-02 0.  1.
       -1    1    3    3    0  502  0.11370351289E+04 -0.41210946949E+03  0.31172666580E+03  0.12489421978E+04  0.50400001928E-02 0. -1.
</event>
<event>
 5   0  0.6578125E-06  0.2962031E+04  0.7818609E-02  0.8254657E-01
       -4   -1    0    0    0  501  0.00000000000E+00  0.00000000000E+00  0.15288457990E+04  0.15288463265E+04  0.12699999809E+01 0. -1.
        4   -1    0    0  501    0  0.00000000000E+00  0.00000000000E+00 -0.14346803708E+04  0.14346809329E+04  0.12699999809E+01 0.  1.
    10030    2    1    2    0    0  0.00000000000E+00  0.00000000000E+00  0.94165428278E+02  0.29635272594E+04  0.29620308387E+04 0.  0.
        2    1    3    3  502    0  0.14095678006E+04 -0.38175084681E+03 -0.19960133098E+03  0.14739252983E+04  0.25500000920E-02 0.  1.
       -2    1    3    3    0  502 -0.14095678006E+04  0.38175084681E+03  0.29376675926E+03  0.14896019611E+04  0.25500000920E-02 0. -1.
</event>
<event>
 5   0  0.7305460E-06  0.2896750E+04  0.7818609E-02  0.8273845E-01
       -1   -1    0    0    0  501  0.00000000000E+00  0.00000000000E+00  0.11168708169E+04  0.11168708169E+04  0.50400001928E-02 0.  1.
        1   -1    0    0  501    0  0.00000000000E+00  0.00000000000E+00 -0.18782749631E+04  0.18782749631E+04  0.50400001928E-02 0. -1.
    10030    2    1    2    0    0  0.00000000000E+00  0.00000000000E+00 -0.76140414619E+03  0.29951457801E+04  0.28967502429E+04 0.  0.
        4    1    3    3  502    0  0.61569134522E+03 -0.12716398759E+04 -0.51054350697E+02  0.14137722469E+04  0.12699999809E+01 0. -1.
       -4    1    3    3    0  502 -0.61569134522E+03  0.12716398759E+04 -0.71034979549E+03  0.15813735332E+04  0.12699999809E+01 0.  1.
</event>
<event>
 5   0  0.1918901E-05  0.2735107E+04  0.7818609E-02  0.8323703E-01
        2   -1    0    0  501    0  0.00000000000E+00  0.00000000000E+00  0.27533264982E+04  0.27533264982E+04  0.25500000920E-02 0.  1.
       -2   -1    0    0    0  501  0.00000000000E+00  0.00000000000E+00 -0.67925224227E+03  0.67925224227E+03  0.25500000920E-02 0. -1.
    10030    2    1    2    0    0  0.00000000000E+00  0.00000000000E+00  0.20740742560E+04  0.34325787405E+04  0.27351074550E+04 0.  0.
        1    1    3    3  502    0  0.70681699723E+03 -0.32565768682E+03 -0.37425147850E+03  0.86354349384E+03  0.50400001928E-02 0. -1.
       -1    1    3    3    0  502 -0.70681699723E+03  0.32565768682E+03  0.24483257345E+04  0.25690352467E+04  0.50400001928E-02 0.  1.
</event>
<event>
 5   0  0.1937947E-05  0.2912925E+04  0.7818609E-02  0.8269042E-01
       -2   -1    0    0    0  501  0.00000000000E+00  0.00000000000E+00  0.95858247776E+03  0.95858247776E+03  0.25500000920E-02 0.  1.
        2   -1    0    0  501    0  0.00000000000E+00  0.00000000000E+00 -0.22129381507E+04  0.22129381507E+04  0.25500000920E-02 0. -1.
    10030    2    1    2    0    0  0.00000000000E+00  0.00000000000E+00 -0.12543556729E+04  0.31715206284E+04  0.29129254955E+04 0.  0.
        3    1    3    3  502    0  0.82925964555E+03 -0.45344308620E+03  0.57935075593E+03  0.11085709273E+04  0.10100000352E+00 0.  1.
       -3    1    3    3    0  502 -0.82925964555E+03  0.45344308620E+03 -0.18337064289E+04  0.20629497012E+04  0.10100000352E+00 0. -1.
</event>
<event>
 5   0  0.8055928E-06  0.2879091E+04  0.7818609E-02  0.8279126E-01
        1   -1    0    0  501    0  0.00000000000E+00  0.00000000000E+00  0.12630284148E+04  0.12630284148E+04  0.50400001928E-02 0. -1.
       -1   -1    0    0    0  501  0.00000000000E+00  0.00000000000E+00 -0.16407321655E+04  0.16407321655E+04  0.50400001928E-02 0.  1.
    10030    2    1    2    0    0  0.00000000000E+00  0.00000000000E+00 -0.37770375064E+03  0.29037605803E+04  0.28790910692E+04 0.  0.
        2    1    3    3  502    0 -0.22255611795E+03 -0.93706661890E+03  0.89020626683E+03  0.13115228825E+04  0.25500000920E-02 0. -1.
       -2    1    3    3    0  502  0.22255611795E+03  0.93706661890E+03 -0.12679100175E+04  0.15922376978E+04  0.25500000920E-02 0.  1.
</event>
<event>
 5   0  0.7971153E-06  0.2874323E+04  0.7818609E-02  0.8280558E-01
        1   -1    0    0  501    0  0.00000000000E+00  0.00000000000E+00  0.12928076470E+04  0.12928076470E+04  0.50400001928E-02 0. -1.
       -1   -1    0    0    0  501  0.00000000000E+00  0.00000000000E+00 -0.15976336806E+04  0.15976336806E+04  0.50400001928E-02 0.  1.
    10030    2    1    2    0    0  0.00000000000E+00  0.00000000000E+00 -0.30482603360E+03  0.28904413276E+04  0.28743229042E+04 0.  0.
        5    1    3    3  502    0 -0.53881790398E+03 -0.44223966049E+03 -0.14162464313E+04  0.15785045756E+04  0.46999998093E+01 0.  1.
       -5    1    3    3    0  502  0.53881790398E+03  0.44223966049E+03  0.11114203977E+04  0.13119367520E+04  0.46999998093E+01 0. -1.
</event>
<event>
 5   0  0.1960961E-05  0.3278930E+04  0.7818609E-02  0.8168277E-01
       -2   -1    0    0    0  501  0.00000000000E+00  0.00000000000E+00  0.93532408069E+03  0.93532408069E+03  0.25500000920E-02 0. -1.
        2   -1    0    0  501    0  0.00000000000E+00  0.00000000000E+00 -0.28737051712E+04  0.28737051712E+04  0.25500000920E-02 0.  1.
    10030    2    1    2    0    0  0.00000000000E+00  0.00000000000E+00 -0.19383810905E+04  0.38090292519E+04  0.32789300983E+04 0.  0.
        5    1    3    3  502    0 -0.20373033991E+03 -0.65880500358E+03  0.75864943412E+03  0.10252322361E+04  0.46999998093E+01 0. -1.
       -5    1    3    3    0  502  0.20373033991E+03  0.65880500358E+03 -0.26970305247E+04  0.27837970158E+04  0.46999998093E+01 0.  1.
</event>
<event>
 5   0  0.1918901E-05  0.3059981E+04  0.7818609E-02  0.8226807E-01
       -2   -1    0    0    0  501  0.00000000000E+00  0.00000000000E+00  0.12683459553E+04  0.12683459554E+04  0.25500000920E-02 0.  1.
        2   -1    0    0  501    0  0.00000000000E+00  0.00000000000E+00 -0.18456092073E+04  0.18456092073E+04  0.25500000920E-02 0. -1.
    10030    2    1    2    0    0  0.00000000000E+00  0.00000000000E+00 -0.57726325197E+03  0.31139551627E+04  0.30599810282E+04 0.  0.
        1    1    3    3  502    0  0.14460111933E+04  0.18193408902E+03  0.18522382888E+03  0.14691345243E+04  0.50400001928E-02 0.  1.
       -1    1    3    3    0  502 -0.14460111933E+04 -0.18193408902E+03 -0.76248708085E+03  0.16448206383E+04  0.50400001928E-02 0. -1.
</event>
<event>
 5   0  0.6578125E-06  0.2328393E+04  0.7818609E-02  0.8466810E-01
        3   -1    0    0  501    0  0.00000000000E+00  0.00000000000E+00  0.69099427630E+03  0.69099428368E+03  0.10100000352E+00 0.  1.
       -3   -1    0    0    0  501  0.00000000000E+00  0.00000000000E+00 -0.19614542074E+04  0.19614542100E+04  0.10100000352E+00 0. -1.
    10030    2    1    2    0    0  0.00000000000E+00  0.00000000000E+00 -0.12704599311E+04  0.26524484936E+04  0.23283931315E+04 0.  0.
        1    1    3    3  502    0  0.32465598548E+01 -0.24266174021E+03  0.66185952348E+03  0.70494913941E+03  0.50400001928E-02 0.  1.
       -1    1    3    3    0  502 -0.32465598548E+01  0.24266174021E+03 -0.19323194545E+04  0.19474993542E+04  0.50400001928E-02 0. -1.
</event>
<event>
 5   0  0.7305460E-06  0.1613350E+04  0.7818609E-02  0.8812388E-01
        1   -1    0    0  501    0  0.00000000000E+00  0.00000000000E+00  0.13820873655E+04  0.13820873655E+04  0.50400001928E-02 0.  1.
       -1   -1    0    0    0  501  0.00000000000E+00  0.00000000000E+00 -0.47082753306E+03  0.47082753309E+03  0.50400001928E-02 0. -1.
    10030    2    1    2    0    0  0.00000000000E+00  0.00000000000E+00  0.91125983240E+03  0.18529148986E+04  0.16133502841E+04 0.  0.
        4    1    3    3  502    0  0.32289766159E+03  0.68344627833E+03  0.13208720626E+03  0.76733979317E+03  0.12699999809E+01 0.  1.
       -4    1    3    3    0  502 -0.32289766159E+03 -0.68344627833E+03  0.77917262614E+03  0.10855751054E+04  0.12699999809E+01 0. -1.
</event>
<event>
 5   0  0.1829810E-05  0.3026761E+04  0.7818609E-02  0.8236130E-01
        2   -1    0    0  501    0  0.00000000000E+00  0.00000000000E+00  0.14436406915E+04  0.14436406915E+04  0.25500000920E-02 0.  1.
       -2   -1    0    0    0  501  0.00000000000E+00  0.00000000000E+00 -0.15864893874E+04  0.15864893874E+04  0.25500000920E-02 0. -1.
    10030    2    1    2    0    0  0.00000000000E+00  0.00000000000E+00 -0.14284869584E+03  0.30301300789E+04  0.30267610651E+04 0.  0.
        4    1    3    3  502    0 -0.28417228308E+03 -0.11228894783E+04 -0.10465127781E+04  0.15610333995E+04  0.12699999809E+01 0. -1.
       -4    1    3    3    0  502  0.28417228308E+03  0.11228894783E+04  0.90366408223E+03  0.14690966794E+04  0.12699999809E+01 0.  1.
</event>
<event>
 5   0  0.1918901E-05  0.2950226E+04  0.7818609E-02  0.8258089E-01
        2   -1    0    0  501    0  0.00000000000E+00  0.00000000000E+00  0.23778564258E+04  0.23778564258E+04  0.25500000920E-02 0.  1.
       -2   -1    0    0    0  501  0.00000000000E+00  0.00000000000E+00 -0.91509254907E+03  0.91509254908E+03  0.25500000920E-02 0. -1.
    10030    2    1    2    0    0  0.00000000000E+00  0.00000000000E+00  0.14627638767E+04  0.32929489749E+04  0.29502262273E+04 0.  0.
        1    1    3    3  502    0  0.12491618015E+04  0.46983453066E+03  0.14327132144E+04  0.19580134952E+04  0.50400001928E-02 0.  1.
       -1    1    3    3    0  502 -0.12491618015E+04 -0.46983453066E+03  0.30050662305E+02  0.13349354797E+04  0.50400001928E-02 0. -1.
</event>
<event>
 5   0  0.1960961E-05  0.2876847E+04  0.7818609E-02  0.8279800E-01
       -2   -1    0    0    0  501  0.00000000000E+00  0.00000000000E+00  0.11789540538E+04  0.11789540538E+04  0.25500000920E-02 0.  1.
        2   -1    0    0  501    0  0.00000000000E+00  0.00000000000E+00 -0.17549984823E+04  0.17549984823E+04  0.25500000920E-02 0. -1.
    10030    2    1    2    0    0  0.00000000000E+00  0.00000000000E+00 -0.57604442852E+03  0.29339525361E+04  0.28768472849E+04 0.  0.
        5    1    3    3  502    0  0.97470526136E+03 -0.86873522201E+02 -0.13631990480E+04  0.16780736246E+04  0.46999998093E+01 0. -1.
       -5    1    3    3    0  502 -0.97470526136E+03  0.86873522201E+02  0.78715461944E+03  0.12558789115E+04  0.46999998093E+01 0.  1.
</event>
<event>
 5   0  0.1960961E-05  0.2261602E+04  0.7818609E-02  0.8493217E-01
       -2   -1    0    0    0  501  0.00000000000E+00  0.00000000000E+00  0.76849960279E+03  0.76849960280E+03  0.25500000920E-02 0. -1.
        2   -1    0    0  501    0  0.00000000000E+00  0.00000000000E+00 -0.16639050622E+04  0.16639050622E+04  0.25500000920E-02 0.  1.
    10030    2    1    2    0    0  0.00000000000E+00  0.00000000000E+00 -0.89540545945E+03  0.24324046650E+04  0.22616015382E+04 0.  0.
        5    1    3    3  502    0  0.65380858564E+03  0.50489933085E+03 -0.12782261472E+04  0.15219307390E+04  0.46999998093E+01 0. -1.
       -5    1    3    3    0  502 -0.65380858564E+03 -0.50489933085E+03  0.38282068779E+03  0.91047392601E+03  0.46999998093E+01 0.  1.
</event>
<event>
 5   0  0.1960961E-05  0.2552207E+04  0.7818609E-02  0.8384619E-01
       -2   -1    0    0    0  501  0.00000000000E+00  0.00000000000E+00  0.71111361813E+03  0.71111361813E+03  0.25500000920E-02 0. -1.
        2   -1    0    0  501    0  0.00000000000E+00  0.00000000000E+00 -0.22899855878E+04  0.22899855878E+04  0.25500000920E-02 0.  1.
    10030    2    1    2    0    0  0.00000000000E+00  0.00000000000E+00 -0.15788719697E+04  0.30010992060E+04  0.25522068387E+04 0.  0.
        5    1    3    3  502    0  0.81512890945E+03  0.72206197690E+03 -0.15717384646E+04  0.19121172895E+04  0.46999998093E+01 0.  1.
       -5    1    3    3    0  502 -0.81512890945E+03 -0.72206197690E+03 -0.71335050565E+01  0.10889819165E+04  0.46999998093E+01 0. -1.
</event>
<event>
 5   0  0.7971153E-06  0.2714524E+04  0.7818609E-02  0.8330308E-01
       -1   -1    0    0    0  501  0.00000000000E+00  0.00000000000E+00  0.10579271093E+04  0.10579271093E+04  0.50400001928E-02 0. -1.
        1   -1    0    0  501    0  0.00000000000E+00  0.00000000000E+00 -0.17412918837E+04  0.17412918837E+04  0.50400001928E-02 0.  1.
    10030    2    1    2    0    0  0.00000000000E+00  0.00000000000E+00 -0.68336477439E+03  0.27992189930E+04  0.27145238175E+04 0.  0.
        5    1    3    3  502    0  0.99187829708E+02  0.35028443380E+03 -0.16899947718E+04  0.17287688766E+04  0.46999998093E+01 0.  1.
       -5    1    3    3    0  502 -0.99187829708E+02 -0.35028443380E+03  0.10066299974E+04  0.10704501164E+04  0.46999998093E+01 0. -1.
</event>
<event>
 5   0  0.1918901E-05  0.2822376E+04  0.7818609E-02  0.8296355E-01
       -2   -1    0    0    0  501  0.00000000000E+00  0.00000000000E+00  0.99125336281E+03  0.99125336282E+03  0.25500000920E-02 0. -1.
        2   -1    0    0  501    0  0.00000000000E+00  0.00000000000E+00 -0.20090232570E+04  0.20090232570E+04  0.25500000920E-02 0.  1.
    10030    2    1    2    0    0  0.00000000000E+00  0.00000000000E+00 -0.10177698942E+04  0.30002766198E+04  0.28223756373E+04 0.  0.
        1    1    3    3  502    0 -0.34220453966E+03  0.61359351331E+03  0.79212513256E+03  0.10588027069E+04  0.50400001928E-02 0. -1.
       -1    1    3    3    0  502  0.34220453966E+03 -0.61359351331E+03 -0.18098950268E+04  0.19414739129E+04  0.50400001928E-02 0.  1.
</event>
<event>
 5   0  0.8055928E-06  0.2895565E+04  0.7818609E-02  0.8274198E-01
        1   -1    0    0  501    0  0.00000000000E+00  0.00000000000E+00  0.18509489648E+04  0.18509489648E+04  0.50400001928E-02 0.  1.
       -1   -1    0    0    0  501  0.00000000000E+00  0.00000000000E+00 -0.11324325373E+04  0.11324325373E+04  0.50400001928E-02 0. -1.
    10030    2    1    2    0    0  0.00000000000E+00  0.00000000000E+00  0.71851642752E+03  0.29833815021E+04  0.28955654595E+04 0.  0.
        2    1    3    3  502    0 -0.44655724273E+03  0.95408401516E+03 -0.66403164168E+03  0.12452420247E+04  0.25500000920E-02 0. -1.
       -2    1    3    3    0  502  0.44655724273E+03 -0.95408401516E+03  0.13825480692E+04  0.17381394773E+04  0.25500000920E-02 0.  1.
</event>
<event>
 5   0  0.8055928E-06  0.2843411E+04  0.7818609E-02  0.8289916E-01
       -1   -1    0    0    0  501  0.00000000000E+00  0.00000000000E+00  0.59528849705E+03  0.59528849707E+03  0.50400001928E-02 0. -1.
        1   -1    0    0  501    0  0.00000000000E+00  0.00000000000E+00 -0.33954058990E+04  0.33954058990E+04  0.50400001928E-02 0.  1.
    10030    2    1    2    0    0  0.00000000000E+00  0.00000000000E+00 -0.28001174020E+04  0.39906943961E+04  0.28434106806E+04 0.  0.
        2    1    3    3  502    0  0.58354485949E+02  0.54520295907E+03 -0.32410348150E+04  0.32870896223E+04  0.25500000920E-02 0.  1.
       -2    1    3    3    0  502 -0.58354485949E+02 -0.54520295907E+03  0.44091741306E+03  0.70360477383E+03  0.25500000920E-02 0. -1.
</event>
<event>
 5   0  0.8234888E-06  0.3047550E+04  0.7818609E-02  0.8230282E-01
        1   -1    0    0  501    0  0.00000000000E+00  0.00000000000E+00  0.16793026867E+04  0.16793026867E+04  0.50400001928E-02 0.  1.
       -1   -1    0    0    0  501  0.00000000000E+00  0.00000000000E+00 -0.13826510233E+04  0.13826510233E+04  0.50400001928E-02 0. -1.
    10030    2    1    2    0    0  0.00000000000E+00  0.00000000000E+00  0.29665166336E+03  0.30619537100E+04  0.30475495587E+04 0.  0.
        3    1    3    3  502    0  0.20956685459E+03 -0.12476686118E+03  0.16595642135E+04  0.16773903616E+04  0.10100000352E+00 0.  1.
       -3    1    3    3    0  502 -0.20956685459E+03  0.12476686118E+03 -0.13629125502E+04  0.13845633484E+04  0.10100000352E+00 0. -1.
</event>
<event>
 5   0  0.1918901E-05  0.3000168E+04  0.7818609E-02  0.8243683E-01
       -2   -1    0    0    0  501  0.00000000000E+00  0.00000000000E+00  0.83941499463E+03  0.83941499463E+03  0.25500000920E-02 0. -1.
        2   -1    0    0  501    0  0.00000000000E+00  0.00000000000E+00 -0.26807375819E+04  0.26807375819E+04  0.25500000920E-02 0.  1.
    10030    2    1    2    0    0  0.00000000000E+00  0.00000000000E+00 -0.18413225873E+04  0.35201525765E+04  0.30001675439E+04 0.  0.
        1    1    3    3  502    0  0.37909731188E+03  0.13807951019E+03 -0.26158816668E+04  0.26468127282E+04  0.50400001928E-02 0.  1.
       -1    1    3    3    0  502 -0.37909731188E+03 -0.13807951019E+03  0.77455907956E+03  0.87333984838E+03  0.50400001928E-02 0. -1.
</event>
<event>
 5   0  0.7305460E-06  0.2889815E+04  0.7818609E-02  0.8275914E-01
       -1   -1    0    0    0  501  0.00000000000E+00  0.00000000000E+00  0.83430674873E+03  0.83430674874E+03  0.50400001928E-02 0.  1.
        1   -1    0    0  501    0  0.00000000000E+00  0.00000000000E+00 -0.25023867229E+04  0.25023867229E+04  0.50400001928E-02 0. -1.
    10030    2    1    2    0    0  0.00000000000E+00  0.00000000000E+00 -0.16680799741E+04  0.33366934716E+04  0.28898153096E+04 0.  0.
        4    1    3    3  502    0  0.11905228205E+04  0.16717848451E+03 -0.17595271123E+04  0.21310163076E+04  0.12699999809E+01 0. -1.
       -4    1    3    3    0  502 -0.11905228205E+04 -0.16717848451E+03  0.91447138124E+02  0.12056771640E+04  0.12699999809E+01 0.  1.
</event>
<event>
 5   0  0.7305460E-06  0.2919346E+04  0.7818609E-02  0.8267145E-01
        1   -1    0    0  501    0  0.00000000000E+00  0.00000000000E+00  0.17583833664E+04  0.17583833664E+04  0.50400001928E-02 0.  1.
       -1   -1    0    0    0  501  0.00000000000E+00  0.00000000000E+00 -0.12117069531E+04  0.12117069532E+04  0.50400001928E-02 0. -1.
    10030    2    1    2    0    0  0.00000000000E+00  0.00000000000E+00  0.54667641325E+03  0.29700903196E+04  0.29193460579E+04 0.  0.
        4    1    3    3  502    0  0.13267480303E+04 -0.50709835367E+03  0.61569091808E+03  0.15480587830E+04  0.12699999809E+01 0.  1.
       -4    1    3    3    0  502 -0.13267480303E+04  0.50709835367E+03 -0.69014504834E+02  0.14220315365E+04  0.12699999809E+01 0. -1.
</event>
<event>
 5   0  0.7971153E-06  0.2966519E+04  0.7818609E-02  0.8253357E-01
        1   -1    0    0  501    0  0.00000000000E+00  0.00000000000E+00  0.27451781553E+04  0.27451781553E+04  0.50400001928E-02 0. -1.
       -1   -1    0    0    0  501  0.00000000000E+00  0.00000000000E+00 -0.80142673433E+03  0.80142673434E+03  0.50400001928E-02 0.  1.
    10030    2    1    2    0    0  0.00000000000E+00  0.00000000000E+00  0.19437514210E+04  0.35466048897E+04  0.29665192831E+04 0.  0.
        5    1    3    3  502    0  0.22886289285E+03  0.59002850562E+03  0.25756549995E+04  0.26522693354E+04  0.46999998093E+01 0. -1.
       -5    1    3    3    0  502 -0.22886289285E+03 -0.59002850562E+03 -0.63190357847E+03  0.89433555428E+03  0.46999998093E+01 0.  1.
</event>
<event>
 5   0  0.1976233E-05  0.2897154E+04  0.7818609E-02  0.8273725E-01
        2   -1    0    0  501    0  0.00000000000E+00  0.00000000000E+00  0.21062635585E+04  0.21062635585E+04  0.25500000920E-02 0.  1.
       -2   -1    0    0    0  501  0.00000000000E+00  0.00000000000E+00 -0.99625481330E+03  0.99625481330E+03  0.25500000920E-02 0. -1.
    10030    2    1    2    0    0  0.00000000000E+00  0.00000000000E+00  0.11100087452E+04  0.31025183718E+04  0.28971539195E+04 0.  0.
        2    1    3    3  502    0  0.95116404840E+03 -0.10415998675E+04  0.20188525056E+03  0.14249213962E+04  0.25500000920E-02 0. -1.
       -2    1    3    3    0  502 -0.95116404840E+03  0.10415998675E+04  0.90812349467E+03  0.16775969756E+04  0.25500000920E-02 0.  1.
</event>
<event>
 5   0  0.1829810E-05  0.2994008E+04  0.7818609E-02  0.8245444E-01
       -2   -1    0    0    0  501  0.00000000000E+00  0.00000000000E+00  0.19412162112E+04  0.19412162112E+04  0.25500000920E-02 0. -1.
        2   -1    0    0  501    0  0.00000000000E+00  0.00000000000E+00 -0.11544418106E+04  0.11544418106E+04  0.25500000920E-02 0.  1.
    10030    2    1    2    0    0  0.00000000000E+00  0.00000000000E+00  0.78677440065E+03  0.30956580218E+04  0.29940081213E+04 0.  0.
        4    1    3    3  502    0 -0.65177449152E+03  0.80707657716E+03 -0.72253154835E+03  0.12642136055E+04  0.12699999809E+01 0.  1.
       -4    1    3    3    0  502  0.65177449152E+03 -0.80707657716E+03  0.15093059490E+04  0.18314444162E+04  0.12699999809E+01 0. -1.
</event>
<event>
 5   0  0.1960961E-05  0.2891766E+04  0.7818609E-02  0.8275332E-01
        2   -1    0    0  501    0  0.00000000000E+00  0.00000000000E+00  0.18186897842E+04  0.18186897842E+04  0.25500000920E-02 0.  1.
       -2   -1    0    0    0  501  0.00000000000E+00  0.00000000000E+00 -0.11494963689E+04  0.11494963689E+04  0.25500000920E-02 0. -1.
    10030    2    1    2    0    0  0.00000000000E+00  0.00000000000E+00  0.66919341527E+03  0.29681861531E+04  0.28917657602E+04 0.  0.
        5    1    3    3  502    0 -0.40314252104E+03 -0.65840822816E+03  0.15894135272E+04  0.17669982279E+04  0.46999998093E+01 0.  1.
       -5    1    3    3    0  502  0.40314252104E+03  0.65840822816E+03 -0.92022011188E+03  0.12011879251E+04  0.46999998093E+01 0. -1.
</event>
<event>
 5   0  0.1937947E-05  0.2906986E+04  0.7818609E-02  0.8270802E-01
       -2   -1    0    0    0  501  0.00000000000E+00  0.00000000000E+00  0.76697708603E+03  0.76697708604E+03  0.25500000920E-02 0.  1.
        2   -1    0    0  501    0  0.00000000000E+00  0.00000000000E+00 -0.27545042033E+04  0.27545042033E+04  0.25500000920E-02 0. -1.
    10030    2    1    2    0    0  0.00000000000E+00  0.00000000000E+00 -0.19875271173E+04  0.35214812894E+04  0.29069857979E+04 0.  0.
        3    1    3    3  502    0  0.15739352671E+03  0.13902573741E+04 -0.51675848976E+03  0.14915185669E+04  0.10100000352E+00 0.  1.
       -3    1    3    3    0  502 -0.15739352671E+03 -0.13902573741E+04 -0.14707686275E+04  0.20299627224E+04  0.10100000352E+00 0. -1.
</event>
<event>
 5   0  0.1960961E-05  0.2903902E+04  0.7818609E-02  0.8271718E-01
       -2   -1    0    0    0  501  0.00000000000E+00  0.00000000000E+00  0.12424766899E+04  0.12424766899E+04  0.25500000920E-02 0.  1.
        2   -1    0    0  501    0  0.00000000000E+00  0.00000000000E+00 -0.16967412464E+04  0.16967412464E+04  0.25500000920E-02 0. -1.
    10030    2    1    2    0    0  0.00000000000E+00  0.00000000000E+00 -0.45426455648E+03  0.29392179364E+04  0.29039018217E+04 0.  0.
        5    1    3    3  502    0  0.84791414540E+03 -0.47449684635E+03 -0.13191574203E+04  0.16383845838E+04  0.46999998093E+01 0. -1.
       -5    1    3    3    0  502 -0.84791414540E+03  0.47449684635E+03  0.86489286378E+03  0.13008333525E+04  0.46999998093E+01 0.  1.
</event>
<event>
 5   0  0.1976233E-05  0.2879379E+04  0.7818609E-02  0.8279039E-01
        2   -1    0    0  501    0  0.00000000000E+00  0.00000000000E+00  0.18685890535E+04  0.18685890535E+04  0.25500000920E-02 0. -1.
       -2   -1    0    0    0  501  0.00000000000E+00  0.00000000000E+00 -0.11092358171E+04  0.11092358171E+04  0.25500000920E-02 0.  1.
    10030    2    1    2    0    0  0.00000000000E+00  0.00000000000E+00  0.75935323639E+03  0.29778248706E+04  0.28793790341E+04 0.  0.
        2    1    3    3  502    0  0.42942582420E+03 -0.12159578754E+03  0.17952381972E+04  0.18498843907E+04  0.25500000920E-02 0. -1.
       -2    1    3    3    0  502 -0.42942582420E+03  0.12159578754E+03 -0.10358849608E+04  0.11279404799E+04  0.25500000920E-02 0.  1.
</event>
<event>
 5   0  0.8122088E-06  0.2134018E+04  0.7818609E-02  0.8546404E-01
       -1   -1    0    0    0  501  0.00000000000E+00  0.00000000000E+00  0.11557421975E+04  0.11557421975E+04  0.50400001928E-02 0.  1.
        1   -1    0    0  501    0  0.00000000000E+00  0.00000000000E+00 -0.98508839271E+03  0.98508839273E+03  0.50400001928E-02 0. -1.
    10030    2    1    2    0    0  0.00000000000E+00  0.00000000000E+00  0.17065380483E+03  0.21408305903E+04  0.21340180166E+04 0.  0.
        1    1    3    3  502    0  0.57448880681E+03  0.15378216843E+03  0.97405676023E+03  0.11412593556E+04  0.50400001928E-02 0.  1.
       -1    1    3    3    0  502 -0.57448880681E+03 -0.15378216843E+03 -0.80340295541E+03  0.99957123471E+03  0.50400001928E-02 0. -1.
</event>
<event>
 5   0  0.7305460E-06  0.2819541E+04  0.7818609E-02  0.8297227E-01
        1   -1    0    0  501    0  0.00000000000E+00  0.00000000000E+00  0.11977299547E+04  0.11977299547E+04  0.50400001928E-02 0.  1.
       -1   -1    0    0    0  501  0.00000000000E+00  0.00000000000E+00 -0.16593494165E+04  0.16593494165E+04  0.50400001928E-02 0. -1.
    10030    2    1    2    0    0  0.00000000000E+00  0.00000000000E+00 -0.46161946173E+03  0.28570793712E+04  0.28195407438E+04 0.  0.
        4    1    3    3  502    0  0.13835105329E+04 -0.26890246779E+03 -0.19811631611E+03  0.14232573975E+04  0.12699999809E+01 0.  1.
       -4    1    3    3    0  502 -0.13835105329E+04  0.26890246779E+03 -0.26350314562E+03  0.14338219738E+04  0.12699999809E+01 0. -1.
</event>
<event>
 5   0  0.1829810E-05  0.2910793E+04  0.7818609E-02  0.8269673E-01
       -2   -1    0    0    0  501  0.00000000000E+00  0.00000000000E+00  0.10424989715E+04  0.10424989715E+04  0.25500000920E-02 0.  1.
        2   -1    0    0  501    0  0.00000000000E+00  0.00000000000E+00 -0.20318290337E+04  0.20318290337E+04  0.25500000920E-02 0. -1.
    10030    2    1    2    0    0  0.00000000000E+00  0.00000000000E+00 -0.98933006218E+03  0.30743280052E+04  0.29107934849E+04 0.  0.
        4    1    3    3  502    0 -0.79920019404E+03 -0.11997645843E+04 -0.70595968608E+03  0.16051593999E+04  0.12699999809E+01 0. -1.
       -4    1    3    3    0  502  0.79920019404E+03  0.11997645843E+04 -0.28337037610E+03  0.14691686053E+04  0.12699999809E+01 0.  1.
</event>
<event>
 5   0  0.1829810E-05  0.2875137E+04  0.7818609E-02  0.8280314E-01
       -2   -1    0    0    0  501  0.00000000000E+00  0.00000000000E+00  0.72579156191E+03  0.72579156191E+03  0.25500000920E-02 0.  1.
        2   -1    0    0  501    0  0.00000000000E+00  0.00000000000E+00 -0.28473776419E+04  0.28473776419E+04  0.25500000920E-02 0. -1.
    10030    2    1    2    0    0  0.00000000000E+00  0.00000000000E+00 -0.21215860800E+04  0.35731692038E+04  0.28751366340E+04 0.  0.
        4    1    3    3  502    0 -0.89059018005E+03 -0.85530412279E+03 -0.19756573589E+04  0.23297896094E+04  0.12699999809E+01 0. -1.
       -4    1    3    3    0  502  0.89059018005E+03  0.85530412279E+03 -0.14592872105E+03  0.12433795944E+04  0.12699999809E+01 0.  1.
</event>
<event>
 5   0  0.8055928E-06  0.2821208E+04  0.7818609E-02  0.8296714E-01
        1   -1    0    0  501    0  0.00000000000E+00  0.00000000000E+00  0.16973561931E+04  0.16973561931E+04  0.50400001928E-02 0. -1.
       -1   -1    0    0    0  501  0.00000000000E+00  0.00000000000E+00 -0.11722958417E+04  0.11722958417E+04  0.50400001928E-02 0.  1.
    10030    2    1    2    0    0  0.00000000000E+00  0.00000000000E+00  0.52506035136E+03  0.28696520348E+04  0.28212079732E+04 0.  0.
        2    1    3    3  502    0 -0.69999109200E+03 -0.82132823198E+03 -0.66149376245E+03  0.12657573193E+04  0.25500000920E-02 0.  1.
       -2    1    3    3    0  502  0.69999109200E+03  0.82132823198E+03  0.11865541138E+04  0.16038947155E+04  0.25500000920E-02 0. -1.
</event>
<event>
 5   0  0.8055928E-06  0.2351808E+04  0.7818609E-02  0.8457770E-01
       -1   -1    0    0    0  501  0.00000000000E+00  0.00000000000E+00  0.10131808678E+04  0.10131808678E+04  0.50400001928E-02 0. -1.
        1   -1    0    0  501    0  0.00000000000E+00  0.00000000000E+00 -0.13647614181E+04  0.13647614181E+04  0.50400001928E-02 0.  1.
    10030    2    1    2    0    0  0.00000000000E+00  0.00000000000E+00 -0.35158055032E+03  0.23779422860E+04  0.23518079496E+04 0.  0.
        2    1    3    3  502    0  0.59903194326E+03 -0.10036971906E+04 -0.45899358450E+02  0.11697666735E+04  0.25500000920E-02 0.  1.
       -2    1    3    3    0  502 -0.59903194326E+03  0.10036971906E+04 -0.30568119187E+03  0.12081756124E+04  0.25500000920E-02 0. -1.
</event>
<event>
 5   0  0.1976233E-05  0.2852267E+04  0.7818609E-02  0.8287223E-01
       -2   -1    0    0    0  501  0.00000000000E+00  0.00000000000E+00  0.10049311354E+04  0.10049311354E+04  0.25500000920E-02 0.  1.
        2   -1    0    0  501    0  0.00000000000E+00  0.00000000000E+00 -0.20238772214E+04  0.20238772214E+04  0.25500000920E-02 0. -1.
    10030    2    1    2    0    0  0.00000000000E+00  0.00000000000E+00 -0.10189460860E+04  0.30288083569E+04  0.28522673325E+04 0.  0.
        2    1    3    3  502    0  0.83357709626E+03  0.12596180415E+03  0.71200166808E+03  0.11034779231E+04  0.25500000920E-02 0.  1.
       -2    1    3    3    0  502 -0.83357709626E+03 -0.12596180415E+03 -0.17309477541E+04  0.19253304337E+04  0.25500000920E-02 0. -1.
</event>
<event>
 5   0  0.1937947E-05  0.2738050E+04  0.7818609E-02  0.8322764E-01
       -2   -1    0    0    0  501  0.00000000000E+00  0.00000000000E+00  0.11827601297E+04  0.11827601297E+04  0.25500000920E-02 0. -1.
        2   -1    0    0  501    0  0.00000000000E+00  0.00000000000E+00 -0.15846236020E+04  0.15846236020E+04  0.25500000920E-02 0.  1.
    10030    2    1    2    0    0  0.00000000000E+00  0.00000000000E+00 -0.40186347223E+03  0.27673837317E+04  0.27380501215E+04 0.  0.
        3    1    3    3  502    0 -0.43342775598E+03 -0.71621473396E+01  0.11115637441E+04  0.11930988574E+04  0.10100000352E+00 0. -1.
       -3    1    3    3    0  502  0.43342775598E+03  0.71621473396E+01 -0.15134272164E+04  0.15742848743E+04  0.10100000352E+00 0.  1.
</event>
<event>
 5   0  0.1976233E-05  0.2995801E+04  0.7818609E-02  0.8244931E-01
       -2   -1    0    0    0  501  0.00000000000E+00  0.00000000000E+00  0.10319943217E+04  0.10319943217E+04  0.25500000920E-02 0. -1.
        2   -1    0    0  501    0  0.00000000000E+00  0.00000000000E+00 -0.21741455703E+04  0.21741455703E+04  0.25500000920E-02 0.  1.
    10030    2    1    2    0    0  0.00000000000E+00  0.00000000000E+00 -0.11421512486E+04  0.32061398920E+04  0.29958009834E+04 0.  0.
        2    1    3    3  502    0 -0.51072629320E+03 -0.60120447052E+03 -0.19338280584E+04  0.20885351617E+04  0.25500000920E-02 0.  1.
       -2    1    3    3    0  502  0.51072629320E+03  0.60120447052E+03  0.79167680983E+03  0.11176047303E+04  0.25500000920E-02 0. -1.
</event>
<event>
 5   0  0.1918901E-05  0.3072511E+04  0.7818609E-02  0.8223323E-01
        2   -1    0    0  501    0  0.00000000000E+00  0.00000000000E+00  0.16669962259E+04  0.16669962259E+04  0.25500000920E-02 0. -1.
       -2   -1    0    0    0  501  0.00000000000E+00  0.00000000000E+00 -0.14157689801E+04  0.14157689801E+04  0.25500000920E-02 0.  1.
    10030    2    1    2    0    0  0.00000000000E+00  0.00000000000E+00  0.25122724572E+03  0.30827652060E+04  0.30725113810E+04 0.  0.
        1    1    3    3  502    0  0.69247467904E+03  0.10702475601E+04  0.98587252747E+03  0.16114886477E+04  0.50400001928E-02 0. -1.
       -1    1    3    3    0  502 -0.69247467904E+03 -0.10702475601E+04 -0.73464528175E+03  0.14712765583E+04  0.50400001928E-02 0.  1.
</event>
<event>
 5   0  0.7971153E-06  0.2907729E+04  0.7818609E-02  0.8270581E-01
        1   -1    0    0  501    0  0.00000000000E+00  0.00000000000E+00  0.19429554792E+04  0.19429554792E+04  0.50400001928E-02 0.  1.
       -1   -1    0    0    0  501  0.00000000000E+00  0.00000000000E+00 -0.10878903955E+04  0.10878903956E+04  0.50400001928E-02 0. -1.
    10030    2    1    2    0    0  0.00000000000E+00  0.00000000000E+00  0.85506508361E+03  0.30308458747E+04  0.29077294267E+04 0.  0.
        5    1    3    3  502    0 -0.74349655218E+01  0.69757222010E+03 -0.90202990403E+03  0.11403255319E+04  0.46999998093E+01 0. -1.
       -5    1    3    3    0  502  0.74349655218E+01 -0.69757222010E+03  0.17570949876E+04  0.18905203428E+04  0.46999998093E+01 0.  1.
</event>
<event>
 5   0  0.1960961E-05  0.2842883E+04  0.7818609E-02  0.8290077E-01
        2   -1    0    0  501    0  0.00000000000E+00  0.00000000000E+00  0.97247287840E+03  0.97247287840E+03  0.25500000920E-02 0.  1.
       -2   -1    0    0    0  501  0.00000000000E+00  0.00000000000E+00 -0.20776882181E+04  0.20776882181E+04  0.25500000920E-02 0. -1.
    10030    2    1    2    0    0  0.00000000000E+00  0.00000000000E+00 -0.11052153397E+04  0.30501610965E+04  0.28428826511E+04 0.  0.
        5    1    3    3  502    0  0.11424915776E+02 -0.60147417788E+03  0.82914706498E+03  0.10244064919E+04  0.46999998093E+01 0.  1.
       -5    1    3    3    0  502 -0.11424915776E+02  0.60147417788E+03 -0.19343624047E+04  0.20257546046E+04  0.46999998093E+01 0. -1.
</event>
<event>
 5   0  0.1829810E-05  0.2410219E+04  0.7818609E-02  0.8435688E-01
       -2   -1    0    0    0  501  0.00000000000E+00  0.00000000000E+00  0.86708973706E+03  0.86708973706E+03  0.25500000920E-02 0. -1.
        2   -1    0    0  501    0  0.00000000000E+00  0.00000000000E+00 -0.16749001500E+04  0.16749001500E+04  0.25500000920E-02 0.  1.
    10030    2    1    2    0    0  0.00000000000E+00  0.00000000000E+00 -0.80781041297E+03  0.25419898871E+04  0.24102188537E+04 0.  0.
        4    1    3    3  502    0  0.10853857445E+04 -0.10091349471E+03  0.13803744012E+03  0.10987728134E+04  0.12699999809E+01 0. -1.
       -4    1    3    3    0  502 -0.10853857445E+04  0.10091349471E+03 -0.94584785309E+03  0.14432170737E+04  0.12699999809E+01 0.  1.
</event>
<event>
 5   0  0.1976233E-05  0.2919485E+04  0.7818609E-02  0.8267104E-01
        2   -1    0    0  501    0  0.00000000000E+00  0.00000000000E+00  0.17738397786E+04  0.17738397786E+04  0.25500000920E-02 0.  1.
       -2   -1    0    0    0  501  0.00000000000E+00  0.00000000000E+00 -0.12012627398E+04  0.12012627398E+04  0.25500000920E-02 0. -1.
    10030    2    1    2    0    0  0.00000000000E+00  0.00000000000E+00  0.57257703879E+03  0.29751025185E+04  0.29194846343E+04 0.  0.
        2    1    3    3  502    0 -0.64861201512E+03 -0.61760547742E+03 -0.88836943906E+03  0.12614810075E+04  0.25500000920E-02 0. -1.
       -2    1    3    3    0  502  0.64861201512E+03  0.61760547742E+03  0.14609464779E+04  0.17136215110E+04  0.25500000920E-02 0.  1.
</event>
<event>
 5   0  0.7971153E-06  0.2959942E+04  0.7818609E-02  0.8255263E-01
        1   -1    0    0  501    0  0.00000000000E+00  0.00000000000E+00  0.22031296199E+04  0.22031296199E+04  0.50400001928E-02 0. -1.
       -1   -1    0    0    0  501  0.00000000000E+00  0.00000000000E+00 -0.99418296686E+03  0.99418296687E+03  0.50400001928E-02 0.  1.
    10030    2    1    2    0    0  0.00000000000E+00  0.00000000000E+00  0.12089466530E+04  0.31973125868E+04  0.29599418521E+04 0.  0.
        5    1    3    3  502    0  0.70291887090E+03 -0.12956377277E+04  0.46149625939E+03  0.15445947520E+04  0.46999998093E+01 0.  1.
       -5    1    3    3    0  502 -0.70291887090E+03  0.12956377277E+04  0.74745039363E+03  0.16527178348E+04  0.46999998093E+01 0. -1.
</event>
<event>
 5   0  0.7971153E-06  0.2920516E+04  0.7818609E-02  0.8266799E-01
       -1   -1    0    0    0  501  0.00000000000E+00  0.00000000000E+00  0.13128255443E+04  0.13128255443E+04  0.50400001928E-02 0.  1.
        1   -1    0    0  501    0  0.00000000000E+00  0.00000000000E+00 -0.16242477680E+04  0.16242477680E+04  0.50400001928E-02 0. -1.
    10030    2    1    2    0    0  0.00000000000E+00  0.00000000000E+00 -0.31142222371E+03  0.29370733123E+04  0.29205163653E+04 0.  0.
        5    1    3    3  502    0  0.78466291009E+03 -0.24337629680E+03 -0.13697849939E+04  0.15972667040E+04  0.46999998093E+01 0. -1.
       -5    1    3    3    0  502 -0.78466291009E+03  0.24337629680E+03  0.10583627702E+04  0.13398066083E+04  0.46999998093E+01 0.  1.
</event>
<event>
 5   0  0.1918901E-05  0.2930366E+04  0.7818609E-02  0.8263900E-01
       -2   -1    0    0    0  501  0.00000000000E+00  0.00000000000E+00  0.13497604362E+04  0.13497604362E+04  0.25500000920E-02 0.  1.
        2   -1    0    0  501    0  0.00000000000E+00  0.00000000000E+00 -0.15904761869E+04  0.15904761869E+04  0.25500000920E-02 0. -1.
    10030    2    1    2    0    0  0.00000000000E+00  0.00000000000E+00 -0.24071575064E+03  0.29402366231E+04  0.29303664152E+04 0.  0.
        1    1    3    3  502    0 -0.68268880359E+03  0.12671002620E+04  0.15470918549E+03  0.14475987043E+04  0.50400001928E-02 0.  1.
       -1    1    3    3    0  502  0.68268880359E+03 -0.12671002620E+04 -0.39542493614E+03  0.14926379188E+04  0.50400001928E-02 0. -1.
</event>
<event>
 5   0  0.1960961E-05  0.2749078E+04  0.7818609E-02  0.8319254E-01
        2   -1    0    0  501    0  0.00000000000E+00  0.00000000000E+00  0.20305202431E+04  0.20305202431E+04  0.25500000920E-02 0. -1.
       -2   -1    0    0    0  501  0.00000000000E+00  0.00000000000E+00 -0.93047919081E+03  0.93047919081E+03  0.25500000920E-02 0.  1.
    10030    2    1    2    0    0  0.00000000000E+00  0.00000000000E+00  0.11000410523E+04  0.29609994340E+04  0.27490775418E+04 0.  0.
        5    1    3    3  502    0  0.17693415653E+03  0.19604449898E+03 -0.90288967682E+03  0.94072897257E+03  0.46999998093E+01 0.  1.
       -5    1    3    3    0  502 -0.17693415653E+03 -0.19604449898E+03  0.20029307292E+04  0.20202704614E+04  0.46999998093E+01 0. -1.
</event>
<event>
 5   0  0.1960961E-05  0.2059213E+04  0.7818609E-02  0.8579426E-01
        2   -1    0    0  501    0  0.00000000000E+00  0.00000000000E+00  0.87121707517E+03  0.87121707518E+03  0.25500000920E-02 0. -1.
       -2   -1    0    0    0  501  0.00000000000E+00  0.00000000000E+00 -0.12167913591E+04  0.12167913591E+04  0.25500000920E-02 0.  1.
    10030    2    1    2    0    0  0.00000000000E+00  0.00000000000E+00 -0.34557428396E+03  0.20880084343E+04  0.20592128681E+04 0.  0.
        5    1    3    3  502    0  0.30555611591E+03  0.38911466393E+03  0.74277482607E+03  0.89247481415E+03  0.46999998093E+01 0. -1.
       -5    1    3    3    0  502 -0.30555611591E+03 -0.38911466393E+03 -0.10883491100E+04  0.11955336202E+04  0.46999998093E+01 0.  1.
</event>
<event>
 5   0  0.7305460E-06  0.2904116E+04  0.7818609E-02  0.8271654E-01
       -1   -1    0    0    0  501  0.00000000000E+00  0.00000000000E+00  0.21064076833E+04  0.21064076833E+04  0.50400001928E-02 0. -1.
        1   -1    0    0  501    0  0.00000000000E+00  0.00000000000E+00 -0.10009800004E+04  0.10009800004E+04  0.50400001928E-02 0.  1.
    10030    2    1    2    0    0  0.00000000000E+00  0.00000000000E+00  0.11054276829E+04  0.31073876838E+04  0.29041156752E+04 0.  0.
        4    1    3    3  502    0 -0.91825721805E+03  0.11228287708E+04  0.62472680486E+03  0.15793118630E+04  0.12699999809E+01 0. -1.
       -4    1    3    3    0  502  0.91825721805E+03 -0.11228287708E+04  0.48070087802E+03  0.15280758208E+04  0.12699999809E+01 0.  1.
</event>
<event>
 5   0  0.7305460E-06  0.2723411E+04  0.7818609E-02  0.8327449E-01
       -1   -1    0    0    0  501  0.00000000000E+00  0.00000000000E+00  0.15330899269E+04  0.15330899269E+04  0.50400001928E-02 0.  1.
        1   -1    0    0  501    0  0.00000000000E+00  0.00000000000E+00 -0.12094800163E+04  0.12094800163E+04  0.50400001928E-02 0. -1.
    10030    2    1    2    0    0  0.00000000000E+00  0.00000000000E+00  0.32360991062E+03  0.27425699432E+04  0.27234108245E+04 0.  0.
        4    1    3    3  502    0 -0.11916501471E+04 -0.50941441043E+03  0.58272497724E+03  0.14209514864E+04  0.12699999809E+01 0. -1.
       -4    1    3    3    0  502  0.11916501471E+04  0.50941441043E+03 -0.25911506662E+03  0.13216184568E+04  0.12699999809E+01 0.  1.
</event>
<event>
 5   0  0.8055928E-06  0.2858138E+04  0.7818609E-02  0.8285443E-01
       -1   -1    0    0    0  501  0.00000000000E+00  0.00000000000E+00  0.23671048734E+04  0.23671048734E+04  0.50400001928E-02 0. -1.
        1   -1    0    0  501    0  0.00000000000E+00  0.00000000000E+00 -0.86275803611E+03  0.86275803613E+03  0.50400001928E-02 0.  1.
    10030    2    1    2    0    0  0.00000000000E+00  0.00000000000E+00  0.15043468373E+04  0.32298629095E+04  0.28581383814E+04 0.  0.
        2    1    3    3  502    0 -0.78073823252E+02  0.13154553480E+04  0.12734167154E+03  0.13239086811E+04  0.25500000920E-02 0.  1.
       -2    1    3    3    0  502  0.78073823252E+02 -0.13154553480E+04  0.13770051657E+04  0.19059542285E+04  0.25500000920E-02 0. -1.
</event>
<event>
 5   0  0.1918901E-05  0.2976046E+04  0.7818609E-02  0.8250604E-01
        2   -1    0    0  501    0  0.00000000000E+00  0.00000000000E+00  0.17304221569E+04  0.17304221569E+04  0.25500000920E-02 0.  1.
       -2   -1    0    0    0  501  0.00000000000E+00  0.00000000000E+00 -0.12795795243E+04  0.12795795243E+04  0.25500000920E-02 0. -1.
    10030    2    1    2    0    0  0.00000000000E+00  0.00000000000E+00  0.45084263258E+03  0.30100016812E+04  0.29760462096E+04 0.  0.
        1    1    3    3  502    0  0.25973061232E+02 -0.87558790555E+03  0.14420104187E+04  0.16872234078E+04  0.50400001928E-02 0.  1.
       -1    1    3    3    0  502 -0.25973061232E+02  0.87558790555E+03 -0.99116778613E+03  0.13227782734E+04  0.50400001928E-02 0. -1.
</event>
<event>
 5   0  0.1960961E-05  0.2935659E+04  0.7818609E-02  0.8262346E-01
       -2   -1    0    0    0  501  0.00000000000E+00  0.00000000000E+00  0.11816113332E+04  0.11816113332E+04  0.25500000920E-02 0.  1.
        2   -1    0    0  501    0  0.00000000000E+00  0.00000000000E+00 -0.18233778899E+04  0.18233778899E+04  0.25500000920E-02 0. -1.
    10030    2    1    2    0    0  0.00000000000E+00  0.00000000000E+00 -0.64176655666E+03  0.30049892231E+04  0.29356593668E+04 0.  0.
        5    1    3    3  502    0  0.43186874828E+03  0.12682874517E+04 -0.93457375034E+03  0.16335586493E+04  0.46999998093E+01 0.  1.
       -5    1    3    3    0  502 -0.43186874828E+03 -0.12682874517E+04  0.29280719368E+03  0.13714305738E+04  0.46999998093E+01 0. -1.
</event>
<event>
 5   0  0.1937947E-05  0.2584211E+04  0.7818609E-02  0.8373584E-01
        2   -1    0    0  501    0  0.00000000000E+00  0.00000000000E+00  0.18479094196E+04  0.18479094196E+04  0.25500000920E-02 0.  1.
       -2   -1    0    0    0  501  0.00000000000E+00  0.00000000000E+00 -0.90347315028E+03  0.90347315029E+03  0.25500000920E-02 0. -1.
    10030    2    1    2    0    0  0.00000000000E+00  0.00000000000E+00  0.94443626930E+03  0.27513825699E+04  0.25842109393E+04 0.  0.
        3    1    3    3  502    0 -0.62708551636E+03  0.62671208514E+03  0.14729880119E+04  0.17192143485E+04  0.10100000352E+00 0.  1.
       -3    1    3    3    0  502  0.62708551636E+03 -0.62671208514E+03 -0.52855174261E+03  0.10321682214E+04  0.10100000352E+00 0. -1.
</event>
<event>
 5   0  0.7305460E-06  0.2875535E+04  0.7818609E-02  0.8280194E-01
       -1   -1    0    0    0  501  0.00000000000E+00  0.00000000000E+00  0.94861861842E+03  0.94861861844E+03  0.50400001928E-02 0. -1.
        1   -1    0    0  501    0  0.00000000000E+00  0.00000000000E+00 -0.21791427940E+04  0.21791427940E+04  0.50400001928E-02 0.  1.
    10030    2    1    2    0    0  0.00000000000E+00  0.00000000000E+00 -0.12305241756E+04  0.31277614125E+04  0.28755350296E+04 0.  0.
        4    1    3    3  502    0 -0.18669905826E+02 -0.58557262581E+02 -0.21777126266E+04  0.21785801374E+04  0.12699999809E+01 0.  1.
       -4    1    3    3    0  502  0.18669905826E+02  0.58557262581E+02  0.94718845095E+03  0.94918127505E+03  0.12699999809E+01 0. -1.
</event>
<event>
 5   0  0.1918901E-05  0.2350766E+04  0.7818609E-02  0.8458170E-01
        2   -1    0    0  501    0  0.00000000000E+00  0.00000000000E+00  0.11396250567E+04  0.11396250567E+04  0.25500000920E-02 0. -1.
       -2   -1    0    0    0  501  0.00000000000E+00  0.00000000000E+00 -0.12122624667E+04  0.12122624667E+04  0.25500000920E-02 0.  1.
    10030    2    1    2    0    0  0.00000000000E+00  0.00000000000E+00 -0.72637409995E+02  0.23518875234E+04  0.23507655624E+04 0.  0.
        1    1    3    3  502    0 -0.10483650548E+04  0.77727950557E+02  0.48968288584E+03  0.11596983449E+04  0.50400001928E-02 0. -1.
       -1    1    3    3    0  502  0.10483650548E+04 -0.77727950557E+02 -0.56232029584E+03  0.11921891786E+04  0.50400001928E-02 0.  1.
</event>
<event>
 5   0  0.7305460E-06  0.2921050E+04  0.7818609E-02  0.8266642E-01
       -1   -1    0    0    0  501  0.00000000000E+00  0.00000000000E+00  0.17208747983E+04  0.17208747983E+04  0.50400001928E-02 0. -1.
        1   -1    0    0  501    0  0.00000000000E+00  0.00000000000E+00 -0.12395634363E+04  0.12395634363E+04  0.50400001928E-02 0.  1.
    10030    2    1    2    0    0  0.00000000000E+00  0.00000000000E+00  0.48131136201E+03  0.29604382345E+04  0.29210501388E+04 0.  0.
        4    1    3    3  502    0  0.12367102254E+04 -0.30358904602E+03 -0.48418989066E+03  0.13623729129E+04  0.12699999809E+01 0.  1.
       -4    1    3    3    0  502 -0.12367102254E+04  0.30358904602E+03  0.96550125267E+03  0.15980653217E+04  0.12699999809E+01 0. -1.
</event>
<event>
 5   0  0.1937947E-05  0.2817002E+04  0.7818609E-02  0.8298009E-01
        2   -1    0    0  501    0  0.00000000000E+00  0.00000000000E+00  0.15065639360E+04  0.15065639360E+04  0.25500000920E-02 0. -1.
       -2   -1    0    0    0  501  0.00000000000E+00  0.00000000000E+00 -0.13168205633E+04  0.13168205633E+04  0.25500000920E-02 0.  1.
    10030    2    1    2    0    0  0.00000000000E+00  0.00000000000E+00  0.18974337274E+03  0.28233844992E+04  0.28170015057E+04 0.  0.
        3    1    3    3  502    0  0.11118744446E+04 -0.51833255666E+03  0.78849539357E+03  0.14583066947E+04  0.10100000352E+00 0. -1.
       -3    1    3    3    0  502 -0.11118744446E+04  0.51833255666E+03 -0.59875202083E+03  0.13650778046E+04  0.10100000352E+00 0.  1.
</event>
<event>
 5   0  0.1829810E-05  0.2958221E+04  0.7818609E-02  0.8255763E-01
       -2   -1    0    0    0  501  0.00000000000E+00  0.00000000000E+00  0.74796652554E+03  0.74796652555E+03  0.25500000920E-02 0. -1.
        2   -1    0    0  501    0  0.00000000000E+00  0.00000000000E+00 -0.29249551693E+04  0.29249551693E+04  0.25500000920E-02 0.  1.
    10030    2    1    2    0    0  0.00000000000E+00  0.00000000000E+00 -0.21769886437E+04  0.36729216948E+04  0.29582214625E+04 0.  0.
        4    1    3    3  502    0  0.75573875375E+03 -0.54439385884E+03  0.33813424738E+03  0.99087946776E+03  0.12699999809E+01 0. -1.
       -4    1    3    3    0  502 -0.75573875375E+03  0.54439385884E+03 -0.25151228911E+04  0.26820422271E+04  0.12699999809E+01 0.  1.
</event>
<event>
 5   0  0.8122088E-06  0.2887075E+04  0.7818609E-02  0.8276733E-01
        1   -1    0    0  501    0  0.00000000000E+00  0.00000000000E+00  0.14129932425E+04  0.14129932425E+04  0.50400001928E-02 0. -1.
       -1   -1    0    0    0  501  0.00000000000E+00  0.00000000000E+00 -0.14747419764E+04  0.14747419764E+04  0.50400001928E-02 0.  1.
    10030    2    1    2    0    0  0.00000000000E+00  0.00000000000E+00 -0.61748733910E+02  0.28877352189E+04  0.28870749537E+04 0.  0.
        1    1    3    3  502    0  0.59892058273E+03  0.59108836737E+03 -0.12040488798E+04  0.14689537186E+04  0.50400001928E-02 0.  1.
       -1    1    3    3    0  502 -0.59892058273E+03 -0.59108836737E+03  0.11423001458E+04  0.14187815003E+04  0.50400001928E-02 0. -1.
</event>
<event>
 5   0  0.1918901E-05  0.2022765E+04  0.7818609E-02  0.8596051E-01
       -2   -1    0    0    0  501  0.00000000000E+00  0.00000000000E+00  0.74795194043E+03  0.74795194044E+03  0.25500000920E-02 0.  1.
        2   -1    0    0  501    0  0.00000000000E+00  0.00000000000E+00 -0.13675941151E+04  0.13675941151E+04  0.25500000920E-02 0. -1.
    10030    2    1    2    0    0  0.00000000000E+00  0.00000000000E+00 -0.61964217470E+03  0.21155460556E+04  0.20227651096E+04 0.  0.
        1    1    3    3  502    0 -0.22947299440E+03 -0.28718968722E+03 -0.12952482929E+04  0.13464040670E+04  0.50400001928E-02 0. -1.
       -1    1    3    3    0  502  0.22947299440E+03  0.28718968722E+03  0.67560611815E+03  0.76914198852E+03  0.50400001928E-02 0.  1.
</event>
<event>
 5   0  0.7971153E-06  0.2975654E+04  0.7818609E-02  0.8250717E-01
        1   -1    0    0  501    0  0.00000000000E+00  0.00000000000E+00  0.23666832975E+04  0.23666832975E+04  0.50400001928E-02 0.  1.
       -1   -1    0    0    0  501  0.00000000000E+00  0.00000000000E+00 -0.93532967004E+03  0.93532967005E+03  0.50400001928E-02 0. -1.
    10030    2    1    2    0    0  0.00000000000E+00  0.00000000000E+00  0.14313536274E+04  0.33020129675E+04  0.29756539501E+04 0.  0.
        5    1    3    3  502    0  0.13845476051E+04  0.10591039185E+03  0.13085161069E+04  0.19079899303E+04  0.46999998093E+01 0.  1.
       -5    1    3    3    0  502 -0.13845476051E+04 -0.10591039185E+03  0.12283752052E+03  0.13940230373E+04  0.46999998093E+01 0. -1.
</event>
<event>
 5   0  0.7971153E-06  0.2962300E+04  0.7818609E-02  0.8254579E-01
       -1   -1    0    0    0  501  0.00000000000E+00  0.00000000000E+00  0.15734237424E+04  0.15734237424E+04  0.50400001928E-02 0.  1.
        1   -1    0    0  501    0  0.00000000000E+00  0.00000000000E+00 -0.13942879074E+04  0.13942879074E+04  0.50400001928E-02 0. -1.
    10030    2    1    2    0    0  0.00000000000E+00  0.00000000000E+00  0.17913583496E+03  0.29677116498E+04  0.29623002530E+04 0.  0.
        5    1    3    3  502    0 -0.65310996795E+03  0.11695251744E+04 -0.54360073384E+03  0.14456367496E+04  0.46999998093E+01 0. -1.
       -5    1    3    3    0  502  0.65310996795E+03 -0.11695251744E+04  0.72273656880E+03  0.15220749002E+04  0.46999998093E+01 0.  1.
</event>
<event>
 5   0  0.7305460E-06  0.2781085E+04  0.7818609E-02  0.8309165E-01
       -1   -1    0    0    0  501  0.00000000000E+00  0.00000000000E+00  0.13526895994E+04  0.13526895994E+04  0.50400001928E-02 0. -1.
        1   -1    0    0  501    0  0.00000000000E+00  0.00000000000E+00 -0.14294543206E+04  0.14294543206E+04  0.50400001928E-02 0.  1.
    10030    2    1    2    0    0  0.00000000000E+00  0.00000000000E+00 -0.76764721199E+02  0.27821439200E+04  0.27810846749E+04 0.  0.
        4    1    3    3  502    0 -0.12184171124E+04  0.61739000904E+03  0.22228490926E+03  0.13838796468E+04  0.12699999809E+01 0. -1.
       -4    1    3    3    0  502  0.12184171124E+04 -0.61739000904E+03 -0.29904963046E+03  0.13982642731E+04  0.12699999809E+01 0.  1.
</event>
<event>
 5   0  0.8234888E-06  0.1935811E+04  0.7818609E-02  0.8637233E-01
        1   -1    0    0  501    0  0.00000000000E+00  0.00000000000E+00  0.86388673629E+03  0.86388673630E+03  0.50400001928E-02 0.  1.
       -1   -1    0    0    0  501  0.00000000000E+00  0.00000000000E+00 -0.10844490446E+04  0.10844490446E+04  0.50400001928E-02 0. -1.
    10030    2    1    2    0    0  0.00000000000E+00  0.00000000000E+00 -0.22056230834E+03  0.19483357809E+04  0.19358110919E+04 0.  0.
        3    1    3    3  502    0 -0.34024667894E+03 -0.29586222405E+02 -0.10217885197E+04  0.10773555292E+04  0.10100000352E+00 0. -1.
       -3    1    3    3    0  502  0.34024667894E+03  0.29586222405E+02  0.80122621132E+03  0.87098025178E+03  0.10100000352E+00 0.  1.
</event>
<event>
 5   0  0.8234888E-06  0.2896592E+04  0.7818609E-02  0.8273892E-01
        1   -1    0    0  501    0  0.00000000000E+00  0.00000000000E+00  0.14158895101E+04  0.14158895102E+04  0.50400001928E-02 0.  1.
       -1   -1    0    0    0  501  0.00000000000E+00  0.00000000000E+00 -0.14814440805E+04  0.14814440805E+04  0.50400001928E-02 0. -1.
    10030    2    1    2    0    0  0.00000000000E+00  0.00000000000E+00 -0.65554570380E+02  0.28973335907E+04  0.28965918825E+04 0.  0.
        3    1    3    3  502    0  0.25149081053E+03  0.76081341613E+03  0.11739629198E+04  0.14213632995E+04  0.10100000352E+00 0.  1.
       -3    1    3    3    0  502 -0.25149081053E+03 -0.76081341613E+03 -0.12395174901E+04  0.14759702912E+04  0.10100000352E+00 0. -1.
</event>
<event>
 5   0  0.7305460E-06  0.2750368E+04  0.7818609E-02  0.8318845E-01
        1   -1    0    0  501    0  0.00000000000E+00  0.00000000000E+00  0.14293864241E+04  0.14293864242E+04  0.50400001928E-02 0. -1.
       -1   -1    0    0    0  501  0.00000000000E+00  0.00000000000E+00 -0.13230368357E+04  0.13230368357E+04  0.50400001928E-02 0.  1.
    10030    2    1    2    0    0  0.00000000000E+00  0.00000000000E+00  0.10634958845E+03  0.27524232599E+04  0.27503678966E+04 0.  0.
        4    1    3    3  502    0 -0.13440287235E+04 -0.28912154211E+03  0.86737940215E+02  0.13775084605E+04  0.12699999809E+01 0.  1.
       -4    1    3    3    0  502  0.13440287235E+04  0.28912154211E+03  0.19611648239E+02  0.13749147993E+04  0.12699999809E+01 0. -1.
</event>
<event>
 5   0  0.8234888E-06  0.2874615E+04  0.7818609E-02  0.8280471E-01
       -1   -1    0    0    0  501  0.00000000000E+00  0.00000000000E+00  0.10925697513E+04  0.10925697513E+04  0.50400001928E-02 0. -1.
        1   -1    0    0  501    0  0.00000000000E+00  0.00000000000E+00 -0.18908200900E+04  0.18908200900E+04  0.50400001928E-02 0.  1.
    10030    2    1    2    0    0  0.00000000000E+00  0.00000000000E+00 -0.79825033875E+03  0.29833898413E+04  0.28746149902E+04 0.  0.
        3    1    3    3  502    0 -0.13505916679E+04 -0.38668693404E+03 -0.71430771286E+03  0.15760266994E+04  0.10100000352E+00 0.  1.
       -3    1    3    3    0  502  0.13505916679E+04  0.38668693404E+03 -0.83942625888E+02  0.14073631419E+04  0.10100000352E+00 0. -1.
</event>
<event>
 5   0  0.8122088E-06  0.2830493E+04  0.7818609E-02  0.8293864E-01
       -1   -1    0    0    0  501  0.00000000000E+00  0.00000000000E+00  0.80051076762E+03  0.80051076764E+03  0.50400001928E-02 0. -1.
        1   -1    0    0  501    0  0.00000000000E+00  0.00000000000E+00 -0.25020550488E+04  0.25020550488E+04  0.50400001928E-02 0.  1.
    10030    2    1    2    0    0  0.00000000000E+00  0.00000000000E+00 -0.17015442812E+04  0.33025658165E+04  0.28304925422E+04 0.  0.
        1    1    3    3  502    0  0.50632209753E+02  0.75963990901E+03  0.54122564643E+03  0.93409935895E+03  0.50400001928E-02 0. -1.
       -1    1    3    3    0  502 -0.50632209753E+02 -0.75963990901E+03 -0.22427699276E+04  0.23684664575E+04  0.50400001928E-02 0.  1.
</event>
<event>
 5   0  0.7971153E-06  0.2761917E+04  0.7818609E-02  0.8315190E-01
       -1   -1    0    0    0  501  0.00000000000E+00  0.00000000000E+00  0.22694010902E+04  0.22694010902E+04  0.50400001928E-02 0. -1.
        1   -1    0    0  501    0  0.00000000000E+00  0.00000000000E+00 -0.84033024270E+03  0.84033024272E+03  0.50400001928E-02 0.  1.
    10030    2    1    2    0    0  0.00000000000E+00  0.00000000000E+00  0.14290708475E+04  0.31097313330E+04  0.27619169930E+04 0.  0.
        5    1    3    3  502    0  0.36167158874E+03 -0.58349113180E+03  0.20636616146E+04  0.21748539235E+04  0.46999998093E+01 0. -1.
       -5    1    3    3    0  502 -0.36167158874E+03  0.58349113180E+03 -0.63459076710E+03  0.93487740943E+03  0.46999998093E+01 0.  1.
</event>
<event>
 5   0  0.1937947E-05  0.2912970E+04  0.7818609E-02  0.8269029E-01
        2   -1    0    0  501    0  0.00000000000E+00  0.00000000000E+00  0.15320914445E+04  0.15320914445E+04  0.25500000920E-02 0. -1.
       -2   -1    0    0    0  501  0.00000000000E+00  0.00000000000E+00 -0.13846092255E+04  0.13846092255E+04  0.25500000920E-02 0.  1.
    10030    2    1    2    0    0  0.00000000000E+00  0.00000000000E+00  0.14748221901E+03  0.29167006700E+04  0.29129695833E+04 0.  0.
        3    1    3    3  502    0  0.67891134929E+03  0.63875457726E+03 -0.10468079947E+04  0.14016900578E+04  0.10100000352E+00 0.  1.
       -3    1    3    3    0  502 -0.67891134929E+03 -0.63875457726E+03  0.11942902137E+04  0.15150106122E+04  0.10100000352E+00 0. -1.
</event>
<event>
 5   0  0.1976233E-05  0.2189342E+04  0.7818609E-02  0.8522877E-01
        2   -1    0    0  501    0  0.00000000000E+00  0.00000000000E+00  0.10204881515E+04  0.10204881515E+04  0.25500000920E-02 0. -1.
       -2   -1    0    0    0  501  0.00000000000E+00  0.00000000000E+00 -0.11742467668E+04  0.11742467668E+04  0.25500000920E-02 0.  1.
    10030    2    1    2    0    0  0.00000000000E+00  0.00000000000E+00 -0.15375861534E+03  0.21947349183E+04  0.21893422871E+04 0.  0.
        2    1    3    3  502    0 -0.30912264635E+03 -0.78882504740E+03  0.61801143462E+03  0.10486848427E+04  0.25500000920E-02 0. -1.
       -2    1    3    3    0  502  0.30912264635E+03  0.78882504740E+03 -0.77177004996E+03  0.11460500757E+04  0.25500000920E-02 0.  1.
</event>
<event>
 5   0  0.7971153E-06  0.2928570E+04  0.7818609E-02  0.8264427E-01
        1   -1    0    0  501    0  0.00000000000E+00  0.00000000000E+00  0.14936968065E+04  0.14936968066E+04  0.50400001928E-02 0.  1.
       -1   -1    0    0    0  501  0.00000000000E+00  0.00000000000E+00 -0.14354526701E+04  0.14354526701E+04  0.50400001928E-02 0. -1.
    10030    2    1    2    0    0  0.00000000000E+00  0.00000000000E+00  0.58244136461E+02  0.29291494767E+04  0.29285703470E+04 0.  0.
        5    1    3    3  502    0  0.21231224481E+03  0.10864854810E+04  0.98773832499E+03  0.14836361678E+04  0.46999998093E+01 0.  1.
       -5    1    3    3    0  502 -0.21231224481E+03 -0.10864854810E+04 -0.92949418853E+03  0.14455133089E+04  0.46999998093E+01 0. -1.
</event>
<event>
 5   0  0.1918901E-05  0.2724926E+04  0.7818609E-02  0.8326962E-01
        2   -1    0    0  501    0  0.00000000000E+00  0.00000000000E+00  0.16802503512E+04  0.16802503512E+04  0.25500000920E-02 0. -1.
       -2   -1    0    0    0  501  0.00000000000E+00  0.00000000000E+00 -0.11047793815E+04  0.11047793815E+04  0.25500000920E-02 0.  1.
    10030    2    1    2    0    0  0.00000000000E+00  0.00000000000E+00  0.57547096969E+03  0.27850297326E+04  0.27249263797E+04 0.  0.
        1    1    3    3  502    0 -0.43467765166E+03 -0.22331636025E+03  0.15875937821E+04  0.16611047151E+04  0.50400001928E-02 0. -1.
       -1    1    3    3    0  502  0.43467765166E+03  0.22331636025E+03 -0.10121228124E+04  0.11239250175E+04  0.50400001928E-02 0.  1.
</event>
<event>
 5   0  0.1918901E-05  0.2998323E+04  0.7818609E-02  0.8244210E-01
       -2   -1    0    0    0  501  0.00000000000E+00  0.00000000000E+00  0.11071344426E+04  0.11071344426E+04  0.25500000920E-02 0.  1.
        2   -1    0    0  501    0  0.00000000000E+00  0.00000000000E+00 -0.20300017989E+04  0.20300017989E+04  0.25500000920E-02 0. -1.
    10030    2    1    2    0    0  0.00000000000E+00  0.00000000000E+00 -0.92286735626E+03  0.31371362415E+04  0.29983228046E+04 0.  0.
        1    1    3    3  502    0  0.17036137321E+03  0.68798311466E+03 -0.18436317130E+04  0.19751763609E+04  0.50400001928E-02 0. -1.
       -1    1    3    3    0  502 -0.17036137321E+03 -0.68798311466E+03  0.92076435672E+03  0.11619598806E+04  0.50400001928E-02 0.  1.
</event>
<event>
 5   0  0.1829810E-05  0.2907927E+04  0.7818609E-02  0.8270523E-01
        2   -1    0    0  501    0  0.00000000000E+00  0.00000000000E+00  0.18615853401E+04  0.18615853401E+04  0.25500000920E-02 0. -1.
       -2   -1    0    0    0  501  0.00000000000E+00  0.00000000000E+00 -0.11355966584E+04  0.11355966584E+04  0.25500000920E-02 0.  1.
    10030    2    1    2    0    0  0.00000000000E+00  0.00000000000E+00  0.72598868174E+03  0.29971819985E+04  0.29079271597E+04 0.  0.
        4    1    3    3  502    0  0.13122195962E+04  0.61619189048E+03  0.24824076054E+03  0.14707949560E+04  0.12699999809E+01 0. -1.
       -4    1    3    3    0  502 -0.13122195962E+04 -0.61619189048E+03  0.47774792119E+03  0.15263870425E+04  0.12699999809E+01 0.  1.
</event>
<event>
 5   0  0.1976233E-05  0.1699948E+04  0.7818609E-02  0.8761394E-01
       -2   -1    0    0    0  501  0.00000000000E+00  0.00000000000E+00  0.38138977040E+03  0.38138977041E+03  0.25500000920E-02 0.  1.
        2   -1    0    0  501    0  0.00000000000E+00  0.00000000000E+00 -0.18942722909E+04  0.18942722909E+04  0.25500000920E-02 0. -1.
    10030    2    1    2    0    0  0.00000000000E+00  0.00000000000E+00 -0.15128825205E+04  0.22756620613E+04  0.16999483217E+04 0.  0.
        2    1    3    3  502    0 -0.12402504584E+03 -0.22555927984E+03 -0.18408403106E+04  0.18587501848E+04  0.25500000920E-02 0. -1.
       -2    1    3    3    0  502  0.12402504584E+03  0.22555927984E+03  0.32795779002E+03  0.41691187649E+03  0.25500000920E-02 0.  1.
</event>
<event>
 5   0  0.7971153E-06  0.2691959E+04  0.7818609E-02  0.8337619E-01
       -1   -1    0    0    0  501  0.00000000000E+00  0.00000000000E+00  0.13210957607E+04  0.13210957607E+04  0.50400001928E-02 0. -1.
        1   -1    0    0  501    0  0.00000000000E+00  0.00000000000E+00 -0.13713317110E+04  0.13713317110E+04  0.50400001928E-02 0.  1.
    10030    2    1    2    0    0  0.00000000000E+00  0.00000000000E+00 -0.50235950305E+02  0.26924274716E+04  0.26919587737E+04 0.  0.
        5    1    3    3  502    0 -0.64395079873E+03 -0.50001727476E+03 -0.10962612614E+04  0.13661993813E+04  0.46999998093E+01 0.  1.
       -5    1    3    3    0  502  0.64395079873E+03  0.50001727476E+03  0.10460253111E+04  0.13262280904E+04  0.46999998093E+01 0. -1.
</event>
<event>
 5   0  0.1976233E-05  0.2915875E+04  0.7818609E-02  0.8268170E-01
       -2   -1    0    0    0  501  0.00000000000E+00  0.00000000000E+00  0.16265722856E+04  0.16265722856E+04  0.25500000920E-02 0.  1.
        2   -1    0    0  501    0  0.00000000000E+00  0.00000000000E+00 -0.13067862463E+04  0.13067862463E+04  0.25500000920E-02 0. -1.
    10030    2    1    2    0    0  0.00000000000E+00  0.00000000000E+00  0.31978603935E+03  0.29333585319E+04  0.29158753687E+04 0.  0.
        2    1    3    3  502    0 -0.12071496400E+04  0.55274554210E+03 -0.44608434973E+03  0.14006174120E+04  0.25500000920E-02 0. -1.
       -2    1    3    3    0  502  0.12071496400E+04 -0.55274554210E+03  0.76587038908E+03  0.15327411199E+04  0.25500000920E-02 0.  1.
</event>
<event>
 5   0  0.7971153E-06  0.2584103E+04  0.7818609E-02  0.8373621E-01
       -1   -1    0    0    0  501  0.00000000000E+00  0.00000000000E+00  0.18197550132E+04  0.18197550132E+04  0.50400001928E-02 0.  1.
        1   -1    0    0  501    0  0.00000000000E+00  0.00000000000E+00 -0.91737472330E+03  0.91737472331E+03  0.50400001928E-02 0. -1.
    10030    2    1    2    0    0  0.00000000000E+00  0.00000000000E+00  0.90238028993E+03  0.27371297365E+04  0.25841031340E+04 0.  0.
        5    1    3    3  502    0  0.22700452499E+03  0.57633457506E+03 -0.74983587779E+03  0.97260913546E+03  0.46999998093E+01 0. -1.
       -5    1    3    3    0  502 -0.22700452499E+03 -0.57633457506E+03  0.16522161677E+04  0.17645206011E+04  0.46999998093E+01 0.  1.
</event>
<event>
 5   0  0.7305460E-06  0.2956292E+04  0.7818609E-02  0.8256323E-01
        1   -1    0    0  501    0  0.00000000000E+00  0.00000000000E+00  0.15153273732E+04  0.15153273732E+04  0.50400001928E-02 0. -1.
       -1   -1    0    0    0  501  0.00000000000E+00  0.00000000000E+00 -0.14418769185E+04  0.14418769185E+04  0.50400001928E-02 0.  1.
    10030    2    1    2    0    0  0.00000000000E+00  0.00000000000E+00  0.73450454653E+02  0.29572042917E+04  0.29562919770E+04 0.  0.
        4    1    3    3  502    0 -0.65781292329E+03 -0.12529894746E+04  0.46372167328E+03  0.14892077990E+04  0.12699999809E+01 0. -1.
       -4    1    3    3    0  502  0.65781292329E+03  0.12529894746E+04 -0.39027121863E+03  0.14679964927E+04  0.12699999809E+01 0.  1.
</event>
<event>
 5   0  0.8055928E-06  0.2448099E+04  0.7818609E-02  0.8421712E-01
        1   -1    0    0  501    0  0.00000000000E+00  0.00000000000E+00  0.21895530197E+04  0.21895530197E+04  0.50400001928E-02 0. -1.
       -1   -1    0    0    0  501  0.00000000000E+00  0.00000000000E+00 -0.68429390366E+03  0.68429390368E+03  0.50400001928E-02 0.  1.
    10030    2    1    2    0    0  0.00000000000E+00  0.00000000000E+00  0.15052591160E+04  0.28738469234E+04  0.24480994940E+04 0.  0.
        2    1    3    3  502    0 -0.11139594300E+04  0.55364436776E+02  0.13446418981E+04  0.17470067735E+04  0.25500000920E-02 0. -1.
       -2    1    3    3    0  502  0.11139594300E+04 -0.55364436776E+02  0.16061721795E+03  0.11268401499E+04  0.25500000920E-02 0.  1.
</event>
<event>
 5   0  0.7305460E-06  0.2810954E+04  0.7818609E-02  0.8299876E-01
        1   -1    0    0  501    0  0.00000000000E+00  0.00000000000E+00  0.17997066550E+04  0.17997066550E+04  0.50400001928E-02 0.  1.
       -1   -1    0    0    0  501  0.00000000000E+00  0.00000000000E+00 -0.10976044679E+04  0.10976044679E+04  0.50400001928E-02 0. -1.
    10030    2    1    2    0    0  0.00000000000E+00  0.00000000000E+00  0.70210218712E+03  0.28973111229E+04  0.28109543329E+04 0.  0.
        4    1    3    3  502    0  0.72342602283E+03 -0.61729053288E+03 -0.71561951594E+03  0.11901704571E+04  0.12699999809E+01 0. -1.
       -4    1    3    3    0  502 -0.72342602283E+03  0.61729053288E+03  0.14177217031E+04  0.17071406658E+04  0.12699999809E+01 0.  1.
</event>
<event>
 5   0  0.1918901E-05  0.2950621E+04  0.7818609E-02  0.8257974E-01
       -2   -1    0    0    0  501  0.00000000000E+00  0.00000000000E+00  0.10611850987E+04  0.10611850987E+04  0.25500000920E-02 0. -1.
        2   -1    0    0  501    0  0.00000000000E+00  0.00000000000E+00 -0.20510469137E+04  0.20510469137E+04  0.25500000920E-02 0.  1.
    10030    2    1    2    0    0  0.00000000000E+00  0.00000000000E+00 -0.98986181500E+03  0.31122320124E+04  0.29506205595E+04 0.  0.
        1    1    3    3  502    0 -0.11079789844E+04  0.50875603209E+03 -0.13711476759E+04  0.18348013732E+04  0.50400001928E-02 0.  1.
       -1    1    3    3    0  502  0.11079789844E+04 -0.50875603209E+03  0.38128586091E+03  0.12774306391E+04  0.50400001928E-02 0. -1.
</event>
<event>
 5   0  0.1829810E-05  0.2859953E+04  0.7818609E-02  0.8284893E-01
       -2   -1    0    0    0  501  0.00000000000E+00  0.00000000000E+00  0.11503210622E+04  0.11503210623E+04  0.25500000920E-02 0. -1.
        2   -1    0    0  501    0  0.00000000000E+00  0.00000000000E+00 -0.17776194120E+04  0.17776194120E+04  0.25500000920E-02 0.  1.
    10030    2    1    2    0    0  0.00000000000E+00  0.00000000000E+00 -0.62729834971E+03  0.29279404742E+04  0.28599531816E+04 0.  0.
        4    1    3    3  502    0  0.53521347529E+02  0.13931960263E+03 -0.17696234414E+04  0.17759063105E+04  0.12699999809E+01 0.  1.
       -4    1    3    3    0  502 -0.53521347529E+02 -0.13931960263E+03  0.11423250917E+04  0.11520341637E+04  0.12699999809E+01 0. -1.
</event>
<event>
 5   0  0.8234888E-06  0.2432142E+04  0.7818609E-02  0.8427567E-01
        1   -1    0    0  501    0  0.00000000000E+00  0.00000000000E+00  0.64071335875E+03  0.64071335877E+03  0.50400001928E-02 0.  1.
       -1   -1    0    0    0  501  0.00000000000E+00  0.00000000000E+00 -0.23080966247E+04  0.23080966247E+04  0.50400001928E-02 0. -1.
    10030    2    1    2    0    0  0.00000000000E+00  0.00000000000E+00 -0.16673832659E+04  0.29488099834E+04  0.24321417235E+04 0.  0.
        3    1    3    3  502    0  0.71530144270E+03 -0.35428229995E+03 -0.19460001968E+04  0.21033518199E+04  0.10100000352E+00 0. -1.
       -3    1    3    3    0  502 -0.71530144270E+03  0.35428229995E+03  0.27861693089E+03  0.84545816358E+03  0.10100000352E+00 0.  1.
</event>
<event>
 5   0  0.1937947E-05  0.2770218E+04  0.7818609E-02  0.8312575E-01
        2   -1    0    0  501    0  0.00000000000E+00  0.00000000000E+00  0.20819850033E+04  0.20819850033E+04  0.25500000920E-02 0. -1.
       -2   -1    0    0    0  501  0.00000000000E+00  0.00000000000E+00 -0.92148919828E+03  0.92148919828E+03  0.25500000920E-02 0.  1.
    10030    2    1    2    0    0  0.00000000000E+00  0.00000000000E+00  0.11604958050E+04  0.30034742016E+04  0.27702178192E+04 0.  0.
        3    1    3    3  502    0 -0.69186818083E+03  0.75850032681E+03 -0.42783930013E+03  0.11122278554E+04  0.10100000352E+00 0.  1.
       -3    1    3    3    0  502  0.69186818083E+03 -0.75850032681E+03  0.15883351051E+04  0.18912463461E+04  0.10100000352E+00 0. -1.
</event>
<event>
 5   0  0.8234888E-06  0.2927387E+04  0.7818609E-02  0.8264775E-01
       -1   -1    0    0    0  501  0.00000000000E+00  0.00000000000E+00  0.19881105842E+04  0.19881105842E+04  0.50400001928E-02 0. -1.
        1   -1    0    0  501    0  0.00000000000E+00  0.00000000000E+00 -0.10776050992E+04  0.10776050992E+04  0.50400001928E-02 0.  1.
    10030    2    1    2    0    0  0.00000000000E+00  0.00000000000E+00  0.91050548499E+03  0.30657156835E+04  0.29273866184E+04 0.  0.
        3    1    3    3  502    0  0.68622510437E+03 -0.11465650713E+04 -0.17037205473E+03  0.13470497407E+04  0.10100000352E+00 0.  1.
       -3    1    3    3    0  502 -0.68622510437E+03  0.11465650713E+04  0.10808775397E+04  0.17186659428E+04  0.10100000352E+00 0. -1.
</event>
<event>
 5   0  0.8055928E-06  0.2065405E+04  0.7818609E-02  0.8576638E-01
        1   -1    0    0  501    0  0.00000000000E+00  0.00000000000E+00  0.11535493947E+04  0.11535493947E+04  0.50400001928E-02 0. -1.
       -1   -1    0    0    0  501  0.00000000000E+00  0.00000000000E+00 -0.92451526819E+03  0.92451526821E+03  0.50400001928E-02 0.  1.
    10030    2    1    2    0    0  0.00000000000E+00  0.00000000000E+00  0.22903412649E+03  0.20780646629E+04  0.20654045880E+04 0.  0.
        2    1    3    3  502    0 -0.22955191044E+03  0.88310995168E+03  0.60111025084E+03  0.10926622534E+04  0.25500000920E-02 0. -1.
       -2    1    3    3    0  502  0.22955191044E+03 -0.88310995168E+03 -0.37207612435E+03  0.98540240950E+03  0.25500000920E-02 0.  1.
</event>
<event>
 5   0  0.1976233E-05  0.2966334E+04  0.7818609E-02  0.8253410E-01
       -2   -1    0    0    0  501  0.00000000000E+00  0.00000000000E+00  0.99368627943E+03  0.99368627943E+03  0.25500000920E-02 0.  1.
        2   -1    0    0  501    0  0.00000000000E+00  0.00000000000E+00 -0.22137606938E+04  0.22137606938E+04  0.25500000920E-02 0. -1.
    10030    2    1    2    0    0  0.00000000000E+00  0.00000000000E+00 -0.12200744143E+04  0.32074469732E+04  0.29663335128E+04 0.  0.
        2    1    3    3  502    0  0.10136408720E+04 -0.95108700898E+03 -0.50532572970E+02  0.13908946247E+04  0.25500000920E-02 0. -1.
       -2    1    3    3    0  502 -0.10136408720E+04  0.95108700898E+03 -0.11695418414E+04  0.18165523485E+04  0.25500000920E-02 0.  1.
</event>
<event>
 5   0  0.6578125E-06  0.2903776E+04  0.7818609E-02  0.8271755E-01
        3   -1    0    0  501    0  0.00000000000E+00  0.00000000000E+00  0.13319896254E+04  0.13319896292E+04  0.10100000352E+00 0. -1.
       -3   -1    0    0    0  501  0.00000000000E+00  0.00000000000E+00 -0.15825789588E+04  0.15825789620E+04  0.10100000352E+00 0.  1.
    10030    2    1    2    0    0  0.00000000000E+00  0.00000000000E+00 -0.25058933344E+03  0.29145685912E+04  0.29037760001E+04 0.  0.
        4    1    3    3  502    0  0.99697377111E+03  0.59283924290E+03  0.75119898038E+03  0.13819249579E+04  0.12699999809E+01 0. -1.
       -4    1    3    3    0  502 -0.99697377111E+03 -0.59283924290E+03 -0.10017883138E+04  0.15326436333E+04  0.12699999809E+01 0.  1.
</event>
<event>
 5   0  0.8122088E-06  0.2865775E+04  0.7818609E-02  0.8283134E-01
       -1   -1    0    0    0  501  0.00000000000E+00  0.00000000000E+00  0.15961950109E+04  0.15961950109E+04  0.50400001928E-02 0.  1.
        1   -1    0    0  501    0  0.00000000000E+00  0.00000000000E+00 -0.12862883841E+04  0.12862883841E+04  0.50400001928E-02 0. -1.
    10030    2    1    2    0    0  0.00000000000E+00  0.00000000000E+00  0.30990662678E+03  0.28824833950E+04  0.28657753585E+04 0.  0.
        1    1    3    3  502    0 -0.87604379384E+03 -0.54404090467E+03  0.11556071980E+04  0.15488257587E+04  0.50400001928E-02 0.  1.
       -1    1    3    3    0  502  0.87604379384E+03  0.54404090467E+03 -0.84570057127E+03  0.13336576363E+04  0.50400001928E-02 0. -1.
</event>
<event>
 5   0  0.1829810E-05  0.2480773E+04  0.7818609E-02  0.8409867E-01
        2   -1    0    0  501    0  0.00000000000E+00  0.00000000000E+00  0.13533056212E+04  0.13533056212E+04  0.25500000920E-02 0.  1.
       -2   -1    0    0    0  501  0.00000000000E+00  0.00000000000E+00 -0.11368897132E+04  0.11368897132E+04  0.25500000920E-02 0. -1.
    10030    2    1    2    0    0  0.00000000000E+00  0.00000000000E+00  0.21641590800E+03  0.24901953343E+04  0.24807734596E+04 0.  0.
        4    1    3    3  502    0 -0.36712239169E+03  0.10705675716E+04  0.61774181997E+03  0.12893798296E+04  0.12699999809E+01 0.  1.
       -4    1    3    3    0  502  0.36712239169E+03 -0.10705675716E+04 -0.40132591197E+03  0.12008155047E+04  0.12699999809E+01 0. -1.
</event>
<event>
 5   0  0.8122088E-06  0.1799545E+04  0.7818609E-02  0.8706541E-01
       -1   -1    0    0    0  501  0.00000000000E+00  0.00000000000E+00  0.31478321641E+03  0.31478321645E+03  0.50400001928E-02 0. -1.
        1   -1    0    0  501    0  0.00000000000E+00  0.00000000000E+00 -0.25718992362E+04  0.25718992362E+04  0.50400001928E-02 0.  1.
    10030    2    1    2    0    0  0.00000000000E+00  0.00000000000E+00 -0.22571160198E+04  0.28866824526E+04  0.17995451802E+04 0.  0.
        1    1    3    3  502    0  0.31622495494E+03 -0.73477648067E+03 -0.17893611221E+04  0.19600275314E+04  0.50400001928E-02 0.  1.
       -1    1    3    3    0  502 -0.31622495494E+03  0.73477648067E+03 -0.46775489767E+03  0.92665492120E+03  0.50400001928E-02 0. -1.
</event>
<event>
 5   0  0.1829810E-05  0.1495315E+04  0.7818609E-02  0.8887574E-01
        2   -1    0    0  501    0  0.00000000000E+00  0.00000000000E+00  0.79380973693E+03  0.79380973694E+03  0.25500000920E-02 0. -1.
       -2   -1    0    0    0  501  0.00000000000E+00  0.00000000000E+00 -0.70418883244E+03  0.70418883244E+03  0.25500000920E-02 0.  1.
    10030    2    1    2    0    0  0.00000000000E+00  0.00000000000E+00  0.89620904496E+02  0.14979985694E+04  0.14953152869E+04 0.  0.
        4    1    3    3  502    0  0.29914695989E+03 -0.35275086681E+02 -0.64071062551E+03  0.70798654923E+03  0.12699999809E+01 0.  1.
       -4    1    3    3    0  502 -0.29914695989E+03  0.35275086681E+02  0.73033153001E+03  0.79001202015E+03  0.12699999809E+01 0. -1.
</event>
<event>
 5   0  0.1960961E-05  0.2750520E+04  0.7818609E-02  0.8318797E-01
        2   -1    0    0  501    0  0.00000000000E+00  0.00000000000E+00  0.14899329630E+04  0.14899329630E+04  0.25500000920E-02 0. -1.
       -2   -1    0    0    0  501  0.00000000000E+00  0.00000000000E+00 -0.12694131220E+04  0.12694131220E+04  0.25500000920E-02 0.  1.
    10030    2    1    2    0    0  0.00000000000E+00  0.00000000000E+00  0.22051984093E+03  0.27593460850E+04  0.27505202811E+04 0.  0.
        5    1    3    3  502    0 -0.11552283952E+04  0.38233482718E+03  0.75308569953E+03  0.14310460251E+04  0.46999998093E+01 0.  1.
       -5    1    3    3    0  502  0.11552283952E+04 -0.38233482718E+03 -0.53256585860E+03  0.13283000599E+04  0.46999998093E+01 0. -1.
</event>
<event>
 5   0  0.7305460E-06  0.1768765E+04  0.7818609E-02  0.8723089E-01
       -1   -1    0    0    0  501  0.00000000000E+00  0.00000000000E+00  0.77853750905E+03  0.77853750907E+03  0.50400001928E-02 0. -1.
        1   -1    0    0  501    0  0.00000000000E+00  0.00000000000E+00 -0.10046174631E+04  0.10046174632E+04  0.50400001928E-02 0.  1.
    10030    2    1    2    0    0  0.00000000000E+00  0.00000000000E+00 -0.22607995409E+03  0.17831549722E+04  0.17687649672E+04 0.  0.
        4    1    3    3  502    0 -0.61779011654E+02  0.87097673967E+03  0.28507567448E+02  0.87363117025E+03  0.12699999809E+01 0. -1.
       -4    1    3    3    0  502  0.61779011654E+02 -0.87097673967E+03 -0.25458752154E+03  0.90952380197E+03  0.12699999809E+01 0.  1.
</event>
<event>
 5   0  0.1960961E-05  0.2920934E+04  0.7818609E-02  0.8266676E-01
       -2   -1    0    0    0  501  0.00000000000E+00  0.00000000000E+00  0.10527016137E+04  0.10527016138E+04  0.25500000920E-02 0. -1.
        2   -1    0    0  501    0  0.00000000000E+00  0.00000000000E+00 -0.20261801867E+04  0.20261801867E+04  0.25500000920E-02 0.  1.
    10030    2    1    2    0    0  0.00000000000E+00  0.00000000000E+00 -0.97347857291E+03  0.30788818004E+04  0.29209335167E+04 0.  0.
        5    1    3    3  502    0 -0.12887265351E+04 -0.59373242189E+03 -0.85128270663E+03  0.16547019695E+04  0.46999998093E+01 0.  1.
       -5    1    3    3    0  502  0.12887265351E+04  0.59373242189E+03 -0.12219586629E+03  0.14241798309E+04  0.46999998093E+01 0. -1.
</event>
<event>
 5   0  0.6578125E-06  0.2915658E+04  0.7818609E-02  0.8268234E-01
        4   -1    0    0  501    0  0.00000000000E+00  0.00000000000E+00  0.12335484794E+04  0.12335491332E+04  0.12699999809E+01 0.  1.
       -4   -1    0    0    0  501  0.00000000000E+00  0.00000000000E+00 -0.17228858716E+04  0.17228863397E+04  0.12699999809E+01 0. -1.
    10030    2    1    2    0    0  0.00000000000E+00  0.00000000000E+00 -0.48933739215E+03  0.29564354729E+04  0.29156576654E+04 0.  0.
        5    1    3    3  502    0  0.14339715031E+04 -0.20550923633E+03 -0.78875048897E+02  0.14507762341E+04  0.46999998093E+01 0. -1.
       -5    1    3    3    0  502 -0.14339715031E+04  0.20550923633E+03 -0.41046234326E+03  0.15056592388E+04  0.46999998093E+01 0.  1.
</event>
<event>
 5   0  0.1976233E-05  0.3053825E+04  0.7818609E-02  0.8228526E-01
        2   -1    0    0  501    0  0.00000000000E+00  0.00000000000E+00  0.14804919390E+04  0.14804919390E+04  0.25500000920E-02 0.  1.
       -2   -1    0    0    0  501  0.00000000000E+00  0.00000000000E+00 -0.15747886471E+04  0.15747886471E+04  0.25500000920E-02 0. -1.
    10030    2    1    2    0    0  0.00000000000E+00  0.00000000000E+00 -0.94296708097E+02  0.30552805862E+04  0.30538250754E+04 0.  0.
        2    1    3    3  502    0 -0.31296341438E+03  0.14938143094E+04 -0.20202250685E+01  0.15262474803E+04  0.25500000920E-02 0.  1.
       -2    1    3    3    0  502  0.31296341438E+03 -0.14938143094E+04 -0.92276483029E+02  0.15290331059E+04  0.25500000920E-02 0. -1.
</event>
<event>
 5   0  0.7971153E-06  0.2918609E+04  0.7818609E-02  0.8267362E-01
        1   -1    0    0  501    0  0.00000000000E+00  0.00000000000E+00  0.15514590999E+04  0.15514590999E+04  0.50400001928E-02 0.  1.
       -1   -1    0    0    0  501  0.00000000000E+00  0.00000000000E+00 -0.13726234674E+04  0.13726234675E+04  0.50400001928E-02 0. -1.
    10030    2    1    2    0    0  0.00000000000E+00  0.00000000000E+00  0.17883563246E+03  0.29240825674E+04  0.29186086886E+04 0.  0.
        5    1    3    3  502    0  0.20794177064E+03  0.12374214407E+04  0.83586245840E+03  0.15076935170E+04  0.46999998093E+01 0.  1.
       -5    1    3    3    0  502 -0.20794177064E+03 -0.12374214407E+04 -0.65702682593E+03  0.14163890503E+04  0.46999998093E+01 0. -1.
</event>
</LesHouchesEvents>
