<LesHouchesEvents version="3.0">
<header>
<!--
#*********************************************************************
#                                                                    *
#                        MadGraph5_aMC@NLO                           *
#                                                                    *
#                           Going Beyond                             *
#                                                                    *
#                   http://madgraph.hep.uiuc.edu                     *
#                   http://madgraph.phys.ucl.ac.be                   *
#                   http://amcatnlo.cern.ch                          *
#                                                                    *
#                     The MadGraph5_aMC@NLO team                     *
#                                                                    *
#....................................................................*
#                                                                    *
# This file contains all the information necessary to reproduce      *
# the events generated:                                              *
#                                                                    *
# 1. software version                                                *
# 2. proc_card          : code generation info including model       *
# 3. param_card         : model primary parameters in the LH format  *
# 4. run_card           : running parameters (collider and cuts)     *
# 5. pythia_card        : present only if pythia has been run        *
# 6. pgs_card           : present only if pgs has been run           *
# 7. delphes_cards      : present only if delphes has been run       *
#                                                                    *
#                                                                    *
#*********************************************************************
-->
<MGVersion>
#5.2.2.3
</MGVersion>
<MG5ProcCard>
#************************************************************
#*                     MadGraph5_aMC@NLO                    *
#*                                                          *
#*                *                       *                 *
#*                  *        * *        *                   *
#*                    * * * * 5 * * * *                     *
#*                  *        * *        *                   *
#*                *                       *                 *
#*                                                          *
#*                                                          *
#*         VERSION 2.2.3                 2015-02-10         *
#*                                                          *
#*    The MadGraph5_aMC@NLO Development Team - Find us at   *
#*    https://server06.fynu.ucl.ac.be/projects/madgraph     *
#*                                                          *
#************************************************************
#*                                                          *
#*               Command File for MadGraph5_aMC@NLO         *
#*                                                          *
#*     run as ./bin/mg5_aMC  filename                       *
#*                                                          *
#************************************************************
set group_subprocesses Auto
set ignore_six_quark_processes False
set loop_optimized_output True
set gauge unitary
set complex_mass_scheme False
import model sm
define p = g u c d s u~ c~ d~ s~
define j = g u c d s u~ c~ d~ s~
define l+ = e+ mu+
define l- = e- mu-
define vl = ve vm vt
define vl~ = ve~ vm~ vt~
import model Zprime_UFO
generate p p > zph, zph > j j
add process p p > zph, zph > b b~
output Dijet_signal
</MG5ProcCard>
<MGProcCard>
#*********************************************************************
#                        MadGraph/MadEvent                           *
#                   http://madgraph.hep.uiuc.edu                     *
#                                                                    *
#                          proc_card.dat                             *
#*********************************************************************
#                                                                    *
#            This Files is generated by MADGRAPH 5                   *
#                                                                    *
# WARNING: This Files is generated for MADEVENT (compatibility issue)*
#          This files is NOT a valid MG4 proc_card.dat               *
#          Running this in MG4 will NEVER reproduce the result of MG5*
#                                                                    *
#*********************************************************************
#*********************************************************************
# Process(es) requested : mg2 input                                  *
#*********************************************************************
# Begin PROCESS # This is TAG. Do not modify this line
p p > zph , zph > j j           #Process
# Be carefull the coupling are here in MG5 convention
          
end_coup           # End the couplings input

done               # this tells MG there are no more procs
# End PROCESS  # This is TAG. Do not modify this line
#*********************************************************************
# Model information                                                  *
#*********************************************************************
# Begin MODEL  # This is TAG. Do not modify this line
Zprime_UFO
# End   MODEL  # This is TAG. Do not modify this line
#*********************************************************************
# Start multiparticle definitions                                    *
#*********************************************************************
# Begin MULTIPARTICLES # This is TAG. Do not modify this line

# End  MULTIPARTICLES # This is TAG. Do not modify this line
</MGProcCard>
<MGRunCard>
#*********************************************************************
#                       MadGraph5_aMC@NLO                            *
#                                                                    *
#                     run_card.dat MadEvent                          *
#                                                                    *
#  This file is used to set the parameters of the run.               *
#                                                                    *
#  Some notation/conventions:                                        *
#                                                                    *
#   Lines starting with a '# ' are info or comments                  *
#                                                                    *
#   mind the format:   value    = variable     ! comment             *
#*********************************************************************
#
#*******************                                                 
# Running parameters
#*******************                                                 
#                                                                    
#*********************************************************************
# Tag name for the run (one word)                                    *
#*********************************************************************
  tag_1     = run_tag ! name of the run 
#*********************************************************************
# Run to generate the grid pack                                      *
#*********************************************************************
  .false.     = gridpack  !True = setting up the grid pack
#*********************************************************************
# Number of events and rnd seed                                      *
# Warning: Do not generate more than 1M events in a single run       *
# If you want to run Pythia, avoid more than 50k events in a run.    *
#*********************************************************************
  2000 = nevents ! Number of unweighted events requested 
 1542 = iseed   ! rnd seed (0=assigned automatically=default))
#*********************************************************************
# Collider type and energy                                           *
# lpp: 0=No PDF, 1=proton, -1=antiproton, 2=photon from proton,      *
#                                         3=photon from electron     *
#*********************************************************************
        1     = lpp1    ! beam 1 type 
        1     = lpp2    ! beam 2 type
     4000     = ebeam1  ! beam 1 total energy in GeV
     4000     = ebeam2  ! beam 2 total energy in GeV
#*********************************************************************
# Beam polarization from -100 (left-handed) to 100 (right-handed)    *
#*********************************************************************
        0     = polbeam1 ! beam polarization for beam 1
        0     = polbeam2 ! beam polarization for beam 2
#*********************************************************************
# PDF CHOICE: this automatically fixes also alpha_s and its evol.    *
#*********************************************************************
 'nn23lo1'    = pdlabel     ! PDF set                                     
 230000    = lhaid     ! if pdlabel=lhapdf, this is the lhapdf number
#*********************************************************************
# Renormalization and factorization scales                           *
#*********************************************************************
 F        = fixed_ren_scale  ! if .true. use fixed ren scale
 F        = fixed_fac_scale  ! if .true. use fixed fac scale
 91.1880  = scale            ! fixed ren scale
 91.1880  = dsqrt_q2fact1    ! fixed fact scale for pdf1
 91.1880  = dsqrt_q2fact2    ! fixed fact scale for pdf2
 1        = scalefact        ! scale factor for event-by-event scales
#*********************************************************************
# Matching - Warning! ickkw > 1 is still beta
#*********************************************************************
 0        = ickkw            ! 0 no matching, 1 MLM, 2 CKKW matching
 1        = highestmult      ! for ickkw=2, highest mult group
 1        = ktscheme         ! for ickkw=1, 1 Durham kT, 2 Pythia pTE
 1        = alpsfact         ! scale factor for QCD emission vx
 F        = chcluster        ! cluster only according to channel diag
 T        = pdfwgt           ! for ickkw=1, perform pdf reweighting
 5        = asrwgtflavor     ! highest quark flavor for a_s reweight
 T        = clusinfo         ! include clustering tag in output
 3.0      = lhe_version       ! Change the way clustering information pass to shower.        
#*********************************************************************
#**********************************************************
#
#**********************************************************
# Automatic ptj and mjj cuts if xqcut > 0
# (turn off for VBF and single top processes)
#**********************************************************
   T  = auto_ptj_mjj  ! Automatic setting of ptj and mjj
#**********************************************************
#                                                                    
#**********************************
# BW cutoff (M+/-bwcutoff*Gamma)
#**********************************
  15  = bwcutoff      ! (M+/-bwcutoff*Gamma)
#**********************************************************
# Apply pt/E/eta/dr/mij cuts on decay products or not
# (note that etmiss/ptll/ptheavy/ht/sorted cuts always apply)
#**********************************************************
   T  = cut_decays    ! Cut decay products 
#*************************************************************
# Number of helicities to sum per event (0 = all helicities)
# 0 gives more stable result, but longer run time (needed for
# long decay chains e.g.).
# Use >=2 if most helicities contribute, e.g. pure QCD.
#*************************************************************
   0  = nhel          ! Number of helicities used per event
#*******************                                                 
# Standard Cuts
#*******************                                                 
#                                                                    
#*********************************************************************
# Minimum and maximum pt's (for max, -1 means no cut)                *
#*********************************************************************
 20  = ptj       ! minimum pt for the jets 
  0  = ptb       ! minimum pt for the b 
 10  = pta       ! minimum pt for the photons 
 10  = ptl       ! minimum pt for the charged leptons 
  0  = misset    ! minimum missing Et (sum of neutrino's momenta)
  0  = ptheavy   ! minimum pt for one heavy final state
 1.0 = ptonium   ! minimum pt for the quarkonium states
 -1  = ptjmax    ! maximum pt for the jets
 -1  = ptbmax    ! maximum pt for the b
 -1  = ptamax    ! maximum pt for the photons
 -1  = ptlmax    ! maximum pt for the charged leptons
 -1  = missetmax ! maximum missing Et (sum of neutrino's momenta)
#*********************************************************************
# Minimum and maximum E's (in the center of mass frame)              *
#*********************************************************************
  0  = ej     ! minimum E for the jets 
  0  = eb     ! minimum E for the b 
  0  = ea     ! minimum E for the photons 
  0  = el     ! minimum E for the charged leptons 
 -1   = ejmax ! maximum E for the jets
 -1   = ebmax ! maximum E for the b
 -1   = eamax ! maximum E for the photons
 -1   = elmax ! maximum E for the charged leptons
#*********************************************************************
# Maximum and minimum absolute rapidity (for max, -1 means no cut)   *
#*********************************************************************
   5  = etaj    ! max rap for the jets 
  -1  = etab    ! max rap for the b
 2.5  = etaa    ! max rap for the photons 
 2.5  = etal    ! max rap for the charged leptons 
 0.6  = etaonium ! max rap for the quarkonium states
   0  = etajmin ! min rap for the jets
   0  = etabmin ! min rap for the b
   0  = etaamin ! min rap for the photons
   0  = etalmin ! main rap for the charged leptons
#*********************************************************************
# Minimum and maximum DeltaR distance                                *
#*********************************************************************
 0.4 = drjj    ! min distance between jets 
 0   = drbb    ! min distance between b's 
 0.4 = drll    ! min distance between leptons 
 0.4 = draa    ! min distance between gammas 
 0   = drbj    ! min distance between b and jet 
 0.4 = draj    ! min distance between gamma and jet 
 0.4 = drjl    ! min distance between jet and lepton 
 0   = drab    ! min distance between gamma and b 
 0   = drbl    ! min distance between b and lepton 
 0.4 = dral    ! min distance between gamma and lepton 
 -1  = drjjmax ! max distance between jets
 -1  = drbbmax ! max distance between b's
 -1  = drllmax ! max distance between leptons
 -1  = draamax ! max distance between gammas
 -1  = drbjmax ! max distance between b and jet
 -1  = drajmax ! max distance between gamma and jet
 -1  = drjlmax ! max distance between jet and lepton
 -1  = drabmax ! max distance between gamma and b
 -1  = drblmax ! max distance between b and lepton
 -1  = dralmax ! maxdistance between gamma and lepton
#*********************************************************************
# Minimum and maximum invariant mass for pairs                       *
# WARNING: for four lepton final state mmll cut require to have      *
#          different lepton masses for each flavor!                  *           
#*********************************************************************
 0   = mmjj    ! min invariant mass of a jet pair 
 0   = mmbb    ! min invariant mass of a b pair 
 0   = mmaa    ! min invariant mass of gamma gamma pair
 0   = mmll    ! min invariant mass of l+l- (same flavour) lepton pair
 -1  = mmjjmax ! max invariant mass of a jet pair
 -1  = mmbbmax ! max invariant mass of a b pair
 -1  = mmaamax ! max invariant mass of gamma gamma pair
 -1  = mmllmax ! max invariant mass of l+l- (same flavour) lepton pair
#*********************************************************************
# Minimum and maximum invariant mass for all letpons                 *
#*********************************************************************
 0   = mmnl    ! min invariant mass for all letpons (l+- and vl) 
 -1  = mmnlmax ! max invariant mass for all letpons (l+- and vl) 
#*********************************************************************
# Minimum and maximum pt for 4-momenta sum of leptons                *
#*********************************************************************
 0   = ptllmin  ! Minimum pt for 4-momenta sum of leptons(l and vl)
 -1  = ptllmax  ! Maximum pt for 4-momenta sum of leptons(l and vl)
#*********************************************************************
# Inclusive cuts                                                     *
#*********************************************************************
 0  = xptj ! minimum pt for at least one jet  
 0  = xptb ! minimum pt for at least one b 
 0  = xpta ! minimum pt for at least one photon 
 0  = xptl ! minimum pt for at least one charged lepton 
#*********************************************************************
# Control the pt's of the jets sorted by pt                          *
#*********************************************************************
 0   = ptj1min ! minimum pt for the leading jet in pt
 0   = ptj2min ! minimum pt for the second jet in pt
 0   = ptj3min ! minimum pt for the third jet in pt
 0   = ptj4min ! minimum pt for the fourth jet in pt
 -1  = ptj1max ! maximum pt for the leading jet in pt 
 -1  = ptj2max ! maximum pt for the second jet in pt
 -1  = ptj3max ! maximum pt for the third jet in pt
 -1  = ptj4max ! maximum pt for the fourth jet in pt
 0   = cutuse  ! reject event if fails any (0) / all (1) jet pt cuts
#*********************************************************************
# Control the pt's of leptons sorted by pt                           *
#*********************************************************************
 0   = ptl1min ! minimum pt for the leading lepton in pt
 0   = ptl2min ! minimum pt for the second lepton in pt
 0   = ptl3min ! minimum pt for the third lepton in pt
 0   = ptl4min ! minimum pt for the fourth lepton in pt
 -1  = ptl1max ! maximum pt for the leading lepton in pt 
 -1  = ptl2max ! maximum pt for the second lepton in pt
 -1  = ptl3max ! maximum pt for the third lepton in pt
 -1  = ptl4max ! maximum pt for the fourth lepton in pt
#*********************************************************************
# Control the Ht(k)=Sum of k leading jets                            *
#*********************************************************************
 0   = htjmin ! minimum jet HT=Sum(jet pt)
 -1  = htjmax ! maximum jet HT=Sum(jet pt)
 0   = ihtmin  !inclusive Ht for all partons (including b)
 -1  = ihtmax  !inclusive Ht for all partons (including b)
 0   = ht2min ! minimum Ht for the two leading jets
 0   = ht3min ! minimum Ht for the three leading jets
 0   = ht4min ! minimum Ht for the four leading jets
 -1  = ht2max ! maximum Ht for the two leading jets
 -1  = ht3max ! maximum Ht for the three leading jets
 -1  = ht4max ! maximum Ht for the four leading jets
#***********************************************************************
# Photon-isolation cuts, according to hep-ph/9801442                   *
# When ptgmin=0, all the other parameters are ignored                  *
# When ptgmin>0, pta and draj are not going to be used                 *
#***********************************************************************
   0 = ptgmin ! Min photon transverse momentum
 0.4 = R0gamma ! Radius of isolation code
 1.0 = xn ! n parameter of eq.(3.4) in hep-ph/9801442
 1.0 = epsgamma ! epsilon_gamma parameter of eq.(3.4) in hep-ph/9801442
 .true. = isoEM ! isolate photons from EM energy (photons and leptons)
#*********************************************************************
# WBF cuts                                                           *
#*********************************************************************
 0   = xetamin ! minimum rapidity for two jets in the WBF case  
 0   = deltaeta ! minimum rapidity for two jets in the WBF case 
#*********************************************************************
# KT DURHAM CUT                                                      *
#*********************************************************************
 -1    =  ktdurham        
 0.4  =  dparameter 
#*********************************************************************
# maximal pdg code for quark to be considered as a light jet         *
# (otherwise b cuts are applied)                                     *
#*********************************************************************
 4 = maxjetflavor    ! Maximum jet pdg code
#*********************************************************************
# Jet measure cuts                                                   *
#*********************************************************************
 0   = xqcut   ! minimum kt jet measure between partons
#*********************************************************************
#
#*********************************************************************
# Store info for systematics studies                                 *
# WARNING: If use_syst is T, matched Pythia output is                *
#          meaningful ONLY if plotted taking matchscale              *
#          reweighting into account!                                 *
#*********************************************************************
   F  = use_syst      ! Enable systematics studies
#
#**************************************
# Parameter of the systematics study
#  will be used by SysCalc (if installed)
#**************************************                                  
#
0.5 1 2 = sys_scalefact  # factorization/renormalization scale factor
0.5 1 2 = sys_alpsfact  # \alpha_s emission scale factors
30 50 = sys_matchscale # variation of merging scale
# PDF sets and number of members (0 or none for all members).
CT10nlo.LHgrid = sys_pdf # matching scales
# MSTW2008nlo68cl.LHgrid 1  = sys_pdf
</MGRunCard>
<slha>
######################################################################
## PARAM_CARD AUTOMATICALY GENERATED BY MG5 FOLLOWING UFO MODEL   ####
######################################################################
##                                                                  ##
##  Width set on Auto will be computed following the information    ##
##        present in the decay.py files of the model.               ##
##        See  arXiv:1402.1178 for more details.                    ##
##                                                                  ##
######################################################################

###################################
## INFORMATION FOR CKMBLOCK
###################################
Block ckmblock 
    1 2.277360e-01 # cabi 

###################################
## INFORMATION FOR FRBLOCK
###################################
Block frblock 
    1 8.000000e-01 # gz 

###################################
## INFORMATION FOR MASS
###################################
Block mass 
    1 5.040000e-03 # MD 
    2 2.550000e-03 # MU 
    3 1.010000e-01 # MS 
    4 1.270000e+00 # MC 
    5 4.700000e+00 # MB 
    6 1.720000e+02 # MT 
   11 5.110000e-04 # Me 
   13 1.056600e-01 # MM 
   15 1.777000e+00 # MTA 
   23 9.118760e+01 # MZ 
   25 1.200000e+02 # MH 
  10030 1.300000e+03 # MZph 
  10031 3.000000e+02 # MZpl 
## Dependent parameters, given by model restrictions.
## Those values should be edited following the 
## analytical expression. MG5 ignores those values 
## but they are important for interfacing the output of MG5
## to external program such as Pythia.
  12 0.000000 # ve : 0.0 
  14 0.000000 # vm : 0.0 
  16 0.000000 # vt : 0.0 
  21 0.000000 # g : 0.0 
  22 0.000000 # a : 0.0 
  24 79.824360 # w+ : cmath.sqrt(MZ__exp__2/2. + cmath.sqrt(MZ__exp__4/4. - (aEW*cmath.pi*MZ__exp__2)/(Gf*sqrt__2))) 

###################################
## INFORMATION FOR SMINPUTS
###################################
Block sminputs 
    1 1.279000e+02 # aEWM1 
    2 1.166370e-05 # Gf 
    3 1.184000e-01 # aS 

###################################
## INFORMATION FOR YUKAWA
###################################
Block yukawa 
    1 5.040000e-03 # ymdo 
    2 2.550000e-03 # ymup 
    3 1.010000e-01 # yms 
    4 1.270000e+00 # ymc 
    5 4.700000e+00 # ymb 
    6 1.720000e+02 # ymt 
   11 5.110000e-04 # yme 
   13 1.056600e-01 # ymm 
   15 1.777000e+00 # ymtau 

###################################
## INFORMATION FOR DECAY
###################################
DECAY   6 1.508336e+00 # WT 
DECAY  23 2.495200e+00 # WZ 
DECAY  24 2.085000e+00 # WW 
DECAY  25 5.753088e-03 # WH 
## Dependent parameters, given by model restrictions.
## Those values should be edited following the 
## analytical expression. MG5 ignores those values 
## but they are important for interfacing the output of MG5
## to external program such as Pythia.
DECAY  1 0.000000 # d : 0.0 
DECAY  2 0.000000 # u : 0.0 
DECAY  3 0.000000 # s : 0.0 
DECAY  4 0.000000 # c : 0.0 
DECAY  5 0.000000 # b : 0.0 
DECAY  11 0.000000 # e- : 0.0 
DECAY  12 0.000000 # ve : 0.0 
DECAY  13 0.000000 # mu- : 0.0 
DECAY  14 0.000000 # vm : 0.0 
DECAY  15 0.000000 # ta- : 0.0 
DECAY  16 0.000000 # vt : 0.0 
DECAY  21 0.000000 # g : 0.0 
DECAY  22 0.000000 # a : 0.0 
DECAY  10030 0.308725 # zph : (gz__exp__2*MZph*(5 + cmath.sqrt(1 - (4*MT__exp__2)/MZph__exp__2)))/(144.*cmath.pi) 
DECAY  10031 0.132629 # zpl : (5*gz__exp__2*MZpl)/(144.*cmath.pi) 
#===========================================================
# QUANTUM NUMBERS OF NEW STATE(S) (NON SM PDG CODE)
#===========================================================

Block QNUMBERS 10030  # zph 
        1 0  # 3 times electric charge
        2 3  # number of spin states (2S+1)
        3 1  # colour rep (1: singlet, 3: triplet, 8: octet)
        4 0  # Particle/Antiparticle distinction (0=own anti)
Block QNUMBERS 10031  # zpl 
        1 0  # 3 times electric charge
        2 3  # number of spin states (2S+1)
        3 1  # colour rep (1: singlet, 3: triplet, 8: octet)
        4 0  # Particle/Antiparticle distinction (0=own anti)
</slha>
## END BANNER##
<MGGenerationInfo>
#  Number of Events        :         4021
#  Integrated weight (pb)  :  0.32099E+00
#  Max wgt                 :  0.11032E-03
#  Average wgt             :  0.79828E-04
</MGGenerationInfo>
</header>
<init>
     2212     2212  0.40000000000E+04  0.40000000000E+04 0 0  247000  247000 2   1
  0.32121268487E+00  0.62682455427E-03  0.11032410000E-03   0
</init>
<event>
 5   0  0.1101619E-03  0.1300003E+04  0.7818609E-02  0.9029563E-01
        2   -1    0    0  501    0  0.00000000000E+00  0.00000000000E+00  0.45858373285E+03  0.45858373286E+03  0.25500000920E-02 0.  1.
       -2   -1    0    0    0  501  0.00000000000E+00  0.00000000000E+00 -0.92131929222E+03  0.92131929222E+03  0.25500000920E-02 0. -1.
    10030    2    1    2    0    0  0.00000000000E+00  0.00000000000E+00 -0.46273555937E+03  0.13799030251E+04  0.13000031387E+04 0.  0.
        1    1    3    3  502    0  0.57984217177E+03  0.78345686734E+02 -0.53187017284E+03  0.79072174093E+03  0.50400001928E-02 0. -1.
       -1    1    3    3    0  502 -0.57984217177E+03 -0.78345686734E+02  0.69134613475E+02  0.58918128415E+03  0.50400001928E-02 0.  1.
</event>
<event>
 5   0  0.1101619E-03  0.1295369E+04  0.7818609E-02  0.9033246E-01
        2   -1    0    0  501    0  0.00000000000E+00  0.00000000000E+00  0.10642385924E+04  0.10642385924E+04  0.25500000920E-02 0. -1.
       -2   -1    0    0    0  501  0.00000000000E+00  0.00000000000E+00 -0.39417408075E+03  0.39417408076E+03  0.25500000920E-02 0.  1.
    10030    2    1    2    0    0  0.00000000000E+00  0.00000000000E+00  0.67006451169E+03  0.14584126732E+04  0.12953690885E+04 0.  0.
        1    1    3    3  502    0 -0.73568964855E+02  0.24238441892E+03  0.10061588828E+04  0.10375539969E+04  0.50400001928E-02 0. -1.
       -1    1    3    3    0  502  0.73568964855E+02 -0.24238441892E+03 -0.33609437106E+03  0.42085867629E+03  0.50400001928E-02 0.  1.
</event>
<event>
 5   0  0.1046253E-03  0.1291966E+04  0.7818609E-02  0.9035961E-01
       -2   -1    0    0    0  501  0.00000000000E+00  0.00000000000E+00  0.53882343262E+03  0.53882343263E+03  0.25500000920E-02 0.  1.
        2   -1    0    0  501    0  0.00000000000E+00  0.00000000000E+00 -0.77445400282E+03  0.77445400282E+03  0.25500000920E-02 0. -1.
    10030    2    1    2    0    0  0.00000000000E+00  0.00000000000E+00 -0.23563057020E+03  0.13132774354E+04  0.12919658884E+04 0.  0.
        3    1    3    3  502    0  0.22978804255E+03  0.60371197068E+03 -0.12271833099E+03  0.65751843093E+03  0.10100000352E+00 0. -1.
       -3    1    3    3    0  502 -0.22978804255E+03 -0.60371197068E+03 -0.11291223921E+03  0.65575900452E+03  0.10100000352E+00 0.  1.
</event>
<event>
 5   0  0.1101619E-03  0.1281391E+04  0.7818609E-02  0.9044454E-01
        2   -1    0    0  501    0  0.00000000000E+00  0.00000000000E+00  0.77745961884E+03  0.77745961885E+03  0.25500000920E-02 0.  1.
       -2   -1    0    0    0  501  0.00000000000E+00  0.00000000000E+00 -0.52798948037E+03  0.52798948037E+03  0.25500000920E-02 0. -1.
    10030    2    1    2    0    0  0.00000000000E+00  0.00000000000E+00  0.24947013847E+03  0.13054490992E+04  0.12813906511E+04 0.  0.
        1    1    3    3  502    0  0.44097927513E+03 -0.31803684333E+03  0.47003878997E+03  0.71871177736E+03  0.50400001928E-02 0.  1.
       -1    1    3    3    0  502 -0.44097927513E+03  0.31803684333E+03 -0.22056865150E+03  0.58673732186E+03  0.50400001928E-02 0. -1.
</event>
<event>
 5   0  0.1046253E-03  0.1297121E+04  0.7818609E-02  0.9031852E-01
        2   -1    0    0  501    0  0.00000000000E+00  0.00000000000E+00  0.11672408493E+04  0.11672408493E+04  0.25500000920E-02 0. -1.
       -2   -1    0    0    0  501  0.00000000000E+00  0.00000000000E+00 -0.36036309606E+03  0.36036309607E+03  0.25500000920E-02 0.  1.
    10030    2    1    2    0    0  0.00000000000E+00  0.00000000000E+00  0.80687775322E+03  0.15276039454E+04  0.12971206980E+04 0.  0.
        3    1    3    3  502    0  0.41459743978E+03 -0.31628794761E+03 -0.50699214321E+02  0.52392702107E+03  0.10100000352E+00 0.  1.
       -3    1    3    3    0  502 -0.41459743978E+03  0.31628794761E+03  0.85757696754E+03  0.10036769243E+04  0.10100000352E+00 0. -1.
</event>
<event>
 5   0  0.5710383E-04  0.1275041E+04  0.7818609E-02  0.9049595E-01
        1   -1    0    0  501    0  0.00000000000E+00  0.00000000000E+00  0.33847637709E+03  0.33847637713E+03  0.50400001928E-02 0.  1.
       -1   -1    0    0    0  501  0.00000000000E+00  0.00000000000E+00 -0.12007702597E+04  0.12007702597E+04  0.50400001928E-02 0. -1.
    10030    2    1    2    0    0  0.00000000000E+00  0.00000000000E+00 -0.86229388257E+03  0.15392466368E+04  0.12750409676E+04 0.  0.
        1    1    3    3  502    0  0.32301690693E+03 -0.17364829898E+03  0.19838764279E+03  0.41695480659E+03  0.50400001928E-02 0.  1.
       -1    1    3    3    0  502 -0.32301690693E+03  0.17364829898E+03 -0.10606815254E+04  0.11222918302E+04  0.50400001928E-02 0. -1.
</event>
<event>
 5   0  0.5766027E-04  0.1297122E+04  0.7818609E-02  0.9031851E-01
       -1   -1    0    0    0  501  0.00000000000E+00  0.00000000000E+00  0.37093243019E+03  0.37093243023E+03  0.50400001928E-02 0. -1.
        1   -1    0    0  501    0  0.00000000000E+00  0.00000000000E+00 -0.11339832877E+04  0.11339832877E+04  0.50400001928E-02 0.  1.
    10030    2    1    2    0    0  0.00000000000E+00  0.00000000000E+00 -0.76305085749E+03  0.15049157179E+04  0.12971217009E+04 0.  0.
        3    1    3    3  502    0  0.32556219509E+03 -0.49511244939E+03 -0.68739524464E+03  0.90754576357E+03  0.10100000352E+00 0.  1.
       -3    1    3    3    0  502 -0.32556219509E+03  0.49511244939E+03 -0.75655612850E+02  0.59736995436E+03  0.10100000352E+00 0. -1.
</event>
<event>
 5   0  0.1101619E-03  0.1287648E+04  0.7818609E-02  0.9039418E-01
       -2   -1    0    0    0  501  0.00000000000E+00  0.00000000000E+00  0.43317970744E+03  0.43317970745E+03  0.25500000920E-02 0.  1.
        2   -1    0    0  501    0  0.00000000000E+00  0.00000000000E+00 -0.95689902424E+03  0.95689902424E+03  0.25500000920E-02 0. -1.
    10030    2    1    2    0    0  0.00000000000E+00  0.00000000000E+00 -0.52371931679E+03  0.13900787317E+04  0.12876478391E+04 0.  0.
        1    1    3    3  502    0 -0.24948660361E+02 -0.64199745122E+03 -0.30671067524E+03  0.71193721729E+03  0.50400001928E-02 0.  1.
       -1    1    3    3    0  502  0.24948660361E+02  0.64199745122E+03 -0.21700864155E+03  0.67814151440E+03  0.50400001928E-02 0. -1.
</event>
<event>
 5   0  0.5563545E-04  0.1293081E+04  0.7818609E-02  0.9035070E-01
       -1   -1    0    0    0  501  0.00000000000E+00  0.00000000000E+00  0.66971870583E+03  0.66971870585E+03  0.50400001928E-02 0. -1.
        1   -1    0    0  501    0  0.00000000000E+00  0.00000000000E+00 -0.62416401259E+03  0.62416401261E+03  0.50400001928E-02 0.  1.
    10030    2    1    2    0    0  0.00000000000E+00  0.00000000000E+00  0.45554693236E+02  0.12938827185E+04  0.12930805308E+04 0.  0.
        2    1    3    3  502    0 -0.13752561441E+03  0.39191995908E+03 -0.47300936298E+03  0.62948582702E+03  0.25500000920E-02 0.  1.
       -2    1    3    3    0  502  0.13752561441E+03 -0.39191995908E+03  0.51856405622E+03  0.66439689144E+03  0.25500000920E-02 0. -1.
</event>
<event>
 5   0  0.1101619E-03  0.1299966E+04  0.7818609E-02  0.9029592E-01
       -2   -1    0    0    0  501  0.00000000000E+00  0.00000000000E+00  0.62579025088E+03  0.62579025088E+03  0.25500000920E-02 0. -1.
        2   -1    0    0  501    0  0.00000000000E+00  0.00000000000E+00 -0.67511145127E+03  0.67511145128E+03  0.25500000920E-02 0.  1.
    10030    2    1    2    0    0  0.00000000000E+00  0.00000000000E+00 -0.49321200400E+02  0.13009017022E+04  0.12999664064E+04 0.  0.
        1    1    3    3  502    0  0.46527695983E+03  0.45360865018E+03 -0.93294087874E+01  0.64986959827E+03  0.50400001928E-02 0. -1.
       -1    1    3    3    0  502 -0.46527695983E+03 -0.45360865018E+03 -0.39991791612E+02  0.65103210389E+03  0.50400001928E-02 0.  1.
</event>
<event>
 5   0  0.4012375E-04  0.1300720E+04  0.7818609E-02  0.9028994E-01
       -4   -1    0    0    0  501  0.00000000000E+00  0.00000000000E+00  0.10522234739E+04  0.10522242404E+04  0.12699999809E+01 0.  1.
        4   -1    0    0  501    0  0.00000000000E+00  0.00000000000E+00 -0.40197391009E+03  0.40197591631E+03  0.12699999809E+01 0. -1.
    10030    2    1    2    0    0  0.00000000000E+00  0.00000000000E+00  0.65024956385E+03  0.14542001567E+04  0.13007204159E+04 0.  0.
        3    1    3    3  502    0 -0.47292254792E+03  0.43729208091E+03  0.42567165642E+03  0.77205988734E+03  0.10100000352E+00 0.  1.
       -3    1    3    3    0  502  0.47292254792E+03 -0.43729208091E+03  0.22457790744E+03  0.68214026935E+03  0.10100000352E+00 0. -1.
</event>
<event>
 5   0  0.1081574E-03  0.1292174E+04  0.7818609E-02  0.9035794E-01
       -2   -1    0    0    0  501  0.00000000000E+00  0.00000000000E+00  0.94304642660E+03  0.94304642660E+03  0.25500000920E-02 0. -1.
        2   -1    0    0  501    0  0.00000000000E+00  0.00000000000E+00 -0.44263836523E+03  0.44263836524E+03  0.25500000920E-02 0.  1.
    10030    2    1    2    0    0  0.00000000000E+00  0.00000000000E+00  0.50040806136E+03  0.13856847918E+04  0.12921741812E+04 0.  0.
        5    1    3    3  502    0 -0.37169625078E+00 -0.55506193658E+03  0.60475477232E+03  0.82088020821E+03  0.46999998093E+01 0. -1.
       -5    1    3    3    0  502  0.37169625078E+00  0.55506193658E+03 -0.10434671095E+03  0.56480458363E+03  0.46999998093E+01 0.  1.
</event>
<event>
 5   0  0.5812938E-04  0.1141705E+04  0.7818609E-02  0.9165470E-01
       -1   -1    0    0    0  501  0.00000000000E+00  0.00000000000E+00  0.61843071089E+03  0.61843071091E+03  0.50400001928E-02 0. -1.
        1   -1    0    0  501    0  0.00000000000E+00  0.00000000000E+00 -0.52693499753E+03  0.52693499755E+03  0.50400001928E-02 0.  1.
    10030    2    1    2    0    0  0.00000000000E+00  0.00000000000E+00  0.91495713358E+02  0.11453657085E+04  0.11417053650E+04 0.  0.
        5    1    3    3  502    0  0.36350231645E+03  0.28913129412E+02  0.48633784565E+03  0.60787868299E+03  0.46999998093E+01 0. -1.
       -5    1    3    3    0  502 -0.36350231645E+03 -0.28913129412E+02 -0.39484213229E+03  0.53748702547E+03  0.46999998093E+01 0.  1.
</event>
<event>
 5   0  0.4012375E-04  0.1302313E+04  0.7818609E-02  0.9027733E-01
       -3   -1    0    0    0  501  0.00000000000E+00  0.00000000000E+00  0.42949342001E+03  0.42949343189E+03  0.10100000352E+00 0. -1.
        3   -1    0    0  501    0  0.00000000000E+00  0.00000000000E+00 -0.98722076953E+03  0.98722077470E+03  0.10100000352E+00 0.  1.
    10030    2    1    2    0    0  0.00000000000E+00  0.00000000000E+00 -0.55772734952E+03  0.14167142066E+04  0.13023130755E+04 0.  0.
        1    1    3    3  502    0  0.63527646578E+03 -0.13875448017E+03 -0.31616648079E+03  0.72304234823E+03  0.50400001928E-02 0.  1.
       -1    1    3    3    0  502 -0.63527646578E+03  0.13875448017E+03 -0.24156086874E+03  0.69367185835E+03  0.50400001928E-02 0. -1.
</event>
<event>
 5   0  0.5710383E-04  0.1320261E+04  0.7818609E-02  0.9013650E-01
       -1   -1    0    0    0  501  0.00000000000E+00  0.00000000000E+00  0.30407267485E+03  0.30407267490E+03  0.50400001928E-02 0.  1.
        1   -1    0    0  501    0  0.00000000000E+00  0.00000000000E+00 -0.14331193769E+04  0.14331193769E+04  0.50400001928E-02 0. -1.
    10030    2    1    2    0    0  0.00000000000E+00  0.00000000000E+00 -0.11290467020E+04  0.17371920518E+04  0.13202612505E+04 0.  0.
        1    1    3    3  502    0 -0.31386832196E+02  0.65936134050E+03 -0.55732465153E+03  0.86391740219E+03  0.50400001928E-02 0.  1.
       -1    1    3    3    0  502  0.31386832196E+02 -0.65936134050E+03 -0.57172205051E+03  0.87327464961E+03  0.50400001928E-02 0. -1.
</event>
<event>
 5   0  0.5766027E-04  0.1299055E+04  0.7818609E-02  0.9030315E-01
       -1   -1    0    0    0  501  0.00000000000E+00  0.00000000000E+00  0.30385769276E+03  0.30385769280E+03  0.50400001928E-02 0.  1.
        1   -1    0    0  501    0  0.00000000000E+00  0.00000000000E+00 -0.13884319984E+04  0.13884319985E+04  0.50400001928E-02 0. -1.
    10030    2    1    2    0    0  0.00000000000E+00  0.00000000000E+00 -0.10845743057E+04  0.16922896913E+04  0.12990546465E+04 0.  0.
        3    1    3    3  502    0  0.12487098460E+03  0.46458552576E+03  0.26227278735E+02  0.48178870254E+03  0.10100000352E+00 0.  1.
       -3    1    3    3    0  502 -0.12487098460E+03 -0.46458552576E+03 -0.11108015844E+04  0.12105009887E+04  0.10100000352E+00 0. -1.
</event>
<event>
 5   0  0.5766027E-04  0.1293641E+04  0.7818609E-02  0.9034623E-01
        1   -1    0    0  501    0  0.00000000000E+00  0.00000000000E+00  0.28944016596E+03  0.28944016601E+03  0.50400001928E-02 0.  1.
       -1   -1    0    0    0  501  0.00000000000E+00  0.00000000000E+00 -0.14454692374E+04  0.14454692374E+04  0.50400001928E-02 0. -1.
    10030    2    1    2    0    0  0.00000000000E+00  0.00000000000E+00 -0.11560290714E+04  0.17349094034E+04  0.12936411496E+04 0.  0.
        3    1    3    3  502    0  0.59756564975E+03 -0.15304355622E+03 -0.31703314441E+03  0.69355393497E+03  0.10100000352E+00 0.  1.
       -3    1    3    3    0  502 -0.59756564975E+03  0.15304355622E+03 -0.83899592702E+03  0.10413554684E+04  0.10100000352E+00 0. -1.
</event>
<event>
 5   0  0.1101619E-03  0.1304475E+04  0.7818609E-02  0.9026024E-01
       -2   -1    0    0    0  501  0.00000000000E+00  0.00000000000E+00  0.20290935959E+03  0.20290935961E+03  0.25500000920E-02 0.  1.
        2   -1    0    0  501    0  0.00000000000E+00  0.00000000000E+00 -0.20965691398E+04  0.20965691398E+04  0.25500000920E-02 0. -1.
    10030    2    1    2    0    0  0.00000000000E+00  0.00000000000E+00 -0.18936597802E+04  0.22994784994E+04  0.13044746092E+04 0.  0.
        1    1    3    3  502    0  0.29445022608E+03  0.17077720381E+03 -0.19275780963E+04  0.19574021320E+04  0.50400001928E-02 0. -1.
       -1    1    3    3    0  502 -0.29445022608E+03 -0.17077720381E+03  0.33918316048E+02  0.34207636745E+03  0.50400001928E-02 0.  1.
</event>
<event>
 5   0  0.6006119E-04  0.1290481E+04  0.7818609E-02  0.9037148E-01
        1   -1    0    0  501    0  0.00000000000E+00  0.00000000000E+00  0.50303845515E+03  0.50303845517E+03  0.50400001928E-02 0. -1.
       -1   -1    0    0    0  501  0.00000000000E+00  0.00000000000E+00 -0.82764141788E+03  0.82764141789E+03  0.50400001928E-02 0.  1.
    10030    2    1    2    0    0  0.00000000000E+00  0.00000000000E+00 -0.32460296273E+03  0.13306798731E+04  0.12904812440E+04 0.  0.
        4    1    3    3  502    0  0.48239646902E+03 -0.41718051593E+03 -0.26326951368E+03  0.68996984422E+03  0.12699999809E+01 0.  1.
       -4    1    3    3    0  502 -0.48239646902E+03  0.41718051593E+03 -0.61333449046E+02  0.64071002885E+03  0.12699999809E+01 0. -1.
</event>
<event>
 5   0  0.5710383E-04  0.1307725E+04  0.7818609E-02  0.9023461E-01
       -1   -1    0    0    0  501  0.00000000000E+00  0.00000000000E+00  0.32299694901E+03  0.32299694905E+03  0.50400001928E-02 0. -1.
        1   -1    0    0  501    0  0.00000000000E+00  0.00000000000E+00 -0.13236546686E+04  0.13236546686E+04  0.50400001928E-02 0.  1.
    10030    2    1    2    0    0  0.00000000000E+00  0.00000000000E+00 -0.10006577196E+04  0.16466516177E+04  0.13077253833E+04 0.  0.
        1    1    3    3  502    0 -0.25530738472E+02  0.38080524375E+03  0.16818607630E+03  0.41707434416E+03  0.50400001928E-02 0. -1.
       -1    1    3    3    0  502  0.25530738472E+02 -0.38080524375E+03 -0.11688437959E+04  0.12295772735E+04  0.50400001928E-02 0.  1.
</event>
<event>
 5   0  0.1031295E-03  0.1294933E+04  0.7818609E-02  0.9033593E-01
        2   -1    0    0  501    0  0.00000000000E+00  0.00000000000E+00  0.17368882643E+04  0.17368882643E+04  0.25500000920E-02 0.  1.
       -2   -1    0    0    0  501  0.00000000000E+00  0.00000000000E+00 -0.24135847939E+03  0.24135847941E+03  0.25500000920E-02 0. -1.
    10030    2    1    2    0    0  0.00000000000E+00  0.00000000000E+00  0.14955297850E+04  0.19782467438E+04  0.12949327556E+04 0.  0.
        2    1    3    3  502    0  0.46605201052E+03 -0.40004450058E+03  0.43478506867E+03  0.75251454132E+03  0.25500000920E-02 0.  1.
       -2    1    3    3    0  502 -0.46605201052E+03  0.40004450058E+03  0.10607447163E+04  0.12257322024E+04  0.25500000920E-02 0. -1.
</event>
<event>
 5   0  0.5766027E-04  0.1326265E+04  0.7818609E-02  0.9008992E-01
       -1   -1    0    0    0  501  0.00000000000E+00  0.00000000000E+00  0.23914033210E+03  0.23914033215E+03  0.50400001928E-02 0. -1.
        1   -1    0    0  501    0  0.00000000000E+00  0.00000000000E+00 -0.18388556463E+04  0.18388556463E+04  0.50400001928E-02 0.  1.
    10030    2    1    2    0    0  0.00000000000E+00  0.00000000000E+00 -0.15997153142E+04  0.20779959784E+04  0.13262647549E+04 0.  0.
        3    1    3    3  502    0 -0.25525804552E+03  0.22665038789E+03  0.90904767196E+02  0.35325734958E+03  0.10100000352E+00 0. -1.
       -3    1    3    3    0  502  0.25525804552E+03 -0.22665038789E+03 -0.16906200814E+04  0.17247386289E+04  0.10100000352E+00 0.  1.
</event>
<event>
 5   0  0.4012375E-04  0.1325555E+04  0.7818609E-02  0.9009542E-01
       -3   -1    0    0    0  501  0.00000000000E+00  0.00000000000E+00  0.57813945995E+03  0.57813946878E+03  0.10100000352E+00 0. -1.
        3   -1    0    0  501    0  0.00000000000E+00  0.00000000000E+00 -0.75980574260E+03  0.75980574931E+03  0.10100000352E+00 0.  1.
    10030    2    1    2    0    0  0.00000000000E+00  0.00000000000E+00 -0.18166628265E+03  0.13379452181E+04  0.13255545135E+04 0.  0.
        3    1    3    3  502    0 -0.34522837492E+03 -0.56601308258E+02 -0.65902261720E+03  0.74612141045E+03  0.10100000352E+00 0.  1.
       -3    1    3    3    0  502  0.34522837492E+03  0.56601308258E+02  0.47735633456E+03  0.59182380764E+03  0.10100000352E+00 0. -1.
</event>
<event>
 5   0  0.1046253E-03  0.1299794E+04  0.7818609E-02  0.9029728E-01
        2   -1    0    0  501    0  0.00000000000E+00  0.00000000000E+00  0.13488149035E+04  0.13488149035E+04  0.25500000920E-02 0.  1.
       -2   -1    0    0    0  501  0.00000000000E+00  0.00000000000E+00 -0.31313874138E+03  0.31313874139E+03  0.25500000920E-02 0. -1.
    10030    2    1    2    0    0  0.00000000000E+00  0.00000000000E+00  0.10356761621E+04  0.16619536449E+04  0.12997941394E+04 0.  0.
        3    1    3    3  502    0  0.38920550297E+03  0.28716024575E+03 -0.37187169899E+02  0.48510290257E+03  0.10100000352E+00 0. -1.
       -3    1    3    3    0  502 -0.38920550297E+03 -0.28716024575E+03  0.10728633320E+04  0.11768507423E+04  0.10100000352E+00 0.  1.
</event>
<event>
 5   0  0.5710383E-04  0.1306847E+04  0.7818609E-02  0.9024153E-01
       -1   -1    0    0    0  501  0.00000000000E+00  0.00000000000E+00  0.42612853154E+03  0.42612853157E+03  0.50400001928E-02 0. -1.
        1   -1    0    0  501    0  0.00000000000E+00  0.00000000000E+00 -0.10019560103E+04  0.10019560103E+04  0.50400001928E-02 0.  1.
    10030    2    1    2    0    0  0.00000000000E+00  0.00000000000E+00 -0.57582747875E+03  0.14280845419E+04  0.13068466526E+04 0.  0.
        1    1    3    3  502    0  0.55189441852E+02 -0.64043630963E+03 -0.15973999163E+03  0.66236048050E+03  0.50400001928E-02 0. -1.
       -1    1    3    3    0  502 -0.55189441852E+02  0.64043630963E+03 -0.41608748712E+03  0.76572406136E+03  0.50400001928E-02 0.  1.
</event>
<event>
 5   0  0.1031295E-03  0.1299509E+04  0.7818609E-02  0.9029955E-01
        2   -1    0    0  501    0  0.00000000000E+00  0.00000000000E+00  0.14595608042E+04  0.14595608042E+04  0.25500000920E-02 0.  1.
       -2   -1    0    0    0  501  0.00000000000E+00  0.00000000000E+00 -0.28925198864E+03  0.28925198865E+03  0.25500000920E-02 0. -1.
    10030    2    1    2    0    0  0.00000000000E+00  0.00000000000E+00  0.11703088155E+04  0.17488127928E+04  0.12995089306E+04 0.  0.
        2    1    3    3  502    0  0.31203832974E+03 -0.42095904651E+02  0.13500335109E+04  0.13862649332E+04  0.25500000920E-02 0.  1.
       -2    1    3    3    0  502 -0.31203832974E+03  0.42095904651E+02 -0.17972469536E+03  0.36254785966E+03  0.25500000920E-02 0. -1.
</event>
<event>
 5   0  0.5563545E-04  0.1291345E+04  0.7818609E-02  0.9036457E-01
       -1   -1    0    0    0  501  0.00000000000E+00  0.00000000000E+00  0.49531472951E+03  0.49531472953E+03  0.50400001928E-02 0. -1.
        1   -1    0    0  501    0  0.00000000000E+00  0.00000000000E+00 -0.84167317987E+03  0.84167317988E+03  0.50400001928E-02 0.  1.
    10030    2    1    2    0    0  0.00000000000E+00  0.00000000000E+00 -0.34635845036E+03  0.13369879094E+04  0.12913452264E+04 0.  0.
        2    1    3    3  502    0 -0.44075630353E+03  0.28835221298E+03  0.21349132513E+03  0.56832355551E+03  0.25500000920E-02 0. -1.
       -2    1    3    3    0  502  0.44075630353E+03 -0.28835221298E+03 -0.55984977549E+03  0.76866435390E+03  0.25500000920E-02 0.  1.
</event>
<event>
 5   0  0.1046253E-03  0.1296440E+04  0.7818609E-02  0.9032393E-01
       -2   -1    0    0    0  501  0.00000000000E+00  0.00000000000E+00  0.71532974399E+03  0.71532974400E+03  0.25500000920E-02 0. -1.
        2   -1    0    0  501    0  0.00000000000E+00  0.00000000000E+00 -0.58740582888E+03  0.58740582889E+03  0.25500000920E-02 0.  1.
    10030    2    1    2    0    0  0.00000000000E+00  0.00000000000E+00  0.12792391511E+03  0.13027355729E+04  0.12964395261E+04 0.  0.
        3    1    3    3  502    0 -0.34988127144E+03  0.81147858085E+02  0.60619999426E+03  0.70461359781E+03  0.10100000352E+00 0. -1.
       -3    1    3    3    0  502  0.34988127144E+03 -0.81147858085E+02 -0.47827607915E+03  0.59812197507E+03  0.10100000352E+00 0.  1.
</event>
<event>
 5   0  0.1081574E-03  0.1292173E+04  0.7818609E-02  0.9035795E-01
        2   -1    0    0  501    0  0.00000000000E+00  0.00000000000E+00  0.74392220048E+03  0.74392220048E+03  0.25500000920E-02 0. -1.
       -2   -1    0    0    0  501  0.00000000000E+00  0.00000000000E+00 -0.56111759925E+03  0.56111759925E+03  0.25500000920E-02 0.  1.
    10030    2    1    2    0    0  0.00000000000E+00  0.00000000000E+00  0.18280460123E+03  0.13050397997E+04  0.12921731140E+04 0.  0.
        5    1    3    3  502    0  0.45271633541E+02 -0.53132565088E+03  0.45979356401E+03  0.70412263108E+03  0.46999998093E+01 0. -1.
       -5    1    3    3    0  502 -0.45271633541E+02  0.53132565088E+03 -0.27698896278E+03  0.60091716866E+03  0.46999998093E+01 0.  1.
</event>
<event>
 5   0  0.5563545E-04  0.1300606E+04  0.7818609E-02  0.9029085E-01
        1   -1    0    0  501    0  0.00000000000E+00  0.00000000000E+00  0.12922380595E+04  0.12922380595E+04  0.50400001928E-02 0.  1.
       -1   -1    0    0    0  501  0.00000000000E+00  0.00000000000E+00 -0.32725691881E+03  0.32725691885E+03  0.50400001928E-02 0. -1.
    10030    2    1    2    0    0  0.00000000000E+00  0.00000000000E+00  0.96498114067E+03  0.16194949783E+04  0.13006057754E+04 0.  0.
        2    1    3    3  502    0 -0.27915716403E+03 -0.96524529086E+02 -0.23890928217E+03  0.37989913406E+03  0.25500000920E-02 0. -1.
       -2    1    3    3    0  502  0.27915716403E+03  0.96524529086E+02  0.12038904228E+04  0.12395958443E+04  0.25500000920E-02 0.  1.
</event>
<event>
 5   0  0.1046253E-03  0.1297796E+04  0.7818609E-02  0.9031315E-01
        2   -1    0    0  501    0  0.00000000000E+00  0.00000000000E+00  0.54607425654E+03  0.54607425654E+03  0.25500000920E-02 0.  1.
       -2   -1    0    0    0  501  0.00000000000E+00  0.00000000000E+00 -0.77108343920E+03  0.77108343921E+03  0.25500000920E-02 0. -1.
    10030    2    1    2    0    0  0.00000000000E+00  0.00000000000E+00 -0.22500918267E+03  0.13171576958E+04  0.12977963104E+04 0.  0.
        3    1    3    3  502    0 -0.42909413702E+03  0.41345033850E+03 -0.37325346156E+03  0.70312240584E+03  0.10100000352E+00 0. -1.
       -3    1    3    3    0  502  0.42909413702E+03 -0.41345033850E+03  0.14824427890E+03  0.61403528991E+03  0.10100000352E+00 0.  1.
</event>
<event>
 5   0  0.1101619E-03  0.1298885E+04  0.7818609E-02  0.9030450E-01
       -2   -1    0    0    0  501  0.00000000000E+00  0.00000000000E+00  0.12771736393E+04  0.12771736393E+04  0.25500000920E-02 0.  1.
        2   -1    0    0  501    0  0.00000000000E+00  0.00000000000E+00 -0.33024148023E+03  0.33024148024E+03  0.25500000920E-02 0. -1.
    10030    2    1    2    0    0  0.00000000000E+00  0.00000000000E+00  0.94693215904E+03  0.16074151195E+04  0.12988852346E+04 0.  0.
        1    1    3    3  502    0 -0.25007748158E+03 -0.29633659674E+03  0.11181984305E+04  0.11835209569E+04  0.50400001928E-02 0.  1.
       -1    1    3    3    0  502  0.25007748158E+03  0.29633659674E+03 -0.17126627146E+03  0.42389416264E+03  0.50400001928E-02 0. -1.
</event>
<event>
 5   0  0.5766027E-04  0.1306860E+04  0.7818609E-02  0.9024143E-01
        1   -1    0    0  501    0  0.00000000000E+00  0.00000000000E+00  0.27307318293E+04  0.27307318294E+04  0.50400001928E-02 0.  1.
       -1   -1    0    0    0  501  0.00000000000E+00  0.00000000000E+00 -0.15635754730E+03  0.15635754738E+03  0.50400001928E-02 0. -1.
    10030    2    1    2    0    0  0.00000000000E+00  0.00000000000E+00  0.25743742820E+04  0.28870893767E+04  0.13068596425E+04 0.  0.
        3    1    3    3  502    0 -0.24099492237E+03 -0.15506331039E+03  0.25844999951E+04  0.26003390967E+04  0.10100000352E+00 0.  1.
       -3    1    3    3    0  502  0.24099492237E+03  0.15506331039E+03 -0.10125713064E+02  0.28675028004E+03  0.10100000352E+00 0. -1.
</event>
<event>
 5   0  0.1046253E-03  0.1289751E+04  0.7818609E-02  0.9037733E-01
       -2   -1    0    0    0  501  0.00000000000E+00  0.00000000000E+00  0.30511205875E+03  0.30511205876E+03  0.25500000920E-02 0.  1.
        2   -1    0    0  501    0  0.00000000000E+00  0.00000000000E+00 -0.13629881655E+04  0.13629881655E+04  0.25500000920E-02 0. -1.
    10030    2    1    2    0    0  0.00000000000E+00  0.00000000000E+00 -0.10578761068E+04  0.16681002243E+04  0.12897505577E+04 0.  0.
        3    1    3    3  502    0  0.48296387512E+03 -0.35214836163E+03 -0.84202930844E+03  0.10326063818E+04  0.10100000352E+00 0. -1.
       -3    1    3    3    0  502 -0.48296387512E+03  0.35214836163E+03 -0.21584679832E+03  0.63549384247E+03  0.10100000352E+00 0.  1.
</event>
<event>
 5   0  0.6006119E-04  0.1324661E+04  0.7818609E-02  0.9010234E-01
       -1   -1    0    0    0  501  0.00000000000E+00  0.00000000000E+00  0.62764449406E+03  0.62764449408E+03  0.50400001928E-02 0.  1.
        1   -1    0    0  501    0  0.00000000000E+00  0.00000000000E+00 -0.69893373701E+03  0.69893373703E+03  0.50400001928E-02 0. -1.
    10030    2    1    2    0    0  0.00000000000E+00  0.00000000000E+00 -0.71289242952E+02  0.13265782311E+04  0.13246613330E+04 0.  0.
        4    1    3    3  502    0 -0.55755742044E+03  0.14632744079E+01 -0.39366423838E+03  0.68252880067E+03  0.12699999809E+01 0. -1.
       -4    1    3    3    0  502  0.55755742044E+03 -0.14632744079E+01  0.32237499543E+03  0.64404943044E+03  0.12699999809E+01 0.  1.
</event>
<event>
 5   0  0.5710383E-04  0.1305732E+04  0.7818609E-02  0.9025032E-01
       -1   -1    0    0    0  501  0.00000000000E+00  0.00000000000E+00  0.13585664043E+04  0.13585664043E+04  0.50400001928E-02 0.  1.
        1   -1    0    0  501    0  0.00000000000E+00  0.00000000000E+00 -0.31373796322E+03  0.31373796326E+03  0.50400001928E-02 0. -1.
    10030    2    1    2    0    0  0.00000000000E+00  0.00000000000E+00  0.10448284411E+04  0.16723043676E+04  0.13057317590E+04 0.  0.
        1    1    3    3  502    0  0.59397865807E+03  0.11836568478E+03  0.21023695270E+03  0.64110892825E+03  0.50400001928E-02 0. -1.
       -1    1    3    3    0  502 -0.59397865807E+03 -0.11836568478E+03  0.83459148836E+03  0.10311954393E+04  0.50400001928E-02 0.  1.
</event>
<event>
 5   0  0.5766027E-04  0.1302233E+04  0.7818609E-02  0.9027797E-01
       -1   -1    0    0    0  501  0.00000000000E+00  0.00000000000E+00  0.42705599534E+03  0.42705599537E+03  0.50400001928E-02 0. -1.
        1   -1    0    0  501    0  0.00000000000E+00  0.00000000000E+00 -0.99273260202E+03  0.99273260203E+03  0.50400001928E-02 0.  1.
    10030    2    1    2    0    0  0.00000000000E+00  0.00000000000E+00 -0.56567660668E+03  0.14197885974E+04  0.13022325591E+04 0.  0.
        3    1    3    3  502    0  0.53879302257E+03  0.26955874742E+03 -0.55209937174E+03  0.81717413441E+03  0.10100000352E+00 0.  1.
       -3    1    3    3    0  502 -0.53879302257E+03 -0.26955874742E+03 -0.13577234943E+02  0.60261446298E+03  0.10100000352E+00 0. -1.
</event>
<event>
 5   0  0.1103241E-03  0.1300873E+04  0.7818609E-02  0.9028873E-01
        2   -1    0    0  501    0  0.00000000000E+00  0.00000000000E+00  0.15402080794E+04  0.15402080794E+04  0.25500000920E-02 0.  1.
       -2   -1    0    0    0  501  0.00000000000E+00  0.00000000000E+00 -0.27468223559E+03  0.27468223560E+03  0.25500000920E-02 0. -1.
    10030    2    1    2    0    0  0.00000000000E+00  0.00000000000E+00  0.12655258438E+04  0.18148903150E+04  0.13008732429E+04 0.  0.
        4    1    3    3  502    0  0.11905856809E+03 -0.43534924270E+03  0.12861888715E+04  0.13630800901E+04  0.12699999809E+01 0.  1.
       -4    1    3    3    0  502 -0.11905856809E+03  0.43534924270E+03 -0.20663027721E+02  0.45181022495E+03  0.12699999809E+01 0. -1.
</event>
<event>
 5   0  0.1103241E-03  0.1295037E+04  0.7818609E-02  0.9033510E-01
        2   -1    0    0  501    0  0.00000000000E+00  0.00000000000E+00  0.26480508017E+04  0.26480508017E+04  0.25500000920E-02 0.  1.
       -2   -1    0    0    0  501  0.00000000000E+00  0.00000000000E+00 -0.15833545770E+03  0.15833545772E+03  0.25500000920E-02 0. -1.
    10030    2    1    2    0    0  0.00000000000E+00  0.00000000000E+00  0.24897153440E+04  0.28063862594E+04  0.12950371975E+04 0.  0.
        4    1    3    3  502    0 -0.33549928277E+03 -0.52833541612E+03  0.16047456913E+04  0.17224716042E+04  0.12699999809E+01 0.  1.
       -4    1    3    3    0  502  0.33549928277E+03  0.52833541612E+03  0.88496965267E+03  0.10839146552E+04  0.12699999809E+01 0. -1.
</event>
<event>
 5   0  0.5563545E-04  0.1297696E+04  0.7818609E-02  0.9031394E-01
       -1   -1    0    0    0  501  0.00000000000E+00  0.00000000000E+00  0.26800293059E+03  0.26800293064E+03  0.50400001928E-02 0. -1.
        1   -1    0    0  501    0  0.00000000000E+00  0.00000000000E+00 -0.15708924154E+04  0.15708924154E+04  0.50400001928E-02 0.  1.
    10030    2    1    2    0    0  0.00000000000E+00  0.00000000000E+00 -0.13028894848E+04  0.18388953460E+04  0.12976960677E+04 0.  0.
        2    1    3    3  502    0 -0.31212018385E+03 -0.56401144259E+03 -0.75630477152E+03  0.99374283593E+03  0.25500000920E-02 0. -1.
       -2    1    3    3    0  502  0.31212018385E+03  0.56401144259E+03 -0.54658471329E+03  0.84515251011E+03  0.25500000920E-02 0.  1.
</event>
<event>
 5   0  0.5766027E-04  0.1311648E+04  0.7818609E-02  0.9020379E-01
       -1   -1    0    0    0  501  0.00000000000E+00  0.00000000000E+00  0.36313367338E+03  0.36313367341E+03  0.50400001928E-02 0. -1.
        1   -1    0    0  501    0  0.00000000000E+00  0.00000000000E+00 -0.11844261603E+04  0.11844261603E+04  0.50400001928E-02 0.  1.
    10030    2    1    2    0    0  0.00000000000E+00  0.00000000000E+00 -0.82129248692E+03  0.15475598337E+04  0.13116478529E+04 0.  0.
        3    1    3    3  502    0  0.13295145020E+03 -0.64170132983E+03 -0.38060434310E+03  0.75783663214E+03  0.10100000352E+00 0.  1.
       -3    1    3    3    0  502 -0.13295145020E+03  0.64170132983E+03 -0.44068814382E+03  0.78972320159E+03  0.10100000352E+00 0. -1.
</event>
<event>
 5   0  0.5812938E-04  0.1308671E+04  0.7818609E-02  0.9022717E-01
       -1   -1    0    0    0  501  0.00000000000E+00  0.00000000000E+00  0.83209422578E+03  0.83209422579E+03  0.50400001928E-02 0. -1.
        1   -1    0    0  501    0  0.00000000000E+00  0.00000000000E+00 -0.51455124500E+03  0.51455124502E+03  0.50400001928E-02 0.  1.
    10030    2    1    2    0    0  0.00000000000E+00  0.00000000000E+00  0.31754298078E+03  0.13466454708E+04  0.13086712648E+04 0.  0.
        5    1    3    3  502    0  0.25558180053E+03  0.40093671155E+03  0.62132679226E+03  0.78239464224E+03  0.46999998093E+01 0. -1.
       -5    1    3    3    0  502 -0.25558180053E+03 -0.40093671155E+03 -0.30378381148E+03  0.56425082857E+03  0.46999998093E+01 0.  1.
</event>
<event>
 5   0  0.1031295E-03  0.1294823E+04  0.7818609E-02  0.9033681E-01
        2   -1    0    0  501    0  0.00000000000E+00  0.00000000000E+00  0.11885849618E+04  0.11885849618E+04  0.25500000920E-02 0.  1.
       -2   -1    0    0    0  501  0.00000000000E+00  0.00000000000E+00 -0.35263913463E+03  0.35263913464E+03  0.25500000920E-02 0. -1.
    10030    2    1    2    0    0  0.00000000000E+00  0.00000000000E+00  0.83594582713E+03  0.15412240964E+04  0.12948228796E+04 0.  0.
        2    1    3    3  502    0 -0.36662049649E+03  0.23889942382E+03  0.98590568650E+03  0.10786535801E+04  0.25500000920E-02 0.  1.
       -2    1    3    3    0  502  0.36662049649E+03 -0.23889942382E+03 -0.14995985936E+03  0.46257051632E+03  0.25500000920E-02 0. -1.
</event>
<event>
 5   0  0.1046253E-03  0.1339505E+04  0.7818609E-02  0.8998811E-01
        2   -1    0    0  501    0  0.00000000000E+00  0.00000000000E+00  0.21558792484E+04  0.21558792484E+04  0.25500000920E-02 0. -1.
       -2   -1    0    0    0  501  0.00000000000E+00  0.00000000000E+00 -0.20806759427E+03  0.20806759429E+03  0.25500000920E-02 0.  1.
    10030    2    1    2    0    0  0.00000000000E+00  0.00000000000E+00  0.19478116541E+04  0.23639468427E+04  0.13395052949E+04 0.  0.
        3    1    3    3  502    0  0.41098472787E+03  0.42050463535E+03  0.15398399330E+04  0.16482838421E+04  0.10100000352E+00 0. -1.
       -3    1    3    3    0  502 -0.41098472787E+03 -0.42050463535E+03  0.40797172118E+03  0.71566300056E+03  0.10100000352E+00 0.  1.
</event>
<event>
 5   0  0.1101619E-03  0.1294568E+04  0.7818609E-02  0.9033884E-01
        2   -1    0    0  501    0  0.00000000000E+00  0.00000000000E+00  0.11528038369E+04  0.11528038369E+04  0.25500000920E-02 0.  1.
       -2   -1    0    0    0  501  0.00000000000E+00  0.00000000000E+00 -0.36344125386E+03  0.36344125387E+03  0.25500000920E-02 0. -1.
    10030    2    1    2    0    0  0.00000000000E+00  0.00000000000E+00  0.78936258301E+03  0.15162450907E+04  0.12945678382E+04 0.  0.
        1    1    3    3  502    0 -0.17534335827E+03 -0.24116246684E+03 -0.27821608268E+03  0.40780978088E+03  0.50400001928E-02 0. -1.
       -1    1    3    3    0  502  0.17534335827E+03  0.24116246684E+03  0.10675786657E+04  0.11084353099E+04  0.50400001928E-02 0.  1.
</event>
<event>
 5   0  0.1031295E-03  0.1301687E+04  0.7818609E-02  0.9028228E-01
       -2   -1    0    0    0  501  0.00000000000E+00  0.00000000000E+00  0.34899519185E+03  0.34899519186E+03  0.25500000920E-02 0.  1.
        2   -1    0    0  501    0  0.00000000000E+00  0.00000000000E+00 -0.12137625102E+04  0.12137625102E+04  0.25500000920E-02 0. -1.
    10030    2    1    2    0    0  0.00000000000E+00  0.00000000000E+00 -0.86476731831E+03  0.15627577020E+04  0.13016870286E+04 0.  0.
        2    1    3    3  502    0  0.25192592030E+03 -0.59949838072E+03 -0.46487220485E+03  0.79935670676E+03  0.25500000920E-02 0.  1.
       -2    1    3    3    0  502 -0.25192592030E+03  0.59949838072E+03 -0.39989511347E+03  0.76340099527E+03  0.25500000920E-02 0. -1.
</event>
<event>
 5   0  0.1046253E-03  0.1301255E+04  0.7818609E-02  0.9028570E-01
       -2   -1    0    0    0  501  0.00000000000E+00  0.00000000000E+00  0.56329785083E+03  0.56329785083E+03  0.25500000920E-02 0. -1.
        2   -1    0    0  501    0  0.00000000000E+00  0.00000000000E+00 -0.75149660435E+03  0.75149660436E+03  0.25500000920E-02 0.  1.
    10030    2    1    2    0    0  0.00000000000E+00  0.00000000000E+00 -0.18819875353E+03  0.13147944552E+04  0.13012554279E+04 0.  0.
        3    1    3    3  502    0  0.53046384049E+03  0.57858136301E+02  0.28203309483E+03  0.60355789017E+03  0.10100000352E+00 0. -1.
       -3    1    3    3    0  502 -0.53046384049E+03 -0.57858136301E+02 -0.47023184836E+03  0.71123656502E+03  0.10100000352E+00 0.  1.
</event>
<event>
 5   0  0.5766027E-04  0.1301008E+04  0.7818609E-02  0.9028766E-01
       -1   -1    0    0    0  501  0.00000000000E+00  0.00000000000E+00  0.68751969067E+03  0.68751969068E+03  0.50400001928E-02 0.  1.
        1   -1    0    0  501    0  0.00000000000E+00  0.00000000000E+00 -0.61548161487E+03  0.61548161489E+03  0.50400001928E-02 0. -1.
    10030    2    1    2    0    0  0.00000000000E+00  0.00000000000E+00  0.72038075795E+02  0.13030013056E+04  0.13010084235E+04 0.  0.
        3    1    3    3  502    0 -0.38087969021E+03 -0.37601331154E+03  0.40631552166E+03  0.67197296241E+03  0.10100000352E+00 0.  1.
       -3    1    3    3    0  502  0.38087969021E+03  0.37601331154E+03 -0.33427744586E+03  0.63102834317E+03  0.10100000352E+00 0. -1.
</event>
<event>
 5   0  0.1081574E-03  0.1314733E+04  0.7818609E-02  0.9017962E-01
       -2   -1    0    0    0  501  0.00000000000E+00  0.00000000000E+00  0.52171167620E+03  0.52171167621E+03  0.25500000920E-02 0. -1.
        2   -1    0    0  501    0  0.00000000000E+00  0.00000000000E+00 -0.82829450380E+03  0.82829450381E+03  0.25500000920E-02 0.  1.
    10030    2    1    2    0    0  0.00000000000E+00  0.00000000000E+00 -0.30658282760E+03  0.13500061800E+04  0.13147333022E+04 0.  0.
        5    1    3    3  502    0 -0.21307305347E+03 -0.25637794986E+03  0.42845864108E+03  0.54288919348E+03  0.46999998093E+01 0. -1.
       -5    1    3    3    0  502  0.21307305347E+03  0.25637794986E+03 -0.73504146868E+03  0.80711698654E+03  0.46999998093E+01 0.  1.
</event>
<event>
 5   0  0.5812938E-04  0.1301501E+04  0.7818609E-02  0.9028376E-01
       -1   -1    0    0    0  501  0.00000000000E+00  0.00000000000E+00  0.24205397521E+03  0.24205397526E+03  0.50400001928E-02 0. -1.
        1   -1    0    0  501    0  0.00000000000E+00  0.00000000000E+00 -0.17495118592E+04  0.17495118592E+04  0.50400001928E-02 0.  1.
    10030    2    1    2    0    0  0.00000000000E+00  0.00000000000E+00 -0.15074578840E+04  0.19915658345E+04  0.13015011337E+04 0.  0.
        5    1    3    3  502    0  0.52256095392E+03 -0.60884454271E+02 -0.16768303979E+03  0.55219250191E+03  0.46999998093E+01 0. -1.
       -5    1    3    3    0  502 -0.52256095392E+03  0.60884454271E+02 -0.13397748442E+04  0.14393733326E+04  0.46999998093E+01 0.  1.
</event>
<event>
 5   0  0.5766027E-04  0.1301748E+04  0.7818609E-02  0.9028180E-01
        1   -1    0    0  501    0  0.00000000000E+00  0.00000000000E+00  0.84010072650E+03  0.84010072652E+03  0.50400001928E-02 0.  1.
       -1   -1    0    0    0  501  0.00000000000E+00  0.00000000000E+00 -0.50426927881E+03  0.50426927883E+03  0.50400001928E-02 0. -1.
    10030    2    1    2    0    0  0.00000000000E+00  0.00000000000E+00  0.33583144769E+03  0.13443700053E+04  0.13017480363E+04 0.  0.
        3    1    3    3  502    0  0.38324552542E+03 -0.22736808978E+03  0.65785754268E+03  0.79457531907E+03  0.10100000352E+00 0.  1.
       -3    1    3    3    0  502 -0.38324552542E+03  0.22736808978E+03 -0.32202609499E+03  0.54979468628E+03  0.10100000352E+00 0. -1.
</event>
<event>
 5   0  0.1046253E-03  0.1145932E+04  0.7818609E-02  0.9161545E-01
       -2   -1    0    0    0  501  0.00000000000E+00  0.00000000000E+00  0.14943389513E+04  0.14943389513E+04  0.25500000920E-02 0.  1.
        2   -1    0    0  501    0  0.00000000000E+00  0.00000000000E+00 -0.21968912804E+03  0.21968912806E+03  0.25500000920E-02 0. -1.
    10030    2    1    2    0    0  0.00000000000E+00  0.00000000000E+00  0.12746498232E+04  0.17140280793E+04  0.11459319722E+04 0.  0.
        3    1    3    3  502    0  0.93738095339E+02 -0.39680322769E+02  0.14807061397E+04  0.14842008088E+04  0.10100000352E+00 0.  1.
       -3    1    3    3    0  502 -0.93738095339E+02  0.39680322769E+02 -0.20605631645E+03  0.22982727054E+03  0.10100000352E+00 0. -1.
</event>
<event>
 5   0  0.5710383E-04  0.1274040E+04  0.7818609E-02  0.9050409E-01
       -1   -1    0    0    0  501  0.00000000000E+00  0.00000000000E+00  0.13885695382E+04  0.13885695382E+04  0.50400001928E-02 0.  1.
        1   -1    0    0  501    0  0.00000000000E+00  0.00000000000E+00 -0.29223917254E+03  0.29223917258E+03  0.50400001928E-02 0. -1.
    10030    2    1    2    0    0  0.00000000000E+00  0.00000000000E+00  0.10963303657E+04  0.16808087108E+04  0.12740398940E+04 0.  0.
        1    1    3    3  502    0 -0.57196507794E+03  0.24195298804E+03  0.73524706547E+03  0.96243106044E+03  0.50400001928E-02 0.  1.
       -1    1    3    3    0  502  0.57196507794E+03 -0.24195298804E+03  0.36108330020E+03  0.71837765034E+03  0.50400001928E-02 0. -1.
</event>
<event>
 5   0  0.5766027E-04  0.1285683E+04  0.7818609E-02  0.9040996E-01
       -1   -1    0    0    0  501  0.00000000000E+00  0.00000000000E+00  0.44028607480E+03  0.44028607483E+03  0.50400001928E-02 0. -1.
        1   -1    0    0  501    0  0.00000000000E+00  0.00000000000E+00 -0.93858314523E+03  0.93858314524E+03  0.50400001928E-02 0.  1.
    10030    2    1    2    0    0  0.00000000000E+00  0.00000000000E+00 -0.49829707043E+03  0.13788692201E+04  0.12856828363E+04 0.  0.
        3    1    3    3  502    0  0.52997065162E+03 -0.29155192830E+03 -0.15717980850E+02  0.60507725424E+03  0.10100000352E+00 0. -1.
       -3    1    3    3    0  502 -0.52997065162E+03  0.29155192830E+03 -0.48257908958E+03  0.77379196583E+03  0.10100000352E+00 0.  1.
</event>
<event>
 5   0  0.5563545E-04  0.1317767E+04  0.7818609E-02  0.9015593E-01
       -1   -1    0    0    0  501  0.00000000000E+00  0.00000000000E+00  0.53571567488E+03  0.53571567491E+03  0.50400001928E-02 0. -1.
        1   -1    0    0  501    0  0.00000000000E+00  0.00000000000E+00 -0.81036970871E+03  0.81036970872E+03  0.50400001928E-02 0.  1.
    10030    2    1    2    0    0  0.00000000000E+00  0.00000000000E+00 -0.27465403383E+03  0.13460853836E+04  0.13177674384E+04 0.  0.
        2    1    3    3  502    0 -0.29243356362E+03 -0.43463176390E+03  0.27089263074E+03  0.58974992727E+03  0.25500000920E-02 0. -1.
       -2    1    3    3    0  502  0.29243356362E+03  0.43463176390E+03 -0.54554666456E+03  0.75633545636E+03  0.25500000920E-02 0.  1.
</event>
<event>
 5   0  0.5812938E-04  0.1298057E+04  0.7818609E-02  0.9031108E-01
        1   -1    0    0  501    0  0.00000000000E+00  0.00000000000E+00  0.67149045295E+03  0.67149045297E+03  0.50400001928E-02 0.  1.
       -1   -1    0    0    0  501  0.00000000000E+00  0.00000000000E+00 -0.62731745610E+03  0.62731745612E+03  0.50400001928E-02 0. -1.
    10030    2    1    2    0    0  0.00000000000E+00  0.00000000000E+00  0.44172996856E+02  0.12988079091E+04  0.12980565207E+04 0.  0.
        5    1    3    3  502    0  0.58509775841E+03 -0.14384544137E+03  0.26344116594E+03  0.65761252711E+03  0.46999998093E+01 0.  1.
       -5    1    3    3    0  502 -0.58509775841E+03  0.14384544137E+03 -0.21926816909E+03  0.64119538198E+03  0.46999998093E+01 0. -1.
</event>
<event>
 5   0  0.1103241E-03  0.1298170E+04  0.7818609E-02  0.9031018E-01
        2   -1    0    0  501    0  0.00000000000E+00  0.00000000000E+00  0.25240199423E+04  0.25240199423E+04  0.25500000920E-02 0. -1.
       -2   -1    0    0    0  501  0.00000000000E+00  0.00000000000E+00 -0.16692080098E+03  0.16692080100E+03  0.25500000920E-02 0.  1.
    10030    2    1    2    0    0  0.00000000000E+00  0.00000000000E+00  0.23570991413E+04  0.26909407433E+04  0.12981701437E+04 0.  0.
        4    1    3    3  502    0 -0.35566587119E+02  0.27292637351E+03  0.23970670283E+04  0.24128169716E+04  0.12699999809E+01 0. -1.
       -4    1    3    3    0  502  0.35566587119E+02 -0.27292637351E+03 -0.39967886992E+02  0.27812377166E+03  0.12699999809E+01 0.  1.
</event>
<event>
 5   0  0.1101619E-03  0.1294416E+04  0.7818609E-02  0.9034005E-01
        2   -1    0    0  501    0  0.00000000000E+00  0.00000000000E+00  0.11601731624E+04  0.11601731624E+04  0.25500000920E-02 0.  1.
       -2   -1    0    0    0  501  0.00000000000E+00  0.00000000000E+00 -0.36104799830E+03  0.36104799831E+03  0.25500000920E-02 0. -1.
    10030    2    1    2    0    0  0.00000000000E+00  0.00000000000E+00  0.79912516412E+03  0.15212211607E+04  0.12944160042E+04 0.  0.
        1    1    3    3  502    0  0.19710265746E+03 -0.35377113636E+03 -0.19374769057E+03  0.44893389506E+03  0.50400001928E-02 0. -1.
       -1    1    3    3    0  502 -0.19710265746E+03  0.35377113636E+03  0.99287285469E+03  0.10722872657E+04  0.50400001928E-02 0.  1.
</event>
<event>
 5   0  0.6006119E-04  0.1305511E+04  0.7818609E-02  0.9025206E-01
       -1   -1    0    0    0  501  0.00000000000E+00  0.00000000000E+00  0.90358917721E+03  0.90358917722E+03  0.50400001928E-02 0. -1.
        1   -1    0    0  501    0  0.00000000000E+00  0.00000000000E+00 -0.47155258968E+03  0.47155258970E+03  0.50400001928E-02 0.  1.
    10030    2    1    2    0    0  0.00000000000E+00  0.00000000000E+00  0.43203658753E+03  0.13751417669E+04  0.13055111130E+04 0.  0.
        4    1    3    3  502    0 -0.13184577762E+03 -0.24535437340E+03  0.83784892033E+03  0.88293516399E+03  0.12699999809E+01 0. -1.
       -4    1    3    3    0  502  0.13184577762E+03  0.24535437340E+03 -0.40581233280E+03  0.49220660293E+03  0.12699999809E+01 0.  1.
</event>
<event>
 5   0  0.1031295E-03  0.1281665E+04  0.7818609E-02  0.9044233E-01
       -2   -1    0    0    0  501  0.00000000000E+00  0.00000000000E+00  0.38284409802E+03  0.38284409803E+03  0.25500000920E-02 0. -1.
        2   -1    0    0  501    0  0.00000000000E+00  0.00000000000E+00 -0.10726722207E+04  0.10726722207E+04  0.25500000920E-02 0.  1.
    10030    2    1    2    0    0  0.00000000000E+00  0.00000000000E+00 -0.68982812269E+03  0.14555163187E+04  0.12816648998E+04 0.  0.
        2    1    3    3  502    0  0.51219528658E+03  0.17082442675E+03  0.47074715158E+02  0.54197880511E+03  0.25500000920E-02 0. -1.
       -2    1    3    3    0  502 -0.51219528658E+03 -0.17082442675E+03 -0.73690283785E+03  0.91353751363E+03  0.25500000920E-02 0.  1.
</event>
<event>
 5   0  0.5812938E-04  0.1196572E+04  0.7818609E-02  0.9115862E-01
        1   -1    0    0  501    0  0.00000000000E+00  0.00000000000E+00  0.27692958196E+03  0.27692958200E+03  0.50400001928E-02 0.  1.
       -1   -1    0    0    0  501  0.00000000000E+00  0.00000000000E+00 -0.12925538007E+04  0.12925538007E+04  0.50400001928E-02 0. -1.
    10030    2    1    2    0    0  0.00000000000E+00  0.00000000000E+00 -0.10156242188E+04  0.15694833827E+04  0.11965724111E+04 0.  0.
        5    1    3    3  502    0  0.51153020306E+02  0.51580927433E+03 -0.89966051985E+03  0.10383096744E+04  0.46999998093E+01 0. -1.
       -5    1    3    3    0  502 -0.51153020306E+02 -0.51580927433E+03 -0.11596369892E+03  0.53117370834E+03  0.46999998093E+01 0.  1.
</event>
<event>
 5   0  0.1031295E-03  0.1285103E+04  0.7818609E-02  0.9041463E-01
       -2   -1    0    0    0  501  0.00000000000E+00  0.00000000000E+00  0.26363036159E+03  0.26363036160E+03  0.25500000920E-02 0.  1.
        2   -1    0    0  501    0  0.00000000000E+00  0.00000000000E+00 -0.15661022824E+04  0.15661022824E+04  0.25500000920E-02 0. -1.
    10030    2    1    2    0    0  0.00000000000E+00  0.00000000000E+00 -0.13024719208E+04  0.18297326440E+04  0.12851025033E+04 0.  0.
        2    1    3    3  502    0  0.27365389750E+02  0.51417601745E+03 -0.10395778587E+03  0.52529331113E+03  0.25500000920E-02 0.  1.
       -2    1    3    3    0  502 -0.27365389750E+02 -0.51417601745E+03 -0.11985141350E+04  0.13044393329E+04  0.25500000920E-02 0. -1.
</event>
<event>
 5   0  0.6006119E-04  0.1289760E+04  0.7818609E-02  0.9037725E-01
       -1   -1    0    0    0  501  0.00000000000E+00  0.00000000000E+00  0.75885718023E+03  0.75885718025E+03  0.50400001928E-02 0.  1.
        1   -1    0    0  501    0  0.00000000000E+00  0.00000000000E+00 -0.54802190436E+03  0.54802190438E+03  0.50400001928E-02 0. -1.
    10030    2    1    2    0    0  0.00000000000E+00  0.00000000000E+00  0.21083527587E+03  0.13068790846E+04  0.12897602212E+04 0.  0.
        4    1    3    3  502    0  0.52606784396E+03 -0.35358410557E+03 -0.14900351118E+02  0.63402896584E+03  0.12699999809E+01 0.  1.
       -4    1    3    3    0  502 -0.52606784396E+03  0.35358410557E+03  0.22573562699E+03  0.67285011879E+03  0.12699999809E+01 0. -1.
</event>
<event>
 5   0  0.5563545E-04  0.1305719E+04  0.7818609E-02  0.9025042E-01
        1   -1    0    0  501    0  0.00000000000E+00  0.00000000000E+00  0.94864478553E+03  0.94864478554E+03  0.50400001928E-02 0.  1.
       -1   -1    0    0    0  501  0.00000000000E+00  0.00000000000E+00 -0.44929968328E+03  0.44929968330E+03  0.50400001928E-02 0. -1.
    10030    2    1    2    0    0  0.00000000000E+00  0.00000000000E+00  0.49934510225E+03  0.13979444688E+04  0.13057194212E+04 0.  0.
        2    1    3    3  502    0 -0.19238631711E+02 -0.12525502804E+03  0.93535074395E+03  0.94389616018E+03  0.25500000920E-02 0.  1.
       -2    1    3    3    0  502  0.19238631711E+02  0.12525502804E+03 -0.43600564170E+03  0.45404830866E+03  0.25500000920E-02 0. -1.
</event>
<event>
 5   0  0.5563545E-04  0.1302542E+04  0.7818609E-02  0.9027552E-01
        1   -1    0    0  501    0  0.00000000000E+00  0.00000000000E+00  0.25970313791E+03  0.25970313796E+03  0.50400001928E-02 0.  1.
       -1   -1    0    0    0  501  0.00000000000E+00  0.00000000000E+00 -0.16332251429E+04  0.16332251429E+04  0.50400001928E-02 0. -1.
    10030    2    1    2    0    0  0.00000000000E+00  0.00000000000E+00 -0.13735220050E+04  0.18929282809E+04  0.13025416609E+04 0.  0.
        2    1    3    3  502    0 -0.56613174111E+03 -0.30226761041E+03 -0.52569944353E+03  0.82959674634E+03  0.25500000920E-02 0. -1.
       -2    1    3    3    0  502  0.56613174111E+03  0.30226761041E+03 -0.84782256145E+03  0.10633315345E+04  0.25500000920E-02 0.  1.
</event>
<event>
 5   0  0.1031295E-03  0.1287971E+04  0.7818609E-02  0.9039159E-01
       -2   -1    0    0    0  501  0.00000000000E+00  0.00000000000E+00  0.48294367496E+03  0.48294367497E+03  0.25500000920E-02 0. -1.
        2   -1    0    0  501    0  0.00000000000E+00  0.00000000000E+00 -0.85872833887E+03  0.85872833888E+03  0.25500000920E-02 0.  1.
    10030    2    1    2    0    0  0.00000000000E+00  0.00000000000E+00 -0.37578466391E+03  0.13416720138E+04  0.12879711484E+04 0.  0.
        2    1    3    3  502    0 -0.29816111354E+03 -0.27184195228E+03 -0.71073493314E+03  0.81727733471E+03  0.25500000920E-02 0.  1.
       -2    1    3    3    0  502  0.29816111354E+03  0.27184195228E+03  0.33495026922E+03  0.52439467914E+03  0.25500000920E-02 0. -1.
</event>
<event>
 5   0  0.5812938E-04  0.1303548E+04  0.7818609E-02  0.9026756E-01
       -1   -1    0    0    0  501  0.00000000000E+00  0.00000000000E+00  0.34391298132E+03  0.34391298135E+03  0.50400001928E-02 0.  1.
        1   -1    0    0  501    0  0.00000000000E+00  0.00000000000E+00 -0.12352240970E+04  0.12352240971E+04  0.50400001928E-02 0. -1.
    10030    2    1    2    0    0  0.00000000000E+00  0.00000000000E+00 -0.89131111573E+03  0.15791370784E+04  0.13035483909E+04 0.  0.
        5    1    3    3  502    0  0.51188818897E+02 -0.64872068413E+03 -0.48981307166E+03  0.81449233045E+03  0.46999998093E+01 0.  1.
       -5    1    3    3    0  502 -0.51188818897E+02  0.64872068413E+03 -0.40149804407E+03  0.76464474796E+03  0.46999998093E+01 0. -1.
</event>
<event>
 5   0  0.1081574E-03  0.1304469E+04  0.7818609E-02  0.9026028E-01
        2   -1    0    0  501    0  0.00000000000E+00  0.00000000000E+00  0.57172592227E+03  0.57172592227E+03  0.25500000920E-02 0.  1.
       -2   -1    0    0    0  501  0.00000000000E+00  0.00000000000E+00 -0.74408057197E+03  0.74408057197E+03  0.25500000920E-02 0. -1.
    10030    2    1    2    0    0  0.00000000000E+00  0.00000000000E+00 -0.17235464970E+03  0.13158064942E+04  0.13044694726E+04 0.  0.
        5    1    3    3  502    0  0.29955774535E+03 -0.32388003934E+03  0.39836710748E+03  0.59443381886E+03  0.46999998093E+01 0.  1.
       -5    1    3    3    0  502 -0.29955774535E+03  0.32388003934E+03 -0.57072175717E+03  0.72137267539E+03  0.46999998093E+01 0. -1.
</event>
<event>
 5   0  0.1081574E-03  0.1295260E+04  0.7818609E-02  0.9033333E-01
        2   -1    0    0  501    0  0.00000000000E+00  0.00000000000E+00  0.27551863961E+03  0.27551863963E+03  0.25500000920E-02 0. -1.
       -2   -1    0    0    0  501  0.00000000000E+00  0.00000000000E+00 -0.15223092758E+04  0.15223092758E+04  0.25500000920E-02 0.  1.
    10030    2    1    2    0    0  0.00000000000E+00  0.00000000000E+00 -0.12467906362E+04  0.17978279154E+04  0.12952599442E+04 0.  0.
        5    1    3    3  502    0  0.27175384762E+02 -0.43651579978E+03 -0.12863302600E+04  0.13586582252E+04  0.46999998093E+01 0.  1.
       -5    1    3    3    0  502 -0.27175384762E+02  0.43651579978E+03  0.39539623822E+02  0.43916969026E+03  0.46999998093E+01 0. -1.
</event>
<event>
 5   0  0.1103241E-03  0.1250707E+04  0.7818609E-02  0.9069595E-01
       -2   -1    0    0    0  501  0.00000000000E+00  0.00000000000E+00  0.24708720541E+03  0.24708720542E+03  0.25500000920E-02 0. -1.
        2   -1    0    0  501    0  0.00000000000E+00  0.00000000000E+00 -0.15827085915E+04  0.15827085915E+04  0.25500000920E-02 0.  1.
    10030    2    1    2    0    0  0.00000000000E+00  0.00000000000E+00 -0.13356213861E+04  0.18297957969E+04  0.12507070686E+04 0.  0.
        4    1    3    3  502    0  0.15565615030E+03 -0.36001308165E+03 -0.13803834902E+04  0.14350255917E+04  0.12699999809E+01 0.  1.
       -4    1    3    3    0  502 -0.15565615030E+03  0.36001308165E+03  0.44762104040E+02  0.39477020523E+03  0.12699999809E+01 0. -1.
</event>
<event>
 5   0  0.6006119E-04  0.1268373E+04  0.7818609E-02  0.9055029E-01
       -1   -1    0    0    0  501  0.00000000000E+00  0.00000000000E+00  0.49403840044E+03  0.49403840046E+03  0.50400001928E-02 0. -1.
        1   -1    0    0  501    0  0.00000000000E+00  0.00000000000E+00 -0.81409162447E+03  0.81409162449E+03  0.50400001928E-02 0.  1.
    10030    2    1    2    0    0  0.00000000000E+00  0.00000000000E+00 -0.32005322403E+03  0.13081300250E+04  0.12683730114E+04 0.  0.
        4    1    3    3  502    0 -0.11133361084E+03 -0.13779197811E+02  0.48372253755E+03  0.49656232784E+03  0.12699999809E+01 0. -1.
       -4    1    3    3    0  502  0.11133361084E+03  0.13779197811E+02 -0.80377576158E+03  0.81156769711E+03  0.12699999809E+01 0.  1.
</event>
<event>
 5   0  0.5563545E-04  0.1292982E+04  0.7818609E-02  0.9035149E-01
        1   -1    0    0  501    0  0.00000000000E+00  0.00000000000E+00  0.11572349554E+04  0.11572349554E+04  0.50400001928E-02 0.  1.
       -1   -1    0    0    0  501  0.00000000000E+00  0.00000000000E+00 -0.36116335055E+03  0.36116335058E+03  0.50400001928E-02 0. -1.
    10030    2    1    2    0    0  0.00000000000E+00  0.00000000000E+00  0.79607160484E+03  0.15183983060E+04  0.12929823725E+04 0.  0.
        2    1    3    3  502    0 -0.59754954516E+03  0.17655748360E+03  0.60046132141E+03  0.86532756945E+03  0.25500000920E-02 0. -1.
       -2    1    3    3    0  502  0.59754954516E+03 -0.17655748360E+03  0.19561028343E+03  0.65307073654E+03  0.25500000920E-02 0.  1.
</event>
<event>
 5   0  0.4012375E-04  0.1297907E+04  0.7818609E-02  0.9031226E-01
        3   -1    0    0  501    0  0.00000000000E+00  0.00000000000E+00  0.99528293114E+03  0.99528293626E+03  0.10100000352E+00 0.  1.
       -3   -1    0    0    0  501  0.00000000000E+00  0.00000000000E+00 -0.42313673179E+03  0.42313674384E+03  0.10100000352E+00 0. -1.
    10030    2    1    2    0    0  0.00000000000E+00  0.00000000000E+00  0.57214619935E+03  0.14184196801E+04  0.12979072060E+04 0.  0.
        5    1    3    3  502    0 -0.15556681898E+03 -0.23142225341E+03 -0.35430553904E+03  0.45090109729E+03  0.46999998093E+01 0. -1.
       -5    1    3    3    0  502  0.15556681898E+03  0.23142225341E+03  0.92645173839E+03  0.96751858282E+03  0.46999998093E+01 0.  1.
</event>
<event>
 5   0  0.1031295E-03  0.1301165E+04  0.7818609E-02  0.9028642E-01
        2   -1    0    0  501    0  0.00000000000E+00  0.00000000000E+00  0.13798702511E+04  0.13798702511E+04  0.25500000920E-02 0. -1.
       -2   -1    0    0    0  501  0.00000000000E+00  0.00000000000E+00 -0.30673732583E+03  0.30673732584E+03  0.25500000920E-02 0.  1.
    10030    2    1    2    0    0  0.00000000000E+00  0.00000000000E+00  0.10731329252E+04  0.16866075769E+04  0.13011651868E+04 0.  0.
        2    1    3    3  502    0 -0.37223833421E+03 -0.14091731041E+03  0.12036378157E+04  0.12677393491E+04  0.25500000920E-02 0. -1.
       -2    1    3    3    0  502  0.37223833421E+03  0.14091731041E+03 -0.13050489047E+03  0.41886822782E+03  0.25500000920E-02 0.  1.
</event>
<event>
 5   0  0.5563545E-04  0.1297667E+04  0.7818609E-02  0.9031417E-01
        1   -1    0    0  501    0  0.00000000000E+00  0.00000000000E+00  0.10954249008E+04  0.10954249008E+04  0.50400001928E-02 0.  1.
       -1   -1    0    0    0  501  0.00000000000E+00  0.00000000000E+00 -0.38431212064E+03  0.38431212067E+03  0.50400001928E-02 0. -1.
    10030    2    1    2    0    0  0.00000000000E+00  0.00000000000E+00  0.71111278019E+03  0.14797370215E+04  0.12976672404E+04 0.  0.
        2    1    3    3  502    0  0.40827220188E+03  0.29316849386E+03  0.82343069046E+03  0.96471345934E+03  0.25500000920E-02 0.  1.
       -2    1    3    3    0  502 -0.40827220188E+03 -0.29316849386E+03 -0.11231791027E+03  0.51502356218E+03  0.25500000920E-02 0. -1.
</event>
<event>
 5   0  0.1046253E-03  0.1285732E+04  0.7818609E-02  0.9040957E-01
       -2   -1    0    0    0  501  0.00000000000E+00  0.00000000000E+00  0.20287888036E+03  0.20287888038E+03  0.25500000920E-02 0. -1.
        2   -1    0    0  501    0  0.00000000000E+00  0.00000000000E+00 -0.20370599152E+04  0.20370599152E+04  0.25500000920E-02 0.  1.
    10030    2    1    2    0    0  0.00000000000E+00  0.00000000000E+00 -0.18341810348E+04  0.22399387956E+04  0.12857315969E+04 0.  0.
        3    1    3    3  502    0  0.35602467403E+03 -0.37107730150E+03 -0.15891737181E+04  0.16703068726E+04  0.10100000352E+00 0. -1.
       -3    1    3    3    0  502 -0.35602467403E+03  0.37107730150E+03 -0.24500731674E+03  0.56963192297E+03  0.10100000352E+00 0.  1.
</event>
<event>
 5   0  0.1081574E-03  0.1301941E+04  0.7818609E-02  0.9028028E-01
        2   -1    0    0  501    0  0.00000000000E+00  0.00000000000E+00  0.62524896795E+03  0.62524896795E+03  0.25500000920E-02 0.  1.
       -2   -1    0    0    0  501  0.00000000000E+00  0.00000000000E+00 -0.67774964627E+03  0.67774964627E+03  0.25500000920E-02 0. -1.
    10030    2    1    2    0    0  0.00000000000E+00  0.00000000000E+00 -0.52500678321E+02  0.13029986142E+04  0.13019405007E+04 0.  0.
        5    1    3    3  502    0 -0.76835655883E+02  0.63029312350E+03 -0.16977901716E+03  0.65728239305E+03  0.46999998093E+01 0. -1.
       -5    1    3    3    0  502  0.76835655883E+02 -0.63029312350E+03  0.11727833884E+03  0.64571622118E+03  0.46999998093E+01 0.  1.
</event>
<event>
 5   0  0.5812938E-04  0.1313143E+04  0.7818609E-02  0.9019207E-01
        1   -1    0    0  501    0  0.00000000000E+00  0.00000000000E+00  0.10895168817E+04  0.10895168817E+04  0.50400001928E-02 0.  1.
       -1   -1    0    0    0  501  0.00000000000E+00  0.00000000000E+00 -0.39566749005E+03  0.39566749008E+03  0.50400001928E-02 0. -1.
    10030    2    1    2    0    0  0.00000000000E+00  0.00000000000E+00  0.69384939166E+03  0.14851843718E+04  0.13131434194E+04 0.  0.
        5    1    3    3  502    0  0.14287221297E+03  0.53710565765E+03  0.74224522149E+03  0.92727828377E+03  0.46999998093E+01 0.  1.
       -5    1    3    3    0  502 -0.14287221297E+03 -0.53710565765E+03 -0.48395829826E+02  0.55790608803E+03  0.46999998093E+01 0. -1.
</event>
<event>
 5   0  0.5766027E-04  0.1295074E+04  0.7818609E-02  0.9033480E-01
        1   -1    0    0  501    0  0.00000000000E+00  0.00000000000E+00  0.27393249713E+04  0.27393249713E+04  0.50400001928E-02 0. -1.
       -1   -1    0    0    0  501  0.00000000000E+00  0.00000000000E+00 -0.15306848307E+03  0.15306848315E+03  0.50400001928E-02 0.  1.
    10030    2    1    2    0    0  0.00000000000E+00  0.00000000000E+00  0.25862564883E+04  0.28923934545E+04  0.12950742344E+04 0.  0.
        3    1    3    3  502    0 -0.24970307456E+03 -0.47605301204E+03  0.48686178487E+03  0.72526719454E+03  0.10100000352E+00 0.  1.
       -3    1    3    3    0  502  0.24970307456E+03  0.47605301204E+03  0.20993947034E+04  0.21671262599E+04  0.10100000352E+00 0. -1.
</event>
<event>
 5   0  0.1046253E-03  0.1296306E+04  0.7818609E-02  0.9032500E-01
       -2   -1    0    0    0  501  0.00000000000E+00  0.00000000000E+00  0.57364510534E+03  0.57364510534E+03  0.25500000920E-02 0. -1.
        2   -1    0    0  501    0  0.00000000000E+00  0.00000000000E+00 -0.73233830738E+03  0.73233830739E+03  0.25500000920E-02 0.  1.
    10030    2    1    2    0    0  0.00000000000E+00  0.00000000000E+00 -0.15869320205E+03  0.13059834127E+04  0.12963059600E+04 0.  0.
        3    1    3    3  502    0  0.46494390255E+03  0.44793391760E+03 -0.21606893987E+02  0.64597561496E+03  0.10100000352E+00 0. -1.
       -3    1    3    3    0  502 -0.46494390255E+03 -0.44793391760E+03 -0.13708630806E+03  0.66000779777E+03  0.10100000352E+00 0.  1.
</event>
<event>
 5   0  0.1101619E-03  0.1298294E+04  0.7818609E-02  0.9030919E-01
       -2   -1    0    0    0  501  0.00000000000E+00  0.00000000000E+00  0.41490164450E+03  0.41490164451E+03  0.25500000920E-02 0. -1.
        2   -1    0    0  501    0  0.00000000000E+00  0.00000000000E+00 -0.10156422627E+04  0.10156422627E+04  0.25500000920E-02 0.  1.
    10030    2    1    2    0    0  0.00000000000E+00  0.00000000000E+00 -0.60074061819E+03  0.14305439072E+04  0.12982937187E+04 0.  0.
        1    1    3    3  502    0  0.57480788392E+03 -0.29948761555E+03 -0.34001768410E+03  0.73192141710E+03  0.50400001928E-02 0.  1.
       -1    1    3    3    0  502 -0.57480788392E+03  0.29948761555E+03 -0.26072293409E+03  0.69862249010E+03  0.50400001928E-02 0. -1.
</event>
<event>
 5   0  0.1101619E-03  0.1303872E+04  0.7818609E-02  0.9026500E-01
        2   -1    0    0  501    0  0.00000000000E+00  0.00000000000E+00  0.97267457282E+03  0.97267457282E+03  0.25500000920E-02 0. -1.
       -2   -1    0    0    0  501  0.00000000000E+00  0.00000000000E+00 -0.43696065311E+03  0.43696065311E+03  0.25500000920E-02 0.  1.
    10030    2    1    2    0    0  0.00000000000E+00  0.00000000000E+00  0.53571391971E+03  0.14096352259E+04  0.13038719517E+04 0.  0.
        1    1    3    3  502    0 -0.26244934451E+03  0.59661334845E+03  0.28289069936E+03  0.71053099425E+03  0.50400001928E-02 0. -1.
       -1    1    3    3    0  502  0.26244934451E+03 -0.59661334845E+03  0.25282322035E+03  0.69910423168E+03  0.50400001928E-02 0.  1.
</event>
<event>
 5   0  0.1031295E-03  0.1300081E+04  0.7818609E-02  0.9029501E-01
        2   -1    0    0  501    0  0.00000000000E+00  0.00000000000E+00  0.65396009693E+03  0.65396009694E+03  0.25500000920E-02 0. -1.
       -2   -1    0    0    0  501  0.00000000000E+00  0.00000000000E+00 -0.64614391119E+03  0.64614391120E+03  0.25500000920E-02 0.  1.
    10030    2    1    2    0    0  0.00000000000E+00  0.00000000000E+00  0.78161857352E+01  0.13001040081E+04  0.13000805126E+04 0.  0.
        2    1    3    3  502    0 -0.38978296985E+03  0.39094765573E+03  0.34710739198E+03  0.65211530781E+03  0.25500000920E-02 0. -1.
       -2    1    3    3    0  502  0.38978296985E+03 -0.39094765573E+03 -0.33929120624E+03  0.64798870032E+03  0.25500000920E-02 0.  1.
</event>
<event>
 5   0  0.5710383E-04  0.1295840E+04  0.7818609E-02  0.9032871E-01
        1   -1    0    0  501    0  0.00000000000E+00  0.00000000000E+00  0.68509454689E+03  0.68509454691E+03  0.50400001928E-02 0.  1.
       -1   -1    0    0    0  501  0.00000000000E+00  0.00000000000E+00 -0.61276220338E+03  0.61276220340E+03  0.50400001928E-02 0. -1.
    10030    2    1    2    0    0  0.00000000000E+00  0.00000000000E+00  0.72332343509E+02  0.12978567503E+04  0.12958395643E+04 0.  0.
        1    1    3    3  502    0  0.53578238259E+02 -0.64258532300E+03  0.99617131130E+02  0.65246463337E+03  0.50400001928E-02 0.  1.
       -1    1    3    3    0  502 -0.53578238259E+02  0.64258532300E+03 -0.27284787621E+02  0.64539211695E+03  0.50400001928E-02 0. -1.
</event>
<event>
 5   0  0.1101619E-03  0.1395737E+04  0.7818609E-02  0.8956910E-01
       -2   -1    0    0    0  501  0.00000000000E+00  0.00000000000E+00  0.38335387928E+03  0.38335387929E+03  0.25500000920E-02 0.  1.
        2   -1    0    0  501    0  0.00000000000E+00  0.00000000000E+00 -0.12704209089E+04  0.12704209089E+04  0.25500000920E-02 0. -1.
    10030    2    1    2    0    0  0.00000000000E+00  0.00000000000E+00 -0.88706702961E+03  0.16537747882E+04  0.13957374879E+04 0.  0.
        1    1    3    3  502    0  0.36603878917E+03  0.44716299470E+02 -0.11455526862E+04  0.12034429357E+04  0.50400001928E-02 0. -1.
       -1    1    3    3    0  502 -0.36603878917E+03 -0.44716299470E+02  0.25848565663E+03  0.45033185244E+03  0.50400001928E-02 0.  1.
</event>
<event>
 5   0  0.1103241E-03  0.1325196E+04  0.7818609E-02  0.9009820E-01
       -2   -1    0    0    0  501  0.00000000000E+00  0.00000000000E+00  0.19253442803E+03  0.19253442805E+03  0.25500000920E-02 0. -1.
        2   -1    0    0  501    0  0.00000000000E+00  0.00000000000E+00 -0.22802994807E+04  0.22802994807E+04  0.25500000920E-02 0.  1.
    10030    2    1    2    0    0  0.00000000000E+00  0.00000000000E+00 -0.20877650527E+04  0.24728339088E+04  0.13251960705E+04 0.  0.
        4    1    3    3  502    0  0.36884147208E+03  0.46409529962E+03 -0.49157381392E+03  0.77011356701E+03  0.12699999809E+01 0. -1.
       -4    1    3    3    0  502 -0.36884147208E+03 -0.46409529962E+03 -0.15961912388E+04  0.17027203418E+04  0.12699999809E+01 0.  1.
</event>
<event>
 5   0  0.1046253E-03  0.1306439E+04  0.7818609E-02  0.9024475E-01
        2   -1    0    0  501    0  0.00000000000E+00  0.00000000000E+00  0.52759469383E+03  0.52759469384E+03  0.25500000920E-02 0.  1.
       -2   -1    0    0    0  501  0.00000000000E+00  0.00000000000E+00 -0.80875607620E+03  0.80875607621E+03  0.25500000920E-02 0. -1.
    10030    2    1    2    0    0  0.00000000000E+00  0.00000000000E+00 -0.28116138237E+03  0.13363507700E+04  0.13064385396E+04 0.  0.
        3    1    3    3  502    0 -0.24538678469E+03 -0.25191080398E+03  0.42249701585E+03  0.54970670895E+03  0.10100000352E+00 0.  1.
       -3    1    3    3    0  502  0.24538678469E+03  0.25191080398E+03 -0.70365839823E+03  0.78664406110E+03  0.10100000352E+00 0. -1.
</event>
<event>
 5   0  0.5766027E-04  0.1304019E+04  0.7818609E-02  0.9026384E-01
       -1   -1    0    0    0  501  0.00000000000E+00  0.00000000000E+00  0.18008528506E+03  0.18008528513E+03  0.50400001928E-02 0. -1.
        1   -1    0    0  501    0  0.00000000000E+00  0.00000000000E+00 -0.23606385689E+04  0.23606385689E+04  0.50400001928E-02 0.  1.
    10030    2    1    2    0    0  0.00000000000E+00  0.00000000000E+00 -0.21805532839E+04  0.25407238541E+04  0.13040188184E+04 0.  0.
        3    1    3    3  502    0  0.71853787173E+02  0.21930222966E+03  0.97851373581E+02  0.25066179640E+03  0.10100000352E+00 0. -1.
       -3    1    3    3    0  502 -0.71853787173E+02 -0.21930222966E+03 -0.22784046574E+04  0.22900620577E+04  0.10100000352E+00 0.  1.
</event>
<event>
 5   0  0.5563545E-04  0.1301290E+04  0.7818609E-02  0.9028543E-01
        1   -1    0    0  501    0  0.00000000000E+00  0.00000000000E+00  0.12107394428E+04  0.12107394428E+04  0.50400001928E-02 0.  1.
       -1   -1    0    0    0  501  0.00000000000E+00  0.00000000000E+00 -0.34965319034E+03  0.34965319038E+03  0.50400001928E-02 0. -1.
    10030    2    1    2    0    0  0.00000000000E+00  0.00000000000E+00  0.86108625246E+03  0.15603926332E+04  0.13012899890E+04 0.  0.
        2    1    3    3  502    0 -0.35137804227E+03  0.17191530941E+02  0.10868605201E+04  0.11423781630E+04  0.25500000920E-02 0.  1.
       -2    1    3    3    0  502  0.35137804227E+03 -0.17191530941E+02 -0.22577426761E+03  0.41801447014E+03  0.25500000920E-02 0. -1.
</event>
<event>
 5   0  0.1101619E-03  0.1295558E+04  0.7818609E-02  0.9033095E-01
       -2   -1    0    0    0  501  0.00000000000E+00  0.00000000000E+00  0.11642543184E+04  0.11642543185E+04  0.25500000920E-02 0.  1.
        2   -1    0    0  501    0  0.00000000000E+00  0.00000000000E+00 -0.36041775973E+03  0.36041775974E+03  0.25500000920E-02 0. -1.
    10030    2    1    2    0    0  0.00000000000E+00  0.00000000000E+00  0.80383655872E+03  0.15246720782E+04  0.12955584637E+04 0.  0.
        1    1    3    3  502    0  0.56280410371E+03 -0.27529573486E+03  0.20825037531E+03  0.66023058065E+03  0.50400001928E-02 0. -1.
       -1    1    3    3    0  502 -0.56280410371E+03  0.27529573486E+03  0.59558618341E+03  0.86444149754E+03  0.50400001928E-02 0.  1.
</event>
<event>
 5   0  0.1103241E-03  0.1220791E+04  0.7818609E-02  0.9094850E-01
        2   -1    0    0  501    0  0.00000000000E+00  0.00000000000E+00  0.11059085384E+04  0.11059085384E+04  0.25500000920E-02 0.  1.
       -2   -1    0    0    0  501  0.00000000000E+00  0.00000000000E+00 -0.33690182219E+03  0.33690182220E+03  0.25500000920E-02 0. -1.
    10030    2    1    2    0    0  0.00000000000E+00  0.00000000000E+00  0.76900671621E+03  0.14428103606E+04  0.12207908941E+04 0.  0.
        4    1    3    3  502    0  0.27994520892E+03 -0.53901224972E+03  0.45617414257E+03  0.75960515177E+03  0.12699999809E+01 0.  1.
       -4    1    3    3    0  502 -0.27994520892E+03  0.53901224972E+03  0.31283257365E+03  0.68320520883E+03  0.12699999809E+01 0. -1.
</event>
<event>
 5   0  0.1046253E-03  0.1297618E+04  0.7818609E-02  0.9031456E-01
       -2   -1    0    0    0  501  0.00000000000E+00  0.00000000000E+00  0.44938110436E+03  0.44938110437E+03  0.25500000920E-02 0. -1.
        2   -1    0    0  501    0  0.00000000000E+00  0.00000000000E+00 -0.93674015938E+03  0.93674015939E+03  0.25500000920E-02 0.  1.
    10030    2    1    2    0    0  0.00000000000E+00  0.00000000000E+00 -0.48735905502E+03  0.13861212638E+04  0.12976183219E+04 0.  0.
        3    1    3    3  502    0  0.19104116545E+03 -0.61928657840E+03 -0.27644265711E+03  0.70458012032E+03  0.10100000352E+00 0.  1.
       -3    1    3    3    0  502 -0.19104116545E+03  0.61928657840E+03 -0.21091639791E+03  0.68154114343E+03  0.10100000352E+00 0. -1.
</event>
<event>
 5   0  0.5710383E-04  0.1301218E+04  0.7818609E-02  0.9028600E-01
        1   -1    0    0  501    0  0.00000000000E+00  0.00000000000E+00  0.11430036353E+04  0.11430036353E+04  0.50400001928E-02 0.  1.
       -1   -1    0    0    0  501  0.00000000000E+00  0.00000000000E+00 -0.37033325487E+03  0.37033325491E+03  0.50400001928E-02 0. -1.
    10030    2    1    2    0    0  0.00000000000E+00  0.00000000000E+00  0.77267038039E+03  0.15133368902E+04  0.13012182855E+04 0.  0.
        1    1    3    3  502    0 -0.44110769805E+03  0.47787792153E+03  0.40806047409E+03  0.76776080892E+03  0.50400001928E-02 0. -1.
       -1    1    3    3    0  502  0.44110769805E+03 -0.47787792153E+03  0.36460990630E+03  0.74557608127E+03  0.50400001928E-02 0.  1.
</event>
<event>
 5   0  0.1031295E-03  0.1302697E+04  0.7818609E-02  0.9027429E-01
        2   -1    0    0  501    0  0.00000000000E+00  0.00000000000E+00  0.13095678200E+04  0.13095678200E+04  0.25500000920E-02 0.  1.
       -2   -1    0    0    0  501  0.00000000000E+00  0.00000000000E+00 -0.32396555961E+03  0.32396555962E+03  0.25500000920E-02 0. -1.
    10030    2    1    2    0    0  0.00000000000E+00  0.00000000000E+00  0.98560226037E+03  0.16335333796E+04  0.13026970049E+04 0.  0.
        2    1    3    3  502    0  0.16254488348E+03 -0.50074399935E+01 -0.29809942045E+03  0.33957205138E+03  0.25500000920E-02 0. -1.
       -2    1    3    3    0  502 -0.16254488348E+03  0.50074399935E+01  0.12837016808E+04  0.12939613282E+04  0.25500000920E-02 0.  1.
</event>
<event>
 5   0  0.5710383E-04  0.1282476E+04  0.7818609E-02  0.9043579E-01
        1   -1    0    0  501    0  0.00000000000E+00  0.00000000000E+00  0.77195814419E+03  0.77195814421E+03  0.50400001928E-02 0. -1.
       -1   -1    0    0    0  501  0.00000000000E+00  0.00000000000E+00 -0.53265312039E+03  0.53265312041E+03  0.50400001928E-02 0.  1.
    10030    2    1    2    0    0  0.00000000000E+00  0.00000000000E+00  0.23930502380E+03  0.13046112646E+04  0.12824755972E+04 0.  0.
        1    1    3    3  502    0 -0.33547064995E+03  0.37645700539E+03 -0.28332308515E+03  0.57838776309E+03  0.50400001928E-02 0.  1.
       -1    1    3    3    0  502  0.33547064995E+03 -0.37645700539E+03  0.52262810896E+03  0.72622350154E+03  0.50400001928E-02 0. -1.
</event>
<event>
 5   0  0.5563545E-04  0.1300294E+04  0.7818609E-02  0.9029332E-01
       -1   -1    0    0    0  501  0.00000000000E+00  0.00000000000E+00  0.37023780985E+03  0.37023780988E+03  0.50400001928E-02 0. -1.
        1   -1    0    0  501    0  0.00000000000E+00  0.00000000000E+00 -0.11416741854E+04  0.11416741854E+04  0.50400001928E-02 0.  1.
    10030    2    1    2    0    0  0.00000000000E+00  0.00000000000E+00 -0.77143637552E+03  0.15119119953E+04  0.13002937360E+04 0.  0.
        2    1    3    3  502    0 -0.55254726432E+03 -0.20874234893E+03 -0.70161118923E+03  0.91713690821E+03  0.25500000920E-02 0.  1.
       -2    1    3    3    0  502  0.55254726432E+03  0.20874234893E+03 -0.69825186291E+02  0.59477508706E+03  0.25500000920E-02 0. -1.
</event>
<event>
 5   0  0.1081574E-03  0.1286815E+04  0.7818609E-02  0.9040087E-01
       -2   -1    0    0    0  501  0.00000000000E+00  0.00000000000E+00  0.26827685155E+03  0.26827685156E+03  0.25500000920E-02 0. -1.
        2   -1    0    0  501    0  0.00000000000E+00  0.00000000000E+00 -0.15430814981E+04  0.15430814981E+04  0.25500000920E-02 0.  1.
    10030    2    1    2    0    0  0.00000000000E+00  0.00000000000E+00 -0.12748046466E+04  0.18113583497E+04  0.12868147435E+04 0.  0.
        5    1    3    3  502    0  0.56067392683E+03 -0.31099767081E+03 -0.56191147456E+03  0.85254993913E+03  0.46999998093E+01 0.  1.
       -5    1    3    3    0  502 -0.56067392683E+03  0.31099767081E+03 -0.71289317203E+03  0.95880841058E+03  0.46999998093E+01 0. -1.
</event>
<event>
 5   0  0.5710383E-04  0.1274582E+04  0.7818609E-02  0.9049968E-01
        1   -1    0    0  501    0  0.00000000000E+00  0.00000000000E+00  0.45168470687E+03  0.45168470689E+03  0.50400001928E-02 0. -1.
       -1   -1    0    0    0  501  0.00000000000E+00  0.00000000000E+00 -0.89916670380E+03  0.89916670381E+03  0.50400001928E-02 0.  1.
    10030    2    1    2    0    0  0.00000000000E+00  0.00000000000E+00 -0.44748199693E+03  0.13508514107E+04  0.12745820477E+04 0.  0.
        1    1    3    3  502    0 -0.81386373630E+01  0.63456263026E+03 -0.28557493519E+03  0.69590876756E+03  0.50400001928E-02 0. -1.
       -1    1    3    3    0  502  0.81386373630E+01 -0.63456263026E+03 -0.16190706174E+03  0.65494264314E+03  0.50400001928E-02 0.  1.
</event>
<event>
 5   0  0.1103241E-03  0.1329062E+04  0.7818609E-02  0.9006831E-01
        2   -1    0    0  501    0  0.00000000000E+00  0.00000000000E+00  0.16256593904E+04  0.16256593904E+04  0.25500000920E-02 0.  1.
       -2   -1    0    0    0  501  0.00000000000E+00  0.00000000000E+00 -0.27164454870E+03  0.27164454871E+03  0.25500000920E-02 0. -1.
    10030    2    1    2    0    0  0.00000000000E+00  0.00000000000E+00  0.13540148417E+04  0.18973039391E+04  0.13290620926E+04 0.  0.
        4    1    3    3  502    0 -0.26537692826E+03  0.10600345892E+03 -0.17944972699E+03  0.33743957203E+03  0.12699999809E+01 0. -1.
       -4    1    3    3    0  502  0.26537692826E+03 -0.10600345892E+03  0.15334645687E+04  0.15598643671E+04  0.12699999809E+01 0.  1.
</event>
<event>
 5   0  0.5812938E-04  0.1302820E+04  0.7818609E-02  0.9027332E-01
       -1   -1    0    0    0  501  0.00000000000E+00  0.00000000000E+00  0.56067916498E+03  0.56067916501E+03  0.50400001928E-02 0. -1.
        1   -1    0    0  501    0  0.00000000000E+00  0.00000000000E+00 -0.75682266154E+03  0.75682266156E+03  0.50400001928E-02 0.  1.
    10030    2    1    2    0    0  0.00000000000E+00  0.00000000000E+00 -0.19614349656E+03  0.13175018266E+04  0.13028195546E+04 0.  0.
        5    1    3    3  502    0  0.41875619251E+03 -0.48794873912E+03  0.73231529063E+01  0.64306021440E+03  0.46999998093E+01 0.  1.
       -5    1    3    3    0  502 -0.41875619251E+03  0.48794873912E+03 -0.20346664946E+03  0.67444161216E+03  0.46999998093E+01 0. -1.
</event>
<event>
 5   0  0.1046253E-03  0.1311820E+04  0.7818609E-02  0.9020244E-01
        2   -1    0    0  501    0  0.00000000000E+00  0.00000000000E+00  0.34621702193E+03  0.34621702194E+03  0.25500000920E-02 0.  1.
       -2   -1    0    0    0  501  0.00000000000E+00  0.00000000000E+00 -0.12426244745E+04  0.12426244746E+04  0.25500000920E-02 0. -1.
    10030    2    1    2    0    0  0.00000000000E+00  0.00000000000E+00 -0.89640745262E+03  0.15888414965E+04  0.13118197208E+04 0.  0.
        3    1    3    3  502    0  0.20340225154E+03 -0.60065823099E+03 -0.24533684377E+03  0.67996541346E+03  0.10100000352E+00 0.  1.
       -3    1    3    3    0  502 -0.20340225154E+03  0.60065823099E+03 -0.65107060885E+03  0.90887608303E+03  0.10100000352E+00 0. -1.
</event>
<event>
 5   0  0.1081574E-03  0.1306875E+04  0.7818609E-02  0.9024131E-01
       -2   -1    0    0    0  501  0.00000000000E+00  0.00000000000E+00  0.60221393553E+03  0.60221393554E+03  0.25500000920E-02 0. -1.
        2   -1    0    0  501    0  0.00000000000E+00  0.00000000000E+00 -0.70901804827E+03  0.70901804828E+03  0.25500000920E-02 0.  1.
    10030    2    1    2    0    0  0.00000000000E+00  0.00000000000E+00 -0.10680411274E+03  0.13112319838E+04  0.13068749737E+04 0.  0.
        5    1    3    3  502    0  0.25353173957E+03  0.30260928634E+03 -0.57581803023E+03  0.69816847328E+03  0.46999998093E+01 0.  1.
       -5    1    3    3    0  502 -0.25353173957E+03 -0.30260928634E+03  0.46901391749E+03  0.61306351053E+03  0.46999998093E+01 0. -1.
</event>
<event>
 5   0  0.5766027E-04  0.1373123E+04  0.7818609E-02  0.8973506E-01
       -1   -1    0    0    0  501  0.00000000000E+00  0.00000000000E+00  0.27999805411E+03  0.27999805416E+03  0.50400001928E-02 0. -1.
        1   -1    0    0  501    0  0.00000000000E+00  0.00000000000E+00 -0.16834647421E+04  0.16834647421E+04  0.50400001928E-02 0.  1.
    10030    2    1    2    0    0  0.00000000000E+00  0.00000000000E+00 -0.14034666880E+04  0.19634627962E+04  0.13731232312E+04 0.  0.
        3    1    3    3  502    0  0.37996609676E+03  0.56539614210E+03 -0.82407181667E+03  0.10691779092E+04  0.10100000352E+00 0.  1.
       -3    1    3    3    0  502 -0.37996609676E+03 -0.56539614210E+03 -0.57939487130E+03  0.89428488709E+03  0.10100000352E+00 0. -1.
</event>
<event>
 5   0  0.1031295E-03  0.1306976E+04  0.7818609E-02  0.9024051E-01
       -2   -1    0    0    0  501  0.00000000000E+00  0.00000000000E+00  0.47817688399E+03  0.47817688400E+03  0.25500000920E-02 0.  1.
        2   -1    0    0  501    0  0.00000000000E+00  0.00000000000E+00 -0.89307264924E+03  0.89307264925E+03  0.25500000920E-02 0. -1.
    10030    2    1    2    0    0  0.00000000000E+00  0.00000000000E+00 -0.41489576525E+03  0.13712495332E+04  0.13069761996E+04 0.  0.
        2    1    3    3  502    0  0.61485201387E+02  0.84958011691E+01 -0.88997295500E+03  0.89213478201E+03  0.25500000920E-02 0. -1.
       -2    1    3    3    0  502 -0.61485201387E+02 -0.84958011691E+01  0.47507718975E+03  0.47911475124E+03  0.25500000920E-02 0.  1.
</event>
<event>
 5   0  0.1103241E-03  0.1296551E+04  0.7818609E-02  0.9032305E-01
        2   -1    0    0  501    0  0.00000000000E+00  0.00000000000E+00  0.59142987582E+03  0.59142987583E+03  0.25500000920E-02 0.  1.
       -2   -1    0    0    0  501  0.00000000000E+00  0.00000000000E+00 -0.71058507689E+03  0.71058507689E+03  0.25500000920E-02 0. -1.
    10030    2    1    2    0    0  0.00000000000E+00  0.00000000000E+00 -0.11915520107E+03  0.13020149527E+04  0.12965511849E+04 0.  0.
        4    1    3    3  502    0  0.27712236108E+02 -0.56390072966E+03  0.26036763652E+03  0.62172736789E+03  0.12699999809E+01 0.  1.
       -4    1    3    3    0  502 -0.27712236108E+02  0.56390072966E+03 -0.37952283758E+03  0.68028758484E+03  0.12699999809E+01 0. -1.
</event>
<event>
 5   0  0.1103241E-03  0.1301397E+04  0.7818609E-02  0.9028458E-01
       -2   -1    0    0    0  501  0.00000000000E+00  0.00000000000E+00  0.38367276881E+03  0.38367276882E+03  0.25500000920E-02 0.  1.
        2   -1    0    0  501    0  0.00000000000E+00  0.00000000000E+00 -0.11035675722E+04  0.11035675722E+04  0.25500000920E-02 0. -1.
    10030    2    1    2    0    0  0.00000000000E+00  0.00000000000E+00 -0.71989480336E+03  0.14872403410E+04  0.13013974427E+04 0.  0.
        4    1    3    3  502    0  0.52905653480E+03  0.29747457315E+03 -0.91899229691E+02  0.61387215281E+03  0.12699999809E+01 0.  1.
       -4    1    3    3    0  502 -0.52905653480E+03 -0.29747457315E+03 -0.62799557367E+03  0.87336818818E+03  0.12699999809E+01 0. -1.
</event>
<event>
 5   0  0.6006119E-04  0.1283203E+04  0.7818609E-02  0.9042992E-01
        1   -1    0    0  501    0  0.00000000000E+00  0.00000000000E+00  0.64159909854E+03  0.64159909856E+03  0.50400001928E-02 0.  1.
       -1   -1    0    0    0  501  0.00000000000E+00  0.00000000000E+00 -0.64160398904E+03  0.64160398906E+03  0.50400001928E-02 0. -1.
    10030    2    1    2    0    0  0.00000000000E+00  0.00000000000E+00 -0.48904946098E-02  0.12832030876E+04  0.12832030876E+04 0.  0.
        4    1    3    3  502    0  0.45999012949E+03 -0.16259559008E+03 -0.41668299792E+03  0.64160313185E+03  0.12699999809E+01 0. -1.
       -4    1    3    3    0  502 -0.45999012949E+03  0.16259559008E+03  0.41667810743E+03  0.64159995577E+03  0.12699999809E+01 0.  1.
</event>
<event>
 5   0  0.5766027E-04  0.1297936E+04  0.7818609E-02  0.9031204E-01
        1   -1    0    0  501    0  0.00000000000E+00  0.00000000000E+00  0.41237304912E+03  0.41237304915E+03  0.50400001928E-02 0. -1.
       -1   -1    0    0    0  501  0.00000000000E+00  0.00000000000E+00 -0.10213063213E+04  0.10213063213E+04  0.50400001928E-02 0.  1.
    10030    2    1    2    0    0  0.00000000000E+00  0.00000000000E+00 -0.60893327216E+03  0.14336793704E+04  0.12979355944E+04 0.  0.
        3    1    3    3  502    0 -0.58744688642E+03  0.23093303302E+03 -0.47101833290E+03  0.78757995799E+03  0.10100000352E+00 0.  1.
       -3    1    3    3    0  502  0.58744688642E+03 -0.23093303302E+03 -0.13791493927E+03  0.64609941246E+03  0.10100000352E+00 0. -1.
</event>
<event>
 5   0  0.5710383E-04  0.1294203E+04  0.7818609E-02  0.9034175E-01
        1   -1    0    0  501    0  0.00000000000E+00  0.00000000000E+00  0.99733250049E+03  0.99733250050E+03  0.50400001928E-02 0.  1.
       -1   -1    0    0    0  501  0.00000000000E+00  0.00000000000E+00 -0.41986032763E+03  0.41986032766E+03  0.50400001928E-02 0. -1.
    10030    2    1    2    0    0  0.00000000000E+00  0.00000000000E+00  0.57747217286E+03  0.14171928282E+04  0.12942029987E+04 0.  0.
        1    1    3    3  502    0 -0.34424062222E+03 -0.28263457759E+03 -0.22529503995E+03  0.49914102765E+03  0.50400001928E-02 0. -1.
       -1    1    3    3    0  502  0.34424062222E+03  0.28263457759E+03  0.80276721281E+03  0.91805180051E+03  0.50400001928E-02 0.  1.
</event>
<event>
 5   0  0.6006119E-04  0.1298395E+04  0.7818609E-02  0.9030839E-01
        1   -1    0    0  501    0  0.00000000000E+00  0.00000000000E+00  0.25935621313E+04  0.25935621313E+04  0.50400001928E-02 0. -1.
       -1   -1    0    0    0  501  0.00000000000E+00  0.00000000000E+00 -0.16250142046E+03  0.16250142054E+03  0.50400001928E-02 0.  1.
    10030    2    1    2    0    0  0.00000000000E+00  0.00000000000E+00  0.24310607109E+04  0.27560635519E+04  0.12983952103E+04 0.  0.
        4    1    3    3  502    0  0.46798700438E+03  0.44922212865E+03  0.11616814340E+04  0.13305328722E+04  0.12699999809E+01 0. -1.
       -4    1    3    3    0  502 -0.46798700438E+03 -0.44922212865E+03  0.12693792769E+04  0.14255306797E+04  0.12699999809E+01 0.  1.
</event>
<event>
 5   0  0.5710383E-04  0.1320591E+04  0.7818609E-02  0.9013393E-01
       -1   -1    0    0    0  501  0.00000000000E+00  0.00000000000E+00  0.34864211887E+03  0.34864211890E+03  0.50400001928E-02 0.  1.
        1   -1    0    0  501    0  0.00000000000E+00  0.00000000000E+00 -0.12505387233E+04  0.12505387233E+04  0.50400001928E-02 0. -1.
    10030    2    1    2    0    0  0.00000000000E+00  0.00000000000E+00 -0.90189660444E+03  0.15991808422E+04  0.13205914891E+04 0.  0.
        1    1    3    3  502    0 -0.43284378990E+03  0.18791611816E+03 -0.10102539497E+04  0.11150243301E+04  0.50400001928E-02 0. -1.
       -1    1    3    3    0  502  0.43284378990E+03 -0.18791611816E+03  0.10835734522E+03  0.48415651210E+03  0.50400001928E-02 0.  1.
</event>
<event>
 5   0  0.1031295E-03  0.1282053E+04  0.7818609E-02  0.9043920E-01
       -2   -1    0    0    0  501  0.00000000000E+00  0.00000000000E+00  0.51321798365E+03  0.51321798365E+03  0.25500000920E-02 0. -1.
        2   -1    0    0  501    0  0.00000000000E+00  0.00000000000E+00 -0.80066340257E+03  0.80066340258E+03  0.25500000920E-02 0.  1.
    10030    2    1    2    0    0  0.00000000000E+00  0.00000000000E+00 -0.28744541893E+03  0.13138813862E+04  0.12820528180E+04 0.  0.
        2    1    3    3  502    0 -0.60570619059E+02 -0.16675041879E+03 -0.77500266732E+03  0.79504945533E+03  0.25500000920E-02 0.  1.
       -2    1    3    3    0  502  0.60570619059E+02  0.16675041879E+03  0.48755724839E+03  0.51883193090E+03  0.25500000920E-02 0. -1.
</event>
<event>
 5   0  0.6006119E-04  0.1301139E+04  0.7818609E-02  0.9028663E-01
       -1   -1    0    0    0  501  0.00000000000E+00  0.00000000000E+00  0.84511026031E+03  0.84511026033E+03  0.50400001928E-02 0. -1.
        1   -1    0    0  501    0  0.00000000000E+00  0.00000000000E+00 -0.50081096555E+03  0.50081096558E+03  0.50400001928E-02 0.  1.
    10030    2    1    2    0    0  0.00000000000E+00  0.00000000000E+00  0.34429929476E+03  0.13459212259E+04  0.13011387097E+04 0.  0.
        4    1    3    3  502    0  0.12201028691E+03  0.14686382951E+02  0.83299349999E+03  0.84201067920E+03  0.12699999809E+01 0. -1.
       -4    1    3    3    0  502 -0.12201028691E+03 -0.14686382951E+02 -0.48869420523E+03  0.50391054671E+03  0.12699999809E+01 0.  1.
</event>
<event>
 5   0  0.1031295E-03  0.1299548E+04  0.7818609E-02  0.9029924E-01
       -2   -1    0    0    0  501  0.00000000000E+00  0.00000000000E+00  0.51087656073E+03  0.51087656074E+03  0.25500000920E-02 0.  1.
        2   -1    0    0  501    0  0.00000000000E+00  0.00000000000E+00 -0.82643518624E+03  0.82643518625E+03  0.25500000920E-02 0. -1.
    10030    2    1    2    0    0  0.00000000000E+00  0.00000000000E+00 -0.31555862551E+03  0.13373117470E+04  0.12995481763E+04 0.  0.
        2    1    3    3  502    0 -0.24725962333E+03  0.54305201769E+03  0.10691808769E+03  0.60619657928E+03  0.25500000920E-02 0.  1.
       -2    1    3    3    0  502  0.24725962333E+03 -0.54305201769E+03 -0.42247671320E+03  0.73111516771E+03  0.25500000920E-02 0. -1.
</event>
<event>
 5   0  0.5710383E-04  0.1296489E+04  0.7818609E-02  0.9032354E-01
       -1   -1    0    0    0  501  0.00000000000E+00  0.00000000000E+00  0.37250588160E+03  0.37250588163E+03  0.50400001928E-02 0.  1.
        1   -1    0    0  501    0  0.00000000000E+00  0.00000000000E+00 -0.11280917722E+04  0.11280917722E+04  0.50400001928E-02 0. -1.
    10030    2    1    2    0    0  0.00000000000E+00  0.00000000000E+00 -0.75558589060E+03  0.15005976538E+04  0.12964888278E+04 0.  0.
        1    1    3    3  502    0 -0.39117885256E+03  0.38671960012E+03 -0.77479022458E+03  0.95019620918E+03  0.50400001928E-02 0. -1.
       -1    1    3    3    0  502  0.39117885256E+03 -0.38671960012E+03  0.19204333988E+02  0.55040144465E+03  0.50400001928E-02 0.  1.
</event>
<event>
 5   0  0.5766027E-04  0.1307484E+04  0.7818609E-02  0.9023651E-01
       -1   -1    0    0    0  501  0.00000000000E+00  0.00000000000E+00  0.44632274526E+03  0.44632274528E+03  0.50400001928E-02 0.  1.
        1   -1    0    0  501    0  0.00000000000E+00  0.00000000000E+00 -0.95755570776E+03  0.95755570777E+03  0.50400001928E-02 0. -1.
    10030    2    1    2    0    0  0.00000000000E+00  0.00000000000E+00 -0.51123296250E+03  0.14038784531E+04  0.13074844431E+04 0.  0.
        3    1    3    3  502    0  0.19951235855E+03  0.27123404693E+03 -0.85729126171E+03  0.92104365099E+03  0.10100000352E+00 0. -1.
       -3    1    3    3    0  502 -0.19951235855E+03 -0.27123404693E+03  0.34605829921E+03  0.48283480206E+03  0.10100000352E+00 0.  1.
</event>
<event>
 5   0  0.1031295E-03  0.1306270E+04  0.7818609E-02  0.9024608E-01
        2   -1    0    0  501    0  0.00000000000E+00  0.00000000000E+00  0.12465930523E+04  0.12465930523E+04  0.25500000920E-02 0. -1.
       -2   -1    0    0    0  501  0.00000000000E+00  0.00000000000E+00 -0.34220098895E+03  0.34220098896E+03  0.25500000920E-02 0.  1.
    10030    2    1    2    0    0  0.00000000000E+00  0.00000000000E+00  0.90439206336E+03  0.15887940413E+04  0.13062700721E+04 0.  0.
        2    1    3    3  502    0  0.30814740870E+03 -0.32388323052E+02 -0.24712071565E+03  0.39632370237E+03  0.25500000920E-02 0.  1.
       -2    1    3    3    0  502 -0.30814740870E+03  0.32388323052E+02  0.11515127790E+04  0.11924703389E+04  0.25500000920E-02 0. -1.
</event>
<event>
 5   0  0.1046253E-03  0.1300208E+04  0.7818609E-02  0.9029401E-01
        2   -1    0    0  501    0  0.00000000000E+00  0.00000000000E+00  0.13753051305E+04  0.13753051305E+04  0.25500000920E-02 0.  1.
       -2   -1    0    0    0  501  0.00000000000E+00  0.00000000000E+00 -0.30730263483E+03  0.30730263484E+03  0.25500000920E-02 0. -1.
    10030    2    1    2    0    0  0.00000000000E+00  0.00000000000E+00  0.10680024957E+04  0.16826077653E+04  0.13002075070E+04 0.  0.
        3    1    3    3  502    0  0.49838110499E+03 -0.73143029252E+02  0.10658481740E+04  0.11788833567E+04  0.10100000352E+00 0.  1.
       -3    1    3    3    0  502 -0.49838110499E+03  0.73143029252E+02  0.21543216886E+01  0.50372440863E+03  0.10100000352E+00 0. -1.
</event>
<event>
 5   0  0.1081574E-03  0.1295946E+04  0.7818609E-02  0.9032787E-01
        2   -1    0    0  501    0  0.00000000000E+00  0.00000000000E+00  0.80476994940E+03  0.80476994941E+03  0.25500000920E-02 0. -1.
       -2   -1    0    0    0  501  0.00000000000E+00  0.00000000000E+00 -0.52172517449E+03  0.52172517450E+03  0.25500000920E-02 0.  1.
    10030    2    1    2    0    0  0.00000000000E+00  0.00000000000E+00  0.28304477491E+03  0.13264951239E+04  0.12959455888E+04 0.  0.
        5    1    3    3  502    0 -0.57043792248E+03 -0.16926040747E+03  0.40408066202E+03  0.71927170135E+03  0.46999998093E+01 0. -1.
       -5    1    3    3    0  502  0.57043792248E+03  0.16926040747E+03 -0.12103588711E+03  0.60722342256E+03  0.46999998093E+01 0.  1.
</event>
<event>
 5   0  0.6006119E-04  0.1297440E+04  0.7818609E-02  0.9031598E-01
       -1   -1    0    0    0  501  0.00000000000E+00  0.00000000000E+00  0.37329580586E+03  0.37329580590E+03  0.50400001928E-02 0. -1.
        1   -1    0    0  501    0  0.00000000000E+00  0.00000000000E+00 -0.11273567648E+04  0.11273567648E+04  0.50400001928E-02 0.  1.
    10030    2    1    2    0    0  0.00000000000E+00  0.00000000000E+00 -0.75406095891E+03  0.15006525707E+04  0.12974398669E+04 0.  0.
        4    1    3    3  502    0 -0.38803002570E+03 -0.13690731191E+03 -0.95710463905E+03  0.10418069955E+04  0.12699999809E+01 0.  1.
       -4    1    3    3    0  502  0.38803002570E+03  0.13690731191E+03  0.20304368015E+03  0.45884557516E+03  0.12699999809E+01 0. -1.
</event>
<event>
 5   0  0.5710383E-04  0.1297775E+04  0.7818609E-02  0.9031332E-01
       -1   -1    0    0    0  501  0.00000000000E+00  0.00000000000E+00  0.86575297904E+03  0.86575297906E+03  0.50400001928E-02 0. -1.
        1   -1    0    0  501    0  0.00000000000E+00  0.00000000000E+00 -0.48634518813E+03  0.48634518816E+03  0.50400001928E-02 0.  1.
    10030    2    1    2    0    0  0.00000000000E+00  0.00000000000E+00  0.37940779091E+03  0.13520981672E+04  0.12977747039E+04 0.  0.
        1    1    3    3  502    0  0.21157279704E+03 -0.29046209717E+03  0.75261972420E+03  0.83400703091E+03  0.50400001928E-02 0. -1.
       -1    1    3    3    0  502 -0.21157279704E+03  0.29046209717E+03 -0.37321193329E+03  0.51809113630E+03  0.50400001928E-02 0.  1.
</event>
<event>
 5   0  0.5766027E-04  0.1295992E+04  0.7818609E-02  0.9032750E-01
        1   -1    0    0  501    0  0.00000000000E+00  0.00000000000E+00  0.11731885096E+04  0.11731885096E+04  0.50400001928E-02 0. -1.
       -1   -1    0    0    0  501  0.00000000000E+00  0.00000000000E+00 -0.35791228994E+03  0.35791228997E+03  0.50400001928E-02 0.  1.
    10030    2    1    2    0    0  0.00000000000E+00  0.00000000000E+00  0.81527621969E+03  0.15311007996E+04  0.12959916451E+04 0.  0.
        3    1    3    3  502    0 -0.75594179511E+02 -0.52338511080E+03 -0.34803843879E+02  0.52996016071E+03  0.10100000352E+00 0.  1.
       -3    1    3    3    0  502  0.75594179511E+02  0.52338511080E+03  0.85008006356E+03  0.10011406389E+04  0.10100000352E+00 0. -1.
</event>
<event>
 5   0  0.1046253E-03  0.1288930E+04  0.7818609E-02  0.9038390E-01
        2   -1    0    0  501    0  0.00000000000E+00  0.00000000000E+00  0.18763577261E+04  0.18763577261E+04  0.25500000920E-02 0.  1.
       -2   -1    0    0    0  501  0.00000000000E+00  0.00000000000E+00 -0.22135170433E+03  0.22135170435E+03  0.25500000920E-02 0. -1.
    10030    2    1    2    0    0  0.00000000000E+00  0.00000000000E+00  0.16550060218E+04  0.20977094305E+04  0.12889297586E+04 0.  0.
        3    1    3    3  502    0 -0.42568664971E+03 -0.48181783612E+03  0.75513185906E+03  0.99175686825E+03  0.10100000352E+00 0.  1.
       -3    1    3    3    0  502  0.42568664971E+03  0.48181783612E+03  0.89987416271E+03  0.11059525622E+04  0.10100000352E+00 0. -1.
</event>
<event>
 5   0  0.1031295E-03  0.1302599E+04  0.7818609E-02  0.9027507E-01
        2   -1    0    0  501    0  0.00000000000E+00  0.00000000000E+00  0.15221141960E+04  0.15221141960E+04  0.25500000920E-02 0. -1.
       -2   -1    0    0    0  501  0.00000000000E+00  0.00000000000E+00 -0.27868527938E+03  0.27868527939E+03  0.25500000920E-02 0.  1.
    10030    2    1    2    0    0  0.00000000000E+00  0.00000000000E+00  0.12434289167E+04  0.18007994754E+04  0.13025986642E+04 0.  0.
        2    1    3    3  502    0 -0.26982994635E+03 -0.24695181591E+03  0.13667055923E+04  0.14148065505E+04  0.25500000920E-02 0. -1.
       -2    1    3    3    0  502  0.26982994635E+03  0.24695181591E+03 -0.12327667563E+03  0.38599292492E+03  0.25500000920E-02 0.  1.
</event>
<event>
 5   0  0.5563545E-04  0.1283895E+04  0.7818609E-02  0.9042435E-01
       -1   -1    0    0    0  501  0.00000000000E+00  0.00000000000E+00  0.45387853350E+03  0.45387853353E+03  0.50400001928E-02 0. -1.
        1   -1    0    0  501    0  0.00000000000E+00  0.00000000000E+00 -0.90794413089E+03  0.90794413090E+03  0.50400001928E-02 0.  1.
    10030    2    1    2    0    0  0.00000000000E+00  0.00000000000E+00 -0.45406559739E+03  0.13618226644E+04  0.12838946229E+04 0.  0.
        2    1    3    3  502    0 -0.52107024604E+03 -0.25266966622E+03 -0.52086717965E+03  0.77888303382E+03  0.25500000920E-02 0.  1.
       -2    1    3    3    0  502  0.52107024604E+03  0.25266966622E+03  0.66801582265E+02  0.58293963061E+03  0.25500000920E-02 0. -1.
</event>
<event>
 5   0  0.5563545E-04  0.1302717E+04  0.7818609E-02  0.9027413E-01
       -1   -1    0    0    0  501  0.00000000000E+00  0.00000000000E+00  0.56344702134E+03  0.56344702136E+03  0.50400001928E-02 0.  1.
        1   -1    0    0  501    0  0.00000000000E+00  0.00000000000E+00 -0.75298626745E+03  0.75298626747E+03  0.50400001928E-02 0. -1.
    10030    2    1    2    0    0  0.00000000000E+00  0.00000000000E+00 -0.18953924611E+03  0.13164332888E+04  0.13027169601E+04 0.  0.
        2    1    3    3  502    0 -0.26862876171E+02 -0.42140477209E+03  0.40640007379E+03  0.58605854318E+03  0.25500000920E-02 0.  1.
       -2    1    3    3    0  502  0.26862876171E+02  0.42140477209E+03 -0.59593931990E+03  0.73037474564E+03  0.25500000920E-02 0. -1.
</event>
<event>
 5   0  0.1101619E-03  0.1300898E+04  0.7818609E-02  0.9028854E-01
        2   -1    0    0  501    0  0.00000000000E+00  0.00000000000E+00  0.20827689338E+04  0.20827689338E+04  0.25500000920E-02 0.  1.
       -2   -1    0    0    0  501  0.00000000000E+00  0.00000000000E+00 -0.20313516630E+03  0.20313516631E+03  0.25500000920E-02 0. -1.
    10030    2    1    2    0    0  0.00000000000E+00  0.00000000000E+00  0.18796337675E+04  0.22859041001E+04  0.13008975575E+04 0.  0.
        1    1    3    3  502    0  0.46694194373E+03 -0.38714901862E+03  0.52710721603E+03  0.80359265717E+03  0.50400001928E-02 0. -1.
       -1    1    3    3    0  502 -0.46694194373E+03  0.38714901862E+03  0.13525265515E+04  0.14823114430E+04  0.50400001928E-02 0.  1.
</event>
<event>
 5   0  0.5766027E-04  0.1312518E+04  0.7818609E-02  0.9019697E-01
        1   -1    0    0  501    0  0.00000000000E+00  0.00000000000E+00  0.72039499222E+03  0.72039499223E+03  0.50400001928E-02 0. -1.
       -1   -1    0    0    0  501  0.00000000000E+00  0.00000000000E+00 -0.59783257842E+03  0.59783257844E+03  0.50400001928E-02 0.  1.
    10030    2    1    2    0    0  0.00000000000E+00  0.00000000000E+00  0.12256241380E+03  0.13182275707E+04  0.13125175743E+04 0.  0.
        3    1    3    3  502    0 -0.44661625145E+02  0.20255204075E+03 -0.56404577995E+03  0.60097391129E+03  0.10100000352E+00 0.  1.
       -3    1    3    3    0  502  0.44661625145E+02 -0.20255204075E+03  0.68660819375E+03  0.71725365938E+03  0.10100000352E+00 0. -1.
</event>
<event>
 5   0  0.1101619E-03  0.1286015E+04  0.7818609E-02  0.9040730E-01
        2   -1    0    0  501    0  0.00000000000E+00  0.00000000000E+00  0.50540673234E+03  0.50540673235E+03  0.25500000920E-02 0. -1.
       -2   -1    0    0    0  501  0.00000000000E+00  0.00000000000E+00 -0.81807054013E+03  0.81807054014E+03  0.25500000920E-02 0.  1.
    10030    2    1    2    0    0  0.00000000000E+00  0.00000000000E+00 -0.31266380779E+03  0.13234772725E+04  0.12860145544E+04 0.  0.
        1    1    3    3  502    0 -0.45873292260E+03  0.30865607203E+03  0.18148944342E+03  0.58193030783E+03  0.50400001928E-02 0. -1.
       -1    1    3    3    0  502  0.45873292260E+03 -0.30865607203E+03 -0.49415325121E+03  0.74154696465E+03  0.50400001928E-02 0.  1.
</event>
<event>
 5   0  0.5563545E-04  0.1306382E+04  0.7818609E-02  0.9024519E-01
       -1   -1    0    0    0  501  0.00000000000E+00  0.00000000000E+00  0.10206657714E+04  0.10206657714E+04  0.50400001928E-02 0. -1.
        1   -1    0    0  501    0  0.00000000000E+00  0.00000000000E+00 -0.41801992185E+03  0.41801992188E+03  0.50400001928E-02 0.  1.
    10030    2    1    2    0    0  0.00000000000E+00  0.00000000000E+00  0.60264584957E+03  0.14386856933E+04  0.13063822198E+04 0.  0.
        2    1    3    3  502    0  0.44597349832E+02  0.59258042514E+03  0.59992507164E+03  0.84442322058E+03  0.25500000920E-02 0. -1.
       -2    1    3    3    0  502 -0.44597349832E+02 -0.59258042514E+03  0.27207779365E+01  0.59426247274E+03  0.25500000920E-02 0.  1.
</event>
<event>
 5   0  0.6006119E-04  0.1275259E+04  0.7818609E-02  0.9049419E-01
        1   -1    0    0  501    0  0.00000000000E+00  0.00000000000E+00  0.21428788450E+04  0.21428788450E+04  0.50400001928E-02 0.  1.
       -1   -1    0    0    0  501  0.00000000000E+00  0.00000000000E+00 -0.18973125118E+03  0.18973125125E+03  0.50400001928E-02 0. -1.
    10030    2    1    2    0    0  0.00000000000E+00  0.00000000000E+00  0.19531475938E+04  0.23326100963E+04  0.12752585377E+04 0.  0.
        4    1    3    3  502    0 -0.17807531636E+03 -0.44324522746E+03  0.17491333907E+04  0.18131868027E+04  0.12699999809E+01 0.  1.
       -4    1    3    3    0  502  0.17807531636E+03  0.44324522746E+03  0.20401420310E+03  0.51942329359E+03  0.12699999809E+01 0. -1.
</event>
<event>
 5   0  0.1103241E-03  0.1295420E+04  0.7818609E-02  0.9033205E-01
        2   -1    0    0  501    0  0.00000000000E+00  0.00000000000E+00  0.51514645729E+03  0.51514645730E+03  0.25500000920E-02 0. -1.
       -2   -1    0    0    0  501  0.00000000000E+00  0.00000000000E+00 -0.81438683317E+03  0.81438683317E+03  0.25500000920E-02 0.  1.
    10030    2    1    2    0    0  0.00000000000E+00  0.00000000000E+00 -0.29924037587E+03  0.13295332905E+04  0.12954203827E+04 0.  0.
        4    1    3    3  502    0  0.36927359750E+03  0.41092447833E+03  0.19737306682E+03  0.58666826837E+03  0.12699999809E+01 0. -1.
       -4    1    3    3    0  502 -0.36927359750E+03 -0.41092447833E+03 -0.49661344269E+03  0.74286502210E+03  0.12699999809E+01 0.  1.
</event>
<event>
 5   0  0.1031295E-03  0.1260266E+04  0.7818609E-02  0.9061682E-01
        2   -1    0    0  501    0  0.00000000000E+00  0.00000000000E+00  0.19194121506E+04  0.19194121506E+04  0.25500000920E-02 0.  1.
       -2   -1    0    0    0  501  0.00000000000E+00  0.00000000000E+00 -0.20686942473E+03  0.20686942475E+03  0.25500000920E-02 0. -1.
    10030    2    1    2    0    0  0.00000000000E+00  0.00000000000E+00  0.17125427259E+04  0.21262815754E+04  0.12602661424E+04 0.  0.
        2    1    3    3  502    0 -0.26711099231E+03 -0.32614070658E+03  0.16464566784E+04  0.16995692503E+04  0.25500000920E-02 0.  1.
       -2    1    3    3    0  502  0.26711099231E+03  0.32614070658E+03  0.66086047517E+02  0.42671232510E+03  0.25500000920E-02 0. -1.
</event>
<event>
 5   0  0.5812938E-04  0.1287012E+04  0.7818609E-02  0.9039929E-01
       -1   -1    0    0    0  501  0.00000000000E+00  0.00000000000E+00  0.67158590613E+03  0.67158590615E+03  0.50400001928E-02 0. -1.
        1   -1    0    0  501    0  0.00000000000E+00  0.00000000000E+00 -0.61659986752E+03  0.61659986754E+03  0.50400001928E-02 0.  1.
    10030    2    1    2    0    0  0.00000000000E+00  0.00000000000E+00  0.54986038613E+02  0.12881857737E+04  0.12870117028E+04 0.  0.
        5    1    3    3  502    0  0.37243509305E+03 -0.21199391168E+03 -0.45297444058E+03  0.62358419715E+03  0.46999998093E+01 0.  1.
       -5    1    3    3    0  502 -0.37243509305E+03  0.21199391168E+03  0.50796047919E+03  0.66460157654E+03  0.46999998093E+01 0. -1.
</event>
<event>
 5   0  0.1081574E-03  0.1297329E+04  0.7818609E-02  0.9031686E-01
        2   -1    0    0  501    0  0.00000000000E+00  0.00000000000E+00  0.77442872413E+03  0.77442872414E+03  0.25500000920E-02 0.  1.
       -2   -1    0    0    0  501  0.00000000000E+00  0.00000000000E+00 -0.54332413417E+03  0.54332413418E+03  0.25500000920E-02 0. -1.
    10030    2    1    2    0    0  0.00000000000E+00  0.00000000000E+00  0.23110458996E+03  0.13177528583E+04  0.12973292813E+04 0.  0.
        5    1    3    3  502    0 -0.23805989779E+03 -0.72192539009E+02 -0.49292718809E+03  0.55216263943E+03  0.46999998093E+01 0. -1.
       -5    1    3    3    0  502  0.23805989779E+03  0.72192539009E+02  0.72403177805E+03  0.76559021888E+03  0.46999998093E+01 0.  1.
</event>
<event>
 5   0  0.1031295E-03  0.1299689E+04  0.7818609E-02  0.9029812E-01
        2   -1    0    0  501    0  0.00000000000E+00  0.00000000000E+00  0.89555253599E+03  0.89555253599E+03  0.25500000920E-02 0.  1.
       -2   -1    0    0    0  501  0.00000000000E+00  0.00000000000E+00 -0.47155019543E+03  0.47155019544E+03  0.25500000920E-02 0. -1.
    10030    2    1    2    0    0  0.00000000000E+00  0.00000000000E+00  0.42400234056E+03  0.13671027314E+04  0.12996891526E+04 0.  0.
        2    1    3    3  502    0  0.52712319366E+03  0.61125395942E+02 -0.18255880138E+03  0.56117990991E+03  0.25500000920E-02 0. -1.
       -2    1    3    3    0  502 -0.52712319366E+03 -0.61125395942E+02  0.60656114193E+03  0.80592282151E+03  0.25500000920E-02 0.  1.
</event>
<event>
 5   0  0.4012375E-04  0.1293370E+04  0.7818609E-02  0.9034839E-01
       -4   -1    0    0    0  501  0.00000000000E+00  0.00000000000E+00  0.88128324374E+03  0.88128415882E+03  0.12699999809E+01 0. -1.
        4   -1    0    0  501    0  0.00000000000E+00  0.00000000000E+00 -0.47453493368E+03  0.47453663313E+03  0.12699999809E+01 0.  1.
    10030    2    1    2    0    0  0.00000000000E+00  0.00000000000E+00  0.40674831006E+03  0.13558207920E+04  0.12933699518E+04 0.  0.
        1    1    3    3  502    0 -0.39909316401E+03 -0.24208639104E+02  0.73618786247E+03  0.83775532265E+03  0.50400001928E-02 0. -1.
       -1    1    3    3    0  502  0.39909316401E+03  0.24208639104E+02 -0.32943955241E+03  0.51806546930E+03  0.50400001928E-02 0.  1.
</event>
<event>
 5   0  0.5766027E-04  0.1295696E+04  0.7818609E-02  0.9032985E-01
        1   -1    0    0  501    0  0.00000000000E+00  0.00000000000E+00  0.78923258481E+03  0.78923258483E+03  0.50400001928E-02 0.  1.
       -1   -1    0    0    0  501  0.00000000000E+00  0.00000000000E+00 -0.53179142642E+03  0.53179142644E+03  0.50400001928E-02 0. -1.
    10030    2    1    2    0    0  0.00000000000E+00  0.00000000000E+00  0.25744115839E+03  0.13210240113E+04  0.12956961404E+04 0.  0.
        3    1    3    3  502    0 -0.23064414084E+03  0.55863980255E+03 -0.10914661264E+03  0.61415644746E+03  0.10100000352E+00 0. -1.
       -3    1    3    3    0  502  0.23064414084E+03 -0.55863980255E+03  0.36658777103E+03  0.70686756381E+03  0.10100000352E+00 0.  1.
</event>
<event>
 5   0  0.1101619E-03  0.1300036E+04  0.7818609E-02  0.9029537E-01
        2   -1    0    0  501    0  0.00000000000E+00  0.00000000000E+00  0.17248501892E+04  0.17248501892E+04  0.25500000920E-02 0.  1.
       -2   -1    0    0    0  501  0.00000000000E+00  0.00000000000E+00 -0.24496235680E+03  0.24496235681E+03  0.25500000920E-02 0. -1.
    10030    2    1    2    0    0  0.00000000000E+00  0.00000000000E+00  0.14798878324E+04  0.19698125461E+04  0.13000359495E+04 0.  0.
        1    1    3    3  502    0 -0.23425382581E+03  0.59817281493E+03  0.58965794414E+03  0.87199888907E+03  0.50400001928E-02 0. -1.
       -1    1    3    3    0  502  0.23425382581E+03 -0.59817281493E+03  0.89022988830E+03  0.10978136570E+04  0.50400001928E-02 0.  1.
</event>
<event>
 5   0  0.5766027E-04  0.1293661E+04  0.7818609E-02  0.9034607E-01
        1   -1    0    0  501    0  0.00000000000E+00  0.00000000000E+00  0.14113583050E+04  0.14113583051E+04  0.50400001928E-02 0.  1.
       -1   -1    0    0    0  501  0.00000000000E+00  0.00000000000E+00 -0.29644474788E+03  0.29644474792E+03  0.50400001928E-02 0. -1.
    10030    2    1    2    0    0  0.00000000000E+00  0.00000000000E+00  0.11149135572E+04  0.17078030530E+04  0.12936610947E+04 0.  0.
        3    1    3    3  502    0  0.21475436887E+03  0.22451014630E+03 -0.19149608152E+03  0.36495890752E+03  0.10100000352E+00 0. -1.
       -3    1    3    3    0  502 -0.21475436887E+03 -0.22451014630E+03  0.13064096387E+04  0.13428441455E+04  0.10100000352E+00 0.  1.
</event>
<event>
 5   0  0.1031295E-03  0.1304646E+04  0.7818609E-02  0.9025889E-01
        2   -1    0    0  501    0  0.00000000000E+00  0.00000000000E+00  0.91796901756E+03  0.91796901757E+03  0.25500000920E-02 0.  1.
       -2   -1    0    0    0  501  0.00000000000E+00  0.00000000000E+00 -0.46355071378E+03  0.46355071379E+03  0.25500000920E-02 0. -1.
    10030    2    1    2    0    0  0.00000000000E+00  0.00000000000E+00  0.45441830378E+03  0.13815197314E+04  0.13046458421E+04 0.  0.
        2    1    3    3  502    0 -0.33276625786E+03 -0.55348106242E+03  0.32455250232E+03  0.72277866294E+03  0.25500000920E-02 0.  1.
       -2    1    3    3    0  502  0.33276625786E+03  0.55348106242E+03  0.12986580146E+03  0.65874106842E+03  0.25500000920E-02 0. -1.
</event>
<event>
 5   0  0.1046253E-03  0.1288666E+04  0.7818609E-02  0.9038601E-01
       -2   -1    0    0    0  501  0.00000000000E+00  0.00000000000E+00  0.94303012028E+03  0.94303012028E+03  0.25500000920E-02 0. -1.
        2   -1    0    0  501    0  0.00000000000E+00  0.00000000000E+00 -0.44024601262E+03  0.44024601263E+03  0.25500000920E-02 0.  1.
    10030    2    1    2    0    0  0.00000000000E+00  0.00000000000E+00  0.50278410766E+03  0.13832761329E+04  0.12886663653E+04 0.  0.
        3    1    3    3  502    0  0.14699078042E+03  0.35285725293E+03 -0.30539029805E+03  0.48926248049E+03  0.10100000352E+00 0.  1.
       -3    1    3    3    0  502 -0.14699078042E+03 -0.35285725293E+03  0.80817440571E+03  0.89401365242E+03  0.10100000352E+00 0. -1.
</event>
<event>
 5   0  0.1101619E-03  0.1318935E+04  0.7818609E-02  0.9014683E-01
       -2   -1    0    0    0  501  0.00000000000E+00  0.00000000000E+00  0.89511734388E+03  0.89511734388E+03  0.25500000920E-02 0. -1.
        2   -1    0    0  501    0  0.00000000000E+00  0.00000000000E+00 -0.48585480082E+03  0.48585480082E+03  0.25500000920E-02 0.  1.
    10030    2    1    2    0    0  0.00000000000E+00  0.00000000000E+00  0.40926254306E+03  0.13809721447E+04  0.13189345076E+04 0.  0.
        1    1    3    3  502    0  0.53921325296E+03 -0.29479662344E+03  0.45513580367E+03  0.76472516709E+03  0.50400001928E-02 0. -1.
       -1    1    3    3    0  502 -0.53921325296E+03  0.29479662344E+03 -0.45873260609E+02  0.61624697762E+03  0.50400001928E-02 0.  1.
</event>
<event>
 5   0  0.1081574E-03  0.1300804E+04  0.7818609E-02  0.9028928E-01
        2   -1    0    0  501    0  0.00000000000E+00  0.00000000000E+00  0.14356016017E+04  0.14356016017E+04  0.25500000920E-02 0.  1.
       -2   -1    0    0    0  501  0.00000000000E+00  0.00000000000E+00 -0.29466585654E+03  0.29466585655E+03  0.25500000920E-02 0. -1.
    10030    2    1    2    0    0  0.00000000000E+00  0.00000000000E+00  0.11409357451E+04  0.17302674582E+04  0.13008040215E+04 0.  0.
        5    1    3    3  502    0  0.21965414377E+03 -0.59038356403E+03  0.78577179019E+03  0.10071048068E+04  0.46999998093E+01 0.  1.
       -5    1    3    3    0  502 -0.21965414377E+03  0.59038356403E+03  0.35516395492E+03  0.72316265143E+03  0.46999998093E+01 0. -1.
</event>
<event>
 5   0  0.6006119E-04  0.1282428E+04  0.7818609E-02  0.9043617E-01
        1   -1    0    0  501    0  0.00000000000E+00  0.00000000000E+00  0.92493039645E+03  0.92493039646E+03  0.50400001928E-02 0.  1.
       -1   -1    0    0    0  501  0.00000000000E+00  0.00000000000E+00 -0.44452548806E+03  0.44452548809E+03  0.50400001928E-02 0. -1.
    10030    2    1    2    0    0  0.00000000000E+00  0.00000000000E+00  0.48040490839E+03  0.13694558846E+04  0.12824275979E+04 0.  0.
        4    1    3    3  502    0  0.38737140008E+03  0.48600964227E+03  0.71725247538E+02  0.62562616475E+03  0.12699999809E+01 0. -1.
       -4    1    3    3    0  502 -0.38737140008E+03 -0.48600964227E+03  0.40867966085E+03  0.74382971981E+03  0.12699999809E+01 0.  1.
</event>
<event>
 5   0  0.5812938E-04  0.1291986E+04  0.7818609E-02  0.9035945E-01
        1   -1    0    0  501    0  0.00000000000E+00  0.00000000000E+00  0.58514797795E+03  0.58514797797E+03  0.50400001928E-02 0. -1.
       -1   -1    0    0    0  501  0.00000000000E+00  0.00000000000E+00 -0.71316460561E+03  0.71316460563E+03  0.50400001928E-02 0.  1.
    10030    2    1    2    0    0  0.00000000000E+00  0.00000000000E+00 -0.12801662766E+03  0.12983125836E+04  0.12919858001E+04 0.  0.
        5    1    3    3  502    0  0.44591668718E+03 -0.22377540361E+02 -0.53313731511E+03  0.69541349784E+03  0.46999998093E+01 0.  1.
       -5    1    3    3    0  502 -0.44591668718E+03  0.22377540361E+02  0.40512068745E+03  0.60289908576E+03  0.46999998093E+01 0. -1.
</event>
<event>
 5   0  0.4012375E-04  0.1300384E+04  0.7818609E-02  0.9029261E-01
       -3   -1    0    0    0  501  0.00000000000E+00  0.00000000000E+00  0.41881725491E+03  0.41881726709E+03  0.10100000352E+00 0. -1.
        3   -1    0    0  501    0  0.00000000000E+00  0.00000000000E+00 -0.10093892869E+04  0.10093892920E+04  0.10100000352E+00 0.  1.
    10030    2    1    2    0    0  0.00000000000E+00  0.00000000000E+00 -0.59057203199E+03  0.14282065591E+04  0.13003840396E+04 0.  0.
        5    1    3    3  502    0 -0.42288064246E+03  0.21422447040E+03  0.19343398782E+03  0.51201460832E+03  0.46999998093E+01 0. -1.
       -5    1    3    3    0  502  0.42288064246E+03 -0.21422447040E+03 -0.78400601981E+03  0.91619195073E+03  0.46999998093E+01 0.  1.
</event>
<event>
 5   0  0.1103241E-03  0.1295693E+04  0.7818609E-02  0.9032988E-01
       -2   -1    0    0    0  501  0.00000000000E+00  0.00000000000E+00  0.32238444477E+03  0.32238444478E+03  0.25500000920E-02 0. -1.
        2   -1    0    0  501    0  0.00000000000E+00  0.00000000000E+00 -0.13018773682E+04  0.13018773682E+04  0.25500000920E-02 0.  1.
    10030    2    1    2    0    0  0.00000000000E+00  0.00000000000E+00 -0.97949292347E+03  0.16242618130E+04  0.12956928842E+04 0.  0.
        4    1    3    3  502    0 -0.19995049165E+03 -0.84018743224E+01 -0.12621551580E+04  0.12779233336E+04  0.12699999809E+01 0.  1.
       -4    1    3    3    0  502  0.19995049165E+03  0.84018743224E+01  0.28266223457E+03  0.34633847946E+03  0.12699999809E+01 0. -1.
</event>
<event>
 5   0  0.6006119E-04  0.1299780E+04  0.7818609E-02  0.9029740E-01
       -1   -1    0    0    0  501  0.00000000000E+00  0.00000000000E+00  0.46531524201E+03  0.46531524204E+03  0.50400001928E-02 0. -1.
        1   -1    0    0  501    0  0.00000000000E+00  0.00000000000E+00 -0.90767931669E+03  0.90767931670E+03  0.50400001928E-02 0.  1.
    10030    2    1    2    0    0  0.00000000000E+00  0.00000000000E+00 -0.44236407467E+03  0.13729945587E+04  0.12997800136E+04 0.  0.
        4    1    3    3  502    0  0.29309485375E+03 -0.47472595018E+03  0.13088778079E+03  0.57306417192E+03  0.12699999809E+01 0.  1.
       -4    1    3    3    0  502 -0.29309485375E+03  0.47472595018E+03 -0.57325185547E+03  0.79993038683E+03  0.12699999809E+01 0. -1.
</event>
<event>
 5   0  0.4012375E-04  0.1320595E+04  0.7818609E-02  0.9013390E-01
        3   -1    0    0  501    0  0.00000000000E+00  0.00000000000E+00  0.51704099199E+03  0.51704100185E+03  0.10100000352E+00 0.  1.
       -3   -1    0    0    0  501  0.00000000000E+00  0.00000000000E+00 -0.84324643926E+03  0.84324644531E+03  0.10100000352E+00 0. -1.
    10030    2    1    2    0    0  0.00000000000E+00  0.00000000000E+00 -0.32620544727E+03  0.13602874472E+04  0.13205952995E+04 0.  0.
        5    1    3    3  502    0  0.23497555544E+03  0.61542812355E+03 -0.11697265326E+03  0.66908144386E+03  0.46999998093E+01 0. -1.
       -5    1    3    3    0  502 -0.23497555544E+03 -0.61542812355E+03 -0.20923279401E+03  0.69120600330E+03  0.46999998093E+01 0.  1.
</event>
<event>
 5   0  0.5710383E-04  0.1304477E+04  0.7818609E-02  0.9026023E-01
        1   -1    0    0  501    0  0.00000000000E+00  0.00000000000E+00  0.90594366250E+03  0.90594366251E+03  0.50400001928E-02 0.  1.
       -1   -1    0    0    0  501  0.00000000000E+00  0.00000000000E+00 -0.46958194939E+03  0.46958194942E+03  0.50400001928E-02 0. -1.
    10030    2    1    2    0    0  0.00000000000E+00  0.00000000000E+00  0.43636171311E+03  0.13755256119E+04  0.13044765864E+04 0.  0.
        1    1    3    3  502    0  0.23818018882E+03 -0.28033955196E+03 -0.34975894865E+03  0.50759372428E+03  0.50400001928E-02 0. -1.
       -1    1    3    3    0  502 -0.23818018882E+03  0.28033955196E+03  0.78612066176E+03  0.86793188766E+03  0.50400001928E-02 0.  1.
</event>
<event>
 5   0  0.1101619E-03  0.1303664E+04  0.7818609E-02  0.9026665E-01
        2   -1    0    0  501    0  0.00000000000E+00  0.00000000000E+00  0.25328139943E+04  0.25328139943E+04  0.25500000920E-02 0.  1.
       -2   -1    0    0    0  501  0.00000000000E+00  0.00000000000E+00 -0.16775210196E+03  0.16775210198E+03  0.25500000920E-02 0. -1.
    10030    2    1    2    0    0  0.00000000000E+00  0.00000000000E+00  0.23650618923E+04  0.27005660962E+04  0.13036638699E+04 0.  0.
        1    1    3    3  502    0  0.10841967284E+03 -0.48077796520E+03  0.29883246752E+03  0.57637064546E+03  0.50400001928E-02 0. -1.
       -1    1    3    3    0  502 -0.10841967284E+03  0.48077796520E+03  0.20662294248E+04  0.21241954508E+04  0.50400001928E-02 0.  1.
</event>
<event>
 5   0  0.5812938E-04  0.1300674E+04  0.7818609E-02  0.9029031E-01
        1   -1    0    0  501    0  0.00000000000E+00  0.00000000000E+00  0.16225991470E+04  0.16225991470E+04  0.50400001928E-02 0.  1.
       -1   -1    0    0    0  501  0.00000000000E+00  0.00000000000E+00 -0.26065469654E+03  0.26065469658E+03  0.50400001928E-02 0. -1.
    10030    2    1    2    0    0  0.00000000000E+00  0.00000000000E+00  0.13619444505E+04  0.18832538436E+04  0.13006738074E+04 0.  0.
        5    1    3    3  502    0  0.21520637469E+03  0.39065924311E+03 -0.42831128018E+01  0.44605925950E+03  0.46999998093E+01 0. -1.
       -5    1    3    3    0  502 -0.21520637469E+03 -0.39065924311E+03  0.13662275633E+04  0.14371945841E+04  0.46999998093E+01 0.  1.
</event>
<event>
 5   0  0.1103241E-03  0.1273012E+04  0.7818609E-02  0.9051245E-01
       -2   -1    0    0    0  501  0.00000000000E+00  0.00000000000E+00  0.31580007736E+03  0.31580007737E+03  0.25500000920E-02 0. -1.
        2   -1    0    0  501    0  0.00000000000E+00  0.00000000000E+00 -0.12829000381E+04  0.12829000381E+04  0.25500000920E-02 0.  1.
    10030    2    1    2    0    0  0.00000000000E+00  0.00000000000E+00 -0.96709996077E+03  0.15987001155E+04  0.12730120680E+04 0.  0.
        4    1    3    3  502    0 -0.20030297820E+03 -0.10334303854E+03  0.26400457417E+03  0.34713267604E+03  0.12699999809E+01 0. -1.
       -4    1    3    3    0  502  0.20030297820E+03  0.10334303854E+03 -0.12311045349E+04  0.12515674395E+04  0.12699999809E+01 0.  1.
</event>
<event>
 5   0  0.1101619E-03  0.1299978E+04  0.7818609E-02  0.9029582E-01
        2   -1    0    0  501    0  0.00000000000E+00  0.00000000000E+00  0.62805542795E+03  0.62805542795E+03  0.25500000920E-02 0. -1.
       -2   -1    0    0    0  501  0.00000000000E+00  0.00000000000E+00 -0.67268897815E+03  0.67268897815E+03  0.25500000920E-02 0.  1.
    10030    2    1    2    0    0  0.00000000000E+00  0.00000000000E+00 -0.44633550197E+02  0.13007444061E+04  0.12999784061E+04 0.  0.
        1    1    3    3  502    0  0.61112893046E+03 -0.55519842829E+02 -0.23674410325E+03  0.65773003052E+03  0.50400001928E-02 0.  1.
       -1    1    3    3    0  502 -0.61112893046E+03  0.55519842829E+02  0.19211055305E+03  0.64301437559E+03  0.50400001928E-02 0. -1.
</event>
<event>
 5   0  0.1046253E-03  0.1296977E+04  0.7818609E-02  0.9031966E-01
        2   -1    0    0  501    0  0.00000000000E+00  0.00000000000E+00  0.17575855025E+04  0.17575855025E+04  0.25500000920E-02 0.  1.
       -2   -1    0    0    0  501  0.00000000000E+00  0.00000000000E+00 -0.23926984308E+03  0.23926984309E+03  0.25500000920E-02 0. -1.
    10030    2    1    2    0    0  0.00000000000E+00  0.00000000000E+00  0.15183156594E+04  0.19968553456E+04  0.12969768038E+04 0.  0.
        3    1    3    3  502    0  0.15069872566E+03  0.55948718063E+03  0.12075059563E+04  0.13393306746E+04  0.10100000352E+00 0.  1.
       -3    1    3    3    0  502 -0.15069872566E+03 -0.55948718063E+03  0.31080970309E+03  0.65752467097E+03  0.10100000352E+00 0. -1.
</event>
<event>
 5   0  0.1031295E-03  0.1294145E+04  0.7818609E-02  0.9034221E-01
       -2   -1    0    0    0  501  0.00000000000E+00  0.00000000000E+00  0.35669103239E+03  0.35669103240E+03  0.25500000920E-02 0. -1.
        2   -1    0    0  501    0  0.00000000000E+00  0.00000000000E+00 -0.11738536942E+04  0.11738536942E+04  0.25500000920E-02 0.  1.
    10030    2    1    2    0    0  0.00000000000E+00  0.00000000000E+00 -0.81716266185E+03  0.15305447266E+04  0.12941454108E+04 0.  0.
        2    1    3    3  502    0 -0.42087555898E+03 -0.42861027443E+03 -0.12410085010E+03  0.61338733644E+03  0.25500000920E-02 0. -1.
       -2    1    3    3    0  502  0.42087555898E+03  0.42861027443E+03 -0.69306181175E+03  0.91715739021E+03  0.25500000920E-02 0.  1.
</event>
<event>
 5   0  0.1101619E-03  0.1301631E+04  0.7818609E-02  0.9028273E-01
        2   -1    0    0  501    0  0.00000000000E+00  0.00000000000E+00  0.66597193741E+03  0.66597193741E+03  0.25500000920E-02 0.  1.
       -2   -1    0    0    0  501  0.00000000000E+00  0.00000000000E+00 -0.63600376510E+03  0.63600376510E+03  0.25500000920E-02 0. -1.
    10030    2    1    2    0    0  0.00000000000E+00  0.00000000000E+00  0.29968172312E+02  0.13019757025E+04  0.13016307612E+04 0.  0.
        1    1    3    3  502    0 -0.11067785698E+03  0.54687277476E+03 -0.32012893528E+03  0.64327440104E+03  0.50400001928E-02 0. -1.
       -1    1    3    3    0  502  0.11067785698E+03 -0.54687277476E+03  0.35009710759E+03  0.65870130148E+03  0.50400001928E-02 0.  1.
</event>
<event>
 5   0  0.1081574E-03  0.1298675E+04  0.7818609E-02  0.9030616E-01
       -2   -1    0    0    0  501  0.00000000000E+00  0.00000000000E+00  0.55622051350E+03  0.55622051351E+03  0.25500000920E-02 0. -1.
        2   -1    0    0  501    0  0.00000000000E+00  0.00000000000E+00 -0.75804370063E+03  0.75804370063E+03  0.25500000920E-02 0.  1.
    10030    2    1    2    0    0  0.00000000000E+00  0.00000000000E+00 -0.20182318713E+03  0.13142642141E+04  0.12986754120E+04 0.  0.
        5    1    3    3  502    0  0.47082399814E+03 -0.44646494411E+03 -0.12593046163E+03  0.66097409534E+03  0.46999998093E+01 0. -1.
       -5    1    3    3    0  502 -0.47082399814E+03  0.44646494411E+03 -0.75892725498E+02  0.65329011880E+03  0.46999998093E+01 0.  1.
</event>
<event>
 5   0  0.1031295E-03  0.1392836E+04  0.7818609E-02  0.8959021E-01
        2   -1    0    0  501    0  0.00000000000E+00  0.00000000000E+00  0.16259355395E+04  0.16259355395E+04  0.25500000920E-02 0.  1.
       -2   -1    0    0    0  501  0.00000000000E+00  0.00000000000E+00 -0.29828855869E+03  0.29828855870E+03  0.25500000920E-02 0. -1.
    10030    2    1    2    0    0  0.00000000000E+00  0.00000000000E+00  0.13276469808E+04  0.19242240982E+04  0.13928359108E+04 0.  0.
        2    1    3    3  502    0 -0.37374462081E+03 -0.52775591033E+03  0.10208499852E+04  0.12084477791E+04  0.25500000920E-02 0.  1.
       -2    1    3    3    0  502  0.37374462081E+03  0.52775591033E+03  0.30679699560E+03  0.71577631911E+03  0.25500000920E-02 0. -1.
</event>
<event>
 5   0  0.5766027E-04  0.1309792E+04  0.7818609E-02  0.9021836E-01
       -1   -1    0    0    0  501  0.00000000000E+00  0.00000000000E+00  0.41735869725E+03  0.41735869728E+03  0.50400001928E-02 0. -1.
        1   -1    0    0  501    0  0.00000000000E+00  0.00000000000E+00 -0.10276266348E+04  0.10276266348E+04  0.50400001928E-02 0.  1.
    10030    2    1    2    0    0  0.00000000000E+00  0.00000000000E+00 -0.61026793753E+03  0.14449853321E+04  0.13097922180E+04 0.  0.
        3    1    3    3  502    0 -0.38489536801E+03 -0.37353765404E+03  0.10943809495E+03  0.54740435706E+03  0.10100000352E+00 0. -1.
       -3    1    3    3    0  502  0.38489536801E+03  0.37353765404E+03 -0.71970603249E+03  0.89758097501E+03  0.10100000352E+00 0.  1.
</event>
<event>
 5   0  0.5710383E-04  0.1297256E+04  0.7818609E-02  0.9031744E-01
        1   -1    0    0  501    0  0.00000000000E+00  0.00000000000E+00  0.14346161492E+04  0.14346161492E+04  0.50400001928E-02 0. -1.
       -1   -1    0    0    0  501  0.00000000000E+00  0.00000000000E+00 -0.29326174876E+03  0.29326174881E+03  0.50400001928E-02 0.  1.
    10030    2    1    2    0    0  0.00000000000E+00  0.00000000000E+00  0.11413544005E+04  0.17278778980E+04  0.12972556275E+04 0.  0.
        1    1    3    3  502    0  0.13944117852E+03 -0.62061620749E+03  0.40162084479E+03  0.75226831800E+03  0.50400001928E-02 0. -1.
       -1    1    3    3    0  502 -0.13944117852E+03  0.62061620749E+03  0.73973355567E+03  0.97560958005E+03  0.50400001928E-02 0.  1.
</event>
<event>
 5   0  0.1031295E-03  0.1311111E+04  0.7818609E-02  0.9020801E-01
       -2   -1    0    0    0  501  0.00000000000E+00  0.00000000000E+00  0.52175659870E+03  0.52175659870E+03  0.25500000920E-02 0.  1.
        2   -1    0    0  501    0  0.00000000000E+00  0.00000000000E+00 -0.82366514213E+03  0.82366514214E+03  0.25500000920E-02 0. -1.
    10030    2    1    2    0    0  0.00000000000E+00  0.00000000000E+00 -0.30190854343E+03  0.13454217408E+04  0.13111105568E+04 0.  0.
        2    1    3    3  502    0 -0.34046286807E+03  0.53721297949E+03  0.12074242774E+02  0.63612776800E+03  0.25500000920E-02 0. -1.
       -2    1    3    3    0  502  0.34046286807E+03 -0.53721297949E+03 -0.31398278621E+03  0.70929397284E+03  0.25500000920E-02 0.  1.
</event>
<event>
 5   0  0.1081574E-03  0.1311299E+04  0.7818609E-02  0.9020652E-01
        2   -1    0    0  501    0  0.00000000000E+00  0.00000000000E+00  0.69894993405E+03  0.69894993405E+03  0.25500000920E-02 0. -1.
       -2   -1    0    0    0  501  0.00000000000E+00  0.00000000000E+00 -0.61503188520E+03  0.61503188521E+03  0.25500000920E-02 0.  1.
    10030    2    1    2    0    0  0.00000000000E+00  0.00000000000E+00  0.83918048850E+02  0.13139818193E+04  0.13112993489E+04 0.  0.
        5    1    3    3  502    0  0.63770279483E+02 -0.58679193909E+03 -0.24404204027E+03  0.63872532105E+03  0.46999998093E+01 0.  1.
       -5    1    3    3    0  502 -0.63770279483E+02  0.58679193909E+03  0.32796008912E+03  0.67525649821E+03  0.46999998093E+01 0. -1.
</event>
<event>
 5   0  0.1081574E-03  0.1310300E+04  0.7818609E-02  0.9021437E-01
        2   -1    0    0  501    0  0.00000000000E+00  0.00000000000E+00  0.29900744045E+03  0.29900744046E+03  0.25500000920E-02 0. -1.
       -2   -1    0    0    0  501  0.00000000000E+00  0.00000000000E+00 -0.14354873993E+04  0.14354873993E+04  0.25500000920E-02 0.  1.
    10030    2    1    2    0    0  0.00000000000E+00  0.00000000000E+00 -0.11364799588E+04  0.17344948397E+04  0.13102998330E+04 0.  0.
        5    1    3    3  502    0  0.20342587559E+03  0.59570807488E+03 -0.80852365917E+03  0.10246866813E+04  0.46999998093E+01 0. -1.
       -5    1    3    3    0  502 -0.20342587559E+03 -0.59570807488E+03 -0.32795629966E+03  0.70980815846E+03  0.46999998093E+01 0.  1.
</event>
<event>
 5   0  0.6006119E-04  0.1292047E+04  0.7818609E-02  0.9035896E-01
       -1   -1    0    0    0  501  0.00000000000E+00  0.00000000000E+00  0.56483564305E+03  0.56483564307E+03  0.50400001928E-02 0. -1.
        1   -1    0    0  501    0  0.00000000000E+00  0.00000000000E+00 -0.73888150713E+03  0.73888150715E+03  0.50400001928E-02 0.  1.
    10030    2    1    2    0    0  0.00000000000E+00  0.00000000000E+00 -0.17404586409E+03  0.13037171502E+04  0.12920473850E+04 0.  0.
        4    1    3    3  502    0  0.25638407124E+03  0.33063224683E+03  0.40965714116E+03  0.58555192838E+03  0.12699999809E+01 0. -1.
       -4    1    3    3    0  502 -0.25638407124E+03 -0.33063224683E+03 -0.58370300524E+03  0.71816522184E+03  0.12699999809E+01 0.  1.
</event>
<event>
 5   0  0.5812938E-04  0.1272049E+04  0.7818609E-02  0.9052029E-01
        1   -1    0    0  501    0  0.00000000000E+00  0.00000000000E+00  0.79121897365E+03  0.79121897366E+03  0.50400001928E-02 0. -1.
       -1   -1    0    0    0  501  0.00000000000E+00  0.00000000000E+00 -0.51127078424E+03  0.51127078426E+03  0.50400001928E-02 0.  1.
    10030    2    1    2    0    0  0.00000000000E+00  0.00000000000E+00  0.27994818941E+03  0.13024897579E+04  0.12720489695E+04 0.  0.
        5    1    3    3  502    0  0.26442904084E+03  0.57756174974E+03  0.17243063733E+03  0.65822086498E+03  0.46999998093E+01 0.  1.
       -5    1    3    3    0  502 -0.26442904084E+03 -0.57756174974E+03  0.10751755208E+03  0.64426889294E+03  0.46999998093E+01 0. -1.
</event>
<event>
 5   0  0.1101619E-03  0.1308441E+04  0.7818609E-02  0.9022898E-01
        2   -1    0    0  501    0  0.00000000000E+00  0.00000000000E+00  0.11185953381E+04  0.11185953381E+04  0.25500000920E-02 0.  1.
       -2   -1    0    0    0  501  0.00000000000E+00  0.00000000000E+00 -0.38262647131E+03  0.38262647132E+03  0.25500000920E-02 0. -1.
    10030    2    1    2    0    0  0.00000000000E+00  0.00000000000E+00  0.73596886681E+03  0.15012218094E+04  0.13084405788E+04 0.  0.
        1    1    3    3  502    0 -0.36059573998E+03  0.48141566330E+03  0.72751155297E+02  0.60587379807E+03  0.50400001928E-02 0. -1.
       -1    1    3    3    0  502  0.36059573998E+03 -0.48141566330E+03  0.66321771151E+03  0.89534801136E+03  0.50400001928E-02 0.  1.
</event>
<event>
 5   0  0.1103241E-03  0.1313254E+04  0.7818609E-02  0.9019120E-01
       -2   -1    0    0    0  501  0.00000000000E+00  0.00000000000E+00  0.21498621539E+03  0.21498621540E+03  0.25500000920E-02 0. -1.
        2   -1    0    0  501    0  0.00000000000E+00  0.00000000000E+00 -0.20055189935E+04  0.20055189935E+04  0.25500000920E-02 0.  1.
    10030    2    1    2    0    0  0.00000000000E+00  0.00000000000E+00 -0.17905327781E+04  0.22205052089E+04  0.13132538800E+04 0.  0.
        4    1    3    3  502    0  0.36054528417E+02 -0.49506264918E+03 -0.16845911081E+03  0.52418225890E+03  0.12699999809E+01 0. -1.
       -4    1    3    3    0  502 -0.36054528417E+02  0.49506264918E+03 -0.16220736673E+04  0.16963229500E+04  0.12699999809E+01 0.  1.
</event>
<event>
 5   0  0.1031295E-03  0.1202418E+04  0.7818609E-02  0.9110742E-01
        2   -1    0    0  501    0  0.00000000000E+00  0.00000000000E+00  0.62480019911E+03  0.62480019912E+03  0.25500000920E-02 0.  1.
       -2   -1    0    0    0  501  0.00000000000E+00  0.00000000000E+00 -0.57850881559E+03  0.57850881559E+03  0.25500000920E-02 0. -1.
    10030    2    1    2    0    0  0.00000000000E+00  0.00000000000E+00  0.46291383523E+02  0.12033090147E+04  0.12024182686E+04 0.  0.
        2    1    3    3  502    0 -0.33795521114E+03 -0.35237893565E+02  0.51949394776E+03  0.62074906012E+03  0.25500000920E-02 0.  1.
       -2    1    3    3    0  502  0.33795521114E+03  0.35237893565E+02 -0.47320256424E+03  0.58255995459E+03  0.25500000920E-02 0. -1.
</event>
<event>
 5   0  0.1031295E-03  0.1306558E+04  0.7818609E-02  0.9024380E-01
        2   -1    0    0  501    0  0.00000000000E+00  0.00000000000E+00  0.13405035375E+04  0.13405035376E+04  0.25500000920E-02 0.  1.
       -2   -1    0    0    0  501  0.00000000000E+00  0.00000000000E+00 -0.31836817507E+03  0.31836817508E+03  0.25500000920E-02 0. -1.
    10030    2    1    2    0    0  0.00000000000E+00  0.00000000000E+00  0.10221353625E+04  0.16588717126E+04  0.13065583262E+04 0.  0.
        2    1    3    3  502    0  0.55912611901E+03 -0.26657115185E+03  0.24750758994E+03  0.66703988115E+03  0.25500000920E-02 0. -1.
       -2    1    3    3    0  502 -0.55912611901E+03  0.26657115185E+03  0.77462777254E+03  0.99183183148E+03  0.25500000920E-02 0.  1.
</event>
<event>
 5   0  0.5563545E-04  0.1311340E+04  0.7818609E-02  0.9020621E-01
        1   -1    0    0  501    0  0.00000000000E+00  0.00000000000E+00  0.12055827295E+04  0.12055827295E+04  0.50400001928E-02 0. -1.
       -1   -1    0    0    0  501  0.00000000000E+00  0.00000000000E+00 -0.35659347174E+03  0.35659347178E+03  0.50400001928E-02 0.  1.
    10030    2    1    2    0    0  0.00000000000E+00  0.00000000000E+00  0.84898925778E+03  0.15621762013E+04  0.13113396677E+04 0.  0.
        2    1    3    3  502    0 -0.26111534863E+03 -0.24743522500E+02 -0.29137552116E+03  0.39203719407E+03  0.25500000920E-02 0.  1.
       -2    1    3    3    0  502  0.26111534863E+03  0.24743522500E+02  0.11403647789E+04  0.11701390072E+04  0.25500000920E-02 0. -1.
</event>
<event>
 5   0  0.5766027E-04  0.1282359E+04  0.7818609E-02  0.9043673E-01
       -1   -1    0    0    0  501  0.00000000000E+00  0.00000000000E+00  0.83443133246E+03  0.83443133247E+03  0.50400001928E-02 0. -1.
        1   -1    0    0  501    0  0.00000000000E+00  0.00000000000E+00 -0.49268391543E+03  0.49268391545E+03  0.50400001928E-02 0.  1.
    10030    2    1    2    0    0  0.00000000000E+00  0.00000000000E+00  0.34174741703E+03  0.13271152479E+04  0.12823586020E+04 0.  0.
        3    1    3    3  502    0 -0.23306054664E+03 -0.13915496599E+03  0.77203459241E+03  0.81836345534E+03  0.10100000352E+00 0. -1.
       -3    1    3    3    0  502  0.23306054664E+03  0.13915496599E+03 -0.43028717538E+03  0.50875179258E+03  0.10100000352E+00 0.  1.
</event>
<event>
 5   0  0.1081574E-03  0.1173334E+04  0.7818609E-02  0.9136523E-01
       -2   -1    0    0    0  501  0.00000000000E+00  0.00000000000E+00  0.51968886274E+03  0.51968886274E+03  0.25500000920E-02 0. -1.
        2   -1    0    0  501    0  0.00000000000E+00  0.00000000000E+00 -0.66227747744E+03  0.66227747745E+03  0.25500000920E-02 0.  1.
    10030    2    1    2    0    0  0.00000000000E+00  0.00000000000E+00 -0.14258861471E+03  0.11819663402E+04  0.11733341026E+04 0.  0.
        5    1    3    3  502    0 -0.56866144116E+03  0.12255886753E+03  0.51562485778E+01  0.58176042111E+03  0.46999998093E+01 0.  1.
       -5    1    3    3    0  502  0.56866144116E+03 -0.12255886753E+03 -0.14774486329E+03  0.60020591908E+03  0.46999998093E+01 0. -1.
</event>
<event>
 5   0  0.1101619E-03  0.1282501E+04  0.7818609E-02  0.9043558E-01
        2   -1    0    0  501    0  0.00000000000E+00  0.00000000000E+00  0.93242977424E+03  0.93242977424E+03  0.25500000920E-02 0.  1.
       -2   -1    0    0    0  501  0.00000000000E+00  0.00000000000E+00 -0.44100070836E+03  0.44100070836E+03  0.25500000920E-02 0. -1.
    10030    2    1    2    0    0  0.00000000000E+00  0.00000000000E+00  0.49142906588E+03  0.13734304826E+04  0.12825009800E+04 0.  0.
        1    1    3    3  502    0  0.70801955927E+02  0.41361060200E+03  0.76498024628E+03  0.87251442639E+03  0.50400001928E-02 0.  1.
       -1    1    3    3    0  502 -0.70801955927E+02 -0.41361060200E+03 -0.27355118040E+03  0.50091605621E+03  0.50400001928E-02 0. -1.
</event>
<event>
 5   0  0.6006119E-04  0.1299256E+04  0.7818609E-02  0.9030155E-01
        1   -1    0    0  501    0  0.00000000000E+00  0.00000000000E+00  0.75893573253E+03  0.75893573254E+03  0.50400001928E-02 0.  1.
       -1   -1    0    0    0  501  0.00000000000E+00  0.00000000000E+00 -0.55606371279E+03  0.55606371282E+03  0.50400001928E-02 0. -1.
    10030    2    1    2    0    0  0.00000000000E+00  0.00000000000E+00  0.20287201973E+03  0.13149994454E+04  0.12992561275E+04 0.  0.
        4    1    3    3  502    0  0.25019279135E+03  0.22949801263E+03  0.66199657458E+03  0.74398040854E+03  0.12699999809E+01 0.  1.
       -4    1    3    3    0  502 -0.25019279135E+03 -0.22949801263E+03 -0.45912455485E+03  0.57101903682E+03  0.12699999809E+01 0. -1.
</event>
<event>
 5   0  0.5766027E-04  0.1297963E+04  0.7818609E-02  0.9031182E-01
       -1   -1    0    0    0  501  0.00000000000E+00  0.00000000000E+00  0.30797693075E+03  0.30797693079E+03  0.50400001928E-02 0.  1.
        1   -1    0    0  501    0  0.00000000000E+00  0.00000000000E+00 -0.13675610240E+04  0.13675610240E+04  0.50400001928E-02 0. -1.
    10030    2    1    2    0    0  0.00000000000E+00  0.00000000000E+00 -0.10595840933E+04  0.16755379548E+04  0.12979633998E+04 0.  0.
        3    1    3    3  502    0 -0.48397327218E+03 -0.59574722869E+02 -0.10826188292E+04  0.11873680202E+04  0.10100000352E+00 0. -1.
       -3    1    3    3    0  502  0.48397327218E+03  0.59574722869E+02  0.23034735970E+02  0.48816993460E+03  0.10100000352E+00 0.  1.
</event>
<event>
 5   0  0.1081574E-03  0.1296881E+04  0.7818609E-02  0.9032042E-01
       -2   -1    0    0    0  501  0.00000000000E+00  0.00000000000E+00  0.43734284439E+03  0.43734284440E+03  0.25500000920E-02 0.  1.
        2   -1    0    0  501    0  0.00000000000E+00  0.00000000000E+00 -0.96143124283E+03  0.96143124283E+03  0.25500000920E-02 0. -1.
    10030    2    1    2    0    0  0.00000000000E+00  0.00000000000E+00 -0.52408839844E+03  0.13987740872E+04  0.12968809883E+04 0.  0.
        5    1    3    3  502    0  0.78662354038E+02  0.22319239965E+03 -0.91317262140E+03  0.94334985010E+03  0.46999998093E+01 0. -1.
       -5    1    3    3    0  502 -0.78662354038E+02 -0.22319239965E+03  0.38908422296E+03  0.45542423713E+03  0.46999998093E+01 0.  1.
</event>
<event>
 5   0  0.4012375E-04  0.1245598E+04  0.7818609E-02  0.9073855E-01
        4   -1    0    0  501    0  0.00000000000E+00  0.00000000000E+00  0.41683086557E+03  0.41683280028E+03  0.12699999809E+01 0.  1.
       -4   -1    0    0    0  501  0.00000000000E+00  0.00000000000E+00 -0.93053689944E+03  0.93053776609E+03  0.12699999809E+01 0. -1.
    10030    2    1    2    0    0  0.00000000000E+00  0.00000000000E+00 -0.51370603388E+03  0.13473705664E+04  0.12455976693E+04 0.  0.
        4    1    3    3  502    0  0.40211670034E+03  0.24505483219E+03  0.18403618653E+03  0.50558940092E+03  0.12699999809E+01 0.  1.
       -4    1    3    3    0  502 -0.40211670034E+03 -0.24505483219E+03 -0.69774222040E+03  0.84178116545E+03  0.12699999809E+01 0. -1.
</event>
<event>
 5   0  0.1031295E-03  0.1301479E+04  0.7818609E-02  0.9028393E-01
       -2   -1    0    0    0  501  0.00000000000E+00  0.00000000000E+00  0.86890762295E+03  0.86890762296E+03  0.25500000920E-02 0.  1.
        2   -1    0    0  501    0  0.00000000000E+00  0.00000000000E+00 -0.48735007257E+03  0.48735007257E+03  0.25500000920E-02 0. -1.
    10030    2    1    2    0    0  0.00000000000E+00  0.00000000000E+00  0.38155755038E+03  0.13562576955E+04  0.13014794552E+04 0.  0.
        2    1    3    3  502    0 -0.37676375225E+03  0.45914447968E+03 -0.86302565069E+02  0.60017723297E+03  0.25500000920E-02 0.  1.
       -2    1    3    3    0  502  0.37676375225E+03 -0.45914447968E+03  0.46786011545E+03  0.75608046256E+03  0.25500000920E-02 0. -1.
</event>
<event>
 5   0  0.1103241E-03  0.1322615E+04  0.7818609E-02  0.9011821E-01
        2   -1    0    0  501    0  0.00000000000E+00  0.00000000000E+00  0.35210416744E+03  0.35210416745E+03  0.25500000920E-02 0.  1.
       -2   -1    0    0    0  501  0.00000000000E+00  0.00000000000E+00 -0.12420408517E+04  0.12420408517E+04  0.25500000920E-02 0. -1.
    10030    2    1    2    0    0  0.00000000000E+00  0.00000000000E+00 -0.88993668423E+03  0.15941450191E+04  0.13226152275E+04 0.  0.
        4    1    3    3  502    0 -0.32666734682E+03 -0.33322421370E+03  0.11982160162E+03  0.48177667149E+03  0.12699999809E+01 0.  1.
       -4    1    3    3    0  502  0.32666734682E+03  0.33322421370E+03 -0.10097582858E+04  0.11123683476E+04  0.12699999809E+01 0. -1.
</event>
<event>
 5   0  0.5710383E-04  0.1301932E+04  0.7818609E-02  0.9028035E-01
        1   -1    0    0  501    0  0.00000000000E+00  0.00000000000E+00  0.91934160643E+03  0.91934160644E+03  0.50400001928E-02 0.  1.
       -1   -1    0    0    0  501  0.00000000000E+00  0.00000000000E+00 -0.46093475725E+03  0.46093475728E+03  0.50400001928E-02 0. -1.
    10030    2    1    2    0    0  0.00000000000E+00  0.00000000000E+00  0.45840684917E+03  0.13802763637E+04  0.13019316422E+04 0.  0.
        1    1    3    3  502    0 -0.14898487519E+03 -0.52714649285E+03 -0.14363580886E+03  0.56631366183E+03  0.50400001928E-02 0. -1.
       -1    1    3    3    0  502  0.14898487519E+03  0.52714649285E+03  0.60204265803E+03  0.81396270190E+03  0.50400001928E-02 0.  1.
</event>
<event>
 5   0  0.5710383E-04  0.1259621E+04  0.7818609E-02  0.9062213E-01
        1   -1    0    0  501    0  0.00000000000E+00  0.00000000000E+00  0.14441343057E+04  0.14441343057E+04  0.50400001928E-02 0.  1.
       -1   -1    0    0    0  501  0.00000000000E+00  0.00000000000E+00 -0.27467073346E+03  0.27467073350E+03  0.50400001928E-02 0. -1.
    10030    2    1    2    0    0  0.00000000000E+00  0.00000000000E+00  0.11694635723E+04  0.17188050392E+04  0.12596212590E+04 0.  0.
        1    1    3    3  502    0 -0.21374498968E+03 -0.28815019054E+02  0.13921715010E+04  0.14087791573E+04  0.50400001928E-02 0.  1.
       -1    1    3    3    0  502  0.21374498968E+03  0.28815019054E+02 -0.22270792870E+03  0.31002588193E+03  0.50400001928E-02 0. -1.
</event>
<event>
 5   0  0.5766027E-04  0.1297902E+04  0.7818609E-02  0.9031231E-01
        1   -1    0    0  501    0  0.00000000000E+00  0.00000000000E+00  0.50160552861E+03  0.50160552863E+03  0.50400001928E-02 0. -1.
       -1   -1    0    0    0  501  0.00000000000E+00  0.00000000000E+00 -0.83957882874E+03  0.83957882876E+03  0.50400001928E-02 0.  1.
    10030    2    1    2    0    0  0.00000000000E+00  0.00000000000E+00 -0.33797330014E+03  0.13411843574E+04  0.12979019720E+04 0.  0.
        3    1    3    3  502    0  0.15215956864E+03 -0.82982285436E+02 -0.81522066954E+03  0.83344066632E+03  0.10100000352E+00 0.  1.
       -3    1    3    3    0  502 -0.15215956864E+03  0.82982285436E+02  0.47724736940E+03  0.50774369107E+03  0.10100000352E+00 0. -1.
</event>
<event>
 5   0  0.1101619E-03  0.1294909E+04  0.7818609E-02  0.9033612E-01
        2   -1    0    0  501    0  0.00000000000E+00  0.00000000000E+00  0.71367830161E+03  0.71367830162E+03  0.25500000920E-02 0.  1.
       -2   -1    0    0    0  501  0.00000000000E+00  0.00000000000E+00 -0.58737583366E+03  0.58737583366E+03  0.25500000920E-02 0. -1.
    10030    2    1    2    0    0  0.00000000000E+00  0.00000000000E+00  0.12630246796E+03  0.13010541353E+04  0.12949090893E+04 0.  0.
        1    1    3    3  502    0  0.62326019693E+03 -0.92027958571E+02 -0.86805040914E+02  0.63596975823E+03  0.50400001928E-02 0. -1.
       -1    1    3    3    0  502 -0.62326019693E+03  0.92027958571E+02  0.21310750887E+03  0.66508437705E+03  0.50400001928E-02 0.  1.
</event>
<event>
 5   0  0.4012375E-04  0.1281115E+04  0.7818609E-02  0.9044676E-01
       -3   -1    0    0    0  501  0.00000000000E+00  0.00000000000E+00  0.92502869304E+03  0.92502869855E+03  0.10100000352E+00 0. -1.
        3   -1    0    0  501    0  0.00000000000E+00  0.00000000000E+00 -0.44356904975E+03  0.44356906125E+03  0.10100000352E+00 0.  1.
    10030    2    1    2    0    0  0.00000000000E+00  0.00000000000E+00  0.48145964329E+03  0.13685977598E+04  0.12811153110E+04 0.  0.
        4    1    3    3  502    0 -0.53926392620E+03  0.93580500496E+02  0.59624544926E+03  0.80936588811E+03  0.12699999809E+01 0. -1.
       -4    1    3    3    0  502  0.53926392620E+03 -0.93580500496E+02 -0.11478580597E+03  0.55923187170E+03  0.12699999809E+01 0.  1.
</event>
<event>
 5   0  0.1103241E-03  0.1301865E+04  0.7818609E-02  0.9028087E-01
        2   -1    0    0  501    0  0.00000000000E+00  0.00000000000E+00  0.36716947644E+03  0.36716947645E+03  0.25500000920E-02 0. -1.
       -2   -1    0    0    0  501  0.00000000000E+00  0.00000000000E+00 -0.11539995967E+04  0.11539995967E+04  0.25500000920E-02 0.  1.
    10030    2    1    2    0    0  0.00000000000E+00  0.00000000000E+00 -0.78683012026E+03  0.15211690731E+04  0.13018654734E+04 0.  0.
        4    1    3    3  502    0  0.10941409705E+03  0.23295156282E+03  0.30519296654E+03  0.39922704690E+03  0.12699999809E+01 0. -1.
       -4    1    3    3    0  502 -0.10941409705E+03 -0.23295156282E+03 -0.10920230868E+04  0.11219420262E+04  0.12699999809E+01 0.  1.
</event>
<event>
 5   0  0.6006119E-04  0.1292912E+04  0.7818609E-02  0.9035205E-01
        1   -1    0    0  501    0  0.00000000000E+00  0.00000000000E+00  0.54905595290E+03  0.54905595292E+03  0.50400001928E-02 0. -1.
       -1   -1    0    0    0  501  0.00000000000E+00  0.00000000000E+00 -0.76113438013E+03  0.76113438014E+03  0.50400001928E-02 0.  1.
    10030    2    1    2    0    0  0.00000000000E+00  0.00000000000E+00 -0.21207842723E+03  0.13101903331E+04  0.12929120038E+04 0.  0.
        4    1    3    3  502    0  0.20649299305E+03  0.59104100551E+03  0.57156183555E+02  0.62867898692E+03  0.12699999809E+01 0. -1.
       -4    1    3    3    0  502 -0.20649299305E+03 -0.59104100551E+03 -0.26923461078E+03  0.68151134614E+03  0.12699999809E+01 0.  1.
</event>
<event>
 5   0  0.5812938E-04  0.1324698E+04  0.7818609E-02  0.9010205E-01
       -1   -1    0    0    0  501  0.00000000000E+00  0.00000000000E+00  0.30843724508E+03  0.30843724512E+03  0.50400001928E-02 0.  1.
        1   -1    0    0  501    0  0.00000000000E+00  0.00000000000E+00 -0.14223522656E+04  0.14223522656E+04  0.50400001928E-02 0. -1.
    10030    2    1    2    0    0  0.00000000000E+00  0.00000000000E+00 -0.11139150205E+04  0.17307895107E+04  0.13246983270E+04 0.  0.
        5    1    3    3  502    0  0.53861338693E+03  0.19410155890E+03 -0.99207035782E+03  0.11454280775E+04  0.46999998093E+01 0.  1.
       -5    1    3    3    0  502 -0.53861338693E+03 -0.19410155890E+03 -0.12184466271E+03  0.58536143328E+03  0.46999998093E+01 0. -1.
</event>
<event>
 5   0  0.1101619E-03  0.1292098E+04  0.7818609E-02  0.9035855E-01
        2   -1    0    0  501    0  0.00000000000E+00  0.00000000000E+00  0.63574363633E+03  0.63574363633E+03  0.25500000920E-02 0. -1.
       -2   -1    0    0    0  501  0.00000000000E+00  0.00000000000E+00 -0.65652144638E+03  0.65652144638E+03  0.25500000920E-02 0.  1.
    10030    2    1    2    0    0  0.00000000000E+00  0.00000000000E+00 -0.20777810046E+02  0.12922650827E+04  0.12920980329E+04 0.  0.
        1    1    3    3  502    0 -0.44037680952E+02 -0.61106812714E+03  0.19466383996E+03  0.64283558082E+03  0.50400001928E-02 0. -1.
       -1    1    3    3    0  502  0.44037680952E+02  0.61106812714E+03 -0.21544165001E+03  0.64942950190E+03  0.50400001928E-02 0.  1.
</event>
<event>
 5   0  0.5766027E-04  0.1295762E+04  0.7818609E-02  0.9032933E-01
        1   -1    0    0  501    0  0.00000000000E+00  0.00000000000E+00  0.97321360261E+03  0.97321360262E+03  0.50400001928E-02 0. -1.
       -1   -1    0    0    0  501  0.00000000000E+00  0.00000000000E+00 -0.43130278071E+03  0.43130278073E+03  0.50400001928E-02 0.  1.
    10030    2    1    2    0    0  0.00000000000E+00  0.00000000000E+00  0.54191082190E+03  0.14045163834E+04  0.12957619119E+04 0.  0.
        3    1    3    3  502    0  0.41314548877E+03 -0.29262666867E+03  0.70915069923E+03  0.87132903459E+03  0.10100000352E+00 0. -1.
       -3    1    3    3    0  502 -0.41314548877E+03  0.29262666867E+03 -0.16723987733E+03  0.53318734876E+03  0.10100000352E+00 0.  1.
</event>
<event>
 5   0  0.1031295E-03  0.1315917E+04  0.7818609E-02  0.9017037E-01
       -2   -1    0    0    0  501  0.00000000000E+00  0.00000000000E+00  0.35379446233E+03  0.35379446234E+03  0.25500000920E-02 0.  1.
        2   -1    0    0  501    0  0.00000000000E+00  0.00000000000E+00 -0.12236178138E+04  0.12236178138E+04  0.25500000920E-02 0. -1.
    10030    2    1    2    0    0  0.00000000000E+00  0.00000000000E+00 -0.86982335143E+03  0.15774122761E+04  0.13159167246E+04 0.  0.
        2    1    3    3  502    0 -0.15102627601E+03 -0.30334823257E+03 -0.11109714144E+04  0.11615018596E+04  0.25500000920E-02 0. -1.
       -2    1    3    3    0  502  0.15102627601E+03  0.30334823257E+03  0.24114806299E+03  0.41591041648E+03  0.25500000920E-02 0.  1.
</event>
<event>
 5   0  0.1031295E-03  0.1302160E+04  0.7818609E-02  0.9027854E-01
        2   -1    0    0  501    0  0.00000000000E+00  0.00000000000E+00  0.17792951813E+04  0.17792951813E+04  0.25500000920E-02 0.  1.
       -2   -1    0    0    0  501  0.00000000000E+00  0.00000000000E+00 -0.23824336955E+03  0.23824336956E+03  0.25500000920E-02 0. -1.
    10030    2    1    2    0    0  0.00000000000E+00  0.00000000000E+00  0.15410518118E+04  0.20175385509E+04  0.13021601736E+04 0.  0.
        2    1    3    3  502    0 -0.62698266169E+03  0.91654596582E+02  0.53864938125E+03  0.83165556515E+03  0.25500000920E-02 0. -1.
       -2    1    3    3    0  502  0.62698266169E+03 -0.91654596582E+02  0.10024024305E+04  0.11858829858E+04  0.25500000920E-02 0.  1.
</event>
<event>
 5   0  0.1103241E-03  0.1284127E+04  0.7818609E-02  0.9042248E-01
       -2   -1    0    0    0  501  0.00000000000E+00  0.00000000000E+00  0.30947400917E+03  0.30947400918E+03  0.25500000920E-02 0. -1.
        2   -1    0    0  501    0  0.00000000000E+00  0.00000000000E+00 -0.13320837983E+04  0.13320837983E+04  0.25500000920E-02 0.  1.
    10030    2    1    2    0    0  0.00000000000E+00  0.00000000000E+00 -0.10226097891E+04  0.16415578075E+04  0.12841266505E+04 0.  0.
        4    1    3    3  502    0  0.20927715965E+03  0.56799003181E+03 -0.78498463650E+03  0.99126792455E+03  0.12699999809E+01 0.  1.
       -4    1    3    3    0  502 -0.20927715965E+03 -0.56799003181E+03 -0.23762515262E+03  0.65028988294E+03  0.12699999809E+01 0. -1.
</event>
<event>
 5   0  0.1081574E-03  0.1300872E+04  0.7818609E-02  0.9028874E-01
       -2   -1    0    0    0  501  0.00000000000E+00  0.00000000000E+00  0.29320108416E+03  0.29320108417E+03  0.25500000920E-02 0. -1.
        2   -1    0    0  501    0  0.00000000000E+00  0.00000000000E+00 -0.14429245115E+04  0.14429245115E+04  0.25500000920E-02 0.  1.
    10030    2    1    2    0    0  0.00000000000E+00  0.00000000000E+00 -0.11497234273E+04  0.17361255957E+04  0.13008720631E+04 0.  0.
        5    1    3    3  502    0 -0.41499808549E+03  0.48436469564E+03 -0.40493180258E+03  0.75552923444E+03  0.46999998093E+01 0.  1.
       -5    1    3    3    0  502  0.41499808549E+03 -0.48436469564E+03 -0.74479162474E+03  0.98059636122E+03  0.46999998093E+01 0. -1.
</event>
<event>
 5   0  0.1101619E-03  0.1296238E+04  0.7818609E-02  0.9032553E-01
        2   -1    0    0  501    0  0.00000000000E+00  0.00000000000E+00  0.11338881620E+04  0.11338881620E+04  0.25500000920E-02 0. -1.
       -2   -1    0    0    0  501  0.00000000000E+00  0.00000000000E+00 -0.37045851756E+03  0.37045851757E+03  0.25500000920E-02 0.  1.
    10030    2    1    2    0    0  0.00000000000E+00  0.00000000000E+00  0.76342964440E+03  0.15043466795E+04  0.12962384465E+04 0.  0.
        1    1    3    3  502    0  0.51805299597E+03  0.17181982377E+03  0.78733843051E+03  0.95802023082E+03  0.50400001928E-02 0. -1.
       -1    1    3    3    0  502 -0.51805299597E+03 -0.17181982377E+03 -0.23908786113E+02  0.54632644870E+03  0.50400001928E-02 0.  1.
</event>
<event>
 5   0  0.1081574E-03  0.1299400E+04  0.7818609E-02  0.9030041E-01
        2   -1    0    0  501    0  0.00000000000E+00  0.00000000000E+00  0.11549069411E+04  0.11549069411E+04  0.25500000920E-02 0.  1.
       -2   -1    0    0    0  501  0.00000000000E+00  0.00000000000E+00 -0.36549267200E+03  0.36549267200E+03  0.25500000920E-02 0. -1.
    10030    2    1    2    0    0  0.00000000000E+00  0.00000000000E+00  0.78941426911E+03  0.15203996131E+04  0.12993998981E+04 0.  0.
        5    1    3    3  502    0 -0.81322221085E+02 -0.13798108576E+03 -0.34201103803E+03  0.37768468834E+03  0.46999998093E+01 0. -1.
       -5    1    3    3    0  502  0.81322221085E+02  0.13798108576E+03  0.11314253071E+04  0.11427149248E+04  0.46999998093E+01 0.  1.
</event>
<event>
 5   0  0.6006119E-04  0.1294741E+04  0.7818609E-02  0.9033746E-01
        1   -1    0    0  501    0  0.00000000000E+00  0.00000000000E+00  0.46477418848E+03  0.46477418850E+03  0.50400001928E-02 0.  1.
       -1   -1    0    0    0  501  0.00000000000E+00  0.00000000000E+00 -0.90170367224E+03  0.90170367226E+03  0.50400001928E-02 0. -1.
    10030    2    1    2    0    0  0.00000000000E+00  0.00000000000E+00 -0.43692948377E+03  0.13664778608E+04  0.12947410437E+04 0.  0.
        4    1    3    3  502    0  0.37128185087E+03 -0.43485998786E+03  0.10188811796E+03  0.58080652830E+03  0.12699999809E+01 0.  1.
       -4    1    3    3    0  502 -0.37128185087E+03  0.43485998786E+03 -0.53881760173E+03  0.78567133247E+03  0.12699999809E+01 0. -1.
</event>
<event>
 5   0  0.5812938E-04  0.1311423E+04  0.7818609E-02  0.9020555E-01
       -1   -1    0    0    0  501  0.00000000000E+00  0.00000000000E+00  0.41805665398E+03  0.41805665401E+03  0.50400001928E-02 0. -1.
        1   -1    0    0  501    0  0.00000000000E+00  0.00000000000E+00 -0.10284678493E+04  0.10284678493E+04  0.50400001928E-02 0.  1.
    10030    2    1    2    0    0  0.00000000000E+00  0.00000000000E+00 -0.61041119527E+03  0.14465245033E+04  0.13114233913E+04 0.  0.
        5    1    3    3  502    0 -0.30611249437E+03  0.22940730148E+03 -0.89261163842E+03  0.97113860814E+03  0.46999998093E+01 0.  1.
       -5    1    3    3    0  502  0.30611249437E+03 -0.22940730148E+03  0.28220044315E+03  0.47538589513E+03  0.46999998093E+01 0. -1.
</event>
<event>
 5   0  0.1103241E-03  0.1304626E+04  0.7818609E-02  0.9025905E-01
       -2   -1    0    0    0  501  0.00000000000E+00  0.00000000000E+00  0.27281503783E+03  0.27281503784E+03  0.25500000920E-02 0.  1.
        2   -1    0    0  501    0  0.00000000000E+00  0.00000000000E+00 -0.15597088762E+04  0.15597088762E+04  0.25500000920E-02 0. -1.
    10030    2    1    2    0    0  0.00000000000E+00  0.00000000000E+00 -0.12868938383E+04  0.18325239140E+04  0.13046256721E+04 0.  0.
        4    1    3    3  502    0 -0.48445980168E+03 -0.24406469882E+01 -0.29887652040E+02  0.48538864928E+03  0.12699999809E+01 0.  1.
       -4    1    3    3    0  502  0.48445980168E+03  0.24406469882E+01 -0.12570061863E+04  0.13471352647E+04  0.12699999809E+01 0. -1.
</event>
<event>
 5   0  0.1031295E-03  0.1408992E+04  0.7818609E-02  0.8947335E-01
        2   -1    0    0  501    0  0.00000000000E+00  0.00000000000E+00  0.94332487647E+03  0.94332487648E+03  0.25500000920E-02 0.  1.
       -2   -1    0    0    0  501  0.00000000000E+00  0.00000000000E+00 -0.52613315220E+03  0.52613315221E+03  0.25500000920E-02 0. -1.
    10030    2    1    2    0    0  0.00000000000E+00  0.00000000000E+00  0.41719172427E+03  0.14694580287E+04  0.14089918251E+04 0.  0.
        2    1    3    3  502    0 -0.58970535553E+03 -0.17111397720E+03  0.56878974670E+03  0.83699114422E+03  0.25500000920E-02 0.  1.
       -2    1    3    3    0  502  0.58970535553E+03  0.17111397720E+03 -0.15159802243E+03  0.63246688447E+03  0.25500000920E-02 0. -1.
</event>
<event>
 5   0  0.5812938E-04  0.1298805E+04  0.7818609E-02  0.9030513E-01
       -1   -1    0    0    0  501  0.00000000000E+00  0.00000000000E+00  0.59655297770E+03  0.59655297772E+03  0.50400001928E-02 0.  1.
        1   -1    0    0  501    0  0.00000000000E+00  0.00000000000E+00 -0.70693445988E+03  0.70693445990E+03  0.50400001928E-02 0. -1.
    10030    2    1    2    0    0  0.00000000000E+00  0.00000000000E+00 -0.11038148218E+03  0.13034874376E+04  0.12988053851E+04 0.  0.
        5    1    3    3  502    0  0.55104491593E+03 -0.26784356739E+03  0.16078515080E+03  0.63345452140E+03  0.46999998093E+01 0.  1.
       -5    1    3    3    0  502 -0.55104491593E+03  0.26784356739E+03 -0.27116663298E+03  0.67003291622E+03  0.46999998093E+01 0. -1.
</event>
<event>
 5   0  0.5563545E-04  0.1317328E+04  0.7818609E-02  0.9015936E-01
       -1   -1    0    0    0  501  0.00000000000E+00  0.00000000000E+00  0.63191199362E+03  0.63191199364E+03  0.50400001928E-02 0. -1.
        1   -1    0    0  501    0  0.00000000000E+00  0.00000000000E+00 -0.68654862875E+03  0.68654862876E+03  0.50400001928E-02 0.  1.
    10030    2    1    2    0    0  0.00000000000E+00  0.00000000000E+00 -0.54636635126E+02  0.13184606224E+04  0.13173280726E+04 0.  0.
        2    1    3    3  502    0 -0.15401873968E+03 -0.14387971191E+03  0.59724956718E+03  0.63334839478E+03  0.25500000920E-02 0. -1.
       -2    1    3    3    0  502  0.15401873968E+03  0.14387971191E+03 -0.65188620231E+03  0.68511222762E+03  0.25500000920E-02 0.  1.
</event>
<event>
 5   0  0.1081574E-03  0.1299665E+04  0.7818609E-02  0.9029831E-01
        2   -1    0    0  501    0  0.00000000000E+00  0.00000000000E+00  0.18627149789E+04  0.18627149789E+04  0.25500000920E-02 0.  1.
       -2   -1    0    0    0  501  0.00000000000E+00  0.00000000000E+00 -0.22670272463E+03  0.22670272465E+03  0.25500000920E-02 0. -1.
    10030    2    1    2    0    0  0.00000000000E+00  0.00000000000E+00  0.16360122542E+04  0.20894177035E+04  0.12996654353E+04 0.  0.
        5    1    3    3  502    0  0.30820740316E+02  0.34204055274E+03  0.17048723239E+04  0.17391243166E+04  0.46999998093E+01 0.  1.
       -5    1    3    3    0  502 -0.30820740316E+02 -0.34204055274E+03 -0.68860069645E+02  0.35029338695E+03  0.46999998093E+01 0. -1.
</event>
<event>
 5   0  0.5563545E-04  0.1290969E+04  0.7818609E-02  0.9036758E-01
       -1   -1    0    0    0  501  0.00000000000E+00  0.00000000000E+00  0.15197964008E+04  0.15197964008E+04  0.50400001928E-02 0.  1.
        1   -1    0    0  501    0  0.00000000000E+00  0.00000000000E+00 -0.27414856116E+03  0.27414856121E+03  0.50400001928E-02 0. -1.
    10030    2    1    2    0    0  0.00000000000E+00  0.00000000000E+00  0.12456478397E+04  0.17939449620E+04  0.12909686233E+04 0.  0.
        2    1    3    3  502    0 -0.45188553101E+03  0.22910381821E+03  0.11786006415E+04  0.12828829116E+04  0.25500000920E-02 0.  1.
       -2    1    3    3    0  502  0.45188553101E+03 -0.22910381821E+03  0.67047198189E+02  0.51106205049E+03  0.25500000920E-02 0. -1.
</event>
<event>
 5   0  0.5766027E-04  0.1329315E+04  0.7818609E-02  0.9006636E-01
       -1   -1    0    0    0  501  0.00000000000E+00  0.00000000000E+00  0.59973203216E+03  0.59973203218E+03  0.50400001928E-02 0.  1.
        1   -1    0    0  501    0  0.00000000000E+00  0.00000000000E+00 -0.73661147435E+03  0.73661147437E+03  0.50400001928E-02 0. -1.
    10030    2    1    2    0    0  0.00000000000E+00  0.00000000000E+00 -0.13687944219E+03  0.13363435066E+04  0.13293148558E+04 0.  0.
        3    1    3    3  502    0  0.32288583469E+03  0.76324007466E+02  0.51052979624E+03  0.60886886881E+03  0.10100000352E+00 0.  1.
       -3    1    3    3    0  502 -0.32288583469E+03 -0.76324007466E+02 -0.64740923843E+03  0.72747463774E+03  0.10100000352E+00 0. -1.
</event>
<event>
 5   0  0.5710383E-04  0.1310768E+04  0.7818609E-02  0.9021070E-01
        1   -1    0    0  501    0  0.00000000000E+00  0.00000000000E+00  0.97937656223E+03  0.97937656225E+03  0.50400001928E-02 0. -1.
       -1   -1    0    0    0  501  0.00000000000E+00  0.00000000000E+00 -0.43857293012E+03  0.43857293015E+03  0.50400001928E-02 0.  1.
    10030    2    1    2    0    0  0.00000000000E+00  0.00000000000E+00  0.54080363211E+03  0.14179494924E+04  0.13107677882E+04 0.  0.
        1    1    3    3  502    0  0.52099901226E+03 -0.36008346173E+03  0.88008890335E+02  0.63941038073E+03  0.50400001928E-02 0. -1.
       -1    1    3    3    0  502 -0.52099901226E+03  0.36008346173E+03  0.45279474178E+03  0.77853911166E+03  0.50400001928E-02 0.  1.
</event>
<event>
 5   0  0.1101619E-03  0.1299600E+04  0.7818609E-02  0.9029882E-01
       -2   -1    0    0    0  501  0.00000000000E+00  0.00000000000E+00  0.49826465484E+03  0.49826465485E+03  0.25500000920E-02 0.  1.
        2   -1    0    0  501    0  0.00000000000E+00  0.00000000000E+00 -0.84742165960E+03  0.84742165961E+03  0.25500000920E-02 0. -1.
    10030    2    1    2    0    0  0.00000000000E+00  0.00000000000E+00 -0.34915700476E+03  0.13456863145E+04  0.12996003397E+04 0.  0.
        1    1    3    3  502    0 -0.27741863254E+02  0.61724415247E+03 -0.38291046863E+03  0.72689777943E+03  0.50400001928E-02 0. -1.
       -1    1    3    3    0  502  0.27741863254E+02 -0.61724415247E+03  0.33753463865E+02  0.61878853503E+03  0.50400001928E-02 0.  1.
</event>
<event>
 5   0  0.4012375E-04  0.1298407E+04  0.7818609E-02  0.9030829E-01
       -3   -1    0    0    0  501  0.00000000000E+00  0.00000000000E+00  0.51776155608E+03  0.51776156593E+03  0.10100000352E+00 0. -1.
        3   -1    0    0  501    0  0.00000000000E+00  0.00000000000E+00 -0.81401445413E+03  0.81401446039E+03  0.10100000352E+00 0.  1.
    10030    2    1    2    0    0  0.00000000000E+00  0.00000000000E+00 -0.29625289805E+03  0.13317760263E+04  0.12984073339E+04 0.  0.
        1    1    3    3  502    0 -0.28144464053E+02 -0.61689272189E+03  0.57312420489E+02  0.62018824138E+03  0.50400001928E-02 0. -1.
       -1    1    3    3    0  502  0.28144464053E+02  0.61689272189E+03 -0.35356531854E+03  0.71158778494E+03  0.50400001928E-02 0.  1.
</event>
<event>
 5   0  0.1046253E-03  0.1288739E+04  0.7818609E-02  0.9038543E-01
        2   -1    0    0  501    0  0.00000000000E+00  0.00000000000E+00  0.14898335258E+04  0.14898335258E+04  0.25500000920E-02 0. -1.
       -2   -1    0    0    0  501  0.00000000000E+00  0.00000000000E+00 -0.27869712742E+03  0.27869712743E+03  0.25500000920E-02 0.  1.
    10030    2    1    2    0    0  0.00000000000E+00  0.00000000000E+00  0.12111363984E+04  0.17685306532E+04  0.12887394213E+04 0.  0.
        3    1    3    3  502    0 -0.31663048418E+03  0.47628992476E+03  0.19823609749E+03  0.60531356873E+03  0.10100000352E+00 0.  1.
       -3    1    3    3    0  502  0.31663048418E+03 -0.47628992476E+03  0.10129003009E+04  0.11632170845E+04  0.10100000352E+00 0. -1.
</event>
<event>
 5   0  0.1081574E-03  0.1347450E+04  0.7818609E-02  0.8992761E-01
       -2   -1    0    0    0  501  0.00000000000E+00  0.00000000000E+00  0.60354519332E+03  0.60354519333E+03  0.25500000920E-02 0. -1.
        2   -1    0    0  501    0  0.00000000000E+00  0.00000000000E+00 -0.75206508143E+03  0.75206508144E+03  0.25500000920E-02 0.  1.
    10030    2    1    2    0    0  0.00000000000E+00  0.00000000000E+00 -0.14851988811E+03  0.13556102748E+04  0.13474498358E+04 0.  0.
        5    1    3    3  502    0  0.29493519454E+02  0.67227575136E+03 -0.10699345453E+03  0.68139140211E+03  0.46999998093E+01 0. -1.
       -5    1    3    3    0  502 -0.29493519454E+02 -0.67227575136E+03 -0.41526433579E+02  0.67421887266E+03  0.46999998093E+01 0.  1.
</event>
<event>
 5   0  0.1103241E-03  0.1291632E+04  0.7818609E-02  0.9036228E-01
        2   -1    0    0  501    0  0.00000000000E+00  0.00000000000E+00  0.39756126842E+03  0.39756126843E+03  0.25500000920E-02 0.  1.
       -2   -1    0    0    0  501  0.00000000000E+00  0.00000000000E+00 -0.10490912238E+04  0.10490912238E+04  0.25500000920E-02 0. -1.
    10030    2    1    2    0    0  0.00000000000E+00  0.00000000000E+00 -0.65152995536E+03  0.14466524922E+04  0.12916315847E+04 0.  0.
        4    1    3    3  502    0 -0.14462900047E+03 -0.58824672859E+03 -0.75008998675E+02  0.61039308995E+03  0.12699999809E+01 0.  1.
       -4    1    3    3    0  502  0.14462900047E+03  0.58824672859E+03 -0.57652095669E+03  0.83625940226E+03  0.12699999809E+01 0. -1.
</event>
<event>
 5   0  0.1101619E-03  0.1290626E+04  0.7818609E-02  0.9037032E-01
        2   -1    0    0  501    0  0.00000000000E+00  0.00000000000E+00  0.13185949554E+04  0.13185949554E+04  0.25500000920E-02 0.  1.
       -2   -1    0    0    0  501  0.00000000000E+00  0.00000000000E+00 -0.31581280999E+03  0.31581281000E+03  0.25500000920E-02 0. -1.
    10030    2    1    2    0    0  0.00000000000E+00  0.00000000000E+00  0.10027821454E+04  0.16344077654E+04  0.12906264806E+04 0.  0.
        1    1    3    3  502    0 -0.10407350355E+03 -0.33251054911E+03 -0.18646303405E+03  0.39517467341E+03  0.50400001928E-02 0. -1.
       -1    1    3    3    0  502  0.10407350355E+03  0.33251054911E+03  0.11892451795E+04  0.12392330920E+04  0.50400001928E-02 0.  1.
</event>
<event>
 5   0  0.5563545E-04  0.1300208E+04  0.7818609E-02  0.9029400E-01
       -1   -1    0    0    0  501  0.00000000000E+00  0.00000000000E+00  0.73520422366E+03  0.73520422368E+03  0.50400001928E-02 0.  1.
        1   -1    0    0  501    0  0.00000000000E+00  0.00000000000E+00 -0.57485437290E+03  0.57485437292E+03  0.50400001928E-02 0. -1.
    10030    2    1    2    0    0  0.00000000000E+00  0.00000000000E+00  0.16034985077E+03  0.13100585966E+04  0.13002082340E+04 0.  0.
        2    1    3    3  502    0 -0.40908739009E+03  0.15057224773E+03 -0.40577644439E+03  0.59554934082E+03  0.25500000920E-02 0.  1.
       -2    1    3    3    0  502  0.40908739009E+03 -0.15057224773E+03  0.56612629516E+03  0.71450925578E+03  0.25500000920E-02 0. -1.
</event>
<event>
 5   0  0.5766027E-04  0.1307122E+04  0.7818609E-02  0.9023936E-01
        1   -1    0    0  501    0  0.00000000000E+00  0.00000000000E+00  0.10171614470E+04  0.10171614470E+04  0.50400001928E-02 0. -1.
       -1   -1    0    0    0  501  0.00000000000E+00  0.00000000000E+00 -0.41993547226E+03  0.41993547229E+03  0.50400001928E-02 0.  1.
    10030    2    1    2    0    0  0.00000000000E+00  0.00000000000E+00  0.59722597469E+03  0.14370969193E+04  0.13071222936E+04 0.  0.
        3    1    3    3  502    0 -0.45672941167E+03 -0.19246267088E+03  0.76700166596E+03  0.91320052615E+03  0.10100000352E+00 0. -1.
       -3    1    3    3    0  502  0.45672941167E+03  0.19246267088E+03 -0.16977569127E+03  0.52389639311E+03  0.10100000352E+00 0.  1.
</event>
<event>
 5   0  0.1046253E-03  0.1327595E+04  0.7818609E-02  0.9007964E-01
       -2   -1    0    0    0  501  0.00000000000E+00  0.00000000000E+00  0.83149050289E+03  0.83149050289E+03  0.25500000920E-02 0. -1.
        2   -1    0    0  501    0  0.00000000000E+00  0.00000000000E+00 -0.52992403374E+03  0.52992403375E+03  0.25500000920E-02 0.  1.
    10030    2    1    2    0    0  0.00000000000E+00  0.00000000000E+00  0.30156646915E+03  0.13614145366E+04  0.13275945184E+04 0.  0.
        3    1    3    3  502    0  0.23897594977E+03  0.60664751727E+03  0.27843763980E+03  0.70898395203E+03  0.10100000352E+00 0.  1.
       -3    1    3    3    0  502 -0.23897594977E+03 -0.60664751727E+03  0.23128829350E+02  0.65243058461E+03  0.10100000352E+00 0. -1.
</event>
<event>
 5   0  0.1046253E-03  0.1305026E+04  0.7818609E-02  0.9025589E-01
        2   -1    0    0  501    0  0.00000000000E+00  0.00000000000E+00  0.13692708446E+04  0.13692708446E+04  0.25500000920E-02 0.  1.
       -2   -1    0    0    0  501  0.00000000000E+00  0.00000000000E+00 -0.31094893772E+03  0.31094893773E+03  0.25500000920E-02 0. -1.
    10030    2    1    2    0    0  0.00000000000E+00  0.00000000000E+00  0.10583219068E+04  0.16802197823E+04  0.13050261523E+04 0.  0.
        3    1    3    3  502    0 -0.52012079403E+02  0.42454316732E+03 -0.10529149015E+03  0.44048662343E+03  0.10100000352E+00 0. -1.
       -3    1    3    3    0  502  0.52012079403E+02 -0.42454316732E+03  0.11636133970E+04  0.12397331589E+04  0.10100000352E+00 0.  1.
</event>
<event>
 5   0  0.5563545E-04  0.1292728E+04  0.7818609E-02  0.9035352E-01
       -1   -1    0    0    0  501  0.00000000000E+00  0.00000000000E+00  0.36973582303E+03  0.36973582307E+03  0.50400001928E-02 0. -1.
        1   -1    0    0  501    0  0.00000000000E+00  0.00000000000E+00 -0.11299589594E+04  0.11299589594E+04  0.50400001928E-02 0.  1.
    10030    2    1    2    0    0  0.00000000000E+00  0.00000000000E+00 -0.76022313636E+03  0.14996947825E+04  0.12927278227E+04 0.  0.
        2    1    3    3  502    0  0.46974982384E+03 -0.42912577158E+03 -0.24797978169E+03  0.68286733482E+03  0.25500000920E-02 0. -1.
       -2    1    3    3    0  502 -0.46974982384E+03  0.42912577158E+03 -0.51224335467E+03  0.81682744765E+03  0.25500000920E-02 0.  1.
</event>
<event>
 5   0  0.5710383E-04  0.1297668E+04  0.7818609E-02  0.9031416E-01
        1   -1    0    0  501    0  0.00000000000E+00  0.00000000000E+00  0.46974750665E+03  0.46974750668E+03  0.50400001928E-02 0. -1.
       -1   -1    0    0    0  501  0.00000000000E+00  0.00000000000E+00 -0.89619554423E+03  0.89619554424E+03  0.50400001928E-02 0.  1.
    10030    2    1    2    0    0  0.00000000000E+00  0.00000000000E+00 -0.42644803757E+03  0.13659430509E+04  0.12976680969E+04 0.  0.
        1    1    3    3  502    0  0.90948055339E+02 -0.39546158072E+03 -0.74614618028E+03  0.84935006503E+03  0.50400001928E-02 0.  1.
       -1    1    3    3    0  502 -0.90948055339E+02  0.39546158072E+03  0.31969814270E+03  0.51659298589E+03  0.50400001928E-02 0. -1.
</event>
<event>
 5   0  0.1081574E-03  0.1297562E+04  0.7818609E-02  0.9031501E-01
        2   -1    0    0  501    0  0.00000000000E+00  0.00000000000E+00  0.77417593049E+03  0.77417593049E+03  0.25500000920E-02 0. -1.
       -2   -1    0    0    0  501  0.00000000000E+00  0.00000000000E+00 -0.54369663099E+03  0.54369663100E+03  0.25500000920E-02 0.  1.
    10030    2    1    2    0    0  0.00000000000E+00  0.00000000000E+00  0.23047929949E+03  0.13178725615E+04  0.12975620913E+04 0.  0.
        5    1    3    3  502    0 -0.37846358030E+03  0.44923361125E+03  0.39495794490E+03  0.70785548478E+03  0.46999998093E+01 0. -1.
       -5    1    3    3    0  502  0.37846358030E+03 -0.44923361125E+03 -0.16447864541E+03  0.61001707671E+03  0.46999998093E+01 0.  1.
</event>
<event>
 5   0  0.6006119E-04  0.1293992E+04  0.7818609E-02  0.9034343E-01
       -1   -1    0    0    0  501  0.00000000000E+00  0.00000000000E+00  0.64294673521E+03  0.64294673523E+03  0.50400001928E-02 0.  1.
        1   -1    0    0  501    0  0.00000000000E+00  0.00000000000E+00 -0.65107110899E+03  0.65107110901E+03  0.50400001928E-02 0. -1.
    10030    2    1    2    0    0  0.00000000000E+00  0.00000000000E+00 -0.81243737770E+01  0.12940178442E+04  0.12939923399E+04 0.  0.
        4    1    3    3  502    0 -0.99812129394E+02 -0.17665988956E+03  0.61030426045E+03  0.64315167805E+03  0.12699999809E+01 0.  1.
       -4    1    3    3    0  502  0.99812129394E+02  0.17665988956E+03 -0.61842863423E+03  0.65086616619E+03  0.12699999809E+01 0. -1.
</event>
<event>
 5   0  0.5710383E-04  0.1294825E+04  0.7818609E-02  0.9033679E-01
       -1   -1    0    0    0  501  0.00000000000E+00  0.00000000000E+00  0.22149450144E+03  0.22149450150E+03  0.50400001928E-02 0.  1.
        1   -1    0    0  501    0  0.00000000000E+00  0.00000000000E+00 -0.18923414064E+04  0.18923414064E+04  0.50400001928E-02 0. -1.
    10030    2    1    2    0    0  0.00000000000E+00  0.00000000000E+00 -0.16708469050E+04  0.21138359079E+04  0.12948254190E+04 0.  0.
        1    1    3    3  502    0  0.12089348162E+03  0.61529138696E+03 -0.57246772343E+03  0.84906891308E+03  0.50400001928E-02 0.  1.
       -1    1    3    3    0  502 -0.12089348162E+03 -0.61529138696E+03 -0.10983791816E+04  0.12647669949E+04  0.50400001928E-02 0. -1.
</event>
<event>
 5   0  0.1103241E-03  0.1300978E+04  0.7818609E-02  0.9028790E-01
        2   -1    0    0  501    0  0.00000000000E+00  0.00000000000E+00  0.24738856732E+04  0.24738856732E+04  0.25500000920E-02 0.  1.
       -2   -1    0    0    0  501  0.00000000000E+00  0.00000000000E+00 -0.17104094847E+03  0.17104094849E+03  0.25500000920E-02 0. -1.
    10030    2    1    2    0    0  0.00000000000E+00  0.00000000000E+00  0.23028447247E+04  0.26449266217E+04  0.13009777123E+04 0.  0.
        4    1    3    3  502    0 -0.60871412170E+03  0.17748763380E+03  0.14467327970E+04  0.15795797356E+04  0.12699999809E+01 0.  1.
       -4    1    3    3    0  502  0.60871412170E+03 -0.17748763380E+03  0.85611192767E+03  0.10653468861E+04  0.12699999809E+01 0. -1.
</event>
<event>
 5   0  0.5710383E-04  0.1299955E+04  0.7818609E-02  0.9029601E-01
       -1   -1    0    0    0  501  0.00000000000E+00  0.00000000000E+00  0.48465455420E+03  0.48465455423E+03  0.50400001928E-02 0.  1.
        1   -1    0    0  501    0  0.00000000000E+00  0.00000000000E+00 -0.87169504838E+03  0.87169504839E+03  0.50400001928E-02 0. -1.
    10030    2    1    2    0    0  0.00000000000E+00  0.00000000000E+00 -0.38704049418E+03  0.13563496026E+04  0.12999553455E+04 0.  0.
        1    1    3    3  502    0  0.13031660325E+03 -0.63495243951E+03 -0.24381901023E+03  0.69252778088E+03  0.50400001928E-02 0. -1.
       -1    1    3    3    0  502 -0.13031660325E+03  0.63495243951E+03 -0.14322148395E+03  0.66382182174E+03  0.50400001928E-02 0.  1.
</event>
<event>
 5   0  0.5710383E-04  0.1281143E+04  0.7818609E-02  0.9044654E-01
       -1   -1    0    0    0  501  0.00000000000E+00  0.00000000000E+00  0.12015843564E+04  0.12015843564E+04  0.50400001928E-02 0. -1.
        1   -1    0    0  501    0  0.00000000000E+00  0.00000000000E+00 -0.34149222102E+03  0.34149222106E+03  0.50400001928E-02 0.  1.
    10030    2    1    2    0    0  0.00000000000E+00  0.00000000000E+00  0.86009213535E+03  0.15430765774E+04  0.12811427877E+04 0.  0.
        1    1    3    3  502    0  0.42294733099E+03 -0.44802057285E+03  0.21892347897E+03  0.65386112299E+03  0.50400001928E-02 0.  1.
       -1    1    3    3    0  502 -0.42294733099E+03  0.44802057285E+03  0.64116865638E+03  0.88921545445E+03  0.50400001928E-02 0. -1.
</event>
<event>
 5   0  0.5710383E-04  0.1297364E+04  0.7818609E-02  0.9031658E-01
        1   -1    0    0  501    0  0.00000000000E+00  0.00000000000E+00  0.10380105771E+04  0.10380105771E+04  0.50400001928E-02 0.  1.
       -1   -1    0    0    0  501  0.00000000000E+00  0.00000000000E+00 -0.40537946170E+03  0.40537946174E+03  0.50400001928E-02 0. -1.
    10030    2    1    2    0    0  0.00000000000E+00  0.00000000000E+00  0.63263111537E+03  0.14433900388E+04  0.12973637408E+04 0.  0.
        1    1    3    3  502    0  0.59572294898E+03 -0.21375912529E+03  0.15815493289E+03  0.65237395595E+03  0.50400001928E-02 0. -1.
       -1    1    3    3    0  502 -0.59572294898E+03  0.21375912529E+03  0.47447618247E+03  0.79101608286E+03  0.50400001928E-02 0.  1.
</event>
<event>
 5   0  0.5812938E-04  0.1299665E+04  0.7818609E-02  0.9029831E-01
        1   -1    0    0  501    0  0.00000000000E+00  0.00000000000E+00  0.95472552725E+03  0.95472552726E+03  0.50400001928E-02 0. -1.
       -1   -1    0    0    0  501  0.00000000000E+00  0.00000000000E+00 -0.44230742565E+03  0.44230742568E+03  0.50400001928E-02 0.  1.
    10030    2    1    2    0    0  0.00000000000E+00  0.00000000000E+00  0.51241810160E+03  0.13970329529E+04  0.12996648648E+04 0.  0.
        5    1    3    3  502    0 -0.18653887051E+03 -0.57712315797E+03  0.55152317241E+01  0.60656442152E+03  0.46999998093E+01 0. -1.
       -5    1    3    3    0  502  0.18653887051E+03  0.57712315797E+03  0.50690286987E+03  0.79046853142E+03  0.46999998093E+01 0.  1.
</event>
<event>
 5   0  0.5812938E-04  0.1301536E+04  0.7818609E-02  0.9028348E-01
        1   -1    0    0  501    0  0.00000000000E+00  0.00000000000E+00  0.76755658813E+03  0.76755658815E+03  0.50400001928E-02 0. -1.
       -1   -1    0    0    0  501  0.00000000000E+00  0.00000000000E+00 -0.55174969210E+03  0.55174969212E+03  0.50400001928E-02 0.  1.
    10030    2    1    2    0    0  0.00000000000E+00  0.00000000000E+00  0.21580689603E+03  0.13193062803E+04  0.13015361865E+04 0.  0.
        5    1    3    3  502    0  0.94851124260E+02 -0.63602610857E+03  0.67864019130E+01  0.64311281422E+03  0.46999998093E+01 0. -1.
       -5    1    3    3    0  502 -0.94851124260E+02  0.63602610857E+03  0.20902049412E+03  0.67619346605E+03  0.46999998093E+01 0.  1.
</event>
<event>
 5   0  0.5563545E-04  0.1299533E+04  0.7818609E-02  0.9029935E-01
       -1   -1    0    0    0  501  0.00000000000E+00  0.00000000000E+00  0.14831443577E+04  0.14831443577E+04  0.50400001928E-02 0.  1.
        1   -1    0    0  501    0  0.00000000000E+00  0.00000000000E+00 -0.28466318593E+03  0.28466318598E+03  0.50400001928E-02 0. -1.
    10030    2    1    2    0    0  0.00000000000E+00  0.00000000000E+00  0.11984811718E+04  0.17678075437E+04  0.12995331440E+04 0.  0.
        2    1    3    3  502    0  0.31591636189E+03  0.51890774769E+03  0.91279301705E+03  0.10964759415E+04  0.25500000920E-02 0.  1.
       -2    1    3    3    0  502 -0.31591636189E+03 -0.51890774769E+03  0.28568815470E+03  0.67133160216E+03  0.25500000920E-02 0. -1.
</event>
<event>
 5   0  0.5563545E-04  0.1299584E+04  0.7818609E-02  0.9029895E-01
       -1   -1    0    0    0  501  0.00000000000E+00  0.00000000000E+00  0.20133370799E+03  0.20133370806E+03  0.50400001928E-02 0. -1.
        1   -1    0    0  501    0  0.00000000000E+00  0.00000000000E+00 -0.20971648026E+04  0.20971648026E+04  0.50400001928E-02 0.  1.
    10030    2    1    2    0    0  0.00000000000E+00  0.00000000000E+00 -0.18958310946E+04  0.22984985106E+04  0.12995844968E+04 0.  0.
        2    1    3    3  502    0 -0.49675283926E+03  0.26484839710E+03 -0.37393249872E+03  0.67582066435E+03  0.25500000920E-02 0. -1.
       -2    1    3    3    0  502  0.49675283926E+03 -0.26484839710E+03 -0.15218985959E+04  0.16226778463E+04  0.25500000920E-02 0.  1.
</event>
<event>
 5   0  0.5563545E-04  0.1291493E+04  0.7818609E-02  0.9036338E-01
       -1   -1    0    0    0  501  0.00000000000E+00  0.00000000000E+00  0.50680515237E+03  0.50680515240E+03  0.50400001928E-02 0.  1.
        1   -1    0    0  501    0  0.00000000000E+00  0.00000000000E+00 -0.82277943747E+03  0.82277943748E+03  0.50400001928E-02 0. -1.
    10030    2    1    2    0    0  0.00000000000E+00  0.00000000000E+00 -0.31597428510E+03  0.13295845899E+04  0.12914934893E+04 0.  0.
        2    1    3    3  502    0 -0.50400549253E+02  0.63627219156E+03 -0.25888983454E+03  0.68877170641E+03  0.25500000920E-02 0. -1.
       -2    1    3    3    0  502  0.50400549253E+02 -0.63627219156E+03 -0.57084450555E+02  0.64081288347E+03  0.25500000920E-02 0.  1.
</event>
<event>
 5   0  0.1081574E-03  0.1318818E+04  0.7818609E-02  0.9014774E-01
       -2   -1    0    0    0  501  0.00000000000E+00  0.00000000000E+00  0.31365969892E+03  0.31365969893E+03  0.25500000920E-02 0.  1.
        2   -1    0    0  501    0  0.00000000000E+00  0.00000000000E+00 -0.13862806563E+04  0.13862806563E+04  0.25500000920E-02 0. -1.
    10030    2    1    2    0    0  0.00000000000E+00  0.00000000000E+00 -0.10726209573E+04  0.16999403552E+04  0.13188182184E+04 0.  0.
        5    1    3    3  502    0 -0.27704610038E+03  0.35732877061E+03 -0.11549706796E+04  0.12403296952E+04  0.46999998093E+01 0. -1.
       -5    1    3    3    0  502  0.27704610038E+03 -0.35732877061E+03  0.82349722241E+02  0.45961066001E+03  0.46999998093E+01 0.  1.
</event>
<event>
 5   0  0.5710383E-04  0.1303739E+04  0.7818609E-02  0.9026606E-01
        1   -1    0    0  501    0  0.00000000000E+00  0.00000000000E+00  0.88501230895E+03  0.88501230896E+03  0.50400001928E-02 0. -1.
       -1   -1    0    0    0  501  0.00000000000E+00  0.00000000000E+00 -0.48014429643E+03  0.48014429646E+03  0.50400001928E-02 0.  1.
    10030    2    1    2    0    0  0.00000000000E+00  0.00000000000E+00  0.40486801252E+03  0.13651566054E+04  0.13037386432E+04 0.  0.
        1    1    3    3  502    0 -0.98155627693E+02  0.14078222182E+03 -0.45606314102E+03  0.48728610677E+03  0.50400001928E-02 0.  1.
       -1    1    3    3    0  502  0.98155627693E+02 -0.14078222182E+03  0.86093115354E+03  0.87787049865E+03  0.50400001928E-02 0. -1.
</event>
<event>
 5   0  0.4012375E-04  0.1294311E+04  0.7818609E-02  0.9034088E-01
       -3   -1    0    0    0  501  0.00000000000E+00  0.00000000000E+00  0.25514134046E+03  0.25514136045E+03  0.10100000352E+00 0.  1.
        3   -1    0    0  501    0  0.00000000000E+00  0.00000000000E+00 -0.16414842788E+04  0.16414842819E+04  0.10100000352E+00 0. -1.
    10030    2    1    2    0    0  0.00000000000E+00  0.00000000000E+00 -0.13863429383E+04  0.18966256423E+04  0.12943114326E+04 0.  0.
        2    1    3    3  502    0 -0.26438661376E+03  0.80050504317E+01 -0.15586569830E+04  0.15809414768E+04  0.25500000920E-02 0. -1.
       -2    1    3    3    0  502  0.26438661376E+03 -0.80050504317E+01  0.17231404469E+03  0.31568416554E+03  0.25500000920E-02 0.  1.
</event>
<event>
 5   0  0.1081574E-03  0.1312111E+04  0.7818609E-02  0.9020016E-01
        2   -1    0    0  501    0  0.00000000000E+00  0.00000000000E+00  0.15915356535E+04  0.15915356535E+04  0.25500000920E-02 0.  1.
       -2   -1    0    0    0  501  0.00000000000E+00  0.00000000000E+00 -0.27043630181E+03  0.27043630182E+03  0.25500000920E-02 0. -1.
    10030    2    1    2    0    0  0.00000000000E+00  0.00000000000E+00  0.13210993517E+04  0.18619719553E+04  0.13121113007E+04 0.  0.
        5    1    3    3  502    0 -0.28685052525E+03 -0.57031177324E+03  0.87505017221E+03  0.10831775646E+04  0.46999998093E+01 0. -1.
       -5    1    3    3    0  502  0.28685052525E+03  0.57031177324E+03  0.44604917945E+03  0.77879439071E+03  0.46999998093E+01 0.  1.
</event>
<event>
 5   0  0.6006119E-04  0.1300162E+04  0.7818609E-02  0.9029437E-01
        1   -1    0    0  501    0  0.00000000000E+00  0.00000000000E+00  0.48837431273E+03  0.48837431275E+03  0.50400001928E-02 0.  1.
       -1   -1    0    0    0  501  0.00000000000E+00  0.00000000000E+00 -0.86533049007E+03  0.86533049009E+03  0.50400001928E-02 0. -1.
    10030    2    1    2    0    0  0.00000000000E+00  0.00000000000E+00 -0.37695617735E+03  0.13537048028E+04  0.13001618105E+04 0.  0.
        4    1    3    3  502    0 -0.54796028671E+03 -0.25510190400E+03 -0.43763642265E+03  0.74623368228E+03  0.12699999809E+01 0. -1.
       -4    1    3    3    0  502  0.54796028671E+03  0.25510190400E+03  0.60680245309E+02  0.60747112056E+03  0.12699999809E+01 0.  1.
</event>
<event>
 5   0  0.1103241E-03  0.1300672E+04  0.7818609E-02  0.9029033E-01
        2   -1    0    0  501    0  0.00000000000E+00  0.00000000000E+00  0.15951946051E+04  0.15951946051E+04  0.25500000920E-02 0. -1.
       -2   -1    0    0    0  501  0.00000000000E+00  0.00000000000E+00 -0.26513166872E+03  0.26513166873E+03  0.25500000920E-02 0.  1.
    10030    2    1    2    0    0  0.00000000000E+00  0.00000000000E+00  0.13300629364E+04  0.18603262739E+04  0.13006715306E+04 0.  0.
        4    1    3    3  502    0  0.63511247645E+03  0.12804715546E+03  0.58448918876E+03  0.87257845289E+03  0.12699999809E+01 0. -1.
       -4    1    3    3    0  502 -0.63511247645E+03 -0.12804715546E+03  0.74557374765E+03  0.98774782098E+03  0.12699999809E+01 0.  1.
</event>
<event>
 5   0  0.1101619E-03  0.1238971E+04  0.7818609E-02  0.9079413E-01
       -2   -1    0    0    0  501  0.00000000000E+00  0.00000000000E+00  0.30306964988E+03  0.30306964989E+03  0.25500000920E-02 0.  1.
        2   -1    0    0  501    0  0.00000000000E+00  0.00000000000E+00 -0.12662514080E+04  0.12662514080E+04  0.25500000920E-02 0. -1.
    10030    2    1    2    0    0  0.00000000000E+00  0.00000000000E+00 -0.96318175810E+03  0.15693210579E+04  0.12389711391E+04 0.  0.
        1    1    3    3  502    0 -0.52283601442E+03  0.23179763148E+03 -0.18005059063E+03  0.59958807121E+03  0.50400001928E-02 0.  1.
       -1    1    3    3    0  502  0.52283601442E+03 -0.23179763148E+03 -0.78313116747E+03  0.96973298666E+03  0.50400001928E-02 0. -1.
</event>
<event>
 5   0  0.5766027E-04  0.1295249E+04  0.7818609E-02  0.9033341E-01
        1   -1    0    0  501    0  0.00000000000E+00  0.00000000000E+00  0.55993864574E+03  0.55993864577E+03  0.50400001928E-02 0. -1.
       -1   -1    0    0    0  501  0.00000000000E+00  0.00000000000E+00 -0.74904166263E+03  0.74904166265E+03  0.50400001928E-02 0.  1.
    10030    2    1    2    0    0  0.00000000000E+00  0.00000000000E+00 -0.18910301689E+03  0.13089803084E+04  0.12952488166E+04 0.  0.
        3    1    3    3  502    0 -0.28477486828E+03  0.47055709669E+03  0.25097466865E+03  0.60457340444E+03  0.10100000352E+00 0. -1.
       -3    1    3    3    0  502  0.28477486828E+03 -0.47055709669E+03 -0.44007768554E+03  0.70440690397E+03  0.10100000352E+00 0.  1.
</event>
<event>
 5   0  0.1046253E-03  0.1309273E+04  0.7818609E-02  0.9022244E-01
       -2   -1    0    0    0  501  0.00000000000E+00  0.00000000000E+00  0.74585107403E+03  0.74585107404E+03  0.25500000920E-02 0. -1.
        2   -1    0    0  501    0  0.00000000000E+00  0.00000000000E+00 -0.57457707623E+03  0.57457707624E+03  0.25500000920E-02 0.  1.
    10030    2    1    2    0    0  0.00000000000E+00  0.00000000000E+00  0.17127399780E+03  0.13204281503E+04  0.13092729730E+04 0.  0.
        3    1    3    3  502    0 -0.79140589515E+02 -0.64983010695E+03  0.88211870539E+02  0.66054806420E+03  0.10100000352E+00 0.  1.
       -3    1    3    3    0  502  0.79140589515E+02  0.64983010695E+03  0.83062127261E+02  0.65988008607E+03  0.10100000352E+00 0. -1.
</event>
<event>
 5   0  0.6006119E-04  0.1309407E+04  0.7818609E-02  0.9022139E-01
        1   -1    0    0  501    0  0.00000000000E+00  0.00000000000E+00  0.14423800724E+04  0.14423800725E+04  0.50400001928E-02 0.  1.
       -1   -1    0    0    0  501  0.00000000000E+00  0.00000000000E+00 -0.29717297712E+03  0.29717297717E+03  0.50400001928E-02 0. -1.
    10030    2    1    2    0    0  0.00000000000E+00  0.00000000000E+00  0.11452070953E+04  0.17395530496E+04  0.13094065531E+04 0.  0.
        4    1    3    3  502    0  0.13791137167E+03  0.48855967267E+03  0.11218478230E+04  0.12313627617E+04  0.12699999809E+01 0.  1.
       -4    1    3    3    0  502 -0.13791137167E+03 -0.48855967267E+03  0.23359272355E+02  0.50819028789E+03  0.12699999809E+01 0. -1.
</event>
<event>
 5   0  0.1031295E-03  0.1296651E+04  0.7818609E-02  0.9032225E-01
        2   -1    0    0  501    0  0.00000000000E+00  0.00000000000E+00  0.52614995918E+03  0.52614995918E+03  0.25500000920E-02 0. -1.
       -2   -1    0    0    0  501  0.00000000000E+00  0.00000000000E+00 -0.79887106775E+03  0.79887106775E+03  0.25500000920E-02 0.  1.
    10030    2    1    2    0    0  0.00000000000E+00  0.00000000000E+00 -0.27272110857E+03  0.13250210269E+04  0.12966510397E+04 0.  0.
        2    1    3    3  502    0  0.39749429950E+03  0.51141279223E+03 -0.16492235846E+03  0.66838921783E+03  0.25500000920E-02 0. -1.
       -2    1    3    3    0  502 -0.39749429950E+03 -0.51141279223E+03 -0.10779875011E+03  0.65663180910E+03  0.25500000920E-02 0.  1.
</event>
<event>
 5   0  0.6006119E-04  0.1308882E+04  0.7818609E-02  0.9022551E-01
        1   -1    0    0  501    0  0.00000000000E+00  0.00000000000E+00  0.49850167032E+03  0.49850167035E+03  0.50400001928E-02 0. -1.
       -1   -1    0    0    0  501  0.00000000000E+00  0.00000000000E+00 -0.85916100906E+03  0.85916100907E+03  0.50400001928E-02 0.  1.
    10030    2    1    2    0    0  0.00000000000E+00  0.00000000000E+00 -0.36065933873E+03  0.13576626794E+04  0.13088822684E+04 0.  0.
        4    1    3    3  502    0  0.71911804978E+02  0.24000353133E+03 -0.80744299031E+03  0.84542226032E+03  0.12699999809E+01 0.  1.
       -4    1    3    3    0  502 -0.71911804978E+02 -0.24000353133E+03  0.44678365157E+03  0.51224041910E+03  0.12699999809E+01 0. -1.
</event>
<event>
 5   0  0.6006119E-04  0.1299005E+04  0.7818609E-02  0.9030355E-01
        1   -1    0    0  501    0  0.00000000000E+00  0.00000000000E+00  0.86259402792E+03  0.86259402793E+03  0.50400001928E-02 0.  1.
       -1   -1    0    0    0  501  0.00000000000E+00  0.00000000000E+00 -0.48905217701E+03  0.48905217704E+03  0.50400001928E-02 0. -1.
    10030    2    1    2    0    0  0.00000000000E+00  0.00000000000E+00  0.37354185090E+03  0.13516462050E+04  0.12990049842E+04 0.  0.
        4    1    3    3  502    0  0.54548520150E+03  0.33455751917E+03  0.71047805787E+02  0.64384178359E+03  0.12699999809E+01 0.  1.
       -4    1    3    3    0  502 -0.54548520150E+03 -0.33455751917E+03  0.30249404512E+03  0.70780442138E+03  0.12699999809E+01 0. -1.
</event>
<event>
 5   0  0.5563545E-04  0.1314325E+04  0.7818609E-02  0.9018282E-01
        1   -1    0    0  501    0  0.00000000000E+00  0.00000000000E+00  0.32259878345E+03  0.32259878349E+03  0.50400001928E-02 0.  1.
       -1   -1    0    0    0  501  0.00000000000E+00  0.00000000000E+00 -0.13386993442E+04  0.13386993442E+04  0.50400001928E-02 0. -1.
    10030    2    1    2    0    0  0.00000000000E+00  0.00000000000E+00 -0.10161005608E+04  0.16612981277E+04  0.13143253477E+04 0.  0.
        2    1    3    3  502    0 -0.59953758836E+03  0.37955864044E+02 -0.84479666175E+03  0.10366134126E+04  0.25500000920E-02 0. -1.
       -2    1    3    3    0  502  0.59953758836E+03 -0.37955864044E+02 -0.17130389903E+03  0.62468471512E+03  0.25500000920E-02 0.  1.
</event>
<event>
 5   0  0.1031295E-03  0.1296617E+04  0.7818609E-02  0.9032252E-01
       -2   -1    0    0    0  501  0.00000000000E+00  0.00000000000E+00  0.66032090030E+03  0.66032090030E+03  0.25500000920E-02 0. -1.
        2   -1    0    0  501    0  0.00000000000E+00  0.00000000000E+00 -0.63651507584E+03  0.63651507585E+03  0.25500000920E-02 0.  1.
    10030    2    1    2    0    0  0.00000000000E+00  0.00000000000E+00  0.23805824453E+02  0.12968359761E+04  0.12966174578E+04 0.  0.
        2    1    3    3  502    0  0.16998401004E+03  0.76177948157E+01  0.63758936184E+03  0.65990362084E+03  0.25500000920E-02 0. -1.
       -2    1    3    3    0  502 -0.16998401004E+03 -0.76177948157E+01 -0.61378353738E+03  0.63693235531E+03  0.25500000920E-02 0.  1.
</event>
<event>
 5   0  0.1101619E-03  0.1297957E+04  0.7818609E-02  0.9031187E-01
        2   -1    0    0  501    0  0.00000000000E+00  0.00000000000E+00  0.87937431076E+03  0.87937431076E+03  0.25500000920E-02 0. -1.
       -2   -1    0    0    0  501  0.00000000000E+00  0.00000000000E+00 -0.47894626482E+03  0.47894626483E+03  0.25500000920E-02 0.  1.
    10030    2    1    2    0    0  0.00000000000E+00  0.00000000000E+00  0.40042804594E+03  0.13583205756E+04  0.12979569200E+04 0.  0.
        1    1    3    3  502    0 -0.20718663959E+03  0.58453944286E+03  0.40031413766E+03  0.73814908570E+03  0.50400001928E-02 0. -1.
       -1    1    3    3    0  502  0.20718663959E+03 -0.58453944286E+03  0.11390828013E+00  0.62017148990E+03  0.50400001928E-02 0.  1.
</event>
<event>
 5   0  0.4012375E-04  0.1302644E+04  0.7818609E-02  0.9027471E-01
        4   -1    0    0  501    0  0.00000000000E+00  0.00000000000E+00  0.10621650203E+04  0.10621657795E+04  0.12699999809E+01 0.  1.
       -4   -1    0    0    0  501  0.00000000000E+00  0.00000000000E+00 -0.39939010185E+03  0.39939212105E+03  0.12699999809E+01 0. -1.
    10030    2    1    2    0    0  0.00000000000E+00  0.00000000000E+00  0.66277491843E+03  0.14615579006E+04  0.13026438133E+04 0.  0.
        4    1    3    3  502    0  0.42357710964E+03  0.49316998161E+02  0.88375578978E+03  0.98126227024E+03  0.12699999809E+01 0.  1.
       -4    1    3    3    0  502 -0.42357710964E+03 -0.49316998161E+02 -0.22098087135E+03  0.48029563034E+03  0.12699999809E+01 0. -1.
</event>
<event>
 5   0  0.1101619E-03  0.1298659E+04  0.7818609E-02  0.9030629E-01
        2   -1    0    0  501    0  0.00000000000E+00  0.00000000000E+00  0.14225774585E+04  0.14225774586E+04  0.25500000920E-02 0. -1.
       -2   -1    0    0    0  501  0.00000000000E+00  0.00000000000E+00 -0.29638374393E+03  0.29638374395E+03  0.25500000920E-02 0.  1.
    10030    2    1    2    0    0  0.00000000000E+00  0.00000000000E+00  0.11261937146E+04  0.17189612025E+04  0.12986590518E+04 0.  0.
        1    1    3    3  502    0 -0.42767780258E+03  0.10909279654E+03 -0.67295476455E+02  0.44647309242E+03  0.50400001928E-02 0.  1.
       -1    1    3    3    0  502  0.42767780258E+03 -0.10909279654E+03  0.11934891911E+04  0.12724881101E+04  0.50400001928E-02 0. -1.
</event>
<event>
 5   0  0.5710383E-04  0.1299810E+04  0.7818609E-02  0.9029716E-01
       -1   -1    0    0    0  501  0.00000000000E+00  0.00000000000E+00  0.50412229910E+03  0.50412229912E+03  0.50400001928E-02 0. -1.
        1   -1    0    0  501    0  0.00000000000E+00  0.00000000000E+00 -0.83784491909E+03  0.83784491911E+03  0.50400001928E-02 0.  1.
    10030    2    1    2    0    0  0.00000000000E+00  0.00000000000E+00 -0.33372261999E+03  0.13419672182E+04  0.12998096890E+04 0.  0.
        1    1    3    3  502    0 -0.32615980410E+02  0.64513089455E+03 -0.92996232191E+02  0.65261471980E+03  0.50400001928E-02 0. -1.
       -1    1    3    3    0  502  0.32615980410E+02 -0.64513089455E+03 -0.24072638780E+03  0.68935249843E+03  0.50400001928E-02 0.  1.
</event>
<event>
 5   0  0.1081574E-03  0.1291466E+04  0.7818609E-02  0.9036360E-01
       -2   -1    0    0    0  501  0.00000000000E+00  0.00000000000E+00  0.34239984659E+03  0.34239984660E+03  0.25500000920E-02 0. -1.
        2   -1    0    0  501    0  0.00000000000E+00  0.00000000000E+00 -0.12177893251E+04  0.12177893251E+04  0.25500000920E-02 0.  1.
    10030    2    1    2    0    0  0.00000000000E+00  0.00000000000E+00 -0.87538947846E+03  0.15601891717E+04  0.12914656450E+04 0.  0.
        5    1    3    3  502    0  0.38435931556E+03 -0.36906057682E+02  0.18754128775E+03  0.42928774168E+03  0.46999998093E+01 0. -1.
       -5    1    3    3    0  502 -0.38435931556E+03  0.36906057682E+02 -0.10629307662E+04  0.11309014300E+04  0.46999998093E+01 0.  1.
</event>
<event>
 5   0  0.4012375E-04  0.1316480E+04  0.7818609E-02  0.9016598E-01
       -3   -1    0    0    0  501  0.00000000000E+00  0.00000000000E+00  0.76325338283E+03  0.76325338951E+03  0.10100000352E+00 0.  1.
        3   -1    0    0  501    0  0.00000000000E+00  0.00000000000E+00 -0.56767460375E+03  0.56767461273E+03  0.10100000352E+00 0. -1.
    10030    2    1    2    0    0  0.00000000000E+00  0.00000000000E+00  0.19557877908E+03  0.13309280022E+04  0.13164795055E+04 0.  0.
        4    1    3    3  502    0  0.14365611167E+03  0.22077606545E+03 -0.51207149246E+03  0.57584544436E+03  0.12699999809E+01 0. -1.
       -4    1    3    3    0  502 -0.14365611167E+03 -0.22077606545E+03  0.70765027155E+03  0.75508255788E+03  0.12699999809E+01 0.  1.
</event>
<event>
 5   0  0.1103241E-03  0.1287223E+04  0.7818609E-02  0.9039759E-01
       -2   -1    0    0    0  501  0.00000000000E+00  0.00000000000E+00  0.38042554507E+03  0.38042554508E+03  0.25500000920E-02 0.  1.
        2   -1    0    0  501    0  0.00000000000E+00  0.00000000000E+00 -0.10888748182E+04  0.10888748182E+04  0.25500000920E-02 0. -1.
    10030    2    1    2    0    0  0.00000000000E+00  0.00000000000E+00 -0.70844927310E+03  0.14693003632E+04  0.12872230517E+04 0.  0.
        4    1    3    3  502    0 -0.10916473232E+01 -0.34355309556E+03 -0.97545464930E+03  0.10341872688E+04  0.12699999809E+01 0. -1.
       -4    1    3    3    0  502  0.10916473232E+01  0.34355309556E+03  0.26700537620E+03  0.43511309447E+03  0.12699999809E+01 0.  1.
</event>
<event>
 5   0  0.1103241E-03  0.1295717E+04  0.7818609E-02  0.9032969E-01
       -2   -1    0    0    0  501  0.00000000000E+00  0.00000000000E+00  0.31201828948E+03  0.31201828949E+03  0.25500000920E-02 0. -1.
        2   -1    0    0  501    0  0.00000000000E+00  0.00000000000E+00 -0.13451785678E+04  0.13451785678E+04  0.25500000920E-02 0.  1.
    10030    2    1    2    0    0  0.00000000000E+00  0.00000000000E+00 -0.10331602783E+04  0.16571968573E+04  0.12957165057E+04 0.  0.
        4    1    3    3  502    0  0.49442685702E+03  0.36521045881E+03 -0.25483515417E+03  0.66541653486E+03  0.12699999809E+01 0. -1.
       -4    1    3    3    0  502 -0.49442685702E+03 -0.36521045881E+03 -0.77832512418E+03  0.99178032245E+03  0.12699999809E+01 0.  1.
</event>
<event>
 5   0  0.5563545E-04  0.1283156E+04  0.7818609E-02  0.9043031E-01
       -1   -1    0    0    0  501  0.00000000000E+00  0.00000000000E+00  0.31282339235E+03  0.31282339239E+03  0.50400001928E-02 0. -1.
        1   -1    0    0  501    0  0.00000000000E+00  0.00000000000E+00 -0.13158290770E+04  0.13158290770E+04  0.50400001928E-02 0.  1.
    10030    2    1    2    0    0  0.00000000000E+00  0.00000000000E+00 -0.10030056847E+04  0.16286524694E+04  0.12831556658E+04 0.  0.
        2    1    3    3  502    0 -0.15023636817E+02 -0.62272060645E+03 -0.69655340621E+03  0.93444813183E+03  0.25500000920E-02 0.  1.
       -2    1    3    3    0  502  0.15023636817E+02  0.62272060645E+03 -0.30645227847E+03  0.69420433760E+03  0.25500000920E-02 0. -1.
</event>
<event>
 5   0  0.5710383E-04  0.1302718E+04  0.7818609E-02  0.9027413E-01
        1   -1    0    0  501    0  0.00000000000E+00  0.00000000000E+00  0.14464162708E+04  0.14464162709E+04  0.50400001928E-02 0. -1.
       -1   -1    0    0    0  501  0.00000000000E+00  0.00000000000E+00 -0.29332393848E+03  0.29332393853E+03  0.50400001928E-02 0.  1.
    10030    2    1    2    0    0  0.00000000000E+00  0.00000000000E+00  0.11530923324E+04  0.17397402094E+04  0.13027179546E+04 0.  0.
        1    1    3    3  502    0  0.62356346170E+03  0.18823253305E+03  0.57337460002E+03  0.86776800427E+03  0.50400001928E-02 0.  1.
       -1    1    3    3    0  502 -0.62356346170E+03 -0.18823253305E+03  0.57971773235E+03  0.87197220511E+03  0.50400001928E-02 0. -1.
</event>
<event>
 5   0  0.5812938E-04  0.1286835E+04  0.7818609E-02  0.9040071E-01
        1   -1    0    0  501    0  0.00000000000E+00  0.00000000000E+00  0.13233757633E+04  0.13233757633E+04  0.50400001928E-02 0.  1.
       -1   -1    0    0    0  501  0.00000000000E+00  0.00000000000E+00 -0.31282590047E+03  0.31282590051E+03  0.50400001928E-02 0. -1.
    10030    2    1    2    0    0  0.00000000000E+00  0.00000000000E+00  0.10105498629E+04  0.16362016638E+04  0.12868352107E+04 0.  0.
        5    1    3    3  502    0  0.24174825156E+03  0.55167886877E+03  0.21764670389E+03  0.64045606336E+03  0.46999998093E+01 0. -1.
       -5    1    3    3    0  502 -0.24174825156E+03 -0.55167886877E+03  0.79290315898E+03  0.99574560049E+03  0.46999998093E+01 0.  1.
</event>
<event>
 5   0  0.1103241E-03  0.1265610E+04  0.7818609E-02  0.9057290E-01
       -2   -1    0    0    0  501  0.00000000000E+00  0.00000000000E+00  0.15304296262E+03  0.15304296264E+03  0.25500000920E-02 0.  1.
        2   -1    0    0  501    0  0.00000000000E+00  0.00000000000E+00 -0.26165364096E+04  0.26165364096E+04  0.25500000920E-02 0. -1.
    10030    2    1    2    0    0  0.00000000000E+00  0.00000000000E+00 -0.24634934470E+04  0.27695793723E+04  0.12656104993E+04 0.  0.
        4    1    3    3  502    0 -0.30259445093E+03 -0.28748640305E+03 -0.22725961823E+04  0.23106074644E+04  0.12699999809E+01 0. -1.
       -4    1    3    3    0  502  0.30259445093E+03  0.28748640305E+03 -0.19089726469E+03  0.45897190790E+03  0.12699999809E+01 0.  1.
</event>
<event>
 5   0  0.1081574E-03  0.1300564E+04  0.7818609E-02  0.9029118E-01
       -2   -1    0    0    0  501  0.00000000000E+00  0.00000000000E+00  0.32551331155E+03  0.32551331156E+03  0.25500000920E-02 0.  1.
        2   -1    0    0  501    0  0.00000000000E+00  0.00000000000E+00 -0.12990755035E+04  0.12990755035E+04  0.25500000920E-02 0. -1.
    10030    2    1    2    0    0  0.00000000000E+00  0.00000000000E+00 -0.97356219192E+03  0.16245888150E+04  0.13005635226E+04 0.  0.
        5    1    3    3  502    0  0.51741640265E+03  0.36479015747E+03 -0.67228055201E+03  0.92345807881E+03  0.46999998093E+01 0. -1.
       -5    1    3    3    0  502 -0.51741640265E+03 -0.36479015747E+03 -0.30128163991E+03  0.70113073622E+03  0.46999998093E+01 0.  1.
</event>
<event>
 5   0  0.1101619E-03  0.1292827E+04  0.7818609E-02  0.9035272E-01
       -2   -1    0    0    0  501  0.00000000000E+00  0.00000000000E+00  0.32554747667E+03  0.32554747668E+03  0.25500000920E-02 0. -1.
        2   -1    0    0  501    0  0.00000000000E+00  0.00000000000E+00 -0.12835322277E+04  0.12835322277E+04  0.25500000920E-02 0.  1.
    10030    2    1    2    0    0  0.00000000000E+00  0.00000000000E+00 -0.95798475106E+03  0.16090797044E+04  0.12928274099E+04 0.  0.
        1    1    3    3  502    0  0.11458978339E+03 -0.48941396778E+03 -0.98485653870E+03  0.11057121018E+04  0.50400001928E-02 0.  1.
       -1    1    3    3    0  502 -0.11458978339E+03  0.48941396778E+03  0.26871787642E+02  0.50336760256E+03  0.50400001928E-02 0. -1.
</event>
<event>
 5   0  0.1101619E-03  0.1295233E+04  0.7818609E-02  0.9033354E-01
        2   -1    0    0  501    0  0.00000000000E+00  0.00000000000E+00  0.81683999130E+03  0.81683999131E+03  0.25500000920E-02 0.  1.
       -2   -1    0    0    0  501  0.00000000000E+00  0.00000000000E+00 -0.51345042311E+03  0.51345042312E+03  0.25500000920E-02 0. -1.
    10030    2    1    2    0    0  0.00000000000E+00  0.00000000000E+00  0.30338956819E+03  0.13302904144E+04  0.12952325492E+04 0.  0.
        1    1    3    3  502    0  0.98178808636E+02 -0.39481013111E+03 -0.36582128223E+03  0.54711911742E+03  0.50400001928E-02 0. -1.
       -1    1    3    3    0  502 -0.98178808636E+02  0.39481013111E+03  0.66921085042E+03  0.78317129700E+03  0.50400001928E-02 0.  1.
</event>
<event>
 5   0  0.5812938E-04  0.1302570E+04  0.7818609E-02  0.9027529E-01
        1   -1    0    0  501    0  0.00000000000E+00  0.00000000000E+00  0.68077809663E+03  0.68077809665E+03  0.50400001928E-02 0. -1.
       -1   -1    0    0    0  501  0.00000000000E+00  0.00000000000E+00 -0.62307006971E+03  0.62307006973E+03  0.50400001928E-02 0.  1.
    10030    2    1    2    0    0  0.00000000000E+00  0.00000000000E+00  0.57708026927E+02  0.13038481664E+04  0.13025704682E+04 0.  0.
        5    1    3    3  502    0  0.47868336046E+03 -0.29053684487E+03  0.36174743913E+03  0.66665787142E+03  0.46999998093E+01 0. -1.
       -5    1    3    3    0  502 -0.47868336046E+03  0.29053684487E+03 -0.30403941221E+03  0.63719029496E+03  0.46999998093E+01 0.  1.
</event>
<event>
 5   0  0.5812938E-04  0.1300572E+04  0.7818609E-02  0.9029111E-01
       -1   -1    0    0    0  501  0.00000000000E+00  0.00000000000E+00  0.11106322142E+04  0.11106322142E+04  0.50400001928E-02 0.  1.
        1   -1    0    0  501    0  0.00000000000E+00  0.00000000000E+00 -0.38074902507E+03  0.38074902510E+03  0.50400001928E-02 0. -1.
    10030    2    1    2    0    0  0.00000000000E+00  0.00000000000E+00  0.72988318915E+03  0.14913812393E+04  0.13005723860E+04 0.  0.
        5    1    3    3  502    0  0.16415278779E+03 -0.62358137956E+03  0.46122554130E+03  0.79281206135E+03  0.46999998093E+01 0. -1.
       -5    1    3    3    0  502 -0.16415278779E+03  0.62358137956E+03  0.26865764784E+03  0.69856917798E+03  0.46999998093E+01 0.  1.
</event>
<event>
 5   0  0.1103241E-03  0.1292901E+04  0.7818609E-02  0.9035214E-01
       -2   -1    0    0    0  501  0.00000000000E+00  0.00000000000E+00  0.85947498159E+03  0.85947498159E+03  0.25500000920E-02 0.  1.
        2   -1    0    0  501    0  0.00000000000E+00  0.00000000000E+00 -0.48622493632E+03  0.48622493633E+03  0.25500000920E-02 0. -1.
    10030    2    1    2    0    0  0.00000000000E+00  0.00000000000E+00  0.37325004526E+03  0.13456999179E+04  0.12929008751E+04 0.  0.
        4    1    3    3  502    0 -0.14142592680E+03 -0.15598610491E+03 -0.44953338475E+03  0.49640188819E+03  0.12699999809E+01 0. -1.
       -4    1    3    3    0  502  0.14142592680E+03  0.15598610491E+03  0.82278343001E+03  0.84929802973E+03  0.12699999809E+01 0.  1.
</event>
<event>
 5   0  0.6006119E-04  0.1297839E+04  0.7818609E-02  0.9031281E-01
        1   -1    0    0  501    0  0.00000000000E+00  0.00000000000E+00  0.40773177433E+03  0.40773177436E+03  0.50400001928E-02 0. -1.
       -1   -1    0    0    0  501  0.00000000000E+00  0.00000000000E+00 -0.10327776262E+04  0.10327776262E+04  0.50400001928E-02 0.  1.
    10030    2    1    2    0    0  0.00000000000E+00  0.00000000000E+00 -0.62504585186E+03  0.14405094006E+04  0.12978385940E+04 0.  0.
        4    1    3    3  502    0 -0.27529290121E+03 -0.43436192363E+03  0.12675990031E+03  0.52964719142E+03  0.12699999809E+01 0. -1.
       -4    1    3    3    0  502  0.27529290121E+03  0.43436192363E+03 -0.75180575217E+03  0.91086220914E+03  0.12699999809E+01 0.  1.
</event>
<event>
 5   0  0.1103241E-03  0.1294905E+04  0.7818609E-02  0.9033615E-01
       -2   -1    0    0    0  501  0.00000000000E+00  0.00000000000E+00  0.47074337629E+03  0.47074337630E+03  0.25500000920E-02 0.  1.
        2   -1    0    0  501    0  0.00000000000E+00  0.00000000000E+00 -0.89049507127E+03  0.89049507128E+03  0.25500000920E-02 0. -1.
    10030    2    1    2    0    0  0.00000000000E+00  0.00000000000E+00 -0.41975169498E+03  0.13612384476E+04  0.12949048713E+04 0.  0.
        4    1    3    3  502    0  0.48199067760E+03 -0.77403108809E+02  0.23721910524E+03  0.54275295608E+03  0.12699999809E+01 0.  1.
       -4    1    3    3    0  502 -0.48199067760E+03  0.77403108809E+02 -0.65697080022E+03  0.81848549149E+03  0.12699999809E+01 0. -1.
</event>
<event>
 5   0  0.5766027E-04  0.1302730E+04  0.7818609E-02  0.9027403E-01
       -1   -1    0    0    0  501  0.00000000000E+00  0.00000000000E+00  0.88942533904E+03  0.88942533905E+03  0.50400001928E-02 0. -1.
        1   -1    0    0  501    0  0.00000000000E+00  0.00000000000E+00 -0.47702293997E+03  0.47702294000E+03  0.50400001928E-02 0.  1.
    10030    2    1    2    0    0  0.00000000000E+00  0.00000000000E+00  0.41240239906E+03  0.13664482790E+04  0.13027298878E+04 0.  0.
        3    1    3    3  502    0 -0.31404060904E+03 -0.46423445870E+03 -0.14190648529E+03  0.57816312364E+03  0.10100000352E+00 0.  1.
       -3    1    3    3    0  502  0.31404060904E+03  0.46423445870E+03  0.55430888435E+03  0.78828515541E+03  0.10100000352E+00 0. -1.
</event>
<event>
 5   0  0.6006119E-04  0.1299541E+04  0.7818609E-02  0.9029929E-01
       -1   -1    0    0    0  501  0.00000000000E+00  0.00000000000E+00  0.31989416652E+03  0.31989416656E+03  0.50400001928E-02 0.  1.
        1   -1    0    0  501    0  0.00000000000E+00  0.00000000000E+00 -0.13198168421E+04  0.13198168421E+04  0.50400001928E-02 0. -1.
    10030    2    1    2    0    0  0.00000000000E+00  0.00000000000E+00 -0.99992267556E+03  0.16397110086E+04  0.12995410093E+04 0.  0.
        4    1    3    3  502    0 -0.27262971568E+01 -0.64913188964E+03 -0.46382000487E+03  0.79781592655E+03  0.12699999809E+01 0.  1.
       -4    1    3    3    0  502  0.27262971568E+01  0.64913188964E+03 -0.53610267068E+03  0.84189508209E+03  0.12699999809E+01 0. -1.
</event>
<event>
 5   0  0.5563545E-04  0.1305486E+04  0.7818609E-02  0.9025226E-01
        1   -1    0    0  501    0  0.00000000000E+00  0.00000000000E+00  0.97544962332E+03  0.97544962334E+03  0.50400001928E-02 0.  1.
       -1   -1    0    0    0  501  0.00000000000E+00  0.00000000000E+00 -0.43679684381E+03  0.43679684383E+03  0.50400001928E-02 0. -1.
    10030    2    1    2    0    0  0.00000000000E+00  0.00000000000E+00  0.53865277952E+03  0.14122464672E+04  0.13054858357E+04 0.  0.
        2    1    3    3  502    0  0.37844881132E+01 -0.65263178117E+03  0.25695656432E+03  0.70140518967E+03  0.25500000920E-02 0.  1.
       -2    1    3    3    0  502 -0.37844881132E+01  0.65263178117E+03  0.28169621520E+03  0.71084127750E+03  0.25500000920E-02 0. -1.
</event>
<event>
 5   0  0.1101619E-03  0.1296868E+04  0.7818609E-02  0.9032053E-01
        2   -1    0    0  501    0  0.00000000000E+00  0.00000000000E+00  0.25398554645E+04  0.25398554645E+04  0.25500000920E-02 0.  1.
       -2   -1    0    0    0  501  0.00000000000E+00  0.00000000000E+00 -0.16554745135E+03  0.16554745137E+03  0.25500000920E-02 0. -1.
    10030    2    1    2    0    0  0.00000000000E+00  0.00000000000E+00  0.23743080132E+04  0.27054029159E+04  0.12968679177E+04 0.  0.
        1    1    3    3  502    0  0.90940580551E+02  0.81262367397E+02 -0.14140652238E+03  0.18673394481E+03  0.50400001928E-02 0. -1.
       -1    1    3    3    0  502 -0.90940580551E+02 -0.81262367397E+02  0.25157145356E+04  0.25186689711E+04  0.50400001928E-02 0.  1.
</event>
<event>
 5   0  0.5710383E-04  0.1291514E+04  0.7818609E-02  0.9036321E-01
       -1   -1    0    0    0  501  0.00000000000E+00  0.00000000000E+00  0.63687347426E+03  0.63687347428E+03  0.50400001928E-02 0.  1.
        1   -1    0    0  501    0  0.00000000000E+00  0.00000000000E+00 -0.65476489064E+03  0.65476489066E+03  0.50400001928E-02 0. -1.
    10030    2    1    2    0    0  0.00000000000E+00  0.00000000000E+00 -0.17891416383E+02  0.12916383649E+04  0.12915144455E+04 0.  0.
        1    1    3    3  502    0  0.20767202195E+03  0.43885331276E+03  0.41686796149E+03  0.63992092962E+03  0.50400001928E-02 0.  1.
       -1    1    3    3    0  502 -0.20767202195E+03 -0.43885331276E+03 -0.43475937787E+03  0.65171743532E+03  0.50400001928E-02 0. -1.
</event>
<event>
 5   0  0.1046253E-03  0.1271321E+04  0.7818609E-02  0.9052622E-01
        2   -1    0    0  501    0  0.00000000000E+00  0.00000000000E+00  0.71703974550E+03  0.71703974551E+03  0.25500000920E-02 0. -1.
       -2   -1    0    0    0  501  0.00000000000E+00  0.00000000000E+00 -0.56351712690E+03  0.56351712691E+03  0.25500000920E-02 0.  1.
    10030    2    1    2    0    0  0.00000000000E+00  0.00000000000E+00  0.15352261860E+03  0.12805568724E+04  0.12713208521E+04 0.  0.
        3    1    3    3  502    0  0.40818780188E+03 -0.30708947106E+03 -0.30432967168E+03  0.59459043391E+03  0.10100000352E+00 0.  1.
       -3    1    3    3    0  502 -0.40818780188E+03  0.30708947106E+03  0.45785229028E+03  0.68596643850E+03  0.10100000352E+00 0. -1.
</event>
<event>
 5   0  0.1031295E-03  0.1326286E+04  0.7818609E-02  0.9008976E-01
        2   -1    0    0  501    0  0.00000000000E+00  0.00000000000E+00  0.56851048009E+03  0.56851048010E+03  0.25500000920E-02 0.  1.
       -2   -1    0    0    0  501  0.00000000000E+00  0.00000000000E+00 -0.77352831487E+03  0.77352831487E+03  0.25500000920E-02 0. -1.
    10030    2    1    2    0    0  0.00000000000E+00  0.00000000000E+00 -0.20501783478E+03  0.13420387950E+04  0.13262864753E+04 0.  0.
        2    1    3    3  502    0 -0.56454055631E+03 -0.33714703535E+02  0.24789319651E+03  0.61748988481E+03  0.25500000920E-02 0. -1.
       -2    1    3    3    0  502  0.56454055631E+03  0.33714703535E+02 -0.45291103129E+03  0.72454891017E+03  0.25500000920E-02 0.  1.
</event>
<event>
 5   0  0.1103241E-03  0.1298982E+04  0.7818609E-02  0.9030372E-01
       -2   -1    0    0    0  501  0.00000000000E+00  0.00000000000E+00  0.86704223887E+03  0.86704223888E+03  0.25500000920E-02 0.  1.
        2   -1    0    0  501    0  0.00000000000E+00  0.00000000000E+00 -0.48652632823E+03  0.48652632824E+03  0.25500000920E-02 0. -1.
    10030    2    1    2    0    0  0.00000000000E+00  0.00000000000E+00  0.38051591064E+03  0.13535685671E+04  0.12989824893E+04 0.  0.
        4    1    3    3  502    0 -0.43725331491E+02 -0.57251511058E+03  0.50657958756E+03  0.76570878792E+03  0.12699999809E+01 0.  1.
       -4    1    3    3    0  502  0.43725331491E+02  0.57251511058E+03 -0.12606367692E+03  0.58785977920E+03  0.12699999809E+01 0. -1.
</event>
<event>
 5   0  0.5563545E-04  0.1269563E+04  0.7818609E-02  0.9054056E-01
       -1   -1    0    0    0  501  0.00000000000E+00  0.00000000000E+00  0.29792216313E+03  0.29792216317E+03  0.50400001928E-02 0.  1.
        1   -1    0    0  501    0  0.00000000000E+00  0.00000000000E+00 -0.13525271245E+04  0.13525271245E+04  0.50400001928E-02 0. -1.
    10030    2    1    2    0    0  0.00000000000E+00  0.00000000000E+00 -0.10546049614E+04  0.16504492877E+04  0.12695634000E+04 0.  0.
        2    1    3    3  502    0 -0.28229965571E+03  0.23016662120E+03  0.14855195628E+03  0.39336681717E+03  0.25500000920E-02 0.  1.
       -2    1    3    3    0  502  0.28229965571E+03 -0.23016662120E+03 -0.12031569176E+04  0.12570824705E+04  0.25500000920E-02 0. -1.
</event>
<event>
 5   0  0.5710383E-04  0.1289100E+04  0.7818609E-02  0.9038254E-01
        1   -1    0    0  501    0  0.00000000000E+00  0.00000000000E+00  0.73668532377E+03  0.73668532378E+03  0.50400001928E-02 0.  1.
       -1   -1    0    0    0  501  0.00000000000E+00  0.00000000000E+00 -0.56393770144E+03  0.56393770146E+03  0.50400001928E-02 0. -1.
    10030    2    1    2    0    0  0.00000000000E+00  0.00000000000E+00  0.17274762233E+03  0.13006230252E+04  0.12890998847E+04 0.  0.
        1    1    3    3  502    0  0.99466397383E+02 -0.41124903508E+03  0.57695606993E+03  0.71547022281E+03  0.50400001928E-02 0.  1.
       -1    1    3    3    0  502 -0.99466397383E+02  0.41124903508E+03 -0.40420844760E+03  0.58515280244E+03  0.50400001928E-02 0. -1.
</event>
<event>
 5   0  0.1103241E-03  0.1306435E+04  0.7818609E-02  0.9024477E-01
        2   -1    0    0  501    0  0.00000000000E+00  0.00000000000E+00  0.94303236493E+03  0.94303236493E+03  0.25500000920E-02 0. -1.
       -2   -1    0    0    0  501  0.00000000000E+00  0.00000000000E+00 -0.45246937519E+03  0.45246937519E+03  0.25500000920E-02 0.  1.
    10030    2    1    2    0    0  0.00000000000E+00  0.00000000000E+00  0.49056298974E+03  0.13955017401E+04  0.13064352490E+04 0.  0.
        4    1    3    3  502    0  0.18795934741E+03  0.36885879389E+03  0.78500721016E+03  0.88748152601E+03  0.12699999809E+01 0. -1.
       -4    1    3    3    0  502 -0.18795934741E+03 -0.36885879389E+03 -0.29444422042E+03  0.50802021411E+03  0.12699999809E+01 0.  1.
</event>
<event>
 5   0  0.1081574E-03  0.1441428E+04  0.7818609E-02  0.8924365E-01
       -2   -1    0    0    0  501  0.00000000000E+00  0.00000000000E+00  0.37976646484E+03  0.37976646485E+03  0.25500000920E-02 0.  1.
        2   -1    0    0  501    0  0.00000000000E+00  0.00000000000E+00 -0.13677573681E+04  0.13677573681E+04  0.25500000920E-02 0. -1.
    10030    2    1    2    0    0  0.00000000000E+00  0.00000000000E+00 -0.98799090324E+03  0.17475238329E+04  0.14414275985E+04 0.  0.
        5    1    3    3  502    0 -0.76537474431E+01  0.65778948737E+03 -0.85089119884E+03  0.10755387077E+04  0.46999998093E+01 0. -1.
       -5    1    3    3    0  502  0.76537474431E+01 -0.65778948737E+03 -0.13709970440E+03  0.67198512520E+03  0.46999998093E+01 0.  1.
</event>
<event>
 5   0  0.5563545E-04  0.1298395E+04  0.7818609E-02  0.9030839E-01
        1   -1    0    0  501    0  0.00000000000E+00  0.00000000000E+00  0.13581241554E+04  0.13581241554E+04  0.50400001928E-02 0. -1.
       -1   -1    0    0    0  501  0.00000000000E+00  0.00000000000E+00 -0.31032333346E+03  0.31032333350E+03  0.50400001928E-02 0.  1.
    10030    2    1    2    0    0  0.00000000000E+00  0.00000000000E+00  0.10478008219E+04  0.16684474889E+04  0.12983953407E+04 0.  0.
        2    1    3    3  502    0 -0.17843521567E+03  0.29240236125E+02  0.13251140518E+04  0.13373934978E+04  0.25500000920E-02 0. -1.
       -2    1    3    3    0  502  0.17843521567E+03 -0.29240236125E+02 -0.27731322985E+03  0.33105399114E+03  0.25500000920E-02 0.  1.
</event>
<event>
 5   0  0.4012375E-04  0.1330935E+04  0.7818609E-02  0.9005387E-01
        3   -1    0    0  501    0  0.00000000000E+00  0.00000000000E+00  0.95839632664E+03  0.95839633196E+03  0.10100000352E+00 0. -1.
       -3   -1    0    0    0  501  0.00000000000E+00  0.00000000000E+00 -0.46207107005E+03  0.46207108109E+03  0.10100000352E+00 0.  1.
    10030    2    1    2    0    0  0.00000000000E+00  0.00000000000E+00  0.49632525659E+03  0.14204674130E+04  0.13309353520E+04 0.  0.
        1    1    3    3  502    0  0.26785710567E+03 -0.18638315676E+03  0.86714347050E+03  0.92651168834E+03  0.50400001928E-02 0. -1.
       -1    1    3    3    0  502 -0.26785710567E+03  0.18638315676E+03 -0.37081821391E+03  0.49395572471E+03  0.50400001928E-02 0.  1.
</event>
<event>
 5   0  0.5766027E-04  0.1234540E+04  0.7818609E-02  0.9083149E-01
       -1   -1    0    0    0  501  0.00000000000E+00  0.00000000000E+00  0.10213080386E+04  0.10213080386E+04  0.50400001928E-02 0.  1.
        1   -1    0    0  501    0  0.00000000000E+00  0.00000000000E+00 -0.37307295318E+03  0.37307295321E+03  0.50400001928E-02 0. -1.
    10030    2    1    2    0    0  0.00000000000E+00  0.00000000000E+00  0.64823508539E+03  0.13943809918E+04  0.12345402482E+04 0.  0.
        3    1    3    3  502    0 -0.57159635073E+03  0.17396073870E+03  0.14900293446E+03  0.61578130165E+03  0.10100000352E+00 0.  1.
       -3    1    3    3    0  502  0.57159635073E+03 -0.17396073870E+03  0.49923215093E+03  0.77859969015E+03  0.10100000352E+00 0. -1.
</event>
<event>
 5   0  0.1031295E-03  0.1308352E+04  0.7818609E-02  0.9022968E-01
       -2   -1    0    0    0  501  0.00000000000E+00  0.00000000000E+00  0.73894967939E+03  0.73894967940E+03  0.25500000920E-02 0. -1.
        2   -1    0    0  501    0  0.00000000000E+00  0.00000000000E+00 -0.57912766153E+03  0.57912766153E+03  0.25500000920E-02 0.  1.
    10030    2    1    2    0    0  0.00000000000E+00  0.00000000000E+00  0.15982201787E+03  0.13180773409E+04  0.13083519401E+04 0.  0.
        2    1    3    3  502    0 -0.70583940312E+02  0.32501152028E+03  0.64742031174E+03  0.72785138662E+03  0.25500000920E-02 0. -1.
       -2    1    3    3    0  502  0.70583940312E+02 -0.32501152028E+03 -0.48759829387E+03  0.59022595431E+03  0.25500000920E-02 0.  1.
</event>
<event>
 5   0  0.1103241E-03  0.1296193E+04  0.7818609E-02  0.9032589E-01
        2   -1    0    0  501    0  0.00000000000E+00  0.00000000000E+00  0.66106450974E+03  0.66106450974E+03  0.25500000920E-02 0.  1.
       -2   -1    0    0    0  501  0.00000000000E+00  0.00000000000E+00 -0.63538331346E+03  0.63538331346E+03  0.25500000920E-02 0. -1.
    10030    2    1    2    0    0  0.00000000000E+00  0.00000000000E+00  0.25681196282E+02  0.12964478232E+04  0.12961934402E+04 0.  0.
        4    1    3    3  502    0 -0.16957007380E+03  0.32705648321E+03 -0.52046925226E+03  0.63765963381E+03  0.12699999809E+01 0. -1.
       -4    1    3    3    0  502  0.16957007380E+03 -0.32705648321E+03  0.54615044855E+03  0.65878818940E+03  0.12699999809E+01 0.  1.
</event>
<event>
 5   0  0.5710383E-04  0.1278528E+04  0.7818609E-02  0.9046768E-01
        1   -1    0    0  501    0  0.00000000000E+00  0.00000000000E+00  0.67848105924E+03  0.67848105926E+03  0.50400001928E-02 0.  1.
       -1   -1    0    0    0  501  0.00000000000E+00  0.00000000000E+00 -0.60231360425E+03  0.60231360427E+03  0.50400001928E-02 0. -1.
    10030    2    1    2    0    0  0.00000000000E+00  0.00000000000E+00  0.76167454987E+02  0.12807946635E+04  0.12785278600E+04 0.  0.
        1    1    3    3  502    0  0.40681527650E+03  0.49177544851E+03  0.17342564931E+01  0.63823566856E+03  0.50400001928E-02 0.  1.
       -1    1    3    3    0  502 -0.40681527650E+03 -0.49177544851E+03  0.74433198494E+02  0.64255899497E+03  0.50400001928E-02 0. -1.
</event>
<event>
 5   0  0.5710383E-04  0.1295530E+04  0.7818609E-02  0.9033117E-01
        1   -1    0    0  501    0  0.00000000000E+00  0.00000000000E+00  0.96920605785E+03  0.96920605787E+03  0.50400001928E-02 0. -1.
       -1   -1    0    0    0  501  0.00000000000E+00  0.00000000000E+00 -0.43293114459E+03  0.43293114462E+03  0.50400001928E-02 0.  1.
    10030    2    1    2    0    0  0.00000000000E+00  0.00000000000E+00  0.53627491326E+03  0.14021372025E+04  0.12955299888E+04 0.  0.
        1    1    3    3  502    0 -0.72603197362E+02  0.33497786759E+03 -0.32674533839E+03  0.47354399186E+03  0.50400001928E-02 0.  1.
       -1    1    3    3    0  502  0.72603197362E+02 -0.33497786759E+03  0.86302025165E+03  0.92859321063E+03  0.50400001928E-02 0. -1.
</event>
<event>
 5   0  0.1046253E-03  0.1347094E+04  0.7818609E-02  0.8993031E-01
       -2   -1    0    0    0  501  0.00000000000E+00  0.00000000000E+00  0.73132549147E+03  0.73132549147E+03  0.25500000920E-02 0.  1.
        2   -1    0    0  501    0  0.00000000000E+00  0.00000000000E+00 -0.62033318112E+03  0.62033318112E+03  0.25500000920E-02 0. -1.
    10030    2    1    2    0    0  0.00000000000E+00  0.00000000000E+00  0.11099231035E+03  0.13516586726E+04  0.13470938624E+04 0.  0.
        3    1    3    3  502    0  0.11337892144E+03 -0.64421946540E+03  0.21663911715E+03  0.68906169296E+03  0.10100000352E+00 0.  1.
       -3    1    3    3    0  502 -0.11337892144E+03  0.64421946540E+03 -0.10564680680E+03  0.66259697963E+03  0.10100000352E+00 0. -1.
</event>
<event>
 5   0  0.6006119E-04  0.1295288E+04  0.7818609E-02  0.9033310E-01
        1   -1    0    0  501    0  0.00000000000E+00  0.00000000000E+00  0.45409643037E+03  0.45409643039E+03  0.50400001928E-02 0. -1.
       -1   -1    0    0    0  501  0.00000000000E+00  0.00000000000E+00 -0.92368610058E+03  0.92368610059E+03  0.50400001928E-02 0.  1.
    10030    2    1    2    0    0  0.00000000000E+00  0.00000000000E+00 -0.46958967021E+03  0.13777825310E+04  0.12952877072E+04 0.  0.
        4    1    3    3  502    0  0.12877661000E+03 -0.61969870182E+03 -0.38076083943E+03  0.73864086406E+03  0.12699999809E+01 0. -1.
       -4    1    3    3    0  502 -0.12877661000E+03  0.61969870182E+03 -0.88828830784E+02  0.63914166692E+03  0.12699999809E+01 0.  1.
</event>
<event>
 5   0  0.5710383E-04  0.1304354E+04  0.7818609E-02  0.9026120E-01
        1   -1    0    0  501    0  0.00000000000E+00  0.00000000000E+00  0.59852653831E+03  0.59852653833E+03  0.50400001928E-02 0.  1.
       -1   -1    0    0    0  501  0.00000000000E+00  0.00000000000E+00 -0.71063608588E+03  0.71063608590E+03  0.50400001928E-02 0. -1.
    10030    2    1    2    0    0  0.00000000000E+00  0.00000000000E+00 -0.11210954757E+03  0.13091626242E+04  0.13043535663E+04 0.  0.
        1    1    3    3  502    0  0.42427664919E+03 -0.71416216284E+02  0.43587839780E+03  0.61245483808E+03  0.50400001928E-02 0.  1.
       -1    1    3    3    0  502 -0.42427664919E+03  0.71416216284E+02 -0.54798794536E+03  0.69670778615E+03  0.50400001928E-02 0. -1.
</event>
<event>
 5   0  0.4012375E-04  0.1302427E+04  0.7818609E-02  0.9027643E-01
        3   -1    0    0  501    0  0.00000000000E+00  0.00000000000E+00  0.40895160555E+03  0.40895161802E+03  0.10100000352E+00 0. -1.
       -3   -1    0    0    0  501  0.00000000000E+00  0.00000000000E+00 -0.10369911638E+04  0.10369911687E+04  0.10100000352E+00 0.  1.
    10030    2    1    2    0    0  0.00000000000E+00  0.00000000000E+00 -0.62803955828E+03  0.14459427868E+04  0.13024272939E+04 0.  0.
        5    1    3    3  502    0 -0.49466561403E+03 -0.61496787981E+02 -0.77921647980E+03  0.92502774933E+03  0.46999998093E+01 0.  1.
       -5    1    3    3    0  502  0.49466561403E+03  0.61496787981E+02  0.15117692152E+03  0.52091503744E+03  0.46999998093E+01 0. -1.
</event>
<event>
 5   0  0.5710383E-04  0.1299807E+04  0.7818609E-02  0.9029718E-01
        1   -1    0    0  501    0  0.00000000000E+00  0.00000000000E+00  0.59755843738E+03  0.59755843741E+03  0.50400001928E-02 0. -1.
       -1   -1    0    0    0  501  0.00000000000E+00  0.00000000000E+00 -0.70683406007E+03  0.70683406009E+03  0.50400001928E-02 0.  1.
    10030    2    1    2    0    0  0.00000000000E+00  0.00000000000E+00 -0.10927562269E+03  0.13043924975E+04  0.12998071495E+04 0.  0.
        1    1    3    3  502    0  0.13909374704E+03  0.62951031583E+03 -0.13705150209E+03  0.65910046461E+03  0.50400001928E-02 0.  1.
       -1    1    3    3    0  502 -0.13909374704E+03 -0.62951031583E+03  0.27775879405E+02  0.64529203288E+03  0.50400001928E-02 0. -1.
</event>
<event>
 5   0  0.5766027E-04  0.1303819E+04  0.7818609E-02  0.9026542E-01
       -1   -1    0    0    0  501  0.00000000000E+00  0.00000000000E+00  0.87491636655E+03  0.87491636656E+03  0.50400001928E-02 0. -1.
        1   -1    0    0  501    0  0.00000000000E+00  0.00000000000E+00 -0.48574449259E+03  0.48574449262E+03  0.50400001928E-02 0.  1.
    10030    2    1    2    0    0  0.00000000000E+00  0.00000000000E+00  0.38917187395E+03  0.13606608592E+04  0.13038187091E+04 0.  0.
        3    1    3    3  502    0 -0.24091039668E+03 -0.56735656302E+03 -0.26928383034E+02  0.61697361114E+03  0.10100000352E+00 0. -1.
       -3    1    3    3    0  502  0.24091039668E+03  0.56735656302E+03  0.41610025699E+03  0.74368724804E+03  0.10100000352E+00 0.  1.
</event>
<event>
 5   0  0.4012375E-04  0.1304845E+04  0.7818609E-02  0.9025732E-01
        4   -1    0    0  501    0  0.00000000000E+00  0.00000000000E+00  0.83278690925E+03  0.83278787763E+03  0.12699999809E+01 0.  1.
       -4   -1    0    0    0  501  0.00000000000E+00  0.00000000000E+00 -0.51111916733E+03  0.51112074514E+03  0.12699999809E+01 0. -1.
    10030    2    1    2    0    0  0.00000000000E+00  0.00000000000E+00  0.32166774193E+03  0.13439086228E+04  0.13048449142E+04 0.  0.
        2    1    3    3  502    0 -0.42652011334E+03  0.16324088820E+02  0.66903173973E+03  0.79359268629E+03  0.25500000920E-02 0.  1.
       -2    1    3    3    0  502  0.42652011334E+03 -0.16324088820E+02 -0.34736399780E+03  0.55031593647E+03  0.25500000920E-02 0. -1.
</event>
<event>
 5   0  0.6006119E-04  0.1304120E+04  0.7818609E-02  0.9026304E-01
        1   -1    0    0  501    0  0.00000000000E+00  0.00000000000E+00  0.70887894818E+03  0.70887894820E+03  0.50400001928E-02 0. -1.
       -1   -1    0    0    0  501  0.00000000000E+00  0.00000000000E+00 -0.59979546267E+03  0.59979546269E+03  0.50400001928E-02 0.  1.
    10030    2    1    2    0    0  0.00000000000E+00  0.00000000000E+00  0.10908348551E+03  0.13086744109E+04  0.13041202042E+04 0.  0.
        4    1    3    3  502    0 -0.14204678583E+03  0.48764231981E+03 -0.35579753328E+03  0.62013371060E+03  0.12699999809E+01 0. -1.
       -4    1    3    3    0  502  0.14204678583E+03 -0.48764231981E+03  0.46488101879E+03  0.68854070029E+03  0.12699999809E+01 0.  1.
</event>
<event>
 5   0  0.5710383E-04  0.1298638E+04  0.7818609E-02  0.9030646E-01
       -1   -1    0    0    0  501  0.00000000000E+00  0.00000000000E+00  0.35945855159E+03  0.35945855162E+03  0.50400001928E-02 0.  1.
        1   -1    0    0  501    0  0.00000000000E+00  0.00000000000E+00 -0.11729172555E+04  0.11729172555E+04  0.50400001928E-02 0. -1.
    10030    2    1    2    0    0  0.00000000000E+00  0.00000000000E+00 -0.81345870394E+03  0.15323758072E+04  0.12986379601E+04 0.  0.
        1    1    3    3  502    0  0.35772063236E+03 -0.25296690857E+03 -0.97221132875E+03  0.10663729064E+04  0.50400001928E-02 0. -1.
       -1    1    3    3    0  502 -0.35772063236E+03  0.25296690857E+03  0.15875262481E+03  0.46600290080E+03  0.50400001928E-02 0.  1.
</event>
<event>
 5   0  0.5710383E-04  0.1304141E+04  0.7818609E-02  0.9026288E-01
        1   -1    0    0  501    0  0.00000000000E+00  0.00000000000E+00  0.12669574291E+04  0.12669574291E+04  0.50400001928E-02 0.  1.
       -1   -1    0    0    0  501  0.00000000000E+00  0.00000000000E+00 -0.33560404426E+03  0.33560404430E+03  0.50400001928E-02 0. -1.
    10030    2    1    2    0    0  0.00000000000E+00  0.00000000000E+00  0.93135338486E+03  0.16025614734E+04  0.13041411536E+04 0.  0.
        1    1    3    3  502    0  0.43463893154E+03 -0.28001168335E+03  0.95393718494E+03  0.10850408732E+04  0.50400001928E-02 0.  1.
       -1    1    3    3    0  502 -0.43463893154E+03  0.28001168335E+03 -0.22583800087E+02  0.51752060024E+03  0.50400001928E-02 0. -1.
</event>
<event>
 5   0  0.1081574E-03  0.1296666E+04  0.7818609E-02  0.9032213E-01
       -2   -1    0    0    0  501  0.00000000000E+00  0.00000000000E+00  0.41695158086E+03  0.41695158087E+03  0.25500000920E-02 0. -1.
        2   -1    0    0  501    0  0.00000000000E+00  0.00000000000E+00 -0.10081169550E+04  0.10081169550E+04  0.25500000920E-02 0.  1.
    10030    2    1    2    0    0  0.00000000000E+00  0.00000000000E+00 -0.59116537416E+03  0.14250685359E+04  0.12966664307E+04 0.  0.
        5    1    3    3  502    0 -0.22723549799E+03  0.49637158362E+03 -0.67991645641E+03  0.87196857642E+03  0.46999998093E+01 0.  1.
       -5    1    3    3    0  502  0.22723549799E+03 -0.49637158362E+03  0.88751082250E+02  0.55309995947E+03  0.46999998093E+01 0. -1.
</event>
<event>
 5   0  0.1103241E-03  0.1299194E+04  0.7818609E-02  0.9030204E-01
        2   -1    0    0  501    0  0.00000000000E+00  0.00000000000E+00  0.18310691848E+04  0.18310691848E+04  0.25500000920E-02 0. -1.
       -2   -1    0    0    0  501  0.00000000000E+00  0.00000000000E+00 -0.23045359288E+03  0.23045359290E+03  0.25500000920E-02 0.  1.
    10030    2    1    2    0    0  0.00000000000E+00  0.00000000000E+00  0.16006155919E+04  0.20615227777E+04  0.12991943234E+04 0.  0.
        4    1    3    3  502    0 -0.20869561083E+03 -0.35124665678E+03  0.16016609532E+04  0.16529511468E+04  0.12699999809E+01 0. -1.
       -4    1    3    3    0  502  0.20869561083E+03  0.35124665678E+03 -0.10453612813E+01  0.40857163088E+03  0.12699999809E+01 0.  1.
</event>
<event>
 5   0  0.5812938E-04  0.1342488E+04  0.7818609E-02  0.8996534E-01
        1   -1    0    0  501    0  0.00000000000E+00  0.00000000000E+00  0.57881338652E+03  0.57881338654E+03  0.50400001928E-02 0. -1.
       -1   -1    0    0    0  501  0.00000000000E+00  0.00000000000E+00 -0.77843538536E+03  0.77843538537E+03  0.50400001928E-02 0.  1.
    10030    2    1    2    0    0  0.00000000000E+00  0.00000000000E+00 -0.19962199884E+03  0.13572487719E+04  0.13424884679E+04 0.  0.
        5    1    3    3  502    0 -0.64427313025E+03 -0.10206502967E+03  0.60174229492E+02  0.65509401198E+03  0.46999998093E+01 0. -1.
       -5    1    3    3    0  502  0.64427313025E+03  0.10206502967E+03 -0.25979622833E+03  0.70215475993E+03  0.46999998093E+01 0.  1.
</event>
<event>
 5   0  0.1103241E-03  0.1297246E+04  0.7818609E-02  0.9031752E-01
       -2   -1    0    0    0  501  0.00000000000E+00  0.00000000000E+00  0.58428346356E+03  0.58428346357E+03  0.25500000920E-02 0.  1.
        2   -1    0    0  501    0  0.00000000000E+00  0.00000000000E+00 -0.72004704521E+03  0.72004704522E+03  0.25500000920E-02 0. -1.
    10030    2    1    2    0    0  0.00000000000E+00  0.00000000000E+00 -0.13576358165E+03  0.13043305088E+04  0.12972456691E+04 0.  0.
        4    1    3    3  502    0 -0.46973800791E+02 -0.79341228222E+01 -0.71828439163E+03  0.71986357626E+03  0.12699999809E+01 0. -1.
       -4    1    3    3    0  502  0.46973800791E+02  0.79341228222E+01  0.58252080997E+03  0.58446693253E+03  0.12699999809E+01 0.  1.
</event>
<event>
 5   0  0.5766027E-04  0.1297512E+04  0.7818609E-02  0.9031541E-01
        1   -1    0    0  501    0  0.00000000000E+00  0.00000000000E+00  0.78013926105E+03  0.78013926107E+03  0.50400001928E-02 0. -1.
       -1   -1    0    0    0  501  0.00000000000E+00  0.00000000000E+00 -0.53949871768E+03  0.53949871770E+03  0.50400001928E-02 0.  1.
    10030    2    1    2    0    0  0.00000000000E+00  0.00000000000E+00  0.24064054338E+03  0.13196379788E+04  0.12975116662E+04 0.  0.
        3    1    3    3  502    0  0.24929237975E+03 -0.58336662980E+03  0.25835801223E+03  0.68499064815E+03  0.10100000352E+00 0. -1.
       -3    1    3    3    0  502 -0.24929237975E+03  0.58336662980E+03 -0.17717468852E+02  0.63464733062E+03  0.10100000352E+00 0.  1.
</event>
<event>
 5   0  0.1031295E-03  0.1288911E+04  0.7818609E-02  0.9038405E-01
        2   -1    0    0  501    0  0.00000000000E+00  0.00000000000E+00  0.49590810918E+03  0.49590810918E+03  0.25500000920E-02 0. -1.
       -2   -1    0    0    0  501  0.00000000000E+00  0.00000000000E+00 -0.83749996036E+03  0.83749996036E+03  0.25500000920E-02 0.  1.
    10030    2    1    2    0    0  0.00000000000E+00  0.00000000000E+00 -0.34159185118E+03  0.13334080695E+04  0.12889112022E+04 0.  0.
        2    1    3    3  502    0 -0.19241350953E+03 -0.61074679348E+03 -0.24602798367E+03  0.68597694798E+03  0.25500000920E-02 0.  1.
       -2    1    3    3    0  502  0.19241350953E+03  0.61074679348E+03 -0.95563867511E+02  0.64743112157E+03  0.25500000920E-02 0. -1.
</event>
<event>
 5   0  0.1101619E-03  0.1297755E+04  0.7818609E-02  0.9031347E-01
       -2   -1    0    0    0  501  0.00000000000E+00  0.00000000000E+00  0.46518730673E+03  0.46518730674E+03  0.25500000920E-02 0. -1.
        2   -1    0    0  501    0  0.00000000000E+00  0.00000000000E+00 -0.90510234456E+03  0.90510234457E+03  0.25500000920E-02 0.  1.
    10030    2    1    2    0    0  0.00000000000E+00  0.00000000000E+00 -0.43991503783E+03  0.13702896513E+04  0.12977551726E+04 0.  0.
        1    1    3    3  502    0 -0.16319284829E+03 -0.59879116507E+03 -0.20007772589E+02  0.62095336063E+03  0.50400001928E-02 0.  1.
       -1    1    3    3    0  502  0.16319284829E+03  0.59879116507E+03 -0.41990726524E+03  0.74933629067E+03  0.50400001928E-02 0. -1.
</event>
<event>
 5   0  0.6006119E-04  0.1296948E+04  0.7818609E-02  0.9031989E-01
        1   -1    0    0  501    0  0.00000000000E+00  0.00000000000E+00  0.85157985857E+03  0.85157985859E+03  0.50400001928E-02 0. -1.
       -1   -1    0    0    0  501  0.00000000000E+00  0.00000000000E+00 -0.49380948823E+03  0.49380948826E+03  0.50400001928E-02 0.  1.
    10030    2    1    2    0    0  0.00000000000E+00  0.00000000000E+00  0.35777037034E+03  0.13453893468E+04  0.12969475150E+04 0.  0.
        4    1    3    3  502    0  0.12785990346E+03  0.10388940372E+03 -0.47173750189E+03  0.49967894363E+03  0.12699999809E+01 0.  1.
       -4    1    3    3    0  502 -0.12785990346E+03 -0.10388940372E+03  0.82950787223E+03  0.84571040322E+03  0.12699999809E+01 0. -1.
</event>
<event>
 5   0  0.1101619E-03  0.1308975E+04  0.7818609E-02  0.9022478E-01
        2   -1    0    0  501    0  0.00000000000E+00  0.00000000000E+00  0.44604727485E+03  0.44604727486E+03  0.25500000920E-02 0. -1.
       -2   -1    0    0    0  501  0.00000000000E+00  0.00000000000E+00 -0.96033360929E+03  0.96033360930E+03  0.25500000920E-02 0.  1.
    10030    2    1    2    0    0  0.00000000000E+00  0.00000000000E+00 -0.51428633444E+03  0.14063808842E+04  0.13089754610E+04 0.  0.
        1    1    3    3  502    0  0.25877265074E+03  0.57242456541E+03 -0.45444077104E+03  0.77533836631E+03  0.50400001928E-02 0.  1.
       -1    1    3    3    0  502 -0.25877265074E+03 -0.57242456541E+03 -0.59845563398E+02  0.63104251785E+03  0.50400001928E-02 0. -1.
</event>
<event>
 5   0  0.5563545E-04  0.1302920E+04  0.7818609E-02  0.9027253E-01
       -1   -1    0    0    0  501  0.00000000000E+00  0.00000000000E+00  0.62077136203E+03  0.62077136205E+03  0.50400001928E-02 0. -1.
        1   -1    0    0  501    0  0.00000000000E+00  0.00000000000E+00 -0.68366539283E+03  0.68366539285E+03  0.50400001928E-02 0.  1.
    10030    2    1    2    0    0  0.00000000000E+00  0.00000000000E+00 -0.62894030801E+02  0.13044367549E+04  0.13029196401E+04 0.  0.
        2    1    3    3  502    0  0.58119090097E+03  0.27266032442E+03  0.79467275914E+02  0.64687059280E+03  0.25500000920E-02 0. -1.
       -2    1    3    3    0  502 -0.58119090097E+03 -0.27266032442E+03 -0.14236130672E+03  0.65756616210E+03  0.25500000920E-02 0.  1.
</event>
<event>
 5   0  0.1103241E-03  0.1308833E+04  0.7818609E-02  0.9022590E-01
        2   -1    0    0  501    0  0.00000000000E+00  0.00000000000E+00  0.57440468021E+03  0.57440468022E+03  0.25500000920E-02 0. -1.
       -2   -1    0    0    0  501  0.00000000000E+00  0.00000000000E+00 -0.74557312465E+03  0.74557312466E+03  0.25500000920E-02 0.  1.
    10030    2    1    2    0    0  0.00000000000E+00  0.00000000000E+00 -0.17116844444E+03  0.13199778049E+04  0.13088325978E+04 0.  0.
        4    1    3    3  502    0  0.51668935671E+02  0.11687107194E+03 -0.73286770977E+03  0.74392554688E+03  0.12699999809E+01 0.  1.
       -4    1    3    3    0  502 -0.51668935671E+02 -0.11687107194E+03  0.56169926533E+03  0.57605225800E+03  0.12699999809E+01 0. -1.
</event>
<event>
 5   0  0.1046253E-03  0.1297080E+04  0.7818609E-02  0.9031884E-01
        2   -1    0    0  501    0  0.00000000000E+00  0.00000000000E+00  0.58545678339E+03  0.58545678340E+03  0.25500000920E-02 0. -1.
       -2   -1    0    0    0  501  0.00000000000E+00  0.00000000000E+00 -0.71842075287E+03  0.71842075288E+03  0.25500000920E-02 0.  1.
    10030    2    1    2    0    0  0.00000000000E+00  0.00000000000E+00 -0.13296396948E+03  0.13038775363E+04  0.12970802644E+04 0.  0.
        3    1    3    3  502    0  0.26911111412E+03  0.58500476744E+03 -0.14404150122E+03  0.65984796275E+03  0.10100000352E+00 0. -1.
       -3    1    3    3    0  502 -0.26911111412E+03 -0.58500476744E+03  0.11077531737E+02  0.64402957353E+03  0.10100000352E+00 0.  1.
</event>
<event>
 5   0  0.5563545E-04  0.1324679E+04  0.7818609E-02  0.9010220E-01
        1   -1    0    0  501    0  0.00000000000E+00  0.00000000000E+00  0.57392122600E+03  0.57392122602E+03  0.50400001928E-02 0. -1.
       -1   -1    0    0    0  501  0.00000000000E+00  0.00000000000E+00 -0.76437922765E+03  0.76437922766E+03  0.50400001928E-02 0.  1.
    10030    2    1    2    0    0  0.00000000000E+00  0.00000000000E+00 -0.19045800165E+03  0.13383004537E+04  0.13246787739E+04 0.  0.
        2    1    3    3  502    0 -0.16631530281E+03  0.56330473040E+02 -0.74043496263E+03  0.76097163944E+03  0.25500000920E-02 0.  1.
       -2    1    3    3    0  502  0.16631530281E+03 -0.56330473040E+02  0.54997696098E+03  0.57732881425E+03  0.25500000920E-02 0. -1.
</event>
<event>
 5   0  0.6006119E-04  0.1305197E+04  0.7818609E-02  0.9025454E-01
       -1   -1    0    0    0  501  0.00000000000E+00  0.00000000000E+00  0.51136330564E+03  0.51136330567E+03  0.50400001928E-02 0.  1.
        1   -1    0    0  501    0  0.00000000000E+00  0.00000000000E+00 -0.83284249910E+03  0.83284249911E+03  0.50400001928E-02 0. -1.
    10030    2    1    2    0    0  0.00000000000E+00  0.00000000000E+00 -0.32147919346E+03  0.13442058048E+04  0.13051974463E+04 0.  0.
        4    1    3    3  502    0 -0.21604552423E+03  0.51018549689E+03  0.19441250705E+03  0.58716500711E+03  0.12699999809E+01 0.  1.
       -4    1    3    3    0  502  0.21604552423E+03 -0.51018549689E+03 -0.51589170051E+03  0.75704079767E+03  0.12699999809E+01 0. -1.
</event>
<event>
 5   0  0.5766027E-04  0.1304134E+04  0.7818609E-02  0.9026294E-01
       -1   -1    0    0    0  501  0.00000000000E+00  0.00000000000E+00  0.43274798250E+03  0.43274798253E+03  0.50400001928E-02 0. -1.
        1   -1    0    0  501    0  0.00000000000E+00  0.00000000000E+00 -0.98253747120E+03  0.98253747122E+03  0.50400001928E-02 0.  1.
    10030    2    1    2    0    0  0.00000000000E+00  0.00000000000E+00 -0.54978948871E+03  0.14152854537E+04  0.13041335950E+04 0.  0.
        3    1    3    3  502    0  0.40742884949E+03 -0.50825992259E+03 -0.30680645966E+03  0.72003932545E+03  0.10100000352E+00 0.  1.
       -3    1    3    3    0  502 -0.40742884949E+03  0.50825992259E+03 -0.24298302904E+03  0.69524612829E+03  0.10100000352E+00 0. -1.
</event>
<event>
 5   0  0.5766027E-04  0.1152129E+04  0.7818609E-02  0.9155822E-01
       -1   -1    0    0    0  501  0.00000000000E+00  0.00000000000E+00  0.42099513951E+03  0.42099513954E+03  0.50400001928E-02 0. -1.
        1   -1    0    0  501    0  0.00000000000E+00  0.00000000000E+00 -0.78825179519E+03  0.78825179521E+03  0.50400001928E-02 0.  1.
    10030    2    1    2    0    0  0.00000000000E+00  0.00000000000E+00 -0.36725665568E+03  0.12092469347E+04  0.11521287680E+04 0.  0.
        3    1    3    3  502    0  0.14939846527E+03 -0.49381401768E+02  0.39800333683E+03  0.42797790900E+03  0.10100000352E+00 0. -1.
       -3    1    3    3    0  502 -0.14939846527E+03  0.49381401768E+02 -0.76525999251E+03  0.78126902575E+03  0.10100000352E+00 0.  1.
</event>
<event>
 5   0  0.1046253E-03  0.1302646E+04  0.7818609E-02  0.9027469E-01
       -2   -1    0    0    0  501  0.00000000000E+00  0.00000000000E+00  0.70349207913E+03  0.70349207914E+03  0.25500000920E-02 0. -1.
        2   -1    0    0  501    0  0.00000000000E+00  0.00000000000E+00 -0.60302277086E+03  0.60302277086E+03  0.25500000920E-02 0.  1.
    10030    2    1    2    0    0  0.00000000000E+00  0.00000000000E+00  0.10046930828E+03  0.13065148500E+04  0.13026461420E+04 0.  0.
        3    1    3    3  502    0 -0.42494394942E+03 -0.25921568736E+03  0.47154361184E+03  0.68565554091E+03  0.10100000352E+00 0. -1.
       -3    1    3    3    0  502  0.42494394942E+03  0.25921568736E+03 -0.37107430356E+03  0.62085930909E+03  0.10100000352E+00 0.  1.
</event>
<event>
 5   0  0.1081574E-03  0.1302753E+04  0.7818609E-02  0.9027385E-01
        2   -1    0    0  501    0  0.00000000000E+00  0.00000000000E+00  0.92907534689E+03  0.92907534690E+03  0.25500000920E-02 0. -1.
       -2   -1    0    0    0  501  0.00000000000E+00  0.00000000000E+00 -0.45668109657E+03  0.45668109657E+03  0.25500000920E-02 0.  1.
    10030    2    1    2    0    0  0.00000000000E+00  0.00000000000E+00  0.47239425033E+03  0.13857564435E+04  0.13027526983E+04 0.  0.
        5    1    3    3  502    0  0.43712473138E+03  0.47427292864E+03  0.13954409719E+03  0.65992991043E+03  0.46999998093E+01 0.  1.
       -5    1    3    3    0  502 -0.43712473138E+03 -0.47427292864E+03  0.33285015314E+03  0.72582653304E+03  0.46999998093E+01 0. -1.
</event>
<event>
 5   0  0.1031295E-03  0.1288124E+04  0.7818609E-02  0.9039036E-01
        2   -1    0    0  501    0  0.00000000000E+00  0.00000000000E+00  0.31494748528E+03  0.31494748529E+03  0.25500000920E-02 0.  1.
       -2   -1    0    0    0  501  0.00000000000E+00  0.00000000000E+00 -0.13170960546E+04  0.13170960546E+04  0.25500000920E-02 0. -1.
    10030    2    1    2    0    0  0.00000000000E+00  0.00000000000E+00 -0.10021485693E+04  0.16320435399E+04  0.12881243578E+04 0.  0.
        2    1    3    3  502    0  0.69253169999E+02  0.16346602372E+03  0.28333506526E+03  0.33435894138E+03  0.25500000920E-02 0.  1.
       -2    1    3    3    0  502 -0.69253169999E+02 -0.16346602372E+03 -0.12854836346E+04  0.12976845985E+04  0.25500000920E-02 0. -1.
</event>
<event>
 5   0  0.5710383E-04  0.1291027E+04  0.7818609E-02  0.9036711E-01
        1   -1    0    0  501    0  0.00000000000E+00  0.00000000000E+00  0.11720407035E+04  0.11720407035E+04  0.50400001928E-02 0.  1.
       -1   -1    0    0    0  501  0.00000000000E+00  0.00000000000E+00 -0.35552320597E+03  0.35552320601E+03  0.50400001928E-02 0. -1.
    10030    2    1    2    0    0  0.00000000000E+00  0.00000000000E+00  0.81651749756E+03  0.15275639095E+04  0.12910269842E+04 0.  0.
        1    1    3    3  502    0 -0.49831081042E+03 -0.31068052257E+03  0.91095875025E+02  0.59425121738E+03  0.50400001928E-02 0. -1.
       -1    1    3    3    0  502  0.49831081042E+03  0.31068052257E+03  0.72542162253E+03  0.93331269216E+03  0.50400001928E-02 0.  1.
</event>
<event>
 5   0  0.1031295E-03  0.1303497E+04  0.7818609E-02  0.9026797E-01
       -2   -1    0    0    0  501  0.00000000000E+00  0.00000000000E+00  0.30929244260E+03  0.30929244261E+03  0.25500000920E-02 0. -1.
        2   -1    0    0  501    0  0.00000000000E+00  0.00000000000E+00 -0.13733795924E+04  0.13733795924E+04  0.25500000920E-02 0.  1.
    10030    2    1    2    0    0  0.00000000000E+00  0.00000000000E+00 -0.10640871498E+04  0.16826720351E+04  0.13034967262E+04 0.  0.
        2    1    3    3  502    0  0.17690451972E+03 -0.34008472382E+03 -0.12124583083E+04  0.12716162856E+04  0.25500000920E-02 0.  1.
       -2    1    3    3    0  502 -0.17690451972E+03  0.34008472382E+03  0.14837115847E+03  0.41105574944E+03  0.25500000920E-02 0. -1.
</event>
<event>
 5   0  0.5710383E-04  0.1290137E+04  0.7818609E-02  0.9037423E-01
       -1   -1    0    0    0  501  0.00000000000E+00  0.00000000000E+00  0.60450675672E+03  0.60450675674E+03  0.50400001928E-02 0. -1.
        1   -1    0    0  501    0  0.00000000000E+00  0.00000000000E+00 -0.68835175722E+03  0.68835175724E+03  0.50400001928E-02 0.  1.
    10030    2    1    2    0    0  0.00000000000E+00  0.00000000000E+00 -0.83845000504E+02  0.12928585140E+04  0.12901368738E+04 0.  0.
        1    1    3    3  502    0  0.18109355046E+02  0.45907972109E+03 -0.49568137754E+03  0.67585661728E+03  0.50400001928E-02 0.  1.
       -1    1    3    3    0  502 -0.18109355046E+02 -0.45907972109E+03  0.41183637704E+03  0.61700189670E+03  0.50400001928E-02 0. -1.
</event>
<event>
 5   0  0.5812938E-04  0.1295116E+04  0.7818609E-02  0.9033448E-01
       -1   -1    0    0    0  501  0.00000000000E+00  0.00000000000E+00  0.15191062080E+04  0.15191062080E+04  0.50400001928E-02 0.  1.
        1   -1    0    0  501    0  0.00000000000E+00  0.00000000000E+00 -0.27603802801E+03  0.27603802806E+03  0.50400001928E-02 0. -1.
    10030    2    1    2    0    0  0.00000000000E+00  0.00000000000E+00  0.12430681800E+04  0.17951442360E+04  0.12951155656E+04 0.  0.
        5    1    3    3  502    0 -0.53900712966E+02  0.44373628168E+03 -0.27862324192E+02  0.44789013569E+03  0.46999998093E+01 0. -1.
       -5    1    3    3    0  502  0.53900712966E+02 -0.44373628168E+03  0.12709305041E+04  0.13472541003E+04  0.46999998093E+01 0.  1.
</event>
<event>
 5   0  0.1103241E-03  0.1306661E+04  0.7818609E-02  0.9024300E-01
       -2   -1    0    0    0  501  0.00000000000E+00  0.00000000000E+00  0.88229517139E+03  0.88229517139E+03  0.25500000920E-02 0. -1.
        2   -1    0    0  501    0  0.00000000000E+00  0.00000000000E+00 -0.48378433379E+03  0.48378433380E+03  0.25500000920E-02 0.  1.
    10030    2    1    2    0    0  0.00000000000E+00  0.00000000000E+00  0.39851083759E+03  0.13660795052E+04  0.13066607543E+04 0.  0.
        4    1    3    3  502    0 -0.17296961404E+03 -0.21554959351E+03  0.81817132884E+03  0.86358905209E+03  0.12699999809E+01 0. -1.
       -4    1    3    3    0  502  0.17296961404E+03  0.21554959351E+03 -0.41966049125E+03  0.50249045310E+03  0.12699999809E+01 0.  1.
</event>
<event>
 5   0  0.5710383E-04  0.1214277E+04  0.7818609E-02  0.9100451E-01
       -1   -1    0    0    0  501  0.00000000000E+00  0.00000000000E+00  0.99563695905E+03  0.99563695906E+03  0.50400001928E-02 0.  1.
        1   -1    0    0  501    0  0.00000000000E+00  0.00000000000E+00 -0.37023250037E+03  0.37023250041E+03  0.50400001928E-02 0. -1.
    10030    2    1    2    0    0  0.00000000000E+00  0.00000000000E+00  0.62540445868E+03  0.13658694595E+04  0.12142770044E+04 0.  0.
        1    1    3    3  502    0 -0.28371022147E+03  0.46890543394E+03  0.60657101470E+03  0.81749140157E+03  0.50400001928E-02 0.  1.
       -1    1    3    3    0  502  0.28371022147E+03 -0.46890543394E+03  0.18833443975E+02  0.54837805790E+03  0.50400001928E-02 0. -1.
</event>
<event>
 5   0  0.4012375E-04  0.1411624E+04  0.7818609E-02  0.8945447E-01
        3   -1    0    0  501    0  0.00000000000E+00  0.00000000000E+00  0.87037652919E+03  0.87037653505E+03  0.10100000352E+00 0.  1.
       -3   -1    0    0    0  501  0.00000000000E+00  0.00000000000E+00 -0.57236242994E+03  0.57236243886E+03  0.10100000352E+00 0. -1.
    10030    2    1    2    0    0  0.00000000000E+00  0.00000000000E+00  0.29801409924E+03  0.14427389739E+04  0.14116243634E+04 0.  0.
        2    1    3    3  502    0 -0.31361324428E+03  0.61538737749E+03  0.29752326529E+03  0.75204719583E+03  0.25500000920E-02 0. -1.
       -2    1    3    3    0  502  0.31361324428E+03 -0.61538737749E+03  0.49083395323E+00  0.69069177807E+03  0.25500000920E-02 0.  1.
</event>
<event>
 5   0  0.5710383E-04  0.1294694E+04  0.7818609E-02  0.9033784E-01
       -1   -1    0    0    0  501  0.00000000000E+00  0.00000000000E+00  0.34191938246E+03  0.34191938250E+03  0.50400001928E-02 0.  1.
        1   -1    0    0  501    0  0.00000000000E+00  0.00000000000E+00 -0.12256042269E+04  0.12256042269E+04  0.50400001928E-02 0. -1.
    10030    2    1    2    0    0  0.00000000000E+00  0.00000000000E+00 -0.88368484444E+03  0.15675236094E+04  0.12946935397E+04 0.  0.
        1    1    3    3  502    0  0.16077423579E+03  0.33924782649E+03 -0.10803462875E+04  0.11437156743E+04  0.50400001928E-02 0. -1.
       -1    1    3    3    0  502 -0.16077423579E+03 -0.33924782649E+03  0.19666144305E+03  0.42380793513E+03  0.50400001928E-02 0.  1.
</event>
<event>
 5   0  0.5563545E-04  0.1286150E+04  0.7818609E-02  0.9040621E-01
        1   -1    0    0  501    0  0.00000000000E+00  0.00000000000E+00  0.27978259799E+03  0.27978259804E+03  0.50400001928E-02 0. -1.
       -1   -1    0    0    0  501  0.00000000000E+00  0.00000000000E+00 -0.14780951107E+04  0.14780951107E+04  0.50400001928E-02 0.  1.
    10030    2    1    2    0    0  0.00000000000E+00  0.00000000000E+00 -0.11983125127E+04  0.17578777088E+04  0.12861497428E+04 0.  0.
        2    1    3    3  502    0 -0.16364372181E+02  0.18114600334E+03 -0.14422069565E+04  0.14536308240E+04  0.25500000920E-02 0.  1.
       -2    1    3    3    0  502  0.16364372181E+02 -0.18114600334E+03  0.24389444373E+03  0.30424688477E+03  0.25500000920E-02 0. -1.
</event>
<event>
 5   0  0.6006119E-04  0.1345037E+04  0.7818609E-02  0.8994593E-01
       -1   -1    0    0    0  501  0.00000000000E+00  0.00000000000E+00  0.32455851765E+03  0.32455851769E+03  0.50400001928E-02 0. -1.
        1   -1    0    0  501    0  0.00000000000E+00  0.00000000000E+00 -0.13935275429E+04  0.13935275429E+04  0.50400001928E-02 0.  1.
    10030    2    1    2    0    0  0.00000000000E+00  0.00000000000E+00 -0.10689690252E+04  0.17180860606E+04  0.13450371499E+04 0.  0.
        4    1    3    3  502    0  0.19519693562E+03 -0.33202211042E+03 -0.12386973176E+04  0.12971943505E+04  0.12699999809E+01 0.  1.
       -4    1    3    3    0  502 -0.19519693562E+03  0.33202211042E+03  0.16972829236E+03  0.42089171008E+03  0.12699999809E+01 0. -1.
</event>
<event>
 5   0  0.5812938E-04  0.1341581E+04  0.7818609E-02  0.8997226E-01
        1   -1    0    0  501    0  0.00000000000E+00  0.00000000000E+00  0.12889274861E+04  0.12889274861E+04  0.50400001928E-02 0. -1.
       -1   -1    0    0    0  501  0.00000000000E+00  0.00000000000E+00 -0.34909616587E+03  0.34909616590E+03  0.50400001928E-02 0.  1.
    10030    2    1    2    0    0  0.00000000000E+00  0.00000000000E+00  0.93983132027E+03  0.16380236521E+04  0.13415806253E+04 0.  0.
        5    1    3    3  502    0  0.30257835477E+03  0.55835844061E+03  0.73354171801E+03  0.97026973107E+03  0.46999998093E+01 0.  1.
       -5    1    3    3    0  502 -0.30257835477E+03 -0.55835844061E+03  0.20628960226E+03  0.66775392098E+03  0.46999998093E+01 0. -1.
</event>
<event>
 5   0  0.1101619E-03  0.1297080E+04  0.7818609E-02  0.9031884E-01
       -2   -1    0    0    0  501  0.00000000000E+00  0.00000000000E+00  0.42197802209E+03  0.42197802210E+03  0.25500000920E-02 0. -1.
        2   -1    0    0  501    0  0.00000000000E+00  0.00000000000E+00 -0.99674471827E+03  0.99674471827E+03  0.25500000920E-02 0.  1.
    10030    2    1    2    0    0  0.00000000000E+00  0.00000000000E+00 -0.57476669618E+03  0.14187227404E+04  0.12970803595E+04 0.  0.
        1    1    3    3  502    0 -0.58070134360E+03  0.92162770863E+02 -0.58672071795E+03  0.83063182439E+03  0.50400001928E-02 0.  1.
       -1    1    3    3    0  502  0.58070134360E+03 -0.92162770863E+02  0.11954021772E+02  0.58809091598E+03  0.50400001928E-02 0. -1.
</event>
<event>
 5   0  0.5563545E-04  0.1304194E+04  0.7818609E-02  0.9026246E-01
        1   -1    0    0  501    0  0.00000000000E+00  0.00000000000E+00  0.14465541718E+04  0.14465541718E+04  0.50400001928E-02 0. -1.
       -1   -1    0    0    0  501  0.00000000000E+00  0.00000000000E+00 -0.29396120109E+03  0.29396120113E+03  0.50400001928E-02 0.  1.
    10030    2    1    2    0    0  0.00000000000E+00  0.00000000000E+00  0.11525929707E+04  0.17405153730E+04  0.13041944668E+04 0.  0.
        2    1    3    3  502    0 -0.41241760862E+03  0.36871179325E+03  0.10370439423E+04  0.11753709238E+04  0.25500000920E-02 0. -1.
       -2    1    3    3    0  502  0.41241760862E+03 -0.36871179325E+03  0.11554902843E+03  0.56514444910E+03  0.25500000920E-02 0.  1.
</event>
<event>
 5   0  0.1046253E-03  0.1301694E+04  0.7818609E-02  0.9028223E-01
        2   -1    0    0  501    0  0.00000000000E+00  0.00000000000E+00  0.12827648372E+04  0.12827648372E+04  0.25500000920E-02 0. -1.
       -2   -1    0    0    0  501  0.00000000000E+00  0.00000000000E+00 -0.33022545789E+03  0.33022545790E+03  0.25500000920E-02 0.  1.
    10030    2    1    2    0    0  0.00000000000E+00  0.00000000000E+00  0.95253937929E+03  0.16129902951E+04  0.13016936748E+04 0.  0.
        3    1    3    3  502    0  0.11741148716E+03  0.60179758343E+03  0.20576121654E+03  0.64674838784E+03  0.10100000352E+00 0.  1.
       -3    1    3    3    0  502 -0.11741148716E+03 -0.60179758343E+03  0.74677816275E+03  0.96624190723E+03  0.10100000352E+00 0. -1.
</event>
<event>
 5   0  0.6006119E-04  0.1344092E+04  0.7818609E-02  0.8995313E-01
        1   -1    0    0  501    0  0.00000000000E+00  0.00000000000E+00  0.11085234611E+04  0.11085234611E+04  0.50400001928E-02 0.  1.
       -1   -1    0    0    0  501  0.00000000000E+00  0.00000000000E+00 -0.40742980213E+03  0.40742980216E+03  0.50400001928E-02 0. -1.
    10030    2    1    2    0    0  0.00000000000E+00  0.00000000000E+00  0.70109365896E+03  0.15159532633E+04  0.13440915065E+04 0.  0.
        4    1    3    3  502    0  0.12701306199E+03  0.38693356513E+03  0.95349990345E+03  0.10368286168E+04  0.12699999809E+01 0.  1.
       -4    1    3    3    0  502 -0.12701306199E+03 -0.38693356513E+03 -0.25240624449E+03  0.47912464651E+03  0.12699999809E+01 0. -1.
</event>
<event>
 5   0  0.1101619E-03  0.1286483E+04  0.7818609E-02  0.9040353E-01
       -2   -1    0    0    0  501  0.00000000000E+00  0.00000000000E+00  0.15795711534E+04  0.15795711534E+04  0.25500000920E-02 0. -1.
        2   -1    0    0  501    0  0.00000000000E+00  0.00000000000E+00 -0.26194444639E+03  0.26194444641E+03  0.25500000920E-02 0.  1.
    10030    2    1    2    0    0  0.00000000000E+00  0.00000000000E+00  0.13176267070E+04  0.18415155998E+04  0.12864834104E+04 0.  0.
        1    1    3    3  502    0  0.17674810547E+02  0.59992851811E+03  0.32761888091E+03  0.68378414498E+03  0.50400001928E-02 0. -1.
       -1    1    3    3    0  502 -0.17674810547E+02 -0.59992851811E+03  0.99000782613E+03  0.11577314549E+04  0.50400001928E-02 0.  1.
</event>
<event>
 5   0  0.5766027E-04  0.1298427E+04  0.7818609E-02  0.9030814E-01
        1   -1    0    0  501    0  0.00000000000E+00  0.00000000000E+00  0.13517581797E+04  0.13517581798E+04  0.50400001928E-02 0. -1.
       -1   -1    0    0    0  501  0.00000000000E+00  0.00000000000E+00 -0.31179977382E+03  0.31179977386E+03  0.50400001928E-02 0.  1.
    10030    2    1    2    0    0  0.00000000000E+00  0.00000000000E+00  0.10399584059E+04  0.16635579536E+04  0.12984265782E+04 0.  0.
        3    1    3    3  502    0  0.54506934255E+03 -0.24749988517E+03  0.19808894817E+03  0.63055215719E+03  0.10100000352E+00 0. -1.
       -3    1    3    3    0  502 -0.54506934255E+03  0.24749988517E+03  0.84186945776E+03  0.10330057964E+04  0.10100000352E+00 0.  1.
</event>
<event>
 5   0  0.1103241E-03  0.1299310E+04  0.7818609E-02  0.9030113E-01
        2   -1    0    0  501    0  0.00000000000E+00  0.00000000000E+00  0.13954568490E+04  0.13954568490E+04  0.25500000920E-02 0. -1.
       -2   -1    0    0    0  501  0.00000000000E+00  0.00000000000E+00 -0.30244678339E+03  0.30244678340E+03  0.25500000920E-02 0.  1.
    10030    2    1    2    0    0  0.00000000000E+00  0.00000000000E+00  0.10930100657E+04  0.16979036325E+04  0.12993097173E+04 0.  0.
        4    1    3    3  502    0 -0.22175099526E+03 -0.29352710854E+03 -0.15322086451E+03  0.39850961540E+03  0.12699999809E+01 0.  1.
       -4    1    3    3    0  502  0.22175099526E+03  0.29352710854E+03  0.12462309302E+04  0.12993940171E+04  0.12699999809E+01 0. -1.
</event>
<event>
 5   0  0.4012375E-04  0.1300665E+04  0.7818609E-02  0.9029038E-01
        3   -1    0    0  501    0  0.00000000000E+00  0.00000000000E+00  0.41741096882E+03  0.41741098104E+03  0.10100000352E+00 0. -1.
       -3   -1    0    0    0  501  0.00000000000E+00  0.00000000000E+00 -0.10132272262E+04  0.10132272313E+04  0.10100000352E+00 0.  1.
    10030    2    1    2    0    0  0.00000000000E+00  0.00000000000E+00 -0.59581625741E+03  0.14306382123E+04  0.13006647077E+04 0.  0.
        1    1    3    3  502    0 -0.11691676512E+03  0.48494737668E+03  0.16102534316E+03  0.52418760886E+03  0.50400001928E-02 0. -1.
       -1    1    3    3    0  502  0.11691676512E+03 -0.48494737668E+03 -0.75684160057E+03  0.90645060345E+03  0.50400001928E-02 0.  1.
</event>
<event>
 5   0  0.1031295E-03  0.1282428E+04  0.7818609E-02  0.9043617E-01
        2   -1    0    0  501    0  0.00000000000E+00  0.00000000000E+00  0.62674309102E+03  0.62674309102E+03  0.25500000920E-02 0. -1.
       -2   -1    0    0    0  501  0.00000000000E+00  0.00000000000E+00 -0.65601946464E+03  0.65601946464E+03  0.25500000920E-02 0.  1.
    10030    2    1    2    0    0  0.00000000000E+00  0.00000000000E+00 -0.29276373622E+02  0.12827625557E+04  0.12824284261E+04 0.  0.
        2    1    3    3  502    0  0.51480748436E+03 -0.36717828368E+03  0.91733439337E+02  0.63895356785E+03  0.25500000920E-02 0. -1.
       -2    1    3    3    0  502 -0.51480748436E+03  0.36717828368E+03 -0.12100981296E+03  0.64380898782E+03  0.25500000920E-02 0.  1.
</event>
<event>
 5   0  0.1081574E-03  0.1300356E+04  0.7818609E-02  0.9029283E-01
       -2   -1    0    0    0  501  0.00000000000E+00  0.00000000000E+00  0.33752067479E+03  0.33752067480E+03  0.25500000920E-02 0.  1.
        2   -1    0    0  501    0  0.00000000000E+00  0.00000000000E+00 -0.12524599089E+04  0.12524599089E+04  0.25500000920E-02 0. -1.
    10030    2    1    2    0    0  0.00000000000E+00  0.00000000000E+00 -0.91493923416E+03  0.15899805837E+04  0.13003555108E+04 0.  0.
        5    1    3    3  502    0  0.32506963763E+03 -0.55487690358E+03 -0.57443280396E+03  0.86229564750E+03  0.46999998093E+01 0. -1.
       -5    1    3    3    0  502 -0.32506963763E+03  0.55487690358E+03 -0.34050643019E+03  0.72768493624E+03  0.46999998093E+01 0.  1.
</event>
<event>
 5   0  0.1031295E-03  0.1300850E+04  0.7818609E-02  0.9028892E-01
        2   -1    0    0  501    0  0.00000000000E+00  0.00000000000E+00  0.11563906486E+04  0.11563906486E+04  0.25500000920E-02 0. -1.
       -2   -1    0    0    0  501  0.00000000000E+00  0.00000000000E+00 -0.36583871681E+03  0.36583871682E+03  0.25500000920E-02 0.  1.
    10030    2    1    2    0    0  0.00000000000E+00  0.00000000000E+00  0.79055193177E+03  0.15222293654E+04  0.13008496777E+04 0.  0.
        2    1    3    3  502    0  0.19390767026E+03 -0.44555890624E+03 -0.11065581288E+03  0.49836495908E+03  0.25500000920E-02 0.  1.
       -2    1    3    3    0  502 -0.19390767026E+03  0.44555890624E+03  0.90120774465E+03  0.10238644063E+04  0.25500000920E-02 0. -1.
</event>
<event>
 5   0  0.1046253E-03  0.1297660E+04  0.7818609E-02  0.9031423E-01
        2   -1    0    0  501    0  0.00000000000E+00  0.00000000000E+00  0.25643533145E+04  0.25643533145E+04  0.25500000920E-02 0.  1.
       -2   -1    0    0    0  501  0.00000000000E+00  0.00000000000E+00 -0.16416625655E+03  0.16416625657E+03  0.25500000920E-02 0. -1.
    10030    2    1    2    0    0  0.00000000000E+00  0.00000000000E+00  0.24001870579E+04  0.27285195711E+04  0.12976598694E+04 0.  0.
        3    1    3    3  502    0  0.10195244635E+03  0.53106352314E+03  0.19539955718E+04  0.20274421007E+04  0.10100000352E+00 0.  1.
       -3    1    3    3    0  502 -0.10195244635E+03 -0.53106352314E+03  0.44619148612E+03  0.70107747033E+03  0.10100000352E+00 0. -1.
</event>
<event>
 5   0  0.1046253E-03  0.1297149E+04  0.7818609E-02  0.9031829E-01
        2   -1    0    0  501    0  0.00000000000E+00  0.00000000000E+00  0.10697450317E+04  0.10697450317E+04  0.25500000920E-02 0.  1.
       -2   -1    0    0    0  501  0.00000000000E+00  0.00000000000E+00 -0.39322320627E+03  0.39322320628E+03  0.25500000920E-02 0. -1.
    10030    2    1    2    0    0  0.00000000000E+00  0.00000000000E+00  0.67652182546E+03  0.14629682380E+04  0.12971485208E+04 0.  0.
        3    1    3    3  502    0  0.61414881267E+03 -0.11664982179E+03  0.53315969149E+03  0.82161135086E+03  0.10100000352E+00 0.  1.
       -3    1    3    3    0  502 -0.61414881267E+03  0.11664982179E+03  0.14336213396E+03  0.64135688714E+03  0.10100000352E+00 0. -1.
</event>
<event>
 5   0  0.1031295E-03  0.1283750E+04  0.7818609E-02  0.9042551E-01
       -2   -1    0    0    0  501  0.00000000000E+00  0.00000000000E+00  0.64062555477E+03  0.64062555478E+03  0.25500000920E-02 0.  1.
        2   -1    0    0  501    0  0.00000000000E+00  0.00000000000E+00 -0.64312728101E+03  0.64312728101E+03  0.25500000920E-02 0. -1.
    10030    2    1    2    0    0  0.00000000000E+00  0.00000000000E+00 -0.25017262342E+01  0.12837528358E+04  0.12837503982E+04 0.  0.
        2    1    3    3  502    0  0.37552996777E+02  0.70013759051E+02 -0.63819132960E+03  0.64311766203E+03  0.25500000920E-02 0. -1.
       -2    1    3    3    0  502 -0.37552996777E+02 -0.70013759051E+02  0.63568960337E+03  0.64063517376E+03  0.25500000920E-02 0.  1.
</event>
<event>
 5   0  0.4012375E-04  0.1294017E+04  0.7818609E-02  0.9034323E-01
        3   -1    0    0  501    0  0.00000000000E+00  0.00000000000E+00  0.10047147304E+04  0.10047147355E+04  0.10100000352E+00 0. -1.
       -3   -1    0    0    0  501  0.00000000000E+00  0.00000000000E+00 -0.41665575242E+03  0.41665576466E+03  0.10100000352E+00 0.  1.
    10030    2    1    2    0    0  0.00000000000E+00  0.00000000000E+00  0.58805897798E+03  0.14213705001E+04  0.12940172862E+04 0.  0.
        4    1    3    3  502    0  0.77271811548E+02 -0.16513268103E+03 -0.38785553160E+03  0.42857118603E+03  0.12699999809E+01 0.  1.
       -4    1    3    3    0  502 -0.77271811548E+02  0.16513268103E+03  0.97591450957E+03  0.99279931411E+03  0.12699999809E+01 0. -1.
</event>
<event>
 5   0  0.4012375E-04  0.1303340E+04  0.7818609E-02  0.9026920E-01
        4   -1    0    0  501    0  0.00000000000E+00  0.00000000000E+00  0.43342436883E+03  0.43342622948E+03  0.12699999809E+01 0. -1.
       -4   -1    0    0    0  501  0.00000000000E+00  0.00000000000E+00 -0.97980667654E+03  0.97980749961E+03  0.12699999809E+01 0.  1.
    10030    2    1    2    0    0  0.00000000000E+00  0.00000000000E+00 -0.54638230770E+03  0.14132337291E+04  0.13033403035E+04 0.  0.
        1    1    3    3  502    0  0.55185686921E+03  0.19470716294E+03  0.37720681515E+02  0.58641259641E+03  0.50400001928E-02 0. -1.
       -1    1    3    3    0  502 -0.55185686921E+03 -0.19470716294E+03 -0.58410298922E+03  0.82682113267E+03  0.50400001928E-02 0.  1.
</event>
<event>
 5   0  0.1046253E-03  0.1292558E+04  0.7818609E-02  0.9035487E-01
       -2   -1    0    0    0  501  0.00000000000E+00  0.00000000000E+00  0.16237081694E+04  0.16237081694E+04  0.25500000920E-02 0. -1.
        2   -1    0    0  501    0  0.00000000000E+00  0.00000000000E+00 -0.25723633829E+03  0.25723633831E+03  0.25500000920E-02 0.  1.
    10030    2    1    2    0    0  0.00000000000E+00  0.00000000000E+00  0.13664718311E+04  0.18809445077E+04  0.12925583066E+04 0.  0.
        3    1    3    3  502    0  0.60487494825E+03  0.21981945192E+03  0.76911108707E+03  0.10028589975E+04  0.10100000352E+00 0. -1.
       -3    1    3    3    0  502 -0.60487494825E+03 -0.21981945192E+03  0.59736074401E+03  0.87808551016E+03  0.10100000352E+00 0.  1.
</event>
<event>
 5   0  0.6006119E-04  0.1304057E+04  0.7818609E-02  0.9026354E-01
        1   -1    0    0  501    0  0.00000000000E+00  0.00000000000E+00  0.43702048600E+03  0.43702048603E+03  0.50400001928E-02 0. -1.
       -1   -1    0    0    0  501  0.00000000000E+00  0.00000000000E+00 -0.97281719448E+03  0.97281719449E+03  0.50400001928E-02 0.  1.
    10030    2    1    2    0    0  0.00000000000E+00  0.00000000000E+00 -0.53579670848E+03  0.14098376805E+04  0.13040568134E+04 0.  0.
        4    1    3    3  502    0 -0.29339479184E+03 -0.48964266348E+03  0.72797524641E+02  0.57544029601E+03  0.12699999809E+01 0. -1.
       -4    1    3    3    0  502  0.29339479184E+03  0.48964266348E+03 -0.60859423312E+03  0.83439738450E+03  0.12699999809E+01 0.  1.
</event>
<event>
 5   0  0.1101619E-03  0.1294678E+04  0.7818609E-02  0.9033796E-01
       -2   -1    0    0    0  501  0.00000000000E+00  0.00000000000E+00  0.10621871542E+04  0.10621871542E+04  0.25500000920E-02 0. -1.
        2   -1    0    0  501    0  0.00000000000E+00  0.00000000000E+00 -0.39451421404E+03  0.39451421405E+03  0.25500000920E-02 0.  1.
    10030    2    1    2    0    0  0.00000000000E+00  0.00000000000E+00  0.66767294013E+03  0.14567013682E+04  0.12946782308E+04 0.  0.
        1    1    3    3  502    0  0.63164261239E+03  0.14151813455E+03  0.32602840718E+03  0.72477189136E+03  0.50400001928E-02 0.  1.
       -1    1    3    3    0  502 -0.63164261239E+03 -0.14151813455E+03  0.34164453294E+03  0.73192947686E+03  0.50400001928E-02 0. -1.
</event>
<event>
 5   0  0.1031295E-03  0.1303873E+04  0.7818609E-02  0.9026499E-01
       -2   -1    0    0    0  501  0.00000000000E+00  0.00000000000E+00  0.27194058706E+03  0.27194058707E+03  0.25500000920E-02 0.  1.
        2   -1    0    0  501    0  0.00000000000E+00  0.00000000000E+00 -0.15629199926E+04  0.15629199926E+04  0.25500000920E-02 0. -1.
    10030    2    1    2    0    0  0.00000000000E+00  0.00000000000E+00 -0.12909794056E+04  0.18348605797E+04  0.13038732766E+04 0.  0.
        2    1    3    3  502    0 -0.51806076572E+01  0.40320611485E+02  0.27015524964E+03  0.27319672275E+03  0.25500000920E-02 0.  1.
       -2    1    3    3    0  502  0.51806076572E+01 -0.40320611485E+02 -0.15611346552E+04  0.15616638570E+04  0.25500000920E-02 0. -1.
</event>
<event>
 5   0  0.5563545E-04  0.1280523E+04  0.7818609E-02  0.9045155E-01
        1   -1    0    0  501    0  0.00000000000E+00  0.00000000000E+00  0.12443811578E+04  0.12443811579E+04  0.50400001928E-02 0.  1.
       -1   -1    0    0    0  501  0.00000000000E+00  0.00000000000E+00 -0.32942879014E+03  0.32942879018E+03  0.50400001928E-02 0. -1.
    10030    2    1    2    0    0  0.00000000000E+00  0.00000000000E+00  0.91495236771E+03  0.15738099480E+04  0.12805232982E+04 0.  0.
        2    1    3    3  502    0 -0.11038838905E+03 -0.20887298415E+03  0.11888525532E+04  0.12120989701E+04  0.25500000920E-02 0.  1.
       -2    1    3    3    0  502  0.11038838905E+03  0.20887298415E+03 -0.27390018552E+03  0.36171097796E+03  0.25500000920E-02 0. -1.
</event>
<event>
 5   0  0.1081574E-03  0.1291786E+04  0.7818609E-02  0.9036104E-01
        2   -1    0    0  501    0  0.00000000000E+00  0.00000000000E+00  0.77250270114E+03  0.77250270114E+03  0.25500000920E-02 0.  1.
       -2   -1    0    0    0  501  0.00000000000E+00  0.00000000000E+00 -0.54003429966E+03  0.54003429966E+03  0.25500000920E-02 0. -1.
    10030    2    1    2    0    0  0.00000000000E+00  0.00000000000E+00  0.23246840148E+03  0.13125370008E+04  0.12917862907E+04 0.  0.
        5    1    3    3  502    0 -0.12774735699E+03  0.41009170000E+03 -0.37386380614E+03  0.56946538540E+03  0.46999998093E+01 0. -1.
       -5    1    3    3    0  502  0.12774735699E+03 -0.41009170000E+03  0.60633220762E+03  0.74307161541E+03  0.46999998093E+01 0.  1.
</event>
<event>
 5   0  0.5766027E-04  0.1306196E+04  0.7818609E-02  0.9024666E-01
        1   -1    0    0  501    0  0.00000000000E+00  0.00000000000E+00  0.90790298293E+03  0.90790298295E+03  0.50400001928E-02 0.  1.
       -1   -1    0    0    0  501  0.00000000000E+00  0.00000000000E+00 -0.46980469799E+03  0.46980469802E+03  0.50400001928E-02 0. -1.
    10030    2    1    2    0    0  0.00000000000E+00  0.00000000000E+00  0.43809828494E+03  0.13777076810E+04  0.13061961365E+04 0.  0.
        3    1    3    3  502    0  0.14449184266E+03 -0.11797965219E+03 -0.44110847110E+03  0.47892983244E+03  0.10100000352E+00 0. -1.
       -3    1    3    3    0  502 -0.14449184266E+03  0.11797965219E+03  0.87920675604E+03  0.89877784852E+03  0.10100000352E+00 0.  1.
</event>
<event>
 5   0  0.5766027E-04  0.1303328E+04  0.7818609E-02  0.9026930E-01
        1   -1    0    0  501    0  0.00000000000E+00  0.00000000000E+00  0.10727707620E+04  0.10727707620E+04  0.50400001928E-02 0. -1.
       -1   -1    0    0    0  501  0.00000000000E+00  0.00000000000E+00 -0.39585917504E+03  0.39585917507E+03  0.50400001928E-02 0.  1.
    10030    2    1    2    0    0  0.00000000000E+00  0.00000000000E+00  0.67691158699E+03  0.14686299371E+04  0.13033282762E+04 0.  0.
        3    1    3    3  502    0  0.35290321386E+03 -0.87999285520E+01 -0.27878403655E+03  0.44982070465E+03  0.10100000352E+00 0.  1.
       -3    1    3    3    0  502 -0.35290321386E+03  0.87999285520E+01  0.95569562355E+03  0.10188092325E+04  0.10100000352E+00 0. -1.
</event>
<event>
 5   0  0.6006119E-04  0.1309066E+04  0.7818609E-02  0.9022406E-01
        1   -1    0    0  501    0  0.00000000000E+00  0.00000000000E+00  0.11772215713E+04  0.11772215713E+04  0.50400001928E-02 0.  1.
       -1   -1    0    0    0  501  0.00000000000E+00  0.00000000000E+00 -0.36391925999E+03  0.36391926003E+03  0.50400001928E-02 0. -1.
    10030    2    1    2    0    0  0.00000000000E+00  0.00000000000E+00  0.81330231129E+03  0.15411408313E+04  0.13090662368E+04 0.  0.
        4    1    3    3  502    0  0.54579859453E+03 -0.31744031088E+03  0.20359966323E+03  0.66341457063E+03  0.12699999809E+01 0.  1.
       -4    1    3    3    0  502 -0.54579859453E+03  0.31744031088E+03  0.60970264807E+03  0.87772626070E+03  0.12699999809E+01 0. -1.
</event>
<event>
 5   0  0.1103241E-03  0.1282827E+04  0.7818609E-02  0.9043295E-01
       -2   -1    0    0    0  501  0.00000000000E+00  0.00000000000E+00  0.67836996897E+03  0.67836996898E+03  0.25500000920E-02 0.  1.
        2   -1    0    0  501    0  0.00000000000E+00  0.00000000000E+00 -0.60647055064E+03  0.60647055064E+03  0.25500000920E-02 0. -1.
    10030    2    1    2    0    0  0.00000000000E+00  0.00000000000E+00  0.71899418334E+02  0.12848405196E+04  0.12828272037E+04 0.  0.
        4    1    3    3  502    0  0.46052047183E+02 -0.63329063772E+03  0.12682232465E+03  0.64750547319E+03  0.12699999809E+01 0.  1.
       -4    1    3    3    0  502 -0.46052047183E+02  0.63329063772E+03 -0.54922906313E+02  0.63733504644E+03  0.12699999809E+01 0. -1.
</event>
<event>
 5   0  0.1031295E-03  0.1305460E+04  0.7818609E-02  0.9025246E-01
       -2   -1    0    0    0  501  0.00000000000E+00  0.00000000000E+00  0.75315153472E+03  0.75315153473E+03  0.25500000920E-02 0.  1.
        2   -1    0    0  501    0  0.00000000000E+00  0.00000000000E+00 -0.56569851228E+03  0.56569851228E+03  0.25500000920E-02 0. -1.
    10030    2    1    2    0    0  0.00000000000E+00  0.00000000000E+00  0.18745302244E+03  0.13188500470E+04  0.13054603827E+04 0.  0.
        2    1    3    3  502    0  0.58876830336E+03  0.18793651355E+03 -0.11839961460E+03  0.62927475470E+03  0.25500000920E-02 0. -1.
       -2    1    3    3    0  502 -0.58876830336E+03 -0.18793651355E+03  0.30585263705E+03  0.68957529230E+03  0.25500000920E-02 0.  1.
</event>
<event>
 5   0  0.1103241E-03  0.1277479E+04  0.7818609E-02  0.9047618E-01
       -2   -1    0    0    0  501  0.00000000000E+00  0.00000000000E+00  0.73190979108E+03  0.73190979109E+03  0.25500000920E-02 0.  1.
        2   -1    0    0  501    0  0.00000000000E+00  0.00000000000E+00 -0.55742926307E+03  0.55742926308E+03  0.25500000920E-02 0. -1.
    10030    2    1    2    0    0  0.00000000000E+00  0.00000000000E+00  0.17448052801E+03  0.12893390542E+04  0.12774786659E+04 0.  0.
        4    1    3    3  502    0 -0.33889812232E+03 -0.76543702871E+02  0.62819725284E+03  0.71787483389E+03  0.12699999809E+01 0.  1.
       -4    1    3    3    0  502  0.33889812232E+03  0.76543702871E+02 -0.45371672483E+03  0.57146422027E+03  0.12699999809E+01 0. -1.
</event>
<event>
 5   0  0.1101619E-03  0.1299137E+04  0.7818609E-02  0.9030250E-01
       -2   -1    0    0    0  501  0.00000000000E+00  0.00000000000E+00  0.88274253743E+03  0.88274253744E+03  0.25500000920E-02 0. -1.
        2   -1    0    0  501    0  0.00000000000E+00  0.00000000000E+00 -0.47798664232E+03  0.47798664233E+03  0.25500000920E-02 0.  1.
    10030    2    1    2    0    0  0.00000000000E+00  0.00000000000E+00  0.40475589511E+03  0.13607291798E+04  0.12991368542E+04 0.  0.
        1    1    3    3  502    0  0.36389776676E+03 -0.43014366498E+03  0.54095883528E+03  0.78107721685E+03  0.50400001928E-02 0. -1.
       -1    1    3    3    0  502 -0.36389776676E+03  0.43014366498E+03 -0.13620294017E+03  0.57965196292E+03  0.50400001928E-02 0.  1.
</event>
<event>
 5   0  0.1046253E-03  0.1298807E+04  0.7818609E-02  0.9030512E-01
        2   -1    0    0  501    0  0.00000000000E+00  0.00000000000E+00  0.19879006389E+04  0.19879006389E+04  0.25500000920E-02 0. -1.
       -2   -1    0    0    0  501  0.00000000000E+00  0.00000000000E+00 -0.21214578464E+03  0.21214578465E+03  0.25500000920E-02 0.  1.
    10030    2    1    2    0    0  0.00000000000E+00  0.00000000000E+00  0.17757548542E+04  0.22000464235E+04  0.12988067459E+04 0.  0.
        3    1    3    3  502    0 -0.62604467724E+03  0.57805471684E+02  0.11633706918E+04  0.13223860205E+04  0.10100000352E+00 0. -1.
       -3    1    3    3    0  502  0.62604467724E+03 -0.57805471684E+02  0.61238416247E+03  0.87766040306E+03  0.10100000352E+00 0.  1.
</event>
<event>
 5   0  0.5710383E-04  0.1303712E+04  0.7818609E-02  0.9026626E-01
       -1   -1    0    0    0  501  0.00000000000E+00  0.00000000000E+00  0.47260273111E+03  0.47260273113E+03  0.50400001928E-02 0. -1.
        1   -1    0    0  501    0  0.00000000000E+00  0.00000000000E+00 -0.89909878790E+03  0.89909878791E+03  0.50400001928E-02 0.  1.
    10030    2    1    2    0    0  0.00000000000E+00  0.00000000000E+00 -0.42649605679E+03  0.13717015190E+04  0.13037124571E+04 0.  0.
        1    1    3    3  502    0  0.39465738733E+03 -0.12023391306E+03  0.31775537295E+03  0.52074861910E+03  0.50400001928E-02 0. -1.
       -1    1    3    3    0  502 -0.39465738733E+03  0.12023391306E+03 -0.74425142974E+03  0.85095289995E+03  0.50400001928E-02 0.  1.
</event>
<event>
 5   0  0.1031295E-03  0.1281530E+04  0.7818609E-02  0.9044342E-01
        2   -1    0    0  501    0  0.00000000000E+00  0.00000000000E+00  0.22541910445E+04  0.22541910445E+04  0.25500000920E-02 0. -1.
       -2   -1    0    0    0  501  0.00000000000E+00  0.00000000000E+00 -0.18214065530E+03  0.18214065532E+03  0.25500000920E-02 0.  1.
    10030    2    1    2    0    0  0.00000000000E+00  0.00000000000E+00  0.20720503892E+04  0.24363316999E+04  0.12815300762E+04 0.  0.
        2    1    3    3  502    0  0.18986995418E+03 -0.71923324417E+02 -0.11936945147E+03  0.23552628313E+03  0.25500000920E-02 0.  1.
       -2    1    3    3    0  502 -0.18986995418E+03  0.71923324417E+02  0.21914198407E+04  0.22008054167E+04  0.25500000920E-02 0. -1.
</event>
<event>
 5   0  0.5563545E-04  0.1300397E+04  0.7818609E-02  0.9029251E-01
        1   -1    0    0  501    0  0.00000000000E+00  0.00000000000E+00  0.12254667383E+04  0.12254667384E+04  0.50400001928E-02 0. -1.
       -1   -1    0    0    0  501  0.00000000000E+00  0.00000000000E+00 -0.34497703189E+03  0.34497703193E+03  0.50400001928E-02 0.  1.
    10030    2    1    2    0    0  0.00000000000E+00  0.00000000000E+00  0.88048970645E+03  0.15704437703E+04  0.13003966750E+04 0.  0.
        2    1    3    3  502    0 -0.11553645920E+03  0.40545858792E+03  0.10380239100E+04  0.11203744809E+04  0.25500000920E-02 0. -1.
       -2    1    3    3    0  502  0.11553645920E+03 -0.40545858792E+03 -0.15753420350E+03  0.45006928933E+03  0.25500000920E-02 0.  1.
</event>
<event>
 5   0  0.1031295E-03  0.1279508E+04  0.7818609E-02  0.9045975E-01
        2   -1    0    0  501    0  0.00000000000E+00  0.00000000000E+00  0.15075790649E+04  0.15075790649E+04  0.25500000920E-02 0.  1.
       -2   -1    0    0    0  501  0.00000000000E+00  0.00000000000E+00 -0.27148518472E+03  0.27148518474E+03  0.25500000920E-02 0. -1.
    10030    2    1    2    0    0  0.00000000000E+00  0.00000000000E+00  0.12360938802E+04  0.17790642497E+04  0.12795083133E+04 0.  0.
        2    1    3    3  502    0 -0.12467554234E+03 -0.43465886120E+03 -0.11209035561E+02  0.45232505896E+03  0.25500000920E-02 0. -1.
       -2    1    3    3    0  502  0.12467554234E+03  0.43465886120E+03  0.12473029158E+04  0.13267391907E+04  0.25500000920E-02 0.  1.
</event>
<event>
 5   0  0.1103241E-03  0.1294177E+04  0.7818609E-02  0.9034196E-01
        2   -1    0    0  501    0  0.00000000000E+00  0.00000000000E+00  0.13162478675E+04  0.13162478675E+04  0.25500000920E-02 0. -1.
       -2   -1    0    0    0  501  0.00000000000E+00  0.00000000000E+00 -0.31811906307E+03  0.31811906308E+03  0.25500000920E-02 0.  1.
    10030    2    1    2    0    0  0.00000000000E+00  0.00000000000E+00  0.99812880440E+03  0.16343669306E+04  0.12941770178E+04 0.  0.
        4    1    3    3  502    0  0.59162759796E+03 -0.16445434109E+03  0.24132457612E+03  0.65977845442E+03  0.12699999809E+01 0. -1.
       -4    1    3    3    0  502 -0.59162759796E+03  0.16445434109E+03  0.75680422828E+03  0.97458847614E+03  0.12699999809E+01 0.  1.
</event>
<event>
 5   0  0.5710383E-04  0.1332260E+04  0.7818609E-02  0.9004367E-01
       -1   -1    0    0    0  501  0.00000000000E+00  0.00000000000E+00  0.39709774708E+03  0.39709774711E+03  0.50400001928E-02 0. -1.
        1   -1    0    0  501    0  0.00000000000E+00  0.00000000000E+00 -0.11174299814E+04  0.11174299814E+04  0.50400001928E-02 0.  1.
    10030    2    1    2    0    0  0.00000000000E+00  0.00000000000E+00 -0.72033223430E+03  0.15145277285E+04  0.13322596266E+04 0.  0.
        1    1    3    3  502    0  0.40718775728E+03  0.19717561825E+02  0.23872766643E+03  0.47242094648E+03  0.50400001928E-02 0. -1.
       -1    1    3    3    0  502 -0.40718775728E+03 -0.19717561825E+02 -0.95905990073E+03  0.10421067820E+04  0.50400001928E-02 0.  1.
</event>
<event>
 5   0  0.5766027E-04  0.1282029E+04  0.7818609E-02  0.9043939E-01
        1   -1    0    0  501    0  0.00000000000E+00  0.00000000000E+00  0.11219215381E+04  0.11219215381E+04  0.50400001928E-02 0. -1.
       -1   -1    0    0    0  501  0.00000000000E+00  0.00000000000E+00 -0.36624640296E+03  0.36624640300E+03  0.50400001928E-02 0.  1.
    10030    2    1    2    0    0  0.00000000000E+00  0.00000000000E+00  0.75567513509E+03  0.14881679411E+04  0.12820292161E+04 0.  0.
        3    1    3    3  502    0 -0.14216486793E+03 -0.57900408736E+03  0.65116165734E+03  0.88287490453E+03  0.10100000352E+00 0. -1.
       -3    1    3    3    0  502  0.14216486793E+03  0.57900408736E+03  0.10451347774E+03  0.60529303654E+03  0.10100000352E+00 0.  1.
</event>
<event>
 5   0  0.1046253E-03  0.1303905E+04  0.7818609E-02  0.9026475E-01
       -2   -1    0    0    0  501  0.00000000000E+00  0.00000000000E+00  0.66779364954E+03  0.66779364954E+03  0.25500000920E-02 0.  1.
        2   -1    0    0  501    0  0.00000000000E+00  0.00000000000E+00 -0.63648665430E+03  0.63648665430E+03  0.25500000920E-02 0. -1.
    10030    2    1    2    0    0  0.00000000000E+00  0.00000000000E+00  0.31306995241E+02  0.13042803038E+04  0.13039045145E+04 0.  0.
        3    1    3    3  502    0  0.28643193501E+03  0.54974155009E+03 -0.18635200000E+03  0.64729135896E+03  0.10100000352E+00 0. -1.
       -3    1    3    3    0  502 -0.28643193501E+03 -0.54974155009E+03  0.21765899524E+03  0.65698894488E+03  0.10100000352E+00 0.  1.
</event>
<event>
 5   0  0.5812938E-04  0.1316651E+04  0.7818609E-02  0.9016464E-01
        1   -1    0    0  501    0  0.00000000000E+00  0.00000000000E+00  0.20842058074E+04  0.20842058074E+04  0.50400001928E-02 0. -1.
       -1   -1    0    0    0  501  0.00000000000E+00  0.00000000000E+00 -0.20794114412E+03  0.20794114418E+03  0.50400001928E-02 0.  1.
    10030    2    1    2    0    0  0.00000000000E+00  0.00000000000E+00  0.18762646633E+04  0.22921469516E+04  0.13166505083E+04 0.  0.
        5    1    3    3  502    0  0.16858951498E+03 -0.37876099515E+03  0.47911798730E+02  0.41737267096E+03  0.46999998093E+01 0.  1.
       -5    1    3    3    0  502 -0.16858951498E+03  0.37876099515E+03  0.18283528645E+04  0.18747742806E+04  0.46999998093E+01 0. -1.
</event>
<event>
 5   0  0.6006119E-04  0.1308460E+04  0.7818609E-02  0.9022883E-01
        1   -1    0    0  501    0  0.00000000000E+00  0.00000000000E+00  0.14249259508E+04  0.14249259508E+04  0.50400001928E-02 0. -1.
       -1   -1    0    0    0  501  0.00000000000E+00  0.00000000000E+00 -0.30037845743E+03  0.30037845748E+03  0.50400001928E-02 0.  1.
    10030    2    1    2    0    0  0.00000000000E+00  0.00000000000E+00  0.11245474934E+04  0.17253044083E+04  0.13084602540E+04 0.  0.
        4    1    3    3  502    0  0.28744041267E+03  0.74086403908E+02  0.13310213174E+04  0.13637192330E+04  0.12699999809E+01 0. -1.
       -4    1    3    3    0  502 -0.28744041267E+03 -0.74086403908E+02 -0.20647382406E+03  0.36158517530E+03  0.12699999809E+01 0.  1.
</event>
<event>
 5   0  0.1103241E-03  0.1308592E+04  0.7818609E-02  0.9022779E-01
        2   -1    0    0  501    0  0.00000000000E+00  0.00000000000E+00  0.17718670649E+04  0.17718670649E+04  0.25500000920E-02 0.  1.
       -2   -1    0    0    0  501  0.00000000000E+00  0.00000000000E+00 -0.24161142469E+03  0.24161142471E+03  0.25500000920E-02 0. -1.
    10030    2    1    2    0    0  0.00000000000E+00  0.00000000000E+00  0.15302556402E+04  0.20134784896E+04  0.13085921075E+04 0.  0.
        4    1    3    3  502    0 -0.42929339080E+03  0.47358633949E+03  0.55012861825E+03  0.84333857130E+03  0.12699999809E+01 0.  1.
       -4    1    3    3    0  502  0.42929339080E+03 -0.47358633949E+03  0.98012702192E+03  0.11701399183E+04  0.12699999809E+01 0. -1.
</event>
<event>
 5   0  0.1101619E-03  0.1298555E+04  0.7818609E-02  0.9030712E-01
       -2   -1    0    0    0  501  0.00000000000E+00  0.00000000000E+00  0.10099046960E+04  0.10099046960E+04  0.25500000920E-02 0.  1.
        2   -1    0    0  501    0  0.00000000000E+00  0.00000000000E+00 -0.41742663007E+03  0.41742663008E+03  0.25500000920E-02 0. -1.
    10030    2    1    2    0    0  0.00000000000E+00  0.00000000000E+00  0.59247806593E+03  0.14273313261E+04  0.12985547566E+04 0.  0.
        1    1    3    3  502    0  0.28595673208E+03  0.44114140830E+03 -0.12257776024E+03  0.53981691532E+03  0.50400001928E-02 0. -1.
       -1    1    3    3    0  502 -0.28595673208E+03 -0.44114140830E+03  0.71505582617E+03  0.88751441076E+03  0.50400001928E-02 0.  1.
</event>
<event>
 5   0  0.5563545E-04  0.1296579E+04  0.7818609E-02  0.9032282E-01
        1   -1    0    0  501    0  0.00000000000E+00  0.00000000000E+00  0.89244009329E+03  0.89244009330E+03  0.50400001928E-02 0.  1.
       -1   -1    0    0    0  501  0.00000000000E+00  0.00000000000E+00 -0.47093279992E+03  0.47093279995E+03  0.50400001928E-02 0. -1.
    10030    2    1    2    0    0  0.00000000000E+00  0.00000000000E+00  0.42150729337E+03  0.13633728933E+04  0.12965790557E+04 0.  0.
        2    1    3    3  502    0  0.21450952619E+03  0.38822884571E+03  0.70791403591E+03  0.83539107950E+03  0.25500000920E-02 0.  1.
       -2    1    3    3    0  502 -0.21450952619E+03 -0.38822884571E+03 -0.28640674254E+03  0.52798181375E+03  0.25500000920E-02 0. -1.
</event>
<event>
 5   0  0.1031295E-03  0.1301155E+04  0.7818609E-02  0.9028650E-01
       -2   -1    0    0    0  501  0.00000000000E+00  0.00000000000E+00  0.20052795067E+03  0.20052795069E+03  0.25500000920E-02 0. -1.
        2   -1    0    0  501    0  0.00000000000E+00  0.00000000000E+00 -0.21106831203E+04  0.21106831203E+04  0.25500000920E-02 0.  1.
    10030    2    1    2    0    0  0.00000000000E+00  0.00000000000E+00 -0.19101551696E+04  0.23112110710E+04  0.13011548112E+04 0.  0.
        2    1    3    3  502    0  0.11732984907E+03  0.62338698233E+03 -0.69844808105E+03  0.94350799951E+03  0.25500000920E-02 0. -1.
       -2    1    3    3    0  502 -0.11732984907E+03 -0.62338698233E+03 -0.12117070886E+04  0.13677030715E+04  0.25500000920E-02 0.  1.
</event>
<event>
 5   0  0.1101619E-03  0.1304717E+04  0.7818609E-02  0.9025833E-01
       -2   -1    0    0    0  501  0.00000000000E+00  0.00000000000E+00  0.31920432995E+03  0.31920432996E+03  0.25500000920E-02 0. -1.
        2   -1    0    0  501    0  0.00000000000E+00  0.00000000000E+00 -0.13332257158E+04  0.13332257158E+04  0.25500000920E-02 0.  1.
    10030    2    1    2    0    0  0.00000000000E+00  0.00000000000E+00 -0.10140213859E+04  0.16524300458E+04  0.13047167069E+04 0.  0.
        1    1    3    3  502    0 -0.39742412234E+03  0.12253413924E+03  0.12953983015E+03  0.43559283272E+03  0.50400001928E-02 0. -1.
       -1    1    3    3    0  502  0.39742412234E+03 -0.12253413924E+03 -0.11435612160E+04  0.12168372131E+04  0.50400001928E-02 0.  1.
</event>
<event>
 5   0  0.1046253E-03  0.1230422E+04  0.7818609E-02  0.9086637E-01
       -2   -1    0    0    0  501  0.00000000000E+00  0.00000000000E+00  0.67225103753E+03  0.67225103754E+03  0.25500000920E-02 0.  1.
        2   -1    0    0  501    0  0.00000000000E+00  0.00000000000E+00 -0.56301079797E+03  0.56301079797E+03  0.25500000920E-02 0. -1.
    10030    2    1    2    0    0  0.00000000000E+00  0.00000000000E+00  0.10924023957E+03  0.12352618355E+04  0.12304220302E+04 0.  0.
        3    1    3    3  502    0  0.47200598188E+03  0.24955668950E+03  0.36146330079E+03  0.64476655948E+03  0.10100000352E+00 0.  1.
       -3    1    3    3    0  502 -0.47200598188E+03 -0.24955668950E+03 -0.25222306122E+03  0.59049527603E+03  0.10100000352E+00 0. -1.
</event>
<event>
 5   0  0.1031295E-03  0.1298414E+04  0.7818609E-02  0.9030824E-01
        2   -1    0    0  501    0  0.00000000000E+00  0.00000000000E+00  0.16099021269E+04  0.16099021269E+04  0.25500000920E-02 0.  1.
       -2   -1    0    0    0  501  0.00000000000E+00  0.00000000000E+00 -0.26179846852E+03  0.26179846854E+03  0.25500000920E-02 0. -1.
    10030    2    1    2    0    0  0.00000000000E+00  0.00000000000E+00  0.13481036584E+04  0.18717005955E+04  0.12984142811E+04 0.  0.
        2    1    3    3  502    0 -0.58333660817E+03  0.28379524640E+03  0.71076330586E+03  0.96229196052E+03  0.25500000920E-02 0. -1.
       -2    1    3    3    0  502  0.58333660817E+03 -0.28379524640E+03  0.63734035253E+03  0.90940863493E+03  0.25500000920E-02 0.  1.
</event>
<event>
 5   0  0.5812938E-04  0.1353038E+04  0.7818609E-02  0.8988532E-01
       -1   -1    0    0    0  501  0.00000000000E+00  0.00000000000E+00  0.61690113160E+03  0.61690113162E+03  0.50400001928E-02 0. -1.
        1   -1    0    0  501    0  0.00000000000E+00  0.00000000000E+00 -0.74189790125E+03  0.74189790127E+03  0.50400001928E-02 0.  1.
    10030    2    1    2    0    0  0.00000000000E+00  0.00000000000E+00 -0.12499676965E+03  0.13587990329E+04  0.13530375528E+04 0.  0.
        5    1    3    3  502    0 -0.50930785594E+03 -0.25024576026E+03 -0.43235745973E+03  0.71342308319E+03  0.46999998093E+01 0.  1.
       -5    1    3    3    0  502  0.50930785594E+03  0.25024576026E+03  0.30736069008E+03  0.64537594970E+03  0.46999998093E+01 0. -1.
</event>
<event>
 5   0  0.1103241E-03  0.1295936E+04  0.7818609E-02  0.9032795E-01
       -2   -1    0    0    0  501  0.00000000000E+00  0.00000000000E+00  0.21173490730E+03  0.21173490731E+03  0.25500000920E-02 0.  1.
        2   -1    0    0  501    0  0.00000000000E+00  0.00000000000E+00 -0.19829617736E+04  0.19829617736E+04  0.25500000920E-02 0. -1.
    10030    2    1    2    0    0  0.00000000000E+00  0.00000000000E+00 -0.17712268663E+04  0.21946966809E+04  0.12959355344E+04 0.  0.
        4    1    3    3  502    0  0.58624361488E+03  0.27502258110E+03 -0.92502627837E+03  0.11291564217E+04  0.12699999809E+01 0.  1.
       -4    1    3    3    0  502 -0.58624361488E+03 -0.27502258110E+03 -0.84620058795E+03  0.10655402592E+04  0.12699999809E+01 0. -1.
</event>
<event>
 5   0  0.5766027E-04  0.1295487E+04  0.7818609E-02  0.9033151E-01
       -1   -1    0    0    0  501  0.00000000000E+00  0.00000000000E+00  0.29976995066E+03  0.29976995070E+03  0.50400001928E-02 0.  1.
        1   -1    0    0  501    0  0.00000000000E+00  0.00000000000E+00 -0.13996462639E+04  0.13996462639E+04  0.50400001928E-02 0. -1.
    10030    2    1    2    0    0  0.00000000000E+00  0.00000000000E+00 -0.10998763132E+04  0.16994162146E+04  0.12954873855E+04 0.  0.
        3    1    3    3  502    0  0.49208126568E+03 -0.21406879057E+03 -0.74056925449E+02  0.54171381516E+03  0.10100000352E+00 0.  1.
       -3    1    3    3    0  502 -0.49208126568E+03  0.21406879057E+03 -0.10258193877E+04  0.11577023994E+04  0.10100000352E+00 0. -1.
</event>
<event>
 5   0  0.5710383E-04  0.1298612E+04  0.7818609E-02  0.9030666E-01
       -1   -1    0    0    0  501  0.00000000000E+00  0.00000000000E+00  0.30114995055E+03  0.30114995059E+03  0.50400001928E-02 0.  1.
        1   -1    0    0  501    0  0.00000000000E+00  0.00000000000E+00 -0.13999618345E+04  0.13999618345E+04  0.50400001928E-02 0. -1.
    10030    2    1    2    0    0  0.00000000000E+00  0.00000000000E+00 -0.10988118839E+04  0.17011117851E+04  0.12986122397E+04 0.  0.
        1    1    3    3  502    0 -0.23858012164E+02 -0.10894975450E+03 -0.13873200700E+04  0.13917960448E+04  0.50400001928E-02 0. -1.
       -1    1    3    3    0  502  0.23858012164E+02  0.10894975450E+03  0.28850818604E+03  0.30931574028E+03  0.50400001928E-02 0.  1.
</event>
<event>
 5   0  0.1046253E-03  0.1289385E+04  0.7818609E-02  0.9038026E-01
        2   -1    0    0  501    0  0.00000000000E+00  0.00000000000E+00  0.31931774657E+03  0.31931774658E+03  0.25500000920E-02 0.  1.
       -2   -1    0    0    0  501  0.00000000000E+00  0.00000000000E+00 -0.13016137536E+04  0.13016137536E+04  0.25500000920E-02 0. -1.
    10030    2    1    2    0    0  0.00000000000E+00  0.00000000000E+00 -0.98229600706E+03  0.16209315002E+04  0.12893849243E+04 0.  0.
        3    1    3    3  502    0 -0.39087560561E+03  0.39208304172E+03 -0.75883014536E+02  0.55881221601E+03  0.10100000352E+00 0.  1.
       -3    1    3    3    0  502  0.39087560561E+03 -0.39208304172E+03 -0.90641299252E+03  0.10621192842E+04  0.10100000352E+00 0. -1.
</event>
<event>
 5   0  0.4012375E-04  0.1298450E+04  0.7818609E-02  0.9030795E-01
       -3   -1    0    0    0  501  0.00000000000E+00  0.00000000000E+00  0.25388775786E+03  0.25388777795E+03  0.10100000352E+00 0.  1.
        3   -1    0    0  501    0  0.00000000000E+00  0.00000000000E+00 -0.16601545834E+04  0.16601545865E+04  0.10100000352E+00 0. -1.
    10030    2    1    2    0    0  0.00000000000E+00  0.00000000000E+00 -0.14062668256E+04  0.19140423644E+04  0.12984497635E+04 0.  0.
        2    1    3    3  502    0 -0.76721279487E+02 -0.10369817310E+03  0.23480718318E+03  0.26790647455E+03  0.25500000920E-02 0.  1.
       -2    1    3    3    0  502  0.76721279487E+02  0.10369817310E+03 -0.16410740087E+04  0.16461358899E+04  0.25500000920E-02 0. -1.
</event>
<event>
 5   0  0.5766027E-04  0.1225867E+04  0.7818609E-02  0.9090512E-01
        1   -1    0    0  501    0  0.00000000000E+00  0.00000000000E+00  0.52586585494E+03  0.52586585496E+03  0.50400001928E-02 0. -1.
       -1   -1    0    0    0  501  0.00000000000E+00  0.00000000000E+00 -0.71441647023E+03  0.71441647025E+03  0.50400001928E-02 0.  1.
    10030    2    1    2    0    0  0.00000000000E+00  0.00000000000E+00 -0.18855061530E+03  0.12402823252E+04  0.12258665962E+04 0.  0.
        3    1    3    3  502    0  0.20643265253E+03 -0.28501910591E+03  0.41345959056E+03  0.54295411775E+03  0.10100000352E+00 0. -1.
       -3    1    3    3    0  502 -0.20643265253E+03  0.28501910591E+03 -0.60201020585E+03  0.69732820745E+03  0.10100000352E+00 0.  1.
</event>
<event>
 5   0  0.6006119E-04  0.1305731E+04  0.7818609E-02  0.9025033E-01
       -1   -1    0    0    0  501  0.00000000000E+00  0.00000000000E+00  0.25949583693E+03  0.25949583698E+03  0.50400001928E-02 0.  1.
        1   -1    0    0  501    0  0.00000000000E+00  0.00000000000E+00 -0.16425434420E+04  0.16425434420E+04  0.50400001928E-02 0. -1.
    10030    2    1    2    0    0  0.00000000000E+00  0.00000000000E+00 -0.13830476051E+04  0.19020392790E+04  0.13057307306E+04 0.  0.
        4    1    3    3  502    0 -0.32881261430E+03  0.37575665371E+03 -0.78813375111E+02  0.50549377754E+03  0.12699999809E+01 0.  1.
       -4    1    3    3    0  502  0.32881261430E+03 -0.37575665371E+03 -0.13042342299E+04  0.13965455014E+04  0.12699999809E+01 0. -1.
</event>
<event>
 5   0  0.5812938E-04  0.1296993E+04  0.7818609E-02  0.9031953E-01
       -1   -1    0    0    0  501  0.00000000000E+00  0.00000000000E+00  0.22515468735E+03  0.22515468740E+03  0.50400001928E-02 0.  1.
        1   -1    0    0  501    0  0.00000000000E+00  0.00000000000E+00 -0.18678164068E+04  0.18678164069E+04  0.50400001928E-02 0. -1.
    10030    2    1    2    0    0  0.00000000000E+00  0.00000000000E+00 -0.16426617195E+04  0.20929710943E+04  0.12969928592E+04 0.  0.
        5    1    3    3  502    0  0.25177176749E+03  0.18197031956E+03  0.97242343265E+02  0.32554628462E+03  0.46999998093E+01 0.  1.
       -5    1    3    3    0  502 -0.25177176749E+03 -0.18197031956E+03 -0.17399040628E+04  0.17674248096E+04  0.46999998093E+01 0. -1.
</event>
<event>
 5   0  0.6006119E-04  0.1322318E+04  0.7818609E-02  0.9012052E-01
       -1   -1    0    0    0  501  0.00000000000E+00  0.00000000000E+00  0.44984477036E+03  0.44984477039E+03  0.50400001928E-02 0. -1.
        1   -1    0    0  501    0  0.00000000000E+00  0.00000000000E+00 -0.97173756398E+03  0.97173756399E+03  0.50400001928E-02 0.  1.
    10030    2    1    2    0    0  0.00000000000E+00  0.00000000000E+00 -0.52189279362E+03  0.14215823344E+04  0.13223177551E+04 0.  0.
        4    1    3    3  502    0 -0.24621506797E+03 -0.67632368428E+02 -0.91659148013E+03  0.95149227600E+03  0.12699999809E+01 0.  1.
       -4    1    3    3    0  502  0.24621506797E+03  0.67632368428E+02  0.39469868651E+03  0.47009005838E+03  0.12699999809E+01 0. -1.
</event>
<event>
 5   0  0.1046253E-03  0.1300728E+04  0.7818609E-02  0.9028988E-01
       -2   -1    0    0    0  501  0.00000000000E+00  0.00000000000E+00  0.18059746528E+03  0.18059746529E+03  0.25500000920E-02 0.  1.
        2   -1    0    0  501    0  0.00000000000E+00  0.00000000000E+00 -0.23420769834E+04  0.23420769834E+04  0.25500000920E-02 0. -1.
    10030    2    1    2    0    0  0.00000000000E+00  0.00000000000E+00 -0.21614795181E+04  0.25226744487E+04  0.13007277451E+04 0.  0.
        3    1    3    3  502    0 -0.31427216482E+03  0.42276829693E+03 -0.18204577749E+04  0.18951428829E+04  0.10100000352E+00 0. -1.
       -3    1    3    3    0  502  0.31427216482E+03 -0.42276829693E+03 -0.34102174329E+03  0.62753156579E+03  0.10100000352E+00 0.  1.
</event>
<event>
 5   0  0.6006119E-04  0.1345849E+04  0.7818609E-02  0.8993976E-01
        1   -1    0    0  501    0  0.00000000000E+00  0.00000000000E+00  0.79951859506E+03  0.79951859508E+03  0.50400001928E-02 0.  1.
       -1   -1    0    0    0  501  0.00000000000E+00  0.00000000000E+00 -0.56637525925E+03  0.56637525928E+03  0.50400001928E-02 0. -1.
    10030    2    1    2    0    0  0.00000000000E+00  0.00000000000E+00  0.23314333581E+03  0.13658938544E+04  0.13458492510E+04 0.  0.
        4    1    3    3  502    0 -0.66609887667E+03  0.94708478179E+02  0.10339643500E+03  0.68069805715E+03  0.12699999809E+01 0.  1.
       -4    1    3    3    0  502  0.66609887667E+03 -0.94708478179E+02  0.12974690081E+03  0.68519579721E+03  0.12699999809E+01 0. -1.
</event>
<event>
 5   0  0.1046253E-03  0.1303653E+04  0.7818609E-02  0.9026674E-01
       -2   -1    0    0    0  501  0.00000000000E+00  0.00000000000E+00  0.37400260331E+03  0.37400260332E+03  0.25500000920E-02 0.  1.
        2   -1    0    0  501    0  0.00000000000E+00  0.00000000000E+00 -0.11360285257E+04  0.11360285257E+04  0.25500000920E-02 0. -1.
    10030    2    1    2    0    0  0.00000000000E+00  0.00000000000E+00 -0.76202592241E+03  0.15100311290E+04  0.13036527545E+04 0.  0.
        3    1    3    3  502    0  0.47058009862E+03 -0.32241548418E+03 -0.74634889495E+03  0.93937961275E+03  0.10100000352E+00 0. -1.
       -3    1    3    3    0  502 -0.47058009862E+03  0.32241548418E+03 -0.15677027459E+02  0.57065151629E+03  0.10100000352E+00 0.  1.
</event>
<event>
 5   0  0.1103241E-03  0.1283402E+04  0.7818609E-02  0.9042832E-01
        2   -1    0    0  501    0  0.00000000000E+00  0.00000000000E+00  0.24424007902E+04  0.24424007902E+04  0.25500000920E-02 0. -1.
       -2   -1    0    0    0  501  0.00000000000E+00  0.00000000000E+00 -0.16859638529E+03  0.16859638531E+03  0.25500000920E-02 0.  1.
    10030    2    1    2    0    0  0.00000000000E+00  0.00000000000E+00  0.22738044049E+04  0.26109971756E+04  0.12834016436E+04 0.  0.
        4    1    3    3  502    0  0.32634663640E+02  0.49397966481E+03  0.30627102990E+03  0.58213785925E+03  0.12699999809E+01 0.  1.
       -4    1    3    3    0  502 -0.32634663640E+02 -0.49397966481E+03  0.19675333751E+04  0.20288593163E+04  0.12699999809E+01 0. -1.
</event>
<event>
 5   0  0.6006119E-04  0.1294745E+04  0.7818609E-02  0.9033742E-01
       -1   -1    0    0    0  501  0.00000000000E+00  0.00000000000E+00  0.29889930791E+03  0.29889930795E+03  0.50400001928E-02 0.  1.
        1   -1    0    0  501    0  0.00000000000E+00  0.00000000000E+00 -0.14021157352E+04  0.14021157352E+04  0.50400001928E-02 0. -1.
    10030    2    1    2    0    0  0.00000000000E+00  0.00000000000E+00 -0.11032164273E+04  0.17010150432E+04  0.12947454158E+04 0.  0.
        4    1    3    3  502    0  0.54255528854E+03  0.29517907986E+03 -0.29688028164E+03  0.68530025889E+03  0.12699999809E+01 0. -1.
       -4    1    3    3    0  502 -0.54255528854E+03 -0.29517907986E+03 -0.80633614564E+03  0.10157147843E+04  0.12699999809E+01 0.  1.
</event>
<event>
 5   0  0.5710383E-04  0.1315874E+04  0.7818609E-02  0.9017070E-01
        1   -1    0    0  501    0  0.00000000000E+00  0.00000000000E+00  0.66906142158E+03  0.66906142160E+03  0.50400001928E-02 0.  1.
       -1   -1    0    0    0  501  0.00000000000E+00  0.00000000000E+00 -0.64699797022E+03  0.64699797024E+03  0.50400001928E-02 0. -1.
    10030    2    1    2    0    0  0.00000000000E+00  0.00000000000E+00  0.22063451363E+02  0.13160593918E+04  0.13158744343E+04 0.  0.
        1    1    3    3  502    0 -0.26560460956E+03  0.47028557394E+02 -0.58915585502E+03  0.64796768080E+03  0.50400001928E-02 0. -1.
       -1    1    3    3    0  502  0.26560460956E+03 -0.47028557394E+02  0.61121930638E+03  0.66809171103E+03  0.50400001928E-02 0.  1.
</event>
<event>
 5   0  0.1031295E-03  0.1299777E+04  0.7818609E-02  0.9029742E-01
       -2   -1    0    0    0  501  0.00000000000E+00  0.00000000000E+00  0.34637642317E+03  0.34637642318E+03  0.25500000920E-02 0.  1.
        2   -1    0    0  501    0  0.00000000000E+00  0.00000000000E+00 -0.12193523453E+04  0.12193523453E+04  0.25500000920E-02 0. -1.
    10030    2    1    2    0    0  0.00000000000E+00  0.00000000000E+00 -0.87297592208E+03  0.15657287684E+04  0.12997767561E+04 0.  0.
        2    1    3    3  502    0  0.46358988912E+03 -0.22397583578E+03  0.41235345542E+02  0.51650858080E+03  0.25500000920E-02 0.  1.
       -2    1    3    3    0  502 -0.46358988912E+03  0.22397583578E+03 -0.91421126763E+03  0.10492201876E+04  0.25500000920E-02 0. -1.
</event>
<event>
 5   0  0.1046253E-03  0.1298298E+04  0.7818609E-02  0.9030916E-01
       -2   -1    0    0    0  501  0.00000000000E+00  0.00000000000E+00  0.22666000687E+03  0.22666000688E+03  0.25500000920E-02 0. -1.
        2   -1    0    0  501    0  0.00000000000E+00  0.00000000000E+00 -0.18591473231E+04  0.18591473231E+04  0.25500000920E-02 0.  1.
    10030    2    1    2    0    0  0.00000000000E+00  0.00000000000E+00 -0.16324873162E+04  0.20858073299E+04  0.12982978780E+04 0.  0.
        3    1    3    3  502    0 -0.22999680378E+02  0.62183454641E+03 -0.51919248754E+03  0.81041226405E+03  0.10100000352E+00 0. -1.
       -3    1    3    3    0  502  0.22999680378E+02 -0.62183454641E+03 -0.11132948287E+04  0.12753950659E+04  0.10100000352E+00 0.  1.
</event>
<event>
 5   0  0.6006119E-04  0.1296994E+04  0.7818609E-02  0.9031952E-01
        1   -1    0    0  501    0  0.00000000000E+00  0.00000000000E+00  0.43119518756E+03  0.43119518759E+03  0.50400001928E-02 0.  1.
       -1   -1    0    0    0  501  0.00000000000E+00  0.00000000000E+00 -0.97530860654E+03  0.97530860655E+03  0.50400001928E-02 0. -1.
    10030    2    1    2    0    0  0.00000000000E+00  0.00000000000E+00 -0.54411341897E+03  0.14065037941E+04  0.12969940286E+04 0.  0.
        4    1    3    3  502    0 -0.28466571607E+03 -0.39493758647E+03 -0.73664060513E+03  0.88297863006E+03  0.12699999809E+01 0. -1.
       -4    1    3    3    0  502  0.28466571607E+03  0.39493758647E+03  0.19252718616E+03  0.52352516408E+03  0.12699999809E+01 0.  1.
</event>
<event>
 5   0  0.5563545E-04  0.1303664E+04  0.7818609E-02  0.9026665E-01
        1   -1    0    0  501    0  0.00000000000E+00  0.00000000000E+00  0.76643928883E+03  0.76643928885E+03  0.50400001928E-02 0.  1.
       -1   -1    0    0    0  501  0.00000000000E+00  0.00000000000E+00 -0.55436226941E+03  0.55436226943E+03  0.50400001928E-02 0. -1.
    10030    2    1    2    0    0  0.00000000000E+00  0.00000000000E+00  0.21207701942E+03  0.13208015583E+04  0.13036641033E+04 0.  0.
        2    1    3    3  502    0 -0.51374719333E+03  0.37773726316E+03 -0.30880181528E+02  0.63841616854E+03  0.25500000920E-02 0. -1.
       -2    1    3    3    0  502  0.51374719333E+03 -0.37773726316E+03  0.24295720095E+03  0.68238538974E+03  0.25500000920E-02 0.  1.
</event>
<event>
 5   0  0.5710383E-04  0.1204423E+04  0.7818609E-02  0.9108994E-01
       -1   -1    0    0    0  501  0.00000000000E+00  0.00000000000E+00  0.89484759369E+03  0.89484759371E+03  0.50400001928E-02 0.  1.
        1   -1    0    0  501    0  0.00000000000E+00  0.00000000000E+00 -0.40527406915E+03  0.40527406918E+03  0.50400001928E-02 0. -1.
    10030    2    1    2    0    0  0.00000000000E+00  0.00000000000E+00  0.48957352454E+03  0.13001216629E+04  0.12044227258E+04 0.  0.
        1    1    3    3  502    0  0.17845792435E+03 -0.47801097080E+03 -0.10049889739E+03  0.52004014015E+03  0.50400001928E-02 0. -1.
       -1    1    3    3    0  502 -0.17845792435E+03  0.47801097080E+03  0.59007242193E+03  0.78008152274E+03  0.50400001928E-02 0.  1.
</event>
<event>
 5   0  0.1031295E-03  0.1294672E+04  0.7818609E-02  0.9033801E-01
        2   -1    0    0  501    0  0.00000000000E+00  0.00000000000E+00  0.22013644041E+04  0.22013644041E+04  0.25500000920E-02 0.  1.
       -2   -1    0    0    0  501  0.00000000000E+00  0.00000000000E+00 -0.19035630972E+03  0.19035630974E+03  0.25500000920E-02 0. -1.
    10030    2    1    2    0    0  0.00000000000E+00  0.00000000000E+00  0.20110080944E+04  0.23917207139E+04  0.12946715481E+04 0.  0.
        2    1    3    3  502    0 -0.54715903532E+03  0.33248161712E+03  0.11818910436E+04  0.13441701807E+04  0.25500000920E-02 0. -1.
       -2    1    3    3    0  502  0.54715903532E+03 -0.33248161712E+03  0.82911705080E+03  0.10475505332E+04  0.25500000920E-02 0.  1.
</event>
<event>
 5   0  0.5812938E-04  0.1299926E+04  0.7818609E-02  0.9029624E-01
        1   -1    0    0  501    0  0.00000000000E+00  0.00000000000E+00  0.19863298718E+04  0.19863298718E+04  0.50400001928E-02 0. -1.
       -1   -1    0    0    0  501  0.00000000000E+00  0.00000000000E+00 -0.21267972235E+03  0.21267972241E+03  0.50400001928E-02 0.  1.
    10030    2    1    2    0    0  0.00000000000E+00  0.00000000000E+00  0.17736501494E+04  0.21990095942E+04  0.12999262836E+04 0.  0.
        5    1    3    3  502    0 -0.38136896085E+03 -0.30964957537E+03  0.16067271772E+04  0.16801545928E+04  0.46999998093E+01 0. -1.
       -5    1    3    3    0  502  0.38136896085E+03  0.30964957537E+03  0.16692297227E+03  0.51885500142E+03  0.46999998093E+01 0.  1.
</event>
<event>
 5   0  0.5766027E-04  0.1291529E+04  0.7818609E-02  0.9036310E-01
        1   -1    0    0  501    0  0.00000000000E+00  0.00000000000E+00  0.14197421986E+04  0.14197421986E+04  0.50400001928E-02 0.  1.
       -1   -1    0    0    0  501  0.00000000000E+00  0.00000000000E+00 -0.29372365179E+03  0.29372365184E+03  0.50400001928E-02 0. -1.
    10030    2    1    2    0    0  0.00000000000E+00  0.00000000000E+00  0.11260185468E+04  0.17134658505E+04  0.12915291142E+04 0.  0.
        3    1    3    3  502    0  0.31329852619E+03  0.40178400850E+03  0.10894006782E+04  0.12026554801E+04  0.10100000352E+00 0.  1.
       -3    1    3    3    0  502 -0.31329852619E+03 -0.40178400850E+03  0.36617868688E+02  0.51081037040E+03  0.10100000352E+00 0. -1.
</event>
<event>
 5   0  0.1046253E-03  0.1295285E+04  0.7818609E-02  0.9033312E-01
       -2   -1    0    0    0  501  0.00000000000E+00  0.00000000000E+00  0.60832395534E+03  0.60832395534E+03  0.25500000920E-02 0.  1.
        2   -1    0    0  501    0  0.00000000000E+00  0.00000000000E+00 -0.68950250885E+03  0.68950250886E+03  0.25500000920E-02 0. -1.
    10030    2    1    2    0    0  0.00000000000E+00  0.00000000000E+00 -0.81178553515E+02  0.12978264642E+04  0.12952851322E+04 0.  0.
        3    1    3    3  502    0 -0.20141323892E+03  0.11341859060E+03  0.56558514970E+03  0.61099725144E+03  0.10100000352E+00 0.  1.
       -3    1    3    3    0  502  0.20141323892E+03 -0.11341859060E+03 -0.64676370321E+03  0.68682921276E+03  0.10100000352E+00 0. -1.
</event>
<event>
 5   0  0.1046253E-03  0.1294428E+04  0.7818609E-02  0.9033996E-01
       -2   -1    0    0    0  501  0.00000000000E+00  0.00000000000E+00  0.10336901490E+04  0.10336901490E+04  0.25500000920E-02 0.  1.
        2   -1    0    0  501    0  0.00000000000E+00  0.00000000000E+00 -0.40523355830E+03  0.40523355830E+03  0.25500000920E-02 0. -1.
    10030    2    1    2    0    0  0.00000000000E+00  0.00000000000E+00  0.62845659071E+03  0.14389237073E+04  0.12944279621E+04 0.  0.
        3    1    3    3  502    0 -0.45384626875E+03 -0.23887567780E+03 -0.12461590386E+03  0.52779461800E+03  0.10100000352E+00 0. -1.
       -3    1    3    3    0  502  0.45384626875E+03  0.23887567780E+03  0.75307249457E+03  0.91112908931E+03  0.10100000352E+00 0.  1.
</event>
<event>
 5   0  0.5710383E-04  0.1351139E+04  0.7818609E-02  0.8989966E-01
       -1   -1    0    0    0  501  0.00000000000E+00  0.00000000000E+00  0.89104634484E+03  0.89104634485E+03  0.50400001928E-02 0. -1.
        1   -1    0    0  501    0  0.00000000000E+00  0.00000000000E+00 -0.51220055470E+03  0.51220055473E+03  0.50400001928E-02 0.  1.
    10030    2    1    2    0    0  0.00000000000E+00  0.00000000000E+00  0.37884579013E+03  0.14032468996E+04  0.13511394186E+04 0.  0.
        1    1    3    3  502    0 -0.59350994078E+03 -0.24365890944E+02 -0.14477370563E+03  0.61139772024E+03  0.50400001928E-02 0.  1.
       -1    1    3    3    0  502  0.59350994078E+03  0.24365890944E+02  0.52361949576E+03  0.79184917934E+03  0.50400001928E-02 0. -1.
</event>
<event>
 5   0  0.1101619E-03  0.1295060E+04  0.7818609E-02  0.9033492E-01
       -2   -1    0    0    0  501  0.00000000000E+00  0.00000000000E+00  0.28542183797E+03  0.28542183798E+03  0.25500000920E-02 0. -1.
        2   -1    0    0  501    0  0.00000000000E+00  0.00000000000E+00 -0.14690360789E+04  0.14690360789E+04  0.25500000920E-02 0.  1.
    10030    2    1    2    0    0  0.00000000000E+00  0.00000000000E+00 -0.11836142409E+04  0.17544579168E+04  0.12950598097E+04 0.  0.
        1    1    3    3  502    0 -0.35241202561E+03  0.45124274359E+03 -0.18205808853E+03  0.60079896560E+03  0.50400001928E-02 0. -1.
       -1    1    3    3    0  502  0.35241202561E+03 -0.45124274359E+03 -0.10015561523E+04  0.11536589512E+04  0.50400001928E-02 0.  1.
</event>
<event>
 5   0  0.5563545E-04  0.1303503E+04  0.7818609E-02  0.9026792E-01
        1   -1    0    0  501    0  0.00000000000E+00  0.00000000000E+00  0.70003514173E+03  0.70003514175E+03  0.50400001928E-02 0.  1.
       -1   -1    0    0    0  501  0.00000000000E+00  0.00000000000E+00 -0.60679841714E+03  0.60679841716E+03  0.50400001928E-02 0. -1.
    10030    2    1    2    0    0  0.00000000000E+00  0.00000000000E+00  0.93236724598E+02  0.13068335589E+04  0.13035033041E+04 0.  0.
        2    1    3    3  502    0 -0.38446292614E+03  0.27592322499E+03  0.49590932017E+03  0.68547167812E+03  0.25500000920E-02 0.  1.
       -2    1    3    3    0  502  0.38446292614E+03 -0.27592322499E+03 -0.40267259557E+03  0.62136188079E+03  0.25500000920E-02 0. -1.
</event>
<event>
 5   0  0.5710383E-04  0.1304978E+04  0.7818609E-02  0.9025627E-01
        1   -1    0    0  501    0  0.00000000000E+00  0.00000000000E+00  0.15223779133E+04  0.15223779133E+04  0.50400001928E-02 0. -1.
       -1   -1    0    0    0  501  0.00000000000E+00  0.00000000000E+00 -0.27965568069E+03  0.27965568073E+03  0.50400001928E-02 0.  1.
    10030    2    1    2    0    0  0.00000000000E+00  0.00000000000E+00  0.12427222326E+04  0.18020335940E+04  0.13049775962E+04 0.  0.
        1    1    3    3  502    0  0.20306619597E+03 -0.15939025196E+03 -0.20613855824E+03  0.33035471479E+03  0.50400001928E-02 0.  1.
       -1    1    3    3    0  502 -0.20306619597E+03  0.15939025196E+03  0.14488607908E+04  0.14716788793E+04  0.50400001928E-02 0. -1.
</event>
<event>
 5   0  0.4012375E-04  0.1268072E+04  0.7818609E-02  0.9055275E-01
        4   -1    0    0  501    0  0.00000000000E+00  0.00000000000E+00  0.88090575602E+03  0.88090667150E+03  0.12699999809E+01 0. -1.
       -4   -1    0    0    0  501  0.00000000000E+00  0.00000000000E+00 -0.45634799445E+03  0.45634976163E+03  0.12699999809E+01 0.  1.
    10030    2    1    2    0    0  0.00000000000E+00  0.00000000000E+00  0.42455776157E+03  0.13372564331E+04  0.12680715575E+04 0.  0.
        3    1    3    3  502    0 -0.16520896271E+03  0.60686327252E+03  0.12775397247E+03  0.64179289540E+03  0.10100000352E+00 0.  1.
       -3    1    3    3    0  502  0.16520896271E+03 -0.60686327252E+03  0.29680378910E+03  0.69546353773E+03  0.10100000352E+00 0. -1.
</event>
<event>
 5   0  0.1046253E-03  0.1305117E+04  0.7818609E-02  0.9025517E-01
        2   -1    0    0  501    0  0.00000000000E+00  0.00000000000E+00  0.37889562431E+03  0.37889562432E+03  0.25500000920E-02 0.  1.
       -2   -1    0    0    0  501  0.00000000000E+00  0.00000000000E+00 -0.11238782323E+04  0.11238782323E+04  0.25500000920E-02 0. -1.
    10030    2    1    2    0    0  0.00000000000E+00  0.00000000000E+00 -0.74498260799E+03  0.15027738566E+04  0.13051169212E+04 0.  0.
        3    1    3    3  502    0  0.33732601015E+03 -0.54949496968E+03 -0.48820449469E+03  0.80875039269E+03  0.10100000352E+00 0.  1.
       -3    1    3    3    0  502 -0.33732601015E+03  0.54949496968E+03 -0.25677811330E+03  0.69402346394E+03  0.10100000352E+00 0. -1.
</event>
<event>
 5   0  0.5563545E-04  0.1283744E+04  0.7818609E-02  0.9042557E-01
        1   -1    0    0  501    0  0.00000000000E+00  0.00000000000E+00  0.85895858154E+03  0.85895858156E+03  0.50400001928E-02 0.  1.
       -1   -1    0    0    0  501  0.00000000000E+00  0.00000000000E+00 -0.47965004120E+03  0.47965004122E+03  0.50400001928E-02 0. -1.
    10030    2    1    2    0    0  0.00000000000E+00  0.00000000000E+00  0.37930854035E+03  0.13386086228E+04  0.12837437736E+04 0.  0.
        2    1    3    3  502    0  0.51125506824E+03 -0.30831074060E+03  0.43544484485E+03  0.73895160226E+03  0.25500000920E-02 0.  1.
       -2    1    3    3    0  502 -0.51125506824E+03  0.30831074060E+03 -0.56136304506E+02  0.59965702052E+03  0.25500000920E-02 0. -1.
</event>
<event>
 5   0  0.5563545E-04  0.1275270E+04  0.7818609E-02  0.9049409E-01
       -1   -1    0    0    0  501  0.00000000000E+00  0.00000000000E+00  0.29305456464E+03  0.29305456468E+03  0.50400001928E-02 0.  1.
        1   -1    0    0  501    0  0.00000000000E+00  0.00000000000E+00 -0.13873814437E+04  0.13873814437E+04  0.50400001928E-02 0. -1.
    10030    2    1    2    0    0  0.00000000000E+00  0.00000000000E+00 -0.10943268790E+04  0.16804360083E+04  0.12752701126E+04 0.  0.
        2    1    3    3  502    0  0.43927907508E+03  0.25064942481E+03 -0.10588477161E+04  0.11734350113E+04  0.25500000920E-02 0. -1.
       -2    1    3    3    0  502 -0.43927907508E+03 -0.25064942481E+03 -0.35479162928E+02  0.50700099701E+03  0.25500000920E-02 0.  1.
</event>
<event>
 5   0  0.1031295E-03  0.1302842E+04  0.7818609E-02  0.9027314E-01
       -2   -1    0    0    0  501  0.00000000000E+00  0.00000000000E+00  0.38199643567E+03  0.38199643568E+03  0.25500000920E-02 0.  1.
        2   -1    0    0  501    0  0.00000000000E+00  0.00000000000E+00 -0.11108724578E+04  0.11108724578E+04  0.25500000920E-02 0. -1.
    10030    2    1    2    0    0  0.00000000000E+00  0.00000000000E+00 -0.72887602209E+03  0.14928688934E+04  0.13028420002E+04 0.  0.
        2    1    3    3  502    0 -0.20873654510E+03  0.44593544208E+03  0.12429321611E+03  0.50781706090E+03  0.25500000920E-02 0.  1.
       -2    1    3    3    0  502  0.20873654510E+03 -0.44593544208E+03 -0.85316923820E+03  0.98505183254E+03  0.25500000920E-02 0. -1.
</event>
<event>
 5   0  0.4012375E-04  0.1267476E+04  0.7818609E-02  0.9055762E-01
       -3   -1    0    0    0  501  0.00000000000E+00  0.00000000000E+00  0.84932478973E+03  0.84932479574E+03  0.10100000352E+00 0.  1.
        3   -1    0    0  501    0  0.00000000000E+00  0.00000000000E+00 -0.47287409050E+03  0.47287410128E+03  0.10100000352E+00 0. -1.
    10030    2    1    2    0    0  0.00000000000E+00  0.00000000000E+00  0.37645069923E+03  0.13221988970E+04  0.12674757569E+04 0.  0.
        3    1    3    3  502    0  0.19413356225E+03 -0.39809807272E+02  0.81617074170E+03  0.83988531988E+03  0.10100000352E+00 0.  1.
       -3    1    3    3    0  502 -0.19413356225E+03  0.39809807272E+02 -0.43972004246E+03  0.48231357714E+03  0.10100000352E+00 0. -1.
</event>
<event>
 5   0  0.5766027E-04  0.1296515E+04  0.7818609E-02  0.9032333E-01
       -1   -1    0    0    0  501  0.00000000000E+00  0.00000000000E+00  0.46278004474E+03  0.46278004477E+03  0.50400001928E-02 0.  1.
        1   -1    0    0  501    0  0.00000000000E+00  0.00000000000E+00 -0.90807288742E+03  0.90807288743E+03  0.50400001928E-02 0. -1.
    10030    2    1    2    0    0  0.00000000000E+00  0.00000000000E+00 -0.44529284268E+03  0.13708529322E+04  0.12965153474E+04 0.  0.
        3    1    3    3  502    0  0.55457310936E+03 -0.19686104932E+03 -0.51014161639E+03  0.77881325447E+03  0.10100000352E+00 0. -1.
       -3    1    3    3    0  502 -0.55457310936E+03  0.19686104932E+03  0.64848773710E+02  0.59203967773E+03  0.10100000352E+00 0.  1.
</event>
<event>
 5   0  0.1081574E-03  0.1299902E+04  0.7818609E-02  0.9029643E-01
       -2   -1    0    0    0  501  0.00000000000E+00  0.00000000000E+00  0.19278281040E+03  0.19278281041E+03  0.25500000920E-02 0.  1.
        2   -1    0    0  501    0  0.00000000000E+00  0.00000000000E+00 -0.21912534198E+04  0.21912534198E+04  0.25500000920E-02 0. -1.
    10030    2    1    2    0    0  0.00000000000E+00  0.00000000000E+00 -0.19984706095E+04  0.23840362303E+04  0.12999015233E+04 0.  0.
        5    1    3    3  502    0 -0.46950516708E+03  0.41794345807E+03 -0.13022754452E+04  0.14460481532E+04  0.46999998093E+01 0.  1.
       -5    1    3    3    0  502  0.46950516708E+03 -0.41794345807E+03 -0.69619516421E+03  0.93798807707E+03  0.46999998093E+01 0. -1.
</event>
<event>
 5   0  0.5766027E-04  0.1314754E+04  0.7818609E-02  0.9017946E-01
        1   -1    0    0  501    0  0.00000000000E+00  0.00000000000E+00  0.12230676280E+04  0.12230676280E+04  0.50400001928E-02 0.  1.
       -1   -1    0    0    0  501  0.00000000000E+00  0.00000000000E+00 -0.35332839025E+03  0.35332839029E+03  0.50400001928E-02 0. -1.
    10030    2    1    2    0    0  0.00000000000E+00  0.00000000000E+00  0.86973923771E+03  0.15763960183E+04  0.13147539940E+04 0.  0.
        3    1    3    3  502    0 -0.20521624248E+03 -0.82034256559E+02 -0.30744994896E+03  0.37864073572E+03  0.10100000352E+00 0. -1.
       -3    1    3    3    0  502  0.20521624248E+03  0.82034256559E+02  0.11771891867E+04  0.11977552825E+04  0.10100000352E+00 0.  1.
</event>
<event>
 5   0  0.1031295E-03  0.1303135E+04  0.7818609E-02  0.9027083E-01
        2   -1    0    0  501    0  0.00000000000E+00  0.00000000000E+00  0.97805711892E+03  0.97805711893E+03  0.25500000920E-02 0. -1.
       -2   -1    0    0    0  501  0.00000000000E+00  0.00000000000E+00 -0.43406454911E+03  0.43406454912E+03  0.25500000920E-02 0.  1.
    10030    2    1    2    0    0  0.00000000000E+00  0.00000000000E+00  0.54399256981E+03  0.14121216680E+04  0.13031345630E+04 0.  0.
        2    1    3    3  502    0 -0.11750557595E+02  0.58905453197E+03  0.57350503100E+03  0.82221124890E+03  0.25500000920E-02 0. -1.
       -2    1    3    3    0  502  0.11750557595E+02 -0.58905453197E+03 -0.29512461181E+02  0.58991041914E+03  0.25500000920E-02 0.  1.
</event>
<event>
 5   0  0.1031295E-03  0.1287071E+04  0.7818609E-02  0.9039881E-01
       -2   -1    0    0    0  501  0.00000000000E+00  0.00000000000E+00  0.40556684386E+03  0.40556684387E+03  0.25500000920E-02 0. -1.
        2   -1    0    0  501    0  0.00000000000E+00  0.00000000000E+00 -0.10211333989E+04  0.10211333989E+04  0.25500000920E-02 0.  1.
    10030    2    1    2    0    0  0.00000000000E+00  0.00000000000E+00 -0.61556655501E+03  0.14267002427E+04  0.12870708601E+04 0.  0.
        2    1    3    3  502    0  0.54063636870E+03 -0.24728340118E+03 -0.34678996344E+02  0.59551607574E+03  0.25500000920E-02 0. -1.
       -2    1    3    3    0  502 -0.54063636870E+03  0.24728340118E+03 -0.58088755867E+03  0.83118416701E+03  0.25500000920E-02 0.  1.
</event>
<event>
 5   0  0.5710383E-04  0.1296395E+04  0.7818609E-02  0.9032429E-01
       -1   -1    0    0    0  501  0.00000000000E+00  0.00000000000E+00  0.17271700030E+03  0.17271700037E+03  0.50400001928E-02 0.  1.
        1   -1    0    0  501    0  0.00000000000E+00  0.00000000000E+00 -0.24326493067E+04  0.24326493067E+04  0.50400001928E-02 0. -1.
    10030    2    1    2    0    0  0.00000000000E+00  0.00000000000E+00 -0.22599323064E+04  0.26053663071E+04  0.12963948336E+04 0.  0.
        1    1    3    3  502    0  0.68476054644E+02 -0.16831437987E+03 -0.23804157520E+04  0.23873411681E+04  0.50400001928E-02 0. -1.
       -1    1    3    3    0  502 -0.68476054644E+02  0.16831437987E+03  0.12048344561E+03  0.21802513897E+03  0.50400001928E-02 0.  1.
</event>
<event>
 5   0  0.1046253E-03  0.1316662E+04  0.7818609E-02  0.9016456E-01
       -2   -1    0    0    0  501  0.00000000000E+00  0.00000000000E+00  0.37013445298E+03  0.37013445299E+03  0.25500000920E-02 0. -1.
        2   -1    0    0  501    0  0.00000000000E+00  0.00000000000E+00 -0.11709242106E+04  0.11709242106E+04  0.25500000920E-02 0.  1.
    10030    2    1    2    0    0  0.00000000000E+00  0.00000000000E+00 -0.80078975766E+03  0.15410586636E+04  0.13166615240E+04 0.  0.
        3    1    3    3  502    0  0.61913201739E+02  0.51604075999E+03 -0.87332356565E+03  0.10162801637E+04  0.10100000352E+00 0.  1.
       -3    1    3    3    0  502 -0.61913201739E+02 -0.51604075999E+03  0.72533807992E+02  0.52477849997E+03  0.10100000352E+00 0. -1.
</event>
<event>
 5   0  0.1031295E-03  0.1301562E+04  0.7818609E-02  0.9028327E-01
       -2   -1    0    0    0  501  0.00000000000E+00  0.00000000000E+00  0.29405434311E+03  0.29405434312E+03  0.25500000920E-02 0. -1.
        2   -1    0    0  501    0  0.00000000000E+00  0.00000000000E+00 -0.14402644625E+04  0.14402644625E+04  0.25500000920E-02 0.  1.
    10030    2    1    2    0    0  0.00000000000E+00  0.00000000000E+00 -0.11462101193E+04  0.17343188056E+04  0.13015621697E+04 0.  0.
        2    1    3    3  502    0  0.82873096607E+02 -0.53285421795E+03 -0.10585311628E+04  0.11879771843E+04  0.25500000920E-02 0.  1.
       -2    1    3    3    0  502 -0.82873096607E+02  0.53285421795E+03 -0.87678956526E+02  0.54634162129E+03  0.25500000920E-02 0. -1.
</event>
<event>
 5   0  0.5766027E-04  0.1294419E+04  0.7818609E-02  0.9034003E-01
        1   -1    0    0  501    0  0.00000000000E+00  0.00000000000E+00  0.18949416315E+04  0.18949416315E+04  0.50400001928E-02 0. -1.
       -1   -1    0    0    0  501  0.00000000000E+00  0.00000000000E+00 -0.22105180886E+03  0.22105180891E+03  0.50400001928E-02 0.  1.
    10030    2    1    2    0    0  0.00000000000E+00  0.00000000000E+00  0.16738898226E+04  0.21159934404E+04  0.12944192140E+04 0.  0.
        3    1    3    3  502    0 -0.63048887829E+03 -0.21026993393E+02  0.60049455110E+03  0.87094895154E+03  0.10100000352E+00 0.  1.
       -3    1    3    3    0  502  0.63048887829E+03  0.21026993393E+02  0.10733952715E+04  0.12450444889E+04  0.10100000352E+00 0. -1.
</event>
<event>
 5   0  0.5766027E-04  0.1330362E+04  0.7818609E-02  0.9005828E-01
        1   -1    0    0  501    0  0.00000000000E+00  0.00000000000E+00  0.92581099337E+03  0.92581099339E+03  0.50400001928E-02 0.  1.
       -1   -1    0    0    0  501  0.00000000000E+00  0.00000000000E+00 -0.47792228422E+03  0.47792228425E+03  0.50400001928E-02 0. -1.
    10030    2    1    2    0    0  0.00000000000E+00  0.00000000000E+00  0.44788870915E+03  0.14037332776E+04  0.13303619128E+04 0.  0.
        3    1    3    3  502    0  0.49115795369E+03 -0.44583530769E+03  0.27628281696E+03  0.71856625457E+03  0.10100000352E+00 0. -1.
       -3    1    3    3    0  502 -0.49115795369E+03  0.44583530769E+03  0.17160589219E+03  0.68516702306E+03  0.10100000352E+00 0.  1.
</event>
<event>
 5   0  0.6006119E-04  0.1304690E+04  0.7818609E-02  0.9025855E-01
        1   -1    0    0  501    0  0.00000000000E+00  0.00000000000E+00  0.75673621649E+03  0.75673621650E+03  0.50400001928E-02 0. -1.
       -1   -1    0    0    0  501  0.00000000000E+00  0.00000000000E+00 -0.56235409823E+03  0.56235409825E+03  0.50400001928E-02 0.  1.
    10030    2    1    2    0    0  0.00000000000E+00  0.00000000000E+00  0.19438211826E+03  0.13190903148E+04  0.13046895610E+04 0.  0.
        4    1    3    3  502    0  0.75207466091E+01 -0.57173258825E+03 -0.22030920188E+03  0.61275808556E+03  0.12699999809E+01 0.  1.
       -4    1    3    3    0  502 -0.75207466091E+01  0.57173258825E+03  0.41469132014E+03  0.70633222919E+03  0.12699999809E+01 0. -1.
</event>
<event>
 5   0  0.1046253E-03  0.1304927E+04  0.7818609E-02  0.9025667E-01
        2   -1    0    0  501    0  0.00000000000E+00  0.00000000000E+00  0.11659905061E+04  0.11659905061E+04  0.25500000920E-02 0.  1.
       -2   -1    0    0    0  501  0.00000000000E+00  0.00000000000E+00 -0.36510474827E+03  0.36510474828E+03  0.25500000920E-02 0. -1.
    10030    2    1    2    0    0  0.00000000000E+00  0.00000000000E+00  0.80088575784E+03  0.15310952544E+04  0.13049270788E+04 0.  0.
        3    1    3    3  502    0  0.12527020063E+03 -0.62052538244E+03  0.58582828690E+03  0.86251908115E+03  0.10100000352E+00 0. -1.
       -3    1    3    3    0  502 -0.12527020063E+03  0.62052538244E+03  0.21505747094E+03  0.66857617324E+03  0.10100000352E+00 0.  1.
</event>
<event>
 5   0  0.1031295E-03  0.1290009E+04  0.7818609E-02  0.9037526E-01
        2   -1    0    0  501    0  0.00000000000E+00  0.00000000000E+00  0.60146156903E+03  0.60146156903E+03  0.25500000920E-02 0. -1.
       -2   -1    0    0    0  501  0.00000000000E+00  0.00000000000E+00 -0.69169919651E+03  0.69169919652E+03  0.25500000920E-02 0.  1.
    10030    2    1    2    0    0  0.00000000000E+00  0.00000000000E+00 -0.90237627487E+02  0.12931607655E+04  0.12900085023E+04 0.  0.
        2    1    3    3  502    0 -0.20274233143E+03  0.12406447818E+03  0.55595796757E+03  0.60463684093E+03  0.25500000920E-02 0. -1.
       -2    1    3    3    0  502  0.20274233143E+03 -0.12406447818E+03 -0.64619559505E+03  0.68852392462E+03  0.25500000920E-02 0.  1.
</event>
<event>
 5   0  0.1103241E-03  0.1295590E+04  0.7818609E-02  0.9033069E-01
       -2   -1    0    0    0  501  0.00000000000E+00  0.00000000000E+00  0.47865736012E+03  0.47865736012E+03  0.25500000920E-02 0.  1.
        2   -1    0    0  501    0  0.00000000000E+00  0.00000000000E+00 -0.87669935282E+03  0.87669935282E+03  0.25500000920E-02 0. -1.
    10030    2    1    2    0    0  0.00000000000E+00  0.00000000000E+00 -0.39804199270E+03  0.13553567129E+04  0.12955903640E+04 0.  0.
        4    1    3    3  502    0 -0.22152526342E+03  0.55846819101E+03 -0.45242833900E+03  0.75209918065E+03  0.12699999809E+01 0. -1.
       -4    1    3    3    0  502  0.22152526342E+03 -0.55846819101E+03  0.54386346295E+02  0.60325753230E+03  0.12699999809E+01 0.  1.
</event>
<event>
 5   0  0.5563545E-04  0.1338426E+04  0.7818609E-02  0.8999636E-01
        1   -1    0    0  501    0  0.00000000000E+00  0.00000000000E+00  0.15828900431E+04  0.15828900431E+04  0.50400001928E-02 0.  1.
       -1   -1    0    0    0  501  0.00000000000E+00  0.00000000000E+00 -0.28292922678E+03  0.28292922682E+03  0.50400001928E-02 0. -1.
    10030    2    1    2    0    0  0.00000000000E+00  0.00000000000E+00  0.12999608163E+04  0.18658192699E+04  0.13384257260E+04 0.  0.
        2    1    3    3  502    0  0.41403109546E+03 -0.51182605283E+03  0.81760294420E+03  0.10496962564E+04  0.25500000920E-02 0. -1.
       -2    1    3    3    0  502 -0.41403109546E+03  0.51182605283E+03  0.48235787212E+03  0.81612301350E+03  0.25500000920E-02 0.  1.
</event>
<event>
 5   0  0.4012375E-04  0.1299503E+04  0.7818609E-02  0.9029959E-01
        3   -1    0    0  501    0  0.00000000000E+00  0.00000000000E+00  0.91572888387E+03  0.91572888944E+03  0.10100000352E+00 0. -1.
       -3   -1    0    0    0  501  0.00000000000E+00  0.00000000000E+00 -0.46102854135E+03  0.46102855241E+03  0.10100000352E+00 0.  1.
    10030    2    1    2    0    0  0.00000000000E+00  0.00000000000E+00  0.45470034252E+03  0.13767574419E+04  0.12995032329E+04 0.  0.
        2    1    3    3  502    0 -0.68000227458E+02 -0.63509975477E+03  0.10109587595E+03  0.64668083750E+03  0.25500000920E-02 0. -1.
       -2    1    3    3    0  502  0.68000227458E+02  0.63509975477E+03  0.35360446656E+03  0.73007660436E+03  0.25500000920E-02 0.  1.
</event>
<event>
 5   0  0.1046253E-03  0.1312264E+04  0.7818609E-02  0.9019896E-01
       -2   -1    0    0    0  501  0.00000000000E+00  0.00000000000E+00  0.69771933837E+03  0.69771933838E+03  0.25500000920E-02 0. -1.
        2   -1    0    0  501    0  0.00000000000E+00  0.00000000000E+00 -0.61702355988E+03  0.61702355989E+03  0.25500000920E-02 0.  1.
    10030    2    1    2    0    0  0.00000000000E+00  0.00000000000E+00  0.80695778495E+02  0.13147428983E+04  0.13122641045E+04 0.  0.
        3    1    3    3  502    0  0.52940561990E+03  0.31265881319E+03  0.26987322485E+03  0.67145916595E+03  0.10100000352E+00 0. -1.
       -3    1    3    3    0  502 -0.52940561990E+03 -0.31265881319E+03 -0.18917744635E+03  0.64328373231E+03  0.10100000352E+00 0.  1.
</event>
<event>
 5   0  0.1031295E-03  0.1286090E+04  0.7818609E-02  0.9040669E-01
        2   -1    0    0  501    0  0.00000000000E+00  0.00000000000E+00  0.39454534456E+03  0.39454534457E+03  0.25500000920E-02 0. -1.
       -2   -1    0    0    0  501  0.00000000000E+00  0.00000000000E+00 -0.10480595036E+04  0.10480595036E+04  0.25500000920E-02 0.  1.
    10030    2    1    2    0    0  0.00000000000E+00  0.00000000000E+00 -0.65351415899E+03  0.14426048481E+04  0.12860901958E+04 0.  0.
        2    1    3    3  502    0  0.53114119633E+03  0.17557954476E+03 -0.68247483617E+03  0.88244606010E+03  0.25500000920E-02 0. -1.
       -2    1    3    3    0  502 -0.53114119633E+03 -0.17557954476E+03  0.28960677186E+02  0.56015878803E+03  0.25500000920E-02 0.  1.
</event>
<event>
 5   0  0.5710383E-04  0.1152520E+04  0.7818609E-02  0.9155461E-01
       -1   -1    0    0    0  501  0.00000000000E+00  0.00000000000E+00  0.19175947471E+03  0.19175947478E+03  0.50400001928E-02 0.  1.
        1   -1    0    0  501    0  0.00000000000E+00  0.00000000000E+00 -0.17317310904E+04  0.17317310904E+04  0.50400001928E-02 0. -1.
    10030    2    1    2    0    0  0.00000000000E+00  0.00000000000E+00 -0.15399716156E+04  0.19234905651E+04  0.11525204455E+04 0.  0.
        1    1    3    3  502    0 -0.18178619932E+03  0.54468943082E+03 -0.85077101188E+03  0.10264229698E+04  0.50400001928E-02 0.  1.
       -1    1    3    3    0  502  0.18178619932E+03 -0.54468943082E+03 -0.68920060376E+03  0.89706759531E+03  0.50400001928E-02 0. -1.
</event>
<event>
 5   0  0.5766027E-04  0.1291292E+04  0.7818609E-02  0.9036500E-01
        1   -1    0    0  501    0  0.00000000000E+00  0.00000000000E+00  0.11764900359E+04  0.11764900360E+04  0.50400001928E-02 0.  1.
       -1   -1    0    0    0  501  0.00000000000E+00  0.00000000000E+00 -0.35432389120E+03  0.35432389124E+03  0.50400001928E-02 0. -1.
    10030    2    1    2    0    0  0.00000000000E+00  0.00000000000E+00  0.82216614474E+03  0.15308139272E+04  0.12912916441E+04 0.  0.
        3    1    3    3  502    0 -0.19166470057E+03 -0.15491704243E+03 -0.29637157850E+03  0.38544879066E+03  0.10100000352E+00 0. -1.
       -3    1    3    3    0  502  0.19166470057E+03  0.15491704243E+03  0.11185377232E+04  0.11453651365E+04  0.10100000352E+00 0.  1.
</event>
<event>
 5   0  0.6006119E-04  0.1309017E+04  0.7818609E-02  0.9022445E-01
       -1   -1    0    0    0  501  0.00000000000E+00  0.00000000000E+00  0.34418935640E+03  0.34418935644E+03  0.50400001928E-02 0.  1.
        1   -1    0    0  501    0  0.00000000000E+00  0.00000000000E+00 -0.12446094266E+04  0.12446094266E+04  0.50400001928E-02 0. -1.
    10030    2    1    2    0    0  0.00000000000E+00  0.00000000000E+00 -0.90042007018E+03  0.15887987830E+04  0.13090169098E+04 0.  0.
        4    1    3    3  502    0 -0.18500443926E+03 -0.45948285235E+03 -0.96946790278E+03  0.10886784473E+04  0.12699999809E+01 0. -1.
       -4    1    3    3    0  502  0.18500443926E+03  0.45948285235E+03  0.69047832599E+02  0.50012033575E+03  0.12699999809E+01 0.  1.
</event>
<event>
 5   0  0.4012375E-04  0.1281358E+04  0.7818609E-02  0.9044481E-01
        3   -1    0    0  501    0  0.00000000000E+00  0.00000000000E+00  0.12341987702E+04  0.12341987744E+04  0.10100000352E+00 0.  1.
       -3   -1    0    0    0  501  0.00000000000E+00  0.00000000000E+00 -0.33257961049E+03  0.33257962582E+03  0.10100000352E+00 0. -1.
    10030    2    1    2    0    0  0.00000000000E+00  0.00000000000E+00  0.90161915974E+03  0.15667784002E+04  0.12813576574E+04 0.  0.
        3    1    3    3  502    0  0.38223207609E+03  0.49208905876E+03  0.26855705347E+03  0.67851006103E+03  0.10100000352E+00 0. -1.
       -3    1    3    3    0  502 -0.38223207609E+03 -0.49208905876E+03  0.63306210627E+03  0.88826833916E+03  0.10100000352E+00 0.  1.
</event>
<event>
 5   0  0.5710383E-04  0.1304472E+04  0.7818609E-02  0.9026026E-01
        1   -1    0    0  501    0  0.00000000000E+00  0.00000000000E+00  0.95521192775E+03  0.95521192776E+03  0.50400001928E-02 0.  1.
       -1   -1    0    0    0  501  0.00000000000E+00  0.00000000000E+00 -0.44535846113E+03  0.44535846116E+03  0.50400001928E-02 0. -1.
    10030    2    1    2    0    0  0.00000000000E+00  0.00000000000E+00  0.50985346661E+03  0.14005703889E+04  0.13044718690E+04 0.  0.
        1    1    3    3  502    0  0.15185506221E+03  0.19453191084E+03 -0.39329621790E+03  0.46431082186E+03  0.50400001928E-02 0. -1.
       -1    1    3    3    0  502 -0.15185506221E+03 -0.19453191084E+03  0.90314968451E+03  0.93625956706E+03  0.50400001928E-02 0.  1.
</event>
<event>
 5   0  0.1046253E-03  0.1290742E+04  0.7818609E-02  0.9036940E-01
        2   -1    0    0  501    0  0.00000000000E+00  0.00000000000E+00  0.63236986809E+03  0.63236986809E+03  0.25500000920E-02 0. -1.
       -2   -1    0    0    0  501  0.00000000000E+00  0.00000000000E+00 -0.65863900686E+03  0.65863900686E+03  0.25500000920E-02 0.  1.
    10030    2    1    2    0    0  0.00000000000E+00  0.00000000000E+00 -0.26269138772E+02  0.12910088750E+04  0.12907415882E+04 0.  0.
        3    1    3    3  502    0 -0.17024667649E+03  0.12721788549E+03  0.59636435474E+03  0.63310249964E+03  0.10100000352E+00 0. -1.
       -3    1    3    3    0  502  0.17024667649E+03 -0.12721788549E+03 -0.62263349351E+03  0.65790637532E+03  0.10100000352E+00 0.  1.
</event>
<event>
 5   0  0.5563545E-04  0.1288534E+04  0.7818609E-02  0.9038707E-01
       -1   -1    0    0    0  501  0.00000000000E+00  0.00000000000E+00  0.31770667694E+03  0.31770667698E+03  0.50400001928E-02 0. -1.
        1   -1    0    0  501    0  0.00000000000E+00  0.00000000000E+00 -0.13064882927E+04  0.13064882927E+04  0.50400001928E-02 0.  1.
    10030    2    1    2    0    0  0.00000000000E+00  0.00000000000E+00 -0.98878161579E+03  0.16241949697E+04  0.12885341346E+04 0.  0.
        2    1    3    3  502    0  0.17914871706E+03  0.27403424486E+03  0.20503354070E+03  0.38630012037E+03  0.25500000920E-02 0. -1.
       -2    1    3    3    0  502 -0.17914871706E+03 -0.27403424486E+03 -0.11938151565E+04  0.12378948494E+04  0.25500000920E-02 0.  1.
</event>
<event>
 5   0  0.1101619E-03  0.1306435E+04  0.7818609E-02  0.9024478E-01
        2   -1    0    0  501    0  0.00000000000E+00  0.00000000000E+00  0.14911700029E+04  0.14911700029E+04  0.25500000920E-02 0. -1.
       -2   -1    0    0    0  501  0.00000000000E+00  0.00000000000E+00 -0.28614633086E+03  0.28614633087E+03  0.25500000920E-02 0.  1.
    10030    2    1    2    0    0  0.00000000000E+00  0.00000000000E+00  0.12050236720E+04  0.17773163337E+04  0.13064345755E+04 0.  0.
        1    1    3    3  502    0  0.43415030174E+03 -0.17245173298E+02  0.12660752784E+04  0.13385553747E+04  0.50400001928E-02 0. -1.
       -1    1    3    3    0  502 -0.43415030174E+03  0.17245173298E+02 -0.61051606422E+02  0.43876095903E+03  0.50400001928E-02 0.  1.
</event>
<event>
 5   0  0.5563545E-04  0.1291240E+04  0.7818609E-02  0.9036541E-01
        1   -1    0    0  501    0  0.00000000000E+00  0.00000000000E+00  0.42743922950E+03  0.42743922953E+03  0.50400001928E-02 0.  1.
       -1   -1    0    0    0  501  0.00000000000E+00  0.00000000000E+00 -0.97516885082E+03  0.97516885084E+03  0.50400001928E-02 0. -1.
    10030    2    1    2    0    0  0.00000000000E+00  0.00000000000E+00 -0.54772962132E+03  0.14026080804E+04  0.12912403684E+04 0.  0.
        2    1    3    3  502    0 -0.51708121018E+02 -0.63020522352E+03 -0.41546542850E+03  0.75660020871E+03  0.25500000920E-02 0. -1.
       -2    1    3    3    0  502  0.51708121018E+02  0.63020522352E+03 -0.13226419282E+03  0.64600787166E+03  0.25500000920E-02 0.  1.
</event>
<event>
 5   0  0.5766027E-04  0.1325216E+04  0.7818609E-02  0.9009805E-01
       -1   -1    0    0    0  501  0.00000000000E+00  0.00000000000E+00  0.56912054648E+03  0.56912054650E+03  0.50400001928E-02 0.  1.
        1   -1    0    0  501    0  0.00000000000E+00  0.00000000000E+00 -0.77145173059E+03  0.77145173061E+03  0.50400001928E-02 0. -1.
    10030    2    1    2    0    0  0.00000000000E+00  0.00000000000E+00 -0.20233118411E+03  0.13405722771E+04  0.13252155002E+04 0.  0.
        3    1    3    3  502    0 -0.45415023757E+03  0.23739306148E+03 -0.52608212141E+03  0.73441834985E+03  0.10100000352E+00 0. -1.
       -3    1    3    3    0  502  0.45415023757E+03 -0.23739306148E+03  0.32375093730E+03  0.60615392726E+03  0.10100000352E+00 0.  1.
</event>
<event>
 5   0  0.1101619E-03  0.1304473E+04  0.7818609E-02  0.9026026E-01
       -2   -1    0    0    0  501  0.00000000000E+00  0.00000000000E+00  0.93135866322E+03  0.93135866322E+03  0.25500000920E-02 0.  1.
        2   -1    0    0  501    0  0.00000000000E+00  0.00000000000E+00 -0.45676526735E+03  0.45676526736E+03  0.25500000920E-02 0. -1.
    10030    2    1    2    0    0  0.00000000000E+00  0.00000000000E+00  0.47459339587E+03  0.13881239306E+04  0.13044727499E+04 0.  0.
        1    1    3    3  502    0 -0.58172676521E+03  0.10368990929E+03  0.53114719565E+03  0.79452814307E+03  0.50400001928E-02 0.  1.
       -1    1    3    3    0  502  0.58172676521E+03 -0.10368990929E+03 -0.56553799785E+02  0.59359578751E+03  0.50400001928E-02 0. -1.
</event>
<event>
 5   0  0.6006119E-04  0.1300152E+04  0.7818609E-02  0.9029445E-01
        1   -1    0    0  501    0  0.00000000000E+00  0.00000000000E+00  0.10985313521E+04  0.10985313521E+04  0.50400001928E-02 0. -1.
       -1   -1    0    0    0  501  0.00000000000E+00  0.00000000000E+00 -0.38469424689E+03  0.38469424692E+03  0.50400001928E-02 0.  1.
    10030    2    1    2    0    0  0.00000000000E+00  0.00000000000E+00  0.71383710524E+03  0.14832255991E+04  0.13001518238E+04 0.  0.
        4    1    3    3  502    0 -0.13762574064E+02 -0.44768207506E+03  0.89441835913E+03  0.10002971873E+04  0.12699999809E+01 0. -1.
       -4    1    3    3    0  502  0.13762574064E+02  0.44768207506E+03 -0.18058125389E+03  0.48292841181E+03  0.12699999809E+01 0.  1.
</event>
<event>
 5   0  0.1031295E-03  0.1286829E+04  0.7818609E-02  0.9040075E-01
       -2   -1    0    0    0  501  0.00000000000E+00  0.00000000000E+00  0.11894779531E+04  0.11894779531E+04  0.25500000920E-02 0. -1.
        2   -1    0    0  501    0  0.00000000000E+00  0.00000000000E+00 -0.34803715211E+03  0.34803715212E+03  0.25500000920E-02 0.  1.
    10030    2    1    2    0    0  0.00000000000E+00  0.00000000000E+00  0.84144080099E+03  0.15375151052E+04  0.12868294670E+04 0.  0.
        2    1    3    3  502    0 -0.41032960068E+02 -0.62054361918E+03  0.22357901284E+03  0.66086735591E+03  0.25500000920E-02 0.  1.
       -2    1    3    3    0  502  0.41032960068E+02  0.62054361918E+03  0.61786178815E+03  0.87664774931E+03  0.25500000920E-02 0. -1.
</event>
<event>
 5   0  0.5766027E-04  0.1297560E+04  0.7818609E-02  0.9031502E-01
        1   -1    0    0  501    0  0.00000000000E+00  0.00000000000E+00  0.86294943444E+03  0.86294943445E+03  0.50400001928E-02 0. -1.
       -1   -1    0    0    0  501  0.00000000000E+00  0.00000000000E+00 -0.48776414210E+03  0.48776414213E+03  0.50400001928E-02 0.  1.
    10030    2    1    2    0    0  0.00000000000E+00  0.00000000000E+00  0.37518529234E+03  0.13507135766E+04  0.12975604658E+04 0.  0.
        3    1    3    3  502    0 -0.13951374649E+03 -0.48869872637E+03  0.60738028735E+03  0.79196044994E+03  0.10100000352E+00 0.  1.
       -3    1    3    3    0  502  0.13951374649E+03  0.48869872637E+03 -0.23219499501E+03  0.55875312664E+03  0.10100000352E+00 0. -1.
</event>
<event>
 5   0  0.1046253E-03  0.1299719E+04  0.7818609E-02  0.9029788E-01
        2   -1    0    0  501    0  0.00000000000E+00  0.00000000000E+00  0.56338303560E+03  0.56338303560E+03  0.25500000920E-02 0.  1.
       -2   -1    0    0    0  501  0.00000000000E+00  0.00000000000E+00 -0.74960945637E+03  0.74960945637E+03  0.25500000920E-02 0. -1.
    10030    2    1    2    0    0  0.00000000000E+00  0.00000000000E+00 -0.18622642077E+03  0.13129924920E+04  0.12997188174E+04 0.  0.
        3    1    3    3  502    0 -0.16607761665E+03  0.62588909965E+03 -0.37797250433E+02  0.64865058556E+03  0.10100000352E+00 0. -1.
       -3    1    3    3    0  502  0.16607761665E+03 -0.62588909965E+03 -0.14842917033E+03  0.66434190641E+03  0.10100000352E+00 0.  1.
</event>
<event>
 5   0  0.5563545E-04  0.1296376E+04  0.7818609E-02  0.9032444E-01
        1   -1    0    0  501    0  0.00000000000E+00  0.00000000000E+00  0.10106714248E+04  0.10106714248E+04  0.50400001928E-02 0.  1.
       -1   -1    0    0    0  501  0.00000000000E+00  0.00000000000E+00 -0.41571130219E+03  0.41571130222E+03  0.50400001928E-02 0. -1.
    10030    2    1    2    0    0  0.00000000000E+00  0.00000000000E+00  0.59496012263E+03  0.14263827271E+04  0.12963757698E+04 0.  0.
        2    1    3    3  502    0  0.40724756838E+03  0.45162516418E+03  0.54432589812E+03  0.81615351145E+03  0.25500000920E-02 0.  1.
       -2    1    3    3    0  502 -0.40724756838E+03 -0.45162516418E+03  0.50634224508E+02  0.61022921560E+03  0.25500000920E-02 0. -1.
</event>
<event>
 5   0  0.1031295E-03  0.1296504E+04  0.7818609E-02  0.9032342E-01
        2   -1    0    0  501    0  0.00000000000E+00  0.00000000000E+00  0.12580426501E+04  0.12580426501E+04  0.25500000920E-02 0. -1.
       -2   -1    0    0    0  501  0.00000000000E+00  0.00000000000E+00 -0.33403513129E+03  0.33403513129E+03  0.25500000920E-02 0.  1.
    10030    2    1    2    0    0  0.00000000000E+00  0.00000000000E+00  0.92400751882E+03  0.15920777814E+04  0.12965036703E+04 0.  0.
        2    1    3    3  502    0 -0.58846952889E+03  0.29827536578E+02  0.13012159409E+03  0.60342165824E+03  0.25500000920E-02 0. -1.
       -2    1    3    3    0  502  0.58846952889E+03 -0.29827536578E+02  0.79388592473E+03  0.98865612316E+03  0.25500000920E-02 0.  1.
</event>
<event>
 5   0  0.1101619E-03  0.1298719E+04  0.7818609E-02  0.9030582E-01
       -2   -1    0    0    0  501  0.00000000000E+00  0.00000000000E+00  0.92616108348E+03  0.92616108349E+03  0.25500000920E-02 0.  1.
        2   -1    0    0  501    0  0.00000000000E+00  0.00000000000E+00 -0.45528553931E+03  0.45528553932E+03  0.25500000920E-02 0. -1.
    10030    2    1    2    0    0  0.00000000000E+00  0.00000000000E+00  0.47087554417E+03  0.13814466228E+04  0.12987189818E+04 0.  0.
        1    1    3    3  502    0  0.92974756184E+02 -0.62184787532E+03  0.62840739751E+02  0.63189243066E+03  0.50400001928E-02 0. -1.
       -1    1    3    3    0  502 -0.92974756184E+02  0.62184787532E+03  0.40803480442E+03  0.74955419215E+03  0.50400001928E-02 0.  1.
</event>
<event>
 5   0  0.5766027E-04  0.1282680E+04  0.7818609E-02  0.9043414E-01
        1   -1    0    0  501    0  0.00000000000E+00  0.00000000000E+00  0.16911291742E+04  0.16911291742E+04  0.50400001928E-02 0. -1.
       -1   -1    0    0    0  501  0.00000000000E+00  0.00000000000E+00 -0.24322018977E+03  0.24322018982E+03  0.50400001928E-02 0.  1.
    10030    2    1    2    0    0  0.00000000000E+00  0.00000000000E+00  0.14479089844E+04  0.19343493640E+04  0.12826796307E+04 0.  0.
        3    1    3    3  502    0 -0.10374173805E+03  0.34054830285E+03  0.15284430307E+04  0.15693545180E+04  0.10100000352E+00 0. -1.
       -3    1    3    3    0  502  0.10374173805E+03 -0.34054830285E+03 -0.80534046327E+02  0.36499484600E+03  0.10100000352E+00 0.  1.
</event>
<event>
 5   0  0.6006119E-04  0.1298994E+04  0.7818609E-02  0.9030363E-01
       -1   -1    0    0    0  501  0.00000000000E+00  0.00000000000E+00  0.35090255347E+03  0.35090255351E+03  0.50400001928E-02 0.  1.
        1   -1    0    0  501    0  0.00000000000E+00  0.00000000000E+00 -0.12021759393E+04  0.12021759393E+04  0.50400001928E-02 0. -1.
    10030    2    1    2    0    0  0.00000000000E+00  0.00000000000E+00 -0.85127338581E+03  0.15530784928E+04  0.12989943908E+04 0.  0.
        4    1    3    3  502    0 -0.27138404668E+03  0.50555692205E+03 -0.78947642941E+03  0.97596708332E+03  0.12699999809E+01 0. -1.
       -4    1    3    3    0  502  0.27138404668E+03 -0.50555692205E+03 -0.61796956401E+02  0.57711140948E+03  0.12699999809E+01 0.  1.
</event>
<event>
 5   0  0.1031295E-03  0.1298508E+04  0.7818609E-02  0.9030749E-01
        2   -1    0    0  501    0  0.00000000000E+00  0.00000000000E+00  0.47407204282E+03  0.47407204283E+03  0.25500000920E-02 0. -1.
       -2   -1    0    0    0  501  0.00000000000E+00  0.00000000000E+00 -0.88917052557E+03  0.88917052557E+03  0.25500000920E-02 0.  1.
    10030    2    1    2    0    0  0.00000000000E+00  0.00000000000E+00 -0.41509848274E+03  0.13632425684E+04  0.12985082017E+04 0.  0.
        2    1    3    3  502    0  0.48516392755E+01  0.54818237572E+03 -0.57274631259E+03  0.79282141372E+03  0.25500000920E-02 0.  1.
       -2    1    3    3    0  502 -0.48516392755E+01 -0.54818237572E+03  0.15764782985E+03  0.57042115469E+03  0.25500000920E-02 0. -1.
</event>
<event>
 5   0  0.1103241E-03  0.1301708E+04  0.7818609E-02  0.9028212E-01
        2   -1    0    0  501    0  0.00000000000E+00  0.00000000000E+00  0.21981012700E+04  0.21981012700E+04  0.25500000920E-02 0. -1.
       -2   -1    0    0    0  501  0.00000000000E+00  0.00000000000E+00 -0.19271668312E+03  0.19271668314E+03  0.25500000920E-02 0.  1.
    10030    2    1    2    0    0  0.00000000000E+00  0.00000000000E+00  0.20053845868E+04  0.23908179531E+04  0.13017077797E+04 0.  0.
        4    1    3    3  502    0  0.10212276786E+03  0.37811614695E+03  0.47958390754E+02  0.39459156155E+03  0.12699999809E+01 0.  1.
       -4    1    3    3    0  502 -0.10212276786E+03 -0.37811614695E+03  0.19574261961E+04  0.19962263915E+04  0.12699999809E+01 0. -1.
</event>
<event>
 5   0  0.1046253E-03  0.1302346E+04  0.7818609E-02  0.9027707E-01
       -2   -1    0    0    0  501  0.00000000000E+00  0.00000000000E+00  0.11685988837E+04  0.11685988837E+04  0.25500000920E-02 0.  1.
        2   -1    0    0  501    0  0.00000000000E+00  0.00000000000E+00 -0.36285017330E+03  0.36285017331E+03  0.25500000920E-02 0. -1.
    10030    2    1    2    0    0  0.00000000000E+00  0.00000000000E+00  0.80574871039E+03  0.15314490570E+04  0.13023460484E+04 0.  0.
        3    1    3    3  502    0 -0.50486149924E+03 -0.36717441127E+03  0.18501518961E+03  0.65110123045E+03  0.10100000352E+00 0. -1.
       -3    1    3    3    0  502  0.50486149924E+03  0.36717441127E+03  0.62073352078E+03  0.88034782656E+03  0.10100000352E+00 0.  1.
</event>
<event>
 5   0  0.1081574E-03  0.1298717E+04  0.7818609E-02  0.9030583E-01
        2   -1    0    0  501    0  0.00000000000E+00  0.00000000000E+00  0.18490283849E+04  0.18490283849E+04  0.25500000920E-02 0.  1.
       -2   -1    0    0    0  501  0.00000000000E+00  0.00000000000E+00 -0.22804772734E+03  0.22804772736E+03  0.25500000920E-02 0. -1.
    10030    2    1    2    0    0  0.00000000000E+00  0.00000000000E+00  0.16209806575E+04  0.20770761122E+04  0.12987173996E+04 0.  0.
        5    1    3    3  502    0  0.37089779787E+03  0.22665032589E+03  0.38975246132E+02  0.43643637165E+03  0.46999998093E+01 0. -1.
       -5    1    3    3    0  502 -0.37089779787E+03 -0.22665032589E+03  0.15820054114E+04  0.16406397406E+04  0.46999998093E+01 0.  1.
</event>
<event>
 5   0  0.6006119E-04  0.1310077E+04  0.7818609E-02  0.9021612E-01
       -1   -1    0    0    0  501  0.00000000000E+00  0.00000000000E+00  0.41764852923E+03  0.41764852926E+03  0.50400001928E-02 0.  1.
        1   -1    0    0  501    0  0.00000000000E+00  0.00000000000E+00 -0.10273596982E+04  0.10273596983E+04  0.50400001928E-02 0. -1.
    10030    2    1    2    0    0  0.00000000000E+00  0.00000000000E+00 -0.60971116902E+03  0.14450082275E+04  0.13100767412E+04 0.  0.
        4    1    3    3  502    0  0.52960433945E+03 -0.34973360495E+02 -0.72828183057E+03  0.90116587261E+03  0.12699999809E+01 0. -1.
       -4    1    3    3    0  502 -0.52960433945E+03  0.34973360495E+02  0.11857066155E+03  0.54384235491E+03  0.12699999809E+01 0.  1.
</event>
<event>
 5   0  0.5766027E-04  0.1271771E+04  0.7818609E-02  0.9052256E-01
        1   -1    0    0  501    0  0.00000000000E+00  0.00000000000E+00  0.18100260535E+04  0.18100260535E+04  0.50400001928E-02 0. -1.
       -1   -1    0    0    0  501  0.00000000000E+00  0.00000000000E+00 -0.22339461374E+03  0.22339461380E+03  0.50400001928E-02 0.  1.
    10030    2    1    2    0    0  0.00000000000E+00  0.00000000000E+00  0.15866314398E+04  0.20334206673E+04  0.12717705314E+04 0.  0.
        3    1    3    3  502    0 -0.59419859584E+03 -0.95209386209E+02  0.11218214388E+04  0.12730358005E+04  0.10100000352E+00 0. -1.
       -3    1    3    3    0  502  0.59419859584E+03  0.95209386209E+02  0.46481000094E+03  0.76038486683E+03  0.10100000352E+00 0.  1.
</event>
<event>
 5   0  0.5710383E-04  0.1293892E+04  0.7818609E-02  0.9034423E-01
        1   -1    0    0  501    0  0.00000000000E+00  0.00000000000E+00  0.52192870298E+03  0.52192870300E+03  0.50400001928E-02 0. -1.
       -1   -1    0    0    0  501  0.00000000000E+00  0.00000000000E+00 -0.80190853127E+03  0.80190853129E+03  0.50400001928E-02 0.  1.
    10030    2    1    2    0    0  0.00000000000E+00  0.00000000000E+00 -0.27997982829E+03  0.13238372343E+04  0.12938919270E+04 0.  0.
        1    1    3    3  502    0  0.21762966688E+03  0.58698798504E+03 -0.30692704965E+03  0.69722434003E+03  0.50400001928E-02 0.  1.
       -1    1    3    3    0  502 -0.21762966688E+03 -0.58698798504E+03  0.26947221360E+02  0.62661289426E+03  0.50400001928E-02 0. -1.
</event>
<event>
 5   0  0.1103241E-03  0.1328327E+04  0.7818609E-02  0.9007399E-01
       -2   -1    0    0    0  501  0.00000000000E+00  0.00000000000E+00  0.31481664930E+03  0.31481664932E+03  0.25500000920E-02 0.  1.
        2   -1    0    0  501    0  0.00000000000E+00  0.00000000000E+00 -0.14011742553E+04  0.14011742553E+04  0.25500000920E-02 0. -1.
    10030    2    1    2    0    0  0.00000000000E+00  0.00000000000E+00 -0.10863576060E+04  0.17159909046E+04  0.13283267432E+04 0.  0.
        4    1    3    3  502    0 -0.41140357313E+03  0.15754537348E+03  0.98905247383E+02  0.45150559858E+03  0.12699999809E+01 0.  1.
       -4    1    3    3    0  502  0.41140357313E+03 -0.15754537348E+03 -0.11852628534E+04  0.12644853061E+04  0.12699999809E+01 0. -1.
</event>
<event>
 5   0  0.1103241E-03  0.1300679E+04  0.7818609E-02  0.9029027E-01
       -2   -1    0    0    0  501  0.00000000000E+00  0.00000000000E+00  0.42125771870E+03  0.42125771870E+03  0.25500000920E-02 0.  1.
        2   -1    0    0  501    0  0.00000000000E+00  0.00000000000E+00 -0.10039968684E+04  0.10039968684E+04  0.25500000920E-02 0. -1.
    10030    2    1    2    0    0  0.00000000000E+00  0.00000000000E+00 -0.58273914975E+03  0.14252545872E+04  0.13006789464E+04 0.  0.
        4    1    3    3  502    0 -0.16066086212E+03 -0.14101195459E+03 -0.96439773977E+03  0.98780610311E+03  0.12699999809E+01 0. -1.
       -4    1    3    3    0  502  0.16066086212E+03  0.14101195459E+03  0.38165859002E+03  0.43744848405E+03  0.12699999809E+01 0.  1.
</event>
<event>
 5   0  0.5812938E-04  0.1305393E+04  0.7818609E-02  0.9025299E-01
        1   -1    0    0  501    0  0.00000000000E+00  0.00000000000E+00  0.12901416890E+04  0.12901416890E+04  0.50400001928E-02 0.  1.
       -1   -1    0    0    0  501  0.00000000000E+00  0.00000000000E+00 -0.33020616414E+03  0.33020616418E+03  0.50400001928E-02 0. -1.
    10030    2    1    2    0    0  0.00000000000E+00  0.00000000000E+00  0.95993552489E+03  0.16203478532E+04  0.13053930264E+04 0.  0.
        5    1    3    3  502    0  0.48061560885E+03 -0.10232913412E+02 -0.68014930224E+02  0.48553495932E+03  0.46999998093E+01 0. -1.
       -5    1    3    3    0  502 -0.48061560885E+03  0.10232913412E+02  0.10279504551E+04  0.11348128939E+04  0.46999998093E+01 0.  1.
</event>
<event>
 5   0  0.1031295E-03  0.1321475E+04  0.7818609E-02  0.9012706E-01
       -2   -1    0    0    0  501  0.00000000000E+00  0.00000000000E+00  0.16241801318E+03  0.16241801320E+03  0.25500000920E-02 0.  1.
        2   -1    0    0  501    0  0.00000000000E+00  0.00000000000E+00 -0.26879671926E+04  0.26879671926E+04  0.25500000920E-02 0. -1.
    10030    2    1    2    0    0  0.00000000000E+00  0.00000000000E+00 -0.25255491794E+04  0.28503852058E+04  0.13214753739E+04 0.  0.
        2    1    3    3  502    0 -0.27714398285E+03  0.45995544868E+03 -0.20931569030E+04  0.21609427624E+04  0.25500000920E-02 0.  1.
       -2    1    3    3    0  502  0.27714398285E+03 -0.45995544868E+03 -0.43239227644E+03  0.68944244338E+03  0.25500000920E-02 0. -1.
</event>
<event>
 5   0  0.5563545E-04  0.1305516E+04  0.7818609E-02  0.9025203E-01
       -1   -1    0    0    0  501  0.00000000000E+00  0.00000000000E+00  0.29508547007E+03  0.29508547011E+03  0.50400001928E-02 0. -1.
        1   -1    0    0  501    0  0.00000000000E+00  0.00000000000E+00 -0.14439640172E+04  0.14439640173E+04  0.50400001928E-02 0.  1.
    10030    2    1    2    0    0  0.00000000000E+00  0.00000000000E+00 -0.11488785472E+04  0.17390494874E+04  0.13055156848E+04 0.  0.
        2    1    3    3  502    0  0.34341418068E+03  0.55463899580E+03 -0.54362573957E+03  0.84916821648E+03  0.25500000920E-02 0. -1.
       -2    1    3    3    0  502 -0.34341418068E+03 -0.55463899580E+03 -0.60525280761E+03  0.88988127089E+03  0.25500000920E-02 0.  1.
</event>
<event>
 5   0  0.5766027E-04  0.1301106E+04  0.7818609E-02  0.9028689E-01
       -1   -1    0    0    0  501  0.00000000000E+00  0.00000000000E+00  0.70957309106E+03  0.70957309108E+03  0.50400001928E-02 0. -1.
        1   -1    0    0  501    0  0.00000000000E+00  0.00000000000E+00 -0.59644199760E+03  0.59644199762E+03  0.50400001928E-02 0.  1.
    10030    2    1    2    0    0  0.00000000000E+00  0.00000000000E+00  0.11313109346E+03  0.13060150887E+04  0.13011059786E+04 0.  0.
        3    1    3    3  502    0  0.51834611086E+02 -0.31044891564E+02 -0.59361952754E+03  0.59668648877E+03  0.10100000352E+00 0.  1.
       -3    1    3    3    0  502 -0.51834611086E+02  0.31044891564E+02  0.70675062100E+03  0.70932859994E+03  0.10100000352E+00 0. -1.
</event>
<event>
 5   0  0.1081574E-03  0.1300128E+04  0.7818609E-02  0.9029464E-01
       -2   -1    0    0    0  501  0.00000000000E+00  0.00000000000E+00  0.33497529964E+03  0.33497529965E+03  0.25500000920E-02 0. -1.
        2   -1    0    0  501    0  0.00000000000E+00  0.00000000000E+00 -0.12615356182E+04  0.12615356182E+04  0.25500000920E-02 0.  1.
    10030    2    1    2    0    0  0.00000000000E+00  0.00000000000E+00 -0.92656031859E+03  0.15965109179E+04  0.13001281040E+04 0.  0.
        5    1    3    3  502    0  0.22979009763E+03  0.40559815285E+03  0.93040303884E+02  0.47538609436E+03  0.46999998093E+01 0. -1.
       -5    1    3    3    0  502 -0.22979009763E+03 -0.40559815285E+03 -0.10196006225E+04  0.11211248235E+04  0.46999998093E+01 0.  1.
</event>
<event>
 5   0  0.1101619E-03  0.1259587E+04  0.7818609E-02  0.9062242E-01
        2   -1    0    0  501    0  0.00000000000E+00  0.00000000000E+00  0.44208721458E+03  0.44208721459E+03  0.25500000920E-02 0.  1.
       -2   -1    0    0    0  501  0.00000000000E+00  0.00000000000E+00 -0.89719768754E+03  0.89719768754E+03  0.25500000920E-02 0. -1.
    10030    2    1    2    0    0  0.00000000000E+00  0.00000000000E+00 -0.45511047296E+03  0.13392849021E+04  0.12595866411E+04 0.  0.
        1    1    3    3  502    0  0.10978010915E+03  0.49671836811E+03  0.16723117946E+03  0.53548770013E+03  0.50400001928E-02 0.  1.
       -1    1    3    3    0  502 -0.10978010915E+03 -0.49671836811E+03 -0.62234165242E+03  0.80379720200E+03  0.50400001928E-02 0. -1.
</event>
<event>
 5   0  0.6006119E-04  0.1306382E+04  0.7818609E-02  0.9024520E-01
        1   -1    0    0  501    0  0.00000000000E+00  0.00000000000E+00  0.12893582799E+04  0.12893582799E+04  0.50400001928E-02 0. -1.
       -1   -1    0    0    0  501  0.00000000000E+00  0.00000000000E+00 -0.33090745551E+03  0.33090745555E+03  0.50400001928E-02 0.  1.
    10030    2    1    2    0    0  0.00000000000E+00  0.00000000000E+00  0.95845082441E+03  0.16202657355E+04  0.13063816712E+04 0.  0.
        4    1    3    3  502    0 -0.42498891223E+02 -0.41347083183E+03 -0.14571843174E+03  0.44045403708E+03  0.12699999809E+01 0.  1.
       -4    1    3    3    0  502  0.42498891223E+02  0.41347083183E+03  0.11041692561E+04  0.11798116984E+04  0.12699999809E+01 0. -1.
</event>
<event>
 5   0  0.6006119E-04  0.1297703E+04  0.7818609E-02  0.9031389E-01
        1   -1    0    0  501    0  0.00000000000E+00  0.00000000000E+00  0.73827814921E+03  0.73827814923E+03  0.50400001928E-02 0. -1.
       -1   -1    0    0    0  501  0.00000000000E+00  0.00000000000E+00 -0.57025689838E+03  0.57025689840E+03  0.50400001928E-02 0.  1.
    10030    2    1    2    0    0  0.00000000000E+00  0.00000000000E+00  0.16802125083E+03  0.13085350476E+04  0.12977029052E+04 0.  0.
        4    1    3    3  502    0 -0.33513383763E+03 -0.75340407608E+02  0.63907412336E+03  0.72553994665E+03  0.12699999809E+01 0. -1.
       -4    1    3    3    0  502  0.33513383763E+03  0.75340407608E+02 -0.47105287253E+03  0.58299510098E+03  0.12699999809E+01 0.  1.
</event>
<event>
 5   0  0.5766027E-04  0.1323603E+04  0.7818609E-02  0.9011054E-01
       -1   -1    0    0    0  501  0.00000000000E+00  0.00000000000E+00  0.39051799418E+03  0.39051799421E+03  0.50400001928E-02 0.  1.
        1   -1    0    0  501    0  0.00000000000E+00  0.00000000000E+00 -0.11215391245E+04  0.11215391245E+04  0.50400001928E-02 0. -1.
    10030    2    1    2    0    0  0.00000000000E+00  0.00000000000E+00 -0.73102113035E+03  0.15120571188E+04  0.13236029757E+04 0.  0.
        3    1    3    3  502    0 -0.58643733212E+03 -0.30571267769E+03 -0.33724472771E+03  0.74236312029E+03  0.10100000352E+00 0.  1.
       -3    1    3    3    0  502  0.58643733212E+03  0.30571267769E+03 -0.39377640264E+03  0.76969399847E+03  0.10100000352E+00 0. -1.
</event>
<event>
 5   0  0.1103241E-03  0.1293848E+04  0.7818609E-02  0.9034458E-01
        2   -1    0    0  501    0  0.00000000000E+00  0.00000000000E+00  0.69167923442E+03  0.69167923442E+03  0.25500000920E-02 0. -1.
       -2   -1    0    0    0  501  0.00000000000E+00  0.00000000000E+00 -0.60506490365E+03  0.60506490365E+03  0.25500000920E-02 0.  1.
    10030    2    1    2    0    0  0.00000000000E+00  0.00000000000E+00  0.86614330769E+02  0.12967441381E+04  0.12938482590E+04 0.  0.
        4    1    3    3  502    0 -0.18138716392E+03 -0.31565817979E+03 -0.49264932568E+03  0.61257355533E+03  0.12699999809E+01 0.  1.
       -4    1    3    3    0  502  0.18138716392E+03  0.31565817979E+03  0.57926365645E+03  0.68417058274E+03  0.12699999809E+01 0. -1.
</event>
<event>
 5   0  0.5812938E-04  0.1307514E+04  0.7818609E-02  0.9023628E-01
        1   -1    0    0  501    0  0.00000000000E+00  0.00000000000E+00  0.18404024968E+04  0.18404024968E+04  0.50400001928E-02 0.  1.
       -1   -1    0    0    0  501  0.00000000000E+00  0.00000000000E+00 -0.23223083861E+03  0.23223083867E+03  0.50400001928E-02 0. -1.
    10030    2    1    2    0    0  0.00000000000E+00  0.00000000000E+00  0.16081716582E+04  0.20726333355E+04  0.13075140003E+04 0.  0.
        5    1    3    3  502    0  0.49935747928E+03 -0.14964536319E+03  0.17874740698E+03  0.55111192361E+03  0.46999998093E+01 0. -1.
       -5    1    3    3    0  502 -0.49935747928E+03  0.14964536319E+03  0.14294242512E+04  0.15215214119E+04  0.46999998093E+01 0.  1.
</event>
<event>
 5   0  0.1046253E-03  0.1290279E+04  0.7818609E-02  0.9037310E-01
       -2   -1    0    0    0  501  0.00000000000E+00  0.00000000000E+00  0.49832932039E+03  0.49832932040E+03  0.25500000920E-02 0. -1.
        2   -1    0    0  501    0  0.00000000000E+00  0.00000000000E+00 -0.83520011662E+03  0.83520011663E+03  0.25500000920E-02 0.  1.
    10030    2    1    2    0    0  0.00000000000E+00  0.00000000000E+00 -0.33687079623E+03  0.13335294370E+04  0.12902785847E+04 0.  0.
        3    1    3    3  502    0 -0.45260461761E+03  0.10808521612E+03  0.29338912110E+03  0.55010048210E+03  0.10100000352E+00 0. -1.
       -3    1    3    3    0  502  0.45260461761E+03 -0.10808521612E+03 -0.63025991733E+03  0.78342895493E+03  0.10100000352E+00 0.  1.
</event>
<event>
 5   0  0.1046253E-03  0.1294691E+04  0.7818609E-02  0.9033786E-01
       -2   -1    0    0    0  501  0.00000000000E+00  0.00000000000E+00  0.33873607996E+03  0.33873607997E+03  0.25500000920E-02 0.  1.
        2   -1    0    0  501    0  0.00000000000E+00  0.00000000000E+00 -0.12371168303E+04  0.12371168303E+04  0.25500000920E-02 0. -1.
    10030    2    1    2    0    0  0.00000000000E+00  0.00000000000E+00 -0.89838075032E+03  0.15758529103E+04  0.12946908597E+04 0.  0.
        3    1    3    3  502    0 -0.86377809686E+02  0.54960441909E+03 -0.85201503083E+03  0.10175734698E+04  0.10100000352E+00 0. -1.
       -3    1    3    3    0  502  0.86377809686E+02 -0.54960441909E+03 -0.46365719485E+02  0.55827944045E+03  0.10100000352E+00 0.  1.
</event>
<event>
 5   0  0.4012375E-04  0.1291180E+04  0.7818609E-02  0.9036589E-01
        3   -1    0    0  501    0  0.00000000000E+00  0.00000000000E+00  0.66120372483E+03  0.66120373254E+03  0.10100000352E+00 0. -1.
       -3   -1    0    0    0  501  0.00000000000E+00  0.00000000000E+00 -0.63034527087E+03  0.63034527897E+03  0.10100000352E+00 0.  1.
    10030    2    1    2    0    0  0.00000000000E+00  0.00000000000E+00  0.30858453956E+02  0.12915490115E+04  0.12911803147E+04 0.  0.
        2    1    3    3  502    0  0.15582754267E+03 -0.35449211191E+03  0.53214209197E+03  0.65812011557E+03  0.25500000920E-02 0. -1.
       -2    1    3    3    0  502 -0.15582754267E+03  0.35449211191E+03 -0.50128363802E+03  0.63342889594E+03  0.25500000920E-02 0.  1.
</event>
<event>
 5   0  0.5812938E-04  0.1273010E+04  0.7818609E-02  0.9051246E-01
       -1   -1    0    0    0  501  0.00000000000E+00  0.00000000000E+00  0.21090113853E+03  0.21090113859E+03  0.50400001928E-02 0. -1.
        1   -1    0    0  501    0  0.00000000000E+00  0.00000000000E+00 -0.19209897333E+04  0.19209897333E+04  0.50400001928E-02 0.  1.
    10030    2    1    2    0    0  0.00000000000E+00  0.00000000000E+00 -0.17100885948E+04  0.21318908719E+04  0.12730104822E+04 0.  0.
        5    1    3    3  502    0  0.29354035425E+03  0.38521824137E+03 -0.16342232566E+03  0.51116335900E+03  0.46999998093E+01 0. -1.
       -5    1    3    3    0  502 -0.29354035425E+03 -0.38521824137E+03 -0.15466662691E+04  0.16207275129E+04  0.46999998093E+01 0.  1.
</event>
<event>
 5   0  0.1046253E-03  0.1300096E+04  0.7818609E-02  0.9029489E-01
        2   -1    0    0  501    0  0.00000000000E+00  0.00000000000E+00  0.10863169497E+04  0.10863169497E+04  0.25500000920E-02 0.  1.
       -2   -1    0    0    0  501  0.00000000000E+00  0.00000000000E+00 -0.38898648815E+03  0.38898648816E+03  0.25500000920E-02 0. -1.
    10030    2    1    2    0    0  0.00000000000E+00  0.00000000000E+00  0.69733046153E+03  0.14753034378E+04  0.13000963276E+04 0.  0.
        3    1    3    3  502    0  0.25590769344E+03 -0.20859859871E+03 -0.28676296918E+03  0.43730439472E+03  0.10100000352E+00 0. -1.
       -3    1    3    3    0  502 -0.25590769344E+03  0.20859859871E+03  0.98409343071E+03  0.10379990431E+04  0.10100000352E+00 0.  1.
</event>
<event>
 5   0  0.4012375E-04  0.1298680E+04  0.7818609E-02  0.9030613E-01
       -3   -1    0    0    0  501  0.00000000000E+00  0.00000000000E+00  0.95946742588E+03  0.95946743119E+03  0.10100000352E+00 0.  1.
        3   -1    0    0  501    0  0.00000000000E+00  0.00000000000E+00 -0.43945467082E+03  0.43945468243E+03  0.10100000352E+00 0. -1.
    10030    2    1    2    0    0  0.00000000000E+00  0.00000000000E+00  0.52001275505E+03  0.13989221136E+04  0.12986800278E+04 0.  0.
        4    1    3    3  502    0  0.51202303542E+03  0.41829568925E+02  0.68780524499E+03  0.85848411143E+03  0.12699999809E+01 0.  1.
       -4    1    3    3    0  502 -0.51202303542E+03 -0.41829568925E+02 -0.16779248994E+03  0.54043800219E+03  0.12699999809E+01 0. -1.
</event>
<event>
 5   0  0.1031295E-03  0.1314709E+04  0.7818609E-02  0.9017981E-01
       -2   -1    0    0    0  501  0.00000000000E+00  0.00000000000E+00  0.55517494091E+03  0.55517494092E+03  0.25500000920E-02 0.  1.
        2   -1    0    0  501    0  0.00000000000E+00  0.00000000000E+00 -0.77834063015E+03  0.77834063016E+03  0.25500000920E-02 0. -1.
    10030    2    1    2    0    0  0.00000000000E+00  0.00000000000E+00 -0.22316568924E+03  0.13335155711E+04  0.13147094179E+04 0.  0.
        2    1    3    3  502    0 -0.14209449316E+03  0.35367783753E+03  0.43164924329E+03  0.57584713856E+03  0.25500000920E-02 0.  1.
       -2    1    3    3    0  502  0.14209449316E+03 -0.35367783753E+03 -0.65481493253E+03  0.75766843251E+03  0.25500000920E-02 0. -1.
</event>
<event>
 5   0  0.1101619E-03  0.1293547E+04  0.7818609E-02  0.9034698E-01
        2   -1    0    0  501    0  0.00000000000E+00  0.00000000000E+00  0.64444676630E+03  0.64444676631E+03  0.25500000920E-02 0.  1.
       -2   -1    0    0    0  501  0.00000000000E+00  0.00000000000E+00 -0.64910870832E+03  0.64910870833E+03  0.25500000920E-02 0. -1.
    10030    2    1    2    0    0  0.00000000000E+00  0.00000000000E+00 -0.46619420215E+01  0.12935554746E+04  0.12935470738E+04 0.  0.
        1    1    3    3  502    0 -0.55015140972E+03  0.72054551725E+02  0.33002277233E+03  0.64557994263E+03  0.50400001928E-02 0. -1.
       -1    1    3    3    0  502  0.55015140972E+03 -0.72054551725E+02 -0.33468471435E+03  0.64797553201E+03  0.50400001928E-02 0.  1.
</event>
<event>
 5   0  0.5710383E-04  0.1294211E+04  0.7818609E-02  0.9034168E-01
       -1   -1    0    0    0  501  0.00000000000E+00  0.00000000000E+00  0.54076319802E+03  0.54076319805E+03  0.50400001928E-02 0.  1.
        1   -1    0    0  501    0  0.00000000000E+00  0.00000000000E+00 -0.77436034981E+03  0.77436034982E+03  0.50400001928E-02 0. -1.
    10030    2    1    2    0    0  0.00000000000E+00  0.00000000000E+00 -0.23359715179E+03  0.13151235479E+04  0.12942110789E+04 0.  0.
        1    1    3    3  502    0  0.95786703170E+02 -0.51224089429E+03  0.27304059576E+03  0.58831708563E+03  0.50400001928E-02 0.  1.
       -1    1    3    3    0  502 -0.95786703170E+02  0.51224089429E+03 -0.50663774755E+03  0.72680646224E+03  0.50400001928E-02 0. -1.
</event>
<event>
 5   0  0.1103241E-03  0.1309830E+04  0.7818609E-02  0.9021806E-01
       -2   -1    0    0    0  501  0.00000000000E+00  0.00000000000E+00  0.38265268957E+03  0.38265268958E+03  0.25500000920E-02 0. -1.
        2   -1    0    0  501    0  0.00000000000E+00  0.00000000000E+00 -0.11208948499E+04  0.11208948499E+04  0.25500000920E-02 0.  1.
    10030    2    1    2    0    0  0.00000000000E+00  0.00000000000E+00 -0.73824216034E+03  0.15035475395E+04  0.13098296516E+04 0.  0.
        4    1    3    3  502    0 -0.28831526777E+03 -0.40033216464E+03  0.12530121090E+03  0.50901232011E+03  0.12699999809E+01 0. -1.
       -4    1    3    3    0  502  0.28831526777E+03  0.40033216464E+03 -0.86354337124E+03  0.99453521938E+03  0.12699999809E+01 0.  1.
</event>
<event>
 5   0  0.1103241E-03  0.1301194E+04  0.7818609E-02  0.9028619E-01
        2   -1    0    0  501    0  0.00000000000E+00  0.00000000000E+00  0.37660072863E+03  0.37660072864E+03  0.25500000920E-02 0.  1.
       -2   -1    0    0    0  501  0.00000000000E+00  0.00000000000E+00 -0.11239387547E+04  0.11239387547E+04  0.25500000920E-02 0. -1.
    10030    2    1    2    0    0  0.00000000000E+00  0.00000000000E+00 -0.74733802604E+03  0.15005394833E+04  0.13011935351E+04 0.  0.
        4    1    3    3  502    0  0.40311588126E+03  0.85591004166E+02 -0.95423089051E+03  0.10394163935E+04  0.12699999809E+01 0. -1.
       -4    1    3    3    0  502 -0.40311588126E+03 -0.85591004166E+02  0.20689286447E+03  0.46112308984E+03  0.12699999809E+01 0.  1.
</event>
<event>
 5   0  0.1081574E-03  0.1270707E+04  0.7818609E-02  0.9053123E-01
        2   -1    0    0  501    0  0.00000000000E+00  0.00000000000E+00  0.38190635346E+03  0.38190635347E+03  0.25500000920E-02 0. -1.
       -2   -1    0    0    0  501  0.00000000000E+00  0.00000000000E+00 -0.10569968279E+04  0.10569968279E+04  0.25500000920E-02 0.  1.
    10030    2    1    2    0    0  0.00000000000E+00  0.00000000000E+00 -0.67509047444E+03  0.14389031814E+04  0.12707065817E+04 0.  0.
        5    1    3    3  502    0 -0.45509635791E+03 -0.41551166752E+03 -0.51256453837E+03  0.80156542891E+03  0.46999998093E+01 0.  1.
       -5    1    3    3    0  502  0.45509635791E+03  0.41551166752E+03 -0.16252593607E+03  0.63733775247E+03  0.46999998093E+01 0. -1.
</event>
<event>
 5   0  0.6006119E-04  0.1299371E+04  0.7818609E-02  0.9030064E-01
        1   -1    0    0  501    0  0.00000000000E+00  0.00000000000E+00  0.86279269425E+03  0.86279269427E+03  0.50400001928E-02 0. -1.
       -1   -1    0    0    0  501  0.00000000000E+00  0.00000000000E+00 -0.48921501756E+03  0.48921501758E+03  0.50400001928E-02 0.  1.
    10030    2    1    2    0    0  0.00000000000E+00  0.00000000000E+00  0.37357767670E+03  0.13520077119E+04  0.12993708371E+04 0.  0.
        4    1    3    3  502    0  0.95368673433E+02  0.83325277849E+02 -0.47624619533E+03  0.49279847531E+03  0.12699999809E+01 0.  1.
       -4    1    3    3    0  502 -0.95368673433E+02 -0.83325277849E+02  0.84982387203E+03  0.85920923655E+03  0.12699999809E+01 0. -1.
</event>
<event>
 5   0  0.5563545E-04  0.1294904E+04  0.7818609E-02  0.9033616E-01
       -1   -1    0    0    0  501  0.00000000000E+00  0.00000000000E+00  0.53386196985E+03  0.53386196988E+03  0.50400001928E-02 0. -1.
        1   -1    0    0  501    0  0.00000000000E+00  0.00000000000E+00 -0.78521027342E+03  0.78521027343E+03  0.50400001928E-02 0.  1.
    10030    2    1    2    0    0  0.00000000000E+00  0.00000000000E+00 -0.25134830356E+03  0.13190722433E+04  0.12949037081E+04 0.  0.
        2    1    3    3  502    0  0.23652088224E+02 -0.62960814350E+03 -0.27754763813E+03  0.68847550943E+03  0.25500000920E-02 0.  1.
       -2    1    3    3    0  502 -0.23652088224E+02  0.62960814350E+03  0.26199334566E+02  0.63059673388E+03  0.25500000920E-02 0. -1.
</event>
<event>
 5   0  0.1046253E-03  0.1197606E+04  0.7818609E-02  0.9114955E-01
       -2   -1    0    0    0  501  0.00000000000E+00  0.00000000000E+00  0.29906293392E+03  0.29906293393E+03  0.25500000920E-02 0. -1.
        2   -1    0    0  501    0  0.00000000000E+00  0.00000000000E+00 -0.11989610203E+04  0.11989610203E+04  0.25500000920E-02 0.  1.
    10030    2    1    2    0    0  0.00000000000E+00  0.00000000000E+00 -0.89989808634E+03  0.14980239542E+04  0.11976056119E+04 0.  0.
        3    1    3    3  502    0 -0.31820282471E+03  0.18597109609E+03  0.14037556253E+03  0.39439015580E+03  0.10100000352E+00 0. -1.
       -3    1    3    3    0  502  0.31820282471E+03 -0.18597109609E+03 -0.10402736489E+04  0.11036337984E+04  0.10100000352E+00 0.  1.
</event>
<event>
 5   0  0.1101619E-03  0.1306098E+04  0.7818609E-02  0.9024743E-01
       -2   -1    0    0    0  501  0.00000000000E+00  0.00000000000E+00  0.30796650671E+03  0.30796650673E+03  0.25500000920E-02 0. -1.
        2   -1    0    0  501    0  0.00000000000E+00  0.00000000000E+00 -0.13848029623E+04  0.13848029623E+04  0.25500000920E-02 0.  1.
    10030    2    1    2    0    0  0.00000000000E+00  0.00000000000E+00 -0.10768364555E+04  0.16927694690E+04  0.13060978995E+04 0.  0.
        1    1    3    3  502    0  0.78483535229E+01  0.47416691944E+03 -0.11203105768E+04  0.12165490753E+04  0.50400001928E-02 0.  1.
       -1    1    3    3    0  502 -0.78483535229E+01 -0.47416691944E+03  0.43474121214E+02  0.47622039371E+03  0.50400001928E-02 0. -1.
</event>
<event>
 5   0  0.1103241E-03  0.1278677E+04  0.7818609E-02  0.9046648E-01
       -2   -1    0    0    0  501  0.00000000000E+00  0.00000000000E+00  0.76570692909E+03  0.76570692909E+03  0.25500000920E-02 0. -1.
        2   -1    0    0  501    0  0.00000000000E+00  0.00000000000E+00 -0.53382510511E+03  0.53382510512E+03  0.25500000920E-02 0.  1.
    10030    2    1    2    0    0  0.00000000000E+00  0.00000000000E+00  0.23188182398E+03  0.12995320342E+04  0.12786767878E+04 0.  0.
        4    1    3    3  502    0  0.43579695885E+03  0.45131328364E+03  0.24103088149E+03  0.67208642901E+03  0.12699999809E+01 0. -1.
       -4    1    3    3    0  502 -0.43579695885E+03 -0.45131328364E+03 -0.91490575114E+01  0.62744560520E+03  0.12699999809E+01 0.  1.
</event>
<event>
 5   0  0.5766027E-04  0.1299707E+04  0.7818609E-02  0.9029798E-01
       -1   -1    0    0    0  501  0.00000000000E+00  0.00000000000E+00  0.35317026416E+03  0.35317026419E+03  0.50400001928E-02 0.  1.
        1   -1    0    0  501    0  0.00000000000E+00  0.00000000000E+00 -0.11957667874E+04  0.11957667874E+04  0.50400001928E-02 0. -1.
    10030    2    1    2    0    0  0.00000000000E+00  0.00000000000E+00 -0.84259652326E+03  0.15489370516E+04  0.12997065395E+04 0.  0.
        3    1    3    3  502    0 -0.50933607228E+03  0.36183150722E+03 -0.20822991149E+03  0.65856281430E+03  0.10100000352E+00 0.  1.
       -3    1    3    3    0  502  0.50933607228E+03 -0.36183150722E+03 -0.63436661177E+03  0.89037423731E+03  0.10100000352E+00 0. -1.
</event>
<event>
 5   0  0.5710383E-04  0.1263154E+04  0.7818609E-02  0.9059306E-01
       -1   -1    0    0    0  501  0.00000000000E+00  0.00000000000E+00  0.42729453569E+03  0.42729453572E+03  0.50400001928E-02 0.  1.
        1   -1    0    0  501    0  0.00000000000E+00  0.00000000000E+00 -0.93352370615E+03  0.93352370616E+03  0.50400001928E-02 0. -1.
    10030    2    1    2    0    0  0.00000000000E+00  0.00000000000E+00 -0.50622917046E+03  0.13608182419E+04  0.12631541135E+04 0.  0.
        1    1    3    3  502    0  0.27628541318E+03  0.51369062420E+03 -0.51407884459E+03  0.77748874294E+03  0.50400001928E-02 0. -1.
       -1    1    3    3    0  502 -0.27628541318E+03 -0.51369062420E+03  0.78496741291E+01  0.58332949894E+03  0.50400001928E-02 0.  1.
</event>
<event>
 5   0  0.5563545E-04  0.1301767E+04  0.7818609E-02  0.9028165E-01
        1   -1    0    0  501    0  0.00000000000E+00  0.00000000000E+00  0.22811364173E+04  0.22811364173E+04  0.50400001928E-02 0.  1.
       -1   -1    0    0    0  501  0.00000000000E+00  0.00000000000E+00 -0.18571865118E+03  0.18571865125E+03  0.50400001928E-02 0. -1.
    10030    2    1    2    0    0  0.00000000000E+00  0.00000000000E+00  0.20954177661E+04  0.24668550685E+04  0.13017673812E+04 0.  0.
        2    1    3    3  502    0  0.50269454664E+03  0.14759205324E+03  0.17795937716E+04  0.18551116445E+04  0.25500000920E-02 0.  1.
       -2    1    3    3    0  502 -0.50269454664E+03 -0.14759205324E+03  0.31582399448E+03  0.61174342408E+03  0.25500000920E-02 0. -1.
</event>
<event>
 5   0  0.1101619E-03  0.1293406E+04  0.7818609E-02  0.9034811E-01
       -2   -1    0    0    0  501  0.00000000000E+00  0.00000000000E+00  0.26041203933E+03  0.26041203934E+03  0.25500000920E-02 0.  1.
        2   -1    0    0  501    0  0.00000000000E+00  0.00000000000E+00 -0.16060106868E+04  0.16060106868E+04  0.25500000920E-02 0. -1.
    10030    2    1    2    0    0  0.00000000000E+00  0.00000000000E+00 -0.13455986474E+04  0.18664227261E+04  0.12934056102E+04 0.  0.
        1    1    3    3  502    0 -0.26144992704E+02 -0.25266215093E+03 -0.15310111983E+04  0.15519397580E+04  0.50400001928E-02 0. -1.
       -1    1    3    3    0  502  0.26144992704E+02  0.25266215093E+03  0.18541255089E+03  0.31448296808E+03  0.50400001928E-02 0.  1.
</event>
<event>
 5   0  0.1103241E-03  0.1291592E+04  0.7818609E-02  0.9036259E-01
        2   -1    0    0  501    0  0.00000000000E+00  0.00000000000E+00  0.13941256368E+04  0.13941256368E+04  0.25500000920E-02 0. -1.
       -2   -1    0    0    0  501  0.00000000000E+00  0.00000000000E+00 -0.29914994904E+03  0.29914994905E+03  0.25500000920E-02 0.  1.
    10030    2    1    2    0    0  0.00000000000E+00  0.00000000000E+00  0.10949756877E+04  0.16932755858E+04  0.12915922162E+04 0.  0.
        4    1    3    3  502    0 -0.17612011081E+03 -0.60742860217E+03  0.37623709869E+03  0.73589657391E+03  0.12699999809E+01 0.  1.
       -4    1    3    3    0  502  0.17612011081E+03  0.60742860217E+03  0.71873858905E+03  0.95737901192E+03  0.12699999809E+01 0. -1.
</event>
<event>
 5   0  0.5812938E-04  0.1300715E+04  0.7818609E-02  0.9028999E-01
        1   -1    0    0  501    0  0.00000000000E+00  0.00000000000E+00  0.95762778340E+03  0.95762778341E+03  0.50400001928E-02 0.  1.
       -1   -1    0    0    0  501  0.00000000000E+00  0.00000000000E+00 -0.44167956148E+03  0.44167956151E+03  0.50400001928E-02 0. -1.
    10030    2    1    2    0    0  0.00000000000E+00  0.00000000000E+00  0.51594822192E+03  0.13993073449E+04  0.13007146028E+04 0.  0.
        5    1    3    3  502    0  0.62716922132E+02 -0.66324242026E+02  0.95068353351E+03  0.95506732134E+03  0.46999998093E+01 0.  1.
       -5    1    3    3    0  502 -0.62716922132E+02  0.66324242026E+02 -0.43473531159E+03  0.44424002358E+03  0.46999998093E+01 0. -1.
</event>
<event>
 5   0  0.1101619E-03  0.1278607E+04  0.7818609E-02  0.9046704E-01
        2   -1    0    0  501    0  0.00000000000E+00  0.00000000000E+00  0.11802303263E+04  0.11802303263E+04  0.25500000920E-02 0.  1.
       -2   -1    0    0    0  501  0.00000000000E+00  0.00000000000E+00 -0.34629580913E+03  0.34629580914E+03  0.25500000920E-02 0. -1.
    10030    2    1    2    0    0  0.00000000000E+00  0.00000000000E+00  0.83393451719E+03  0.15265261355E+04  0.12786067665E+04 0.  0.
        1    1    3    3  502    0 -0.16633468859E+03 -0.34613115665E+02 -0.31884938393E+03  0.36128967057E+03  0.50400001928E-02 0. -1.
       -1    1    3    3    0  502  0.16633468859E+03  0.34613115665E+02  0.11527839011E+04  0.11652364649E+04  0.50400001928E-02 0.  1.
</event>
<event>
 5   0  0.5766027E-04  0.1296730E+04  0.7818609E-02  0.9032163E-01
        1   -1    0    0  501    0  0.00000000000E+00  0.00000000000E+00  0.11776740433E+04  0.11776740433E+04  0.50400001928E-02 0.  1.
       -1   -1    0    0    0  501  0.00000000000E+00  0.00000000000E+00 -0.35695523757E+03  0.35695523760E+03  0.50400001928E-02 0. -1.
    10030    2    1    2    0    0  0.00000000000E+00  0.00000000000E+00  0.82071880571E+03  0.15346292809E+04  0.12967296062E+04 0.  0.
        3    1    3    3  502    0  0.32516844649E+03 -0.28398579288E+03  0.98283481720E+03  0.10734741437E+04  0.10100000352E+00 0.  1.
       -3    1    3    3    0  502 -0.32516844649E+03  0.28398579288E+03 -0.16211601149E+03  0.46115513716E+03  0.10100000352E+00 0. -1.
</event>
<event>
 5   0  0.5812938E-04  0.1297274E+04  0.7818609E-02  0.9031730E-01
       -1   -1    0    0    0  501  0.00000000000E+00  0.00000000000E+00  0.61013713718E+03  0.61013713720E+03  0.50400001928E-02 0.  1.
        1   -1    0    0  501    0  0.00000000000E+00  0.00000000000E+00 -0.68956603895E+03  0.68956603896E+03  0.50400001928E-02 0. -1.
    10030    2    1    2    0    0  0.00000000000E+00  0.00000000000E+00 -0.79428901765E+02  0.12997031762E+04  0.12972738322E+04 0.  0.
        5    1    3    3  502    0 -0.73321048591E+02  0.55395746334E+03  0.29023936220E+03  0.62968708477E+03  0.46999998093E+01 0.  1.
       -5    1    3    3    0  502  0.73321048591E+02 -0.55395746334E+03 -0.36966826396E+03  0.67001609140E+03  0.46999998093E+01 0. -1.
</event>
<event>
 5   0  0.5812938E-04  0.1290561E+04  0.7818609E-02  0.9037084E-01
        1   -1    0    0  501    0  0.00000000000E+00  0.00000000000E+00  0.47819594819E+03  0.47819594822E+03  0.50400001928E-02 0. -1.
       -1   -1    0    0    0  501  0.00000000000E+00  0.00000000000E+00 -0.87074538921E+03  0.87074538922E+03  0.50400001928E-02 0.  1.
    10030    2    1    2    0    0  0.00000000000E+00  0.00000000000E+00 -0.39254944102E+03  0.13489413374E+04  0.12905609897E+04 0.  0.
        5    1    3    3  502    0 -0.32537273454E+03 -0.27385835757E+03 -0.70350955788E+03  0.82207883103E+03  0.46999998093E+01 0.  1.
       -5    1    3    3    0  502  0.32537273454E+03  0.27385835757E+03  0.31096011687E+03  0.52686250642E+03  0.46999998093E+01 0. -1.
</event>
<event>
 5   0  0.4012375E-04  0.1273928E+04  0.7818609E-02  0.9050500E-01
        4   -1    0    0  501    0  0.00000000000E+00  0.00000000000E+00  0.62470053489E+03  0.62470182582E+03  0.12699999809E+01 0. -1.
       -4   -1    0    0    0  501  0.00000000000E+00  0.00000000000E+00 -0.64946585035E+03  0.64946709206E+03  0.12699999809E+01 0.  1.
    10030    2    1    2    0    0  0.00000000000E+00  0.00000000000E+00 -0.24765315465E+02  0.12741689179E+04  0.12739282203E+04 0.  0.
        4    1    3    3  502    0 -0.56404798912E+03  0.28455259681E+03  0.68881387888E+02  0.63550497470E+03  0.12699999809E+01 0. -1.
       -4    1    3    3    0  502  0.56404798912E+03 -0.28455259681E+03 -0.93646703352E+02  0.63866394319E+03  0.12699999809E+01 0.  1.
</event>
<event>
 5   0  0.1081574E-03  0.1289893E+04  0.7818609E-02  0.9037618E-01
        2   -1    0    0  501    0  0.00000000000E+00  0.00000000000E+00  0.26547233388E+03  0.26547233389E+03  0.25500000920E-02 0.  1.
       -2   -1    0    0    0  501  0.00000000000E+00  0.00000000000E+00 -0.15668533161E+04  0.15668533161E+04  0.25500000920E-02 0. -1.
    10030    2    1    2    0    0  0.00000000000E+00  0.00000000000E+00 -0.13013809822E+04  0.18323256500E+04  0.12898933393E+04 0.  0.
        5    1    3    3  502    0  0.33252721462E+03  0.47435601106E+03 -0.10533438976E+04  0.12021411857E+04  0.46999998093E+01 0.  1.
       -5    1    3    3    0  502 -0.33252721462E+03 -0.47435601106E+03 -0.24803708458E+03  0.63018446427E+03  0.46999998093E+01 0. -1.
</event>
<event>
 5   0  0.1031295E-03  0.1305340E+04  0.7818609E-02  0.9025341E-01
       -2   -1    0    0    0  501  0.00000000000E+00  0.00000000000E+00  0.39657387145E+03  0.39657387146E+03  0.25500000920E-02 0. -1.
        2   -1    0    0  501    0  0.00000000000E+00  0.00000000000E+00 -0.10741464517E+04  0.10741464517E+04  0.25500000920E-02 0.  1.
    10030    2    1    2    0    0  0.00000000000E+00  0.00000000000E+00 -0.67757258020E+03  0.14707203231E+04  0.13053404412E+04 0.  0.
        2    1    3    3  502    0 -0.57441294847E+03 -0.16033130692E+03 -0.63756666825E+03  0.87301066421E+03  0.25500000920E-02 0.  1.
       -2    1    3    3    0  502  0.57441294847E+03  0.16033130692E+03 -0.40005911950E+02  0.59770965891E+03  0.25500000920E-02 0. -1.
</event>
<event>
 5   0  0.5710383E-04  0.1292038E+04  0.7818609E-02  0.9035903E-01
       -1   -1    0    0    0  501  0.00000000000E+00  0.00000000000E+00  0.78401978396E+03  0.78401978398E+03  0.50400001928E-02 0. -1.
        1   -1    0    0  501    0  0.00000000000E+00  0.00000000000E+00 -0.53230909140E+03  0.53230909142E+03  0.50400001928E-02 0.  1.
    10030    2    1    2    0    0  0.00000000000E+00  0.00000000000E+00  0.25171069256E+03  0.13163288754E+04  0.12920384806E+04 0.  0.
        1    1    3    3  502    0  0.58282151957E+03  0.22578714366E+03 -0.40555907940E+02  0.62634298880E+03  0.50400001928E-02 0.  1.
       -1    1    3    3    0  502 -0.58282151957E+03 -0.22578714366E+03  0.29226660050E+03  0.68998588660E+03  0.50400001928E-02 0. -1.
</event>
<event>
 5   0  0.1081574E-03  0.1309504E+04  0.7818609E-02  0.9022062E-01
       -2   -1    0    0    0  501  0.00000000000E+00  0.00000000000E+00  0.42150430912E+03  0.42150430913E+03  0.25500000920E-02 0.  1.
        2   -1    0    0  501    0  0.00000000000E+00  0.00000000000E+00 -0.10170715966E+04  0.10170715966E+04  0.25500000920E-02 0. -1.
    10030    2    1    2    0    0  0.00000000000E+00  0.00000000000E+00 -0.59556728750E+03  0.14385759058E+04  0.13095038154E+04 0.  0.
        5    1    3    3  502    0 -0.84880520366E+02  0.31976926149E+03  0.32290194831E+03  0.46232547145E+03  0.46999998093E+01 0.  1.
       -5    1    3    3    0  502  0.84880520366E+02 -0.31976926149E+03 -0.91846923582E+03  0.97625043430E+03  0.46999998093E+01 0. -1.
</event>
<event>
 5   0  0.5812938E-04  0.1297293E+04  0.7818609E-02  0.9031715E-01
        1   -1    0    0  501    0  0.00000000000E+00  0.00000000000E+00  0.82599531139E+03  0.82599531140E+03  0.50400001928E-02 0.  1.
       -1   -1    0    0    0  501  0.00000000000E+00  0.00000000000E+00 -0.50937614089E+03  0.50937614092E+03  0.50400001928E-02 0. -1.
    10030    2    1    2    0    0  0.00000000000E+00  0.00000000000E+00  0.31661917049E+03  0.13353714523E+04  0.12972930342E+04 0.  0.
        5    1    3    3  502    0  0.47549006191E+03  0.24574802662E+03 -0.21882871740E+03  0.57826550054E+03  0.46999998093E+01 0. -1.
       -5    1    3    3    0  502 -0.47549006191E+03 -0.24574802662E+03  0.53544788790E+03  0.75710595177E+03  0.46999998093E+01 0.  1.
</event>
<event>
 5   0  0.1046253E-03  0.1308581E+04  0.7818609E-02  0.9022788E-01
        2   -1    0    0  501    0  0.00000000000E+00  0.00000000000E+00  0.91965285058E+03  0.91965285058E+03  0.25500000920E-02 0.  1.
       -2   -1    0    0    0  501  0.00000000000E+00  0.00000000000E+00 -0.46549768706E+03  0.46549768707E+03  0.25500000920E-02 0. -1.
    10030    2    1    2    0    0  0.00000000000E+00  0.00000000000E+00  0.45415516352E+03  0.13851505376E+04  0.13085813308E+04 0.  0.
        3    1    3    3  502    0  0.82107831209E+02 -0.52174952944E+03 -0.18169491901E+03  0.55854930061E+03  0.10100000352E+00 0. -1.
       -3    1    3    3    0  502 -0.82107831209E+02  0.52174952944E+03  0.63585008252E+03  0.82660123703E+03  0.10100000352E+00 0.  1.
</event>
<event>
 5   0  0.1081574E-03  0.1295265E+04  0.7818609E-02  0.9033329E-01
        2   -1    0    0  501    0  0.00000000000E+00  0.00000000000E+00  0.27118798477E+03  0.27118798478E+03  0.25500000920E-02 0.  1.
       -2   -1    0    0    0  501  0.00000000000E+00  0.00000000000E+00 -0.15466306591E+04  0.15466306591E+04  0.25500000920E-02 0. -1.
    10030    2    1    2    0    0  0.00000000000E+00  0.00000000000E+00 -0.12754426743E+04  0.18178186439E+04  0.12952646859E+04 0.  0.
        5    1    3    3  502    0  0.20538860878E+03 -0.68628716251E+02 -0.14942890184E+04  0.15099060043E+04  0.46999998093E+01 0. -1.
       -5    1    3    3    0  502 -0.20538860878E+03  0.68628716251E+02  0.21884634407E+03  0.30791263959E+03  0.46999998093E+01 0.  1.
</event>
<event>
 5   0  0.6006119E-04  0.1273500E+04  0.7818609E-02  0.9050848E-01
       -1   -1    0    0    0  501  0.00000000000E+00  0.00000000000E+00  0.15784387659E+03  0.15784387667E+03  0.50400001928E-02 0. -1.
        1   -1    0    0  501    0  0.00000000000E+00  0.00000000000E+00 -0.25686807321E+04  0.25686807321E+04  0.50400001928E-02 0.  1.
    10030    2    1    2    0    0  0.00000000000E+00  0.00000000000E+00 -0.24108368555E+04  0.27265246088E+04  0.12734999405E+04 0.  0.
        4    1    3    3  502    0 -0.56754957142E+03  0.90638245710E+02 -0.17922202773E+04  0.18821219256E+04  0.12699999809E+01 0.  1.
       -4    1    3    3    0  502  0.56754957142E+03 -0.90638245710E+02 -0.61861657819E+03  0.84440268315E+03  0.12699999809E+01 0. -1.
</event>
<event>
 5   0  0.1046253E-03  0.1293442E+04  0.7818609E-02  0.9034782E-01
       -2   -1    0    0    0  501  0.00000000000E+00  0.00000000000E+00  0.60797257436E+03  0.60797257437E+03  0.25500000920E-02 0. -1.
        2   -1    0    0  501    0  0.00000000000E+00  0.00000000000E+00 -0.68793904336E+03  0.68793904336E+03  0.25500000920E-02 0.  1.
    10030    2    1    2    0    0  0.00000000000E+00  0.00000000000E+00 -0.79966468995E+02  0.12959116177E+04  0.12934420299E+04 0.  0.
        3    1    3    3  502    0  0.35777852439E+03 -0.53755194565E+03 -0.41309178015E+01  0.64574347962E+03  0.10100000352E+00 0.  1.
       -3    1    3    3    0  502 -0.35777852439E+03  0.53755194565E+03 -0.75835551194E+02  0.65016813811E+03  0.10100000352E+00 0. -1.
</event>
<event>
 5   0  0.1031295E-03  0.1302573E+04  0.7818609E-02  0.9027527E-01
        2   -1    0    0  501    0  0.00000000000E+00  0.00000000000E+00  0.16157039317E+04  0.16157039317E+04  0.25500000920E-02 0.  1.
       -2   -1    0    0    0  501  0.00000000000E+00  0.00000000000E+00 -0.26253221411E+03  0.26253221412E+03  0.25500000920E-02 0. -1.
    10030    2    1    2    0    0  0.00000000000E+00  0.00000000000E+00  0.13531717176E+04  0.18782361458E+04  0.13025733462E+04 0.  0.
        2    1    3    3  502    0  0.46428959512E+02 -0.57343618208E+03  0.23640435033E+03  0.62199012859E+03  0.25500000920E-02 0.  1.
       -2    1    3    3    0  502 -0.46428959512E+02  0.57343618208E+03  0.11167673673E+04  0.12562460172E+04  0.25500000920E-02 0. -1.
</event>
<event>
 5   0  0.1103241E-03  0.1286477E+04  0.7818609E-02  0.9040359E-01
        2   -1    0    0  501    0  0.00000000000E+00  0.00000000000E+00  0.40212637920E+03  0.40212637921E+03  0.25500000920E-02 0. -1.
       -2   -1    0    0    0  501  0.00000000000E+00  0.00000000000E+00 -0.10289191434E+04  0.10289191434E+04  0.25500000920E-02 0.  1.
    10030    2    1    2    0    0  0.00000000000E+00  0.00000000000E+00 -0.62679276416E+03  0.14310455226E+04  0.12864766296E+04 0.  0.
        4    1    3    3  502    0 -0.56503335001E+03 -0.53390315887E+00  0.28541048800E+02  0.56575540302E+03  0.12699999809E+01 0. -1.
       -4    1    3    3    0  502  0.56503335001E+03  0.53390315887E+00 -0.65533381296E+03  0.86529011955E+03  0.12699999809E+01 0.  1.
</event>
<event>
 5   0  0.1081574E-03  0.1321080E+04  0.7818609E-02  0.9013013E-01
        2   -1    0    0  501    0  0.00000000000E+00  0.00000000000E+00  0.92262205477E+03  0.92262205477E+03  0.25500000920E-02 0.  1.
       -2   -1    0    0    0  501  0.00000000000E+00  0.00000000000E+00 -0.47290587279E+03  0.47290587280E+03  0.25500000920E-02 0. -1.
    10030    2    1    2    0    0  0.00000000000E+00  0.00000000000E+00  0.44971618198E+03  0.13955279276E+04  0.13210804488E+04 0.  0.
        5    1    3    3  502    0 -0.69093815955E+02  0.22971605387E+03  0.87496438473E+03  0.90726412105E+03  0.46999998093E+01 0.  1.
       -5    1    3    3    0  502  0.69093815955E+02 -0.22971605387E+03 -0.42524820275E+03  0.48826380651E+03  0.46999998093E+01 0. -1.
</event>
<event>
 5   0  0.1101619E-03  0.1301419E+04  0.7818609E-02  0.9028441E-01
        2   -1    0    0  501    0  0.00000000000E+00  0.00000000000E+00  0.18891894859E+04  0.18891894859E+04  0.25500000920E-02 0.  1.
       -2   -1    0    0    0  501  0.00000000000E+00  0.00000000000E+00 -0.22412932420E+03  0.22412932421E+03  0.25500000920E-02 0. -1.
    10030    2    1    2    0    0  0.00000000000E+00  0.00000000000E+00  0.16650601617E+04  0.21133188101E+04  0.13014188608E+04 0.  0.
        1    1    3    3  502    0 -0.55104961682E+03  0.14103913126E+03  0.31934216858E+03  0.65232441117E+03  0.50400001928E-02 0.  1.
       -1    1    3    3    0  502  0.55104961682E+03 -0.14103913126E+03  0.13457179931E+04  0.14609943990E+04  0.50400001928E-02 0. -1.
</event>
<event>
 5   0  0.1101619E-03  0.1303204E+04  0.7818609E-02  0.9027028E-01
        2   -1    0    0  501    0  0.00000000000E+00  0.00000000000E+00  0.94200631901E+03  0.94200631901E+03  0.25500000920E-02 0. -1.
       -2   -1    0    0    0  501  0.00000000000E+00  0.00000000000E+00 -0.45072416912E+03  0.45072416913E+03  0.25500000920E-02 0.  1.
    10030    2    1    2    0    0  0.00000000000E+00  0.00000000000E+00  0.49128214989E+03  0.13927304881E+04  0.13032037683E+04 0.  0.
        1    1    3    3  502    0  0.35932588513E+03  0.53647798509E+03  0.33918290332E+03  0.72936188696E+03  0.50400001928E-02 0.  1.
       -1    1    3    3    0  502 -0.35932588513E+03 -0.53647798509E+03  0.15209924657E+03  0.66336860119E+03  0.50400001928E-02 0. -1.
</event>
<event>
 5   0  0.5710383E-04  0.1280174E+04  0.7818609E-02  0.9045437E-01
       -1   -1    0    0    0  501  0.00000000000E+00  0.00000000000E+00  0.22861259474E+03  0.22861259480E+03  0.50400001928E-02 0. -1.
        1   -1    0    0  501    0  0.00000000000E+00  0.00000000000E+00 -0.17921630852E+04  0.17921630852E+04  0.50400001928E-02 0.  1.
    10030    2    1    2    0    0  0.00000000000E+00  0.00000000000E+00 -0.15635504905E+04  0.20207756800E+04  0.12801735088E+04 0.  0.
        1    1    3    3  502    0  0.75552642794E+02  0.30161106598E+03  0.10139567283E+03  0.32704513365E+03  0.50400001928E-02 0. -1.
       -1    1    3    3    0  502 -0.75552642794E+02 -0.30161106598E+03 -0.16649461633E+04  0.16937305464E+04  0.50400001928E-02 0.  1.
</event>
<event>
 5   0  0.5563545E-04  0.1310591E+04  0.7818609E-02  0.9021209E-01
       -1   -1    0    0    0  501  0.00000000000E+00  0.00000000000E+00  0.44266588940E+03  0.44266588943E+03  0.50400001928E-02 0.  1.
        1   -1    0    0  501    0  0.00000000000E+00  0.00000000000E+00 -0.97005878950E+03  0.97005878951E+03  0.50400001928E-02 0. -1.
    10030    2    1    2    0    0  0.00000000000E+00  0.00000000000E+00 -0.52739290010E+03  0.14127246789E+04  0.13105906101E+04 0.  0.
        2    1    3    3  502    0 -0.25996858108E+03  0.23494831494E+03  0.33319598610E+03  0.48353276932E+03  0.25500000920E-02 0.  1.
       -2    1    3    3    0  502  0.25996858108E+03 -0.23494831494E+03 -0.86058888620E+03  0.92919190962E+03  0.25500000920E-02 0. -1.
</event>
<event>
 5   0  0.1101619E-03  0.1304110E+04  0.7818609E-02  0.9026312E-01
        2   -1    0    0  501    0  0.00000000000E+00  0.00000000000E+00  0.11632620530E+04  0.11632620530E+04  0.25500000920E-02 0. -1.
       -2   -1    0    0    0  501  0.00000000000E+00  0.00000000000E+00 -0.36550318952E+03  0.36550318953E+03  0.25500000920E-02 0.  1.
    10030    2    1    2    0    0  0.00000000000E+00  0.00000000000E+00  0.79775886348E+03  0.15287652425E+04  0.13041104104E+04 0.  0.
        1    1    3    3  502    0  0.62416041334E+03 -0.22170120221E+02  0.61852935668E+03  0.87900301530E+03  0.50400001928E-02 0. -1.
       -1    1    3    3    0  502 -0.62416041334E+03  0.22170120221E+02  0.17922950680E+03  0.64976222723E+03  0.50400001928E-02 0.  1.
</event>
<event>
 5   0  0.5766027E-04  0.1303499E+04  0.7818609E-02  0.9026795E-01
        1   -1    0    0  501    0  0.00000000000E+00  0.00000000000E+00  0.70094300812E+03  0.70094300814E+03  0.50400001928E-02 0.  1.
       -1   -1    0    0    0  501  0.00000000000E+00  0.00000000000E+00 -0.60600840060E+03  0.60600840062E+03  0.50400001928E-02 0. -1.
    10030    2    1    2    0    0  0.00000000000E+00  0.00000000000E+00  0.94934607521E+02  0.13069514088E+04  0.13034989088E+04 0.  0.
        3    1    3    3  502    0  0.50354568226E+03  0.38396043334E+03 -0.10719258185E+03  0.64224148753E+03  0.10100000352E+00 0. -1.
       -3    1    3    3    0  502 -0.50354568226E+03 -0.38396043334E+03  0.20212718937E+03  0.66470992123E+03  0.10100000352E+00 0.  1.
</event>
<event>
 5   0  0.1081574E-03  0.1300410E+04  0.7818609E-02  0.9029240E-01
       -2   -1    0    0    0  501  0.00000000000E+00  0.00000000000E+00  0.30379633465E+03  0.30379633466E+03  0.25500000920E-02 0.  1.
        2   -1    0    0  501    0  0.00000000000E+00  0.00000000000E+00 -0.13916117984E+04  0.13916117984E+04  0.25500000920E-02 0. -1.
    10030    2    1    2    0    0  0.00000000000E+00  0.00000000000E+00 -0.10878154637E+04  0.16954081330E+04  0.13004100332E+04 0.  0.
        5    1    3    3  502    0 -0.59125773515E+03  0.25568173391E+03 -0.42886997158E+03  0.77389301648E+03  0.46999998093E+01 0.  1.
       -5    1    3    3    0  502  0.59125773515E+03 -0.25568173391E+03 -0.65894549213E+03  0.92151511655E+03  0.46999998093E+01 0. -1.
</event>
<event>
 5   0  0.5766027E-04  0.1289107E+04  0.7818609E-02  0.9038248E-01
       -1   -1    0    0    0  501  0.00000000000E+00  0.00000000000E+00  0.71524707186E+03  0.71524707188E+03  0.50400001928E-02 0.  1.
        1   -1    0    0  501    0  0.00000000000E+00  0.00000000000E+00 -0.58084697853E+03  0.58084697855E+03  0.50400001928E-02 0. -1.
    10030    2    1    2    0    0  0.00000000000E+00  0.00000000000E+00  0.13440009333E+03  0.12960940504E+04  0.12891068235E+04 0.  0.
        3    1    3    3  502    0  0.10973330943E+03  0.57655802286E+03  0.33508093119E+03  0.67582526852E+03  0.10100000352E+00 0.  1.
       -3    1    3    3    0  502 -0.10973330943E+03 -0.57655802286E+03 -0.20068083786E+03  0.62026878191E+03  0.10100000352E+00 0. -1.
</event>
<event>
 5   0  0.1031295E-03  0.1300822E+04  0.7818609E-02  0.9028914E-01
       -2   -1    0    0    0  501  0.00000000000E+00  0.00000000000E+00  0.31945926096E+03  0.31945926097E+03  0.25500000920E-02 0. -1.
        2   -1    0    0  501    0  0.00000000000E+00  0.00000000000E+00 -0.13242201791E+04  0.13242201791E+04  0.25500000920E-02 0.  1.
    10030    2    1    2    0    0  0.00000000000E+00  0.00000000000E+00 -0.10047609181E+04  0.16436794400E+04  0.13008218937E+04 0.  0.
        2    1    3    3  502    0 -0.26178905281E+03  0.26705277520E+02 -0.12539525804E+04  0.12812664648E+04  0.25500000920E-02 0.  1.
       -2    1    3    3    0  502  0.26178905281E+03 -0.26705277520E+02  0.24919166231E+03  0.36241297519E+03  0.25500000920E-02 0. -1.
</event>
<event>
 5   0  0.6006119E-04  0.1305895E+04  0.7818609E-02  0.9024903E-01
        1   -1    0    0  501    0  0.00000000000E+00  0.00000000000E+00  0.47257273934E+03  0.47257273937E+03  0.50400001928E-02 0. -1.
       -1   -1    0    0    0  501  0.00000000000E+00  0.00000000000E+00 -0.90216936078E+03  0.90216936079E+03  0.50400001928E-02 0.  1.
    10030    2    1    2    0    0  0.00000000000E+00  0.00000000000E+00 -0.42959662143E+03  0.13747421002E+04  0.13058953192E+04 0.  0.
        4    1    3    3  502    0  0.10549684397E+03  0.17897683623E+03  0.43684874497E+03  0.48373622035E+03  0.12699999809E+01 0. -1.
       -4    1    3    3    0  502 -0.10549684397E+03 -0.17897683623E+03 -0.86644536641E+03  0.89100587981E+03  0.12699999809E+01 0.  1.
</event>
<event>
 5   0  0.5812938E-04  0.1302406E+04  0.7818609E-02  0.9027659E-01
       -1   -1    0    0    0  501  0.00000000000E+00  0.00000000000E+00  0.11654480849E+04  0.11654480849E+04  0.50400001928E-02 0. -1.
        1   -1    0    0  501    0  0.00000000000E+00  0.00000000000E+00 -0.36386484109E+03  0.36386484113E+03  0.50400001928E-02 0.  1.
    10030    2    1    2    0    0  0.00000000000E+00  0.00000000000E+00  0.80158324378E+03  0.15293129260E+04  0.13024063609E+04 0.  0.
        5    1    3    3  502    0 -0.65054595544E+03  0.27819438969E+02  0.40985147389E+03  0.76940514814E+03  0.46999998093E+01 0. -1.
       -5    1    3    3    0  502  0.65054595544E+03 -0.27819438969E+02  0.39173176989E+03  0.75990777787E+03  0.46999998093E+01 0.  1.
</event>
<event>
 5   0  0.5710383E-04  0.1291678E+04  0.7818609E-02  0.9036191E-01
       -1   -1    0    0    0  501  0.00000000000E+00  0.00000000000E+00  0.18792685381E+03  0.18792685388E+03  0.50400001928E-02 0.  1.
        1   -1    0    0  501    0  0.00000000000E+00  0.00000000000E+00 -0.22195227195E+04  0.22195227195E+04  0.50400001928E-02 0. -1.
    10030    2    1    2    0    0  0.00000000000E+00  0.00000000000E+00 -0.20315958657E+04  0.24074495734E+04  0.12916778573E+04 0.  0.
        1    1    3    3  502    0  0.20320536692E+03  0.39757925165E+03 -0.14608021844E+03  0.46978837015E+03  0.50400001928E-02 0.  1.
       -1    1    3    3    0  502 -0.20320536692E+03 -0.39757925165E+03 -0.18855156472E+04  0.19376612032E+04  0.50400001928E-02 0. -1.
</event>
<event>
 5   0  0.5563545E-04  0.1294224E+04  0.7818609E-02  0.9034158E-01
       -1   -1    0    0    0  501  0.00000000000E+00  0.00000000000E+00  0.86104059472E+03  0.86104059474E+03  0.50400001928E-02 0.  1.
        1   -1    0    0  501    0  0.00000000000E+00  0.00000000000E+00 -0.48633508193E+03  0.48633508195E+03  0.50400001928E-02 0. -1.
    10030    2    1    2    0    0  0.00000000000E+00  0.00000000000E+00  0.37470551280E+03  0.13473756767E+04  0.12942244754E+04 0.  0.
        2    1    3    3  502    0 -0.48498479060E+03  0.26553590478E+03  0.53736638695E+03  0.77102671657E+03  0.25500000920E-02 0. -1.
       -2    1    3    3    0  502  0.48498479060E+03 -0.26553590478E+03 -0.16266087415E+03  0.57634896012E+03  0.25500000920E-02 0.  1.
</event>
<event>
 5   0  0.1046253E-03  0.1298158E+04  0.7818609E-02  0.9031027E-01
        2   -1    0    0  501    0  0.00000000000E+00  0.00000000000E+00  0.14186872229E+04  0.14186872229E+04  0.25500000920E-02 0.  1.
       -2   -1    0    0    0  501  0.00000000000E+00  0.00000000000E+00 -0.29696727154E+03  0.29696727155E+03  0.25500000920E-02 0. -1.
    10030    2    1    2    0    0  0.00000000000E+00  0.00000000000E+00  0.11217199514E+04  0.17156544945E+04  0.12981581934E+04 0.  0.
        3    1    3    3  502    0  0.16208703947E+03 -0.24544107094E+03  0.13255554861E+04  0.13577963340E+04  0.10100000352E+00 0.  1.
       -3    1    3    3    0  502 -0.16208703947E+03  0.24544107094E+03 -0.20383553467E+03  0.35785816054E+03  0.10100000352E+00 0. -1.
</event>
<event>
 5   0  0.1101619E-03  0.1296206E+04  0.7818609E-02  0.9032579E-01
       -2   -1    0    0    0  501  0.00000000000E+00  0.00000000000E+00  0.23100501368E+03  0.23100501369E+03  0.25500000920E-02 0.  1.
        2   -1    0    0  501    0  0.00000000000E+00  0.00000000000E+00 -0.18183046505E+04  0.18183046505E+04  0.25500000920E-02 0. -1.
    10030    2    1    2    0    0  0.00000000000E+00  0.00000000000E+00 -0.15872996368E+04  0.20493096642E+04  0.12962059878E+04 0.  0.
        1    1    3    3  502    0  0.62000264890E+02 -0.42247624816E+03 -0.15644730653E+04  0.16216985494E+04  0.50400001928E-02 0. -1.
       -1    1    3    3    0  502 -0.62000264890E+02  0.42247624816E+03 -0.22826571547E+02  0.42761111480E+03  0.50400001928E-02 0.  1.
</event>
<event>
 5   0  0.5563545E-04  0.1365991E+04  0.7818609E-02  0.8978811E-01
       -1   -1    0    0    0  501  0.00000000000E+00  0.00000000000E+00  0.56945255595E+03  0.56945255597E+03  0.50400001928E-02 0.  1.
        1   -1    0    0  501    0  0.00000000000E+00  0.00000000000E+00 -0.81917721421E+03  0.81917721422E+03  0.50400001928E-02 0. -1.
    10030    2    1    2    0    0  0.00000000000E+00  0.00000000000E+00 -0.24972465826E+03  0.13886297702E+04  0.13659905687E+04 0.  0.
        2    1    3    3  502    0 -0.66982529594E+03  0.11847733844E+03 -0.62363712880E+02  0.68307542738E+03  0.25500000920E-02 0.  1.
       -2    1    3    3    0  502  0.66982529594E+03 -0.11847733844E+03 -0.18736094538E+03  0.70555434281E+03  0.25500000920E-02 0. -1.
</event>
<event>
 5   0  0.6006119E-04  0.1301822E+04  0.7818609E-02  0.9028122E-01
       -1   -1    0    0    0  501  0.00000000000E+00  0.00000000000E+00  0.39994413760E+03  0.39994413763E+03  0.50400001928E-02 0. -1.
        1   -1    0    0  501    0  0.00000000000E+00  0.00000000000E+00 -0.10593600604E+04  0.10593600604E+04  0.50400001928E-02 0.  1.
    10030    2    1    2    0    0  0.00000000000E+00  0.00000000000E+00 -0.65941592283E+03  0.14593041981E+04  0.13018215635E+04 0.  0.
        4    1    3    3  502    0  0.19884039439E+03  0.60215337590E+03 -0.16512345155E+03  0.65528128136E+03  0.12699999809E+01 0. -1.
       -4    1    3    3    0  502 -0.19884039439E+03 -0.60215337590E+03 -0.49429247128E+03  0.80402291672E+03  0.12699999809E+01 0.  1.
</event>
<event>
 5   0  0.5766027E-04  0.1301763E+04  0.7818609E-02  0.9028168E-01
        1   -1    0    0  501    0  0.00000000000E+00  0.00000000000E+00  0.15868664722E+04  0.15868664723E+04  0.50400001928E-02 0.  1.
       -1   -1    0    0    0  501  0.00000000000E+00  0.00000000000E+00 -0.26697067564E+03  0.26697067568E+03  0.50400001928E-02 0. -1.
    10030    2    1    2    0    0  0.00000000000E+00  0.00000000000E+00  0.13198957966E+04  0.18538371479E+04  0.13017631341E+04 0.  0.
        3    1    3    3  502    0  0.25868259190E+03 -0.56515770017E+03  0.38480991921E+03  0.73102571332E+03  0.10100000352E+00 0. -1.
       -3    1    3    3    0  502 -0.25868259190E+03  0.56515770017E+03  0.93508587740E+03  0.11228114346E+04  0.10100000352E+00 0.  1.
</event>
<event>
 5   0  0.6006119E-04  0.1305535E+04  0.7818609E-02  0.9025187E-01
       -1   -1    0    0    0  501  0.00000000000E+00  0.00000000000E+00  0.86587348442E+03  0.86587348443E+03  0.50400001928E-02 0.  1.
        1   -1    0    0  501    0  0.00000000000E+00  0.00000000000E+00 -0.49211032618E+03  0.49211032621E+03  0.50400001928E-02 0. -1.
    10030    2    1    2    0    0  0.00000000000E+00  0.00000000000E+00  0.37376315824E+03  0.13579838106E+04  0.13055348067E+04 0.  0.
        4    1    3    3  502    0 -0.29890309633E+02 -0.32490234561E+03  0.77496997806E+03  0.84085375933E+03  0.12699999809E+01 0.  1.
       -4    1    3    3    0  502  0.29890309633E+02  0.32490234561E+03 -0.40120681982E+03  0.51713005131E+03  0.12699999809E+01 0. -1.
</event>
<event>
 5   0  0.1031295E-03  0.1307247E+04  0.7818609E-02  0.9023838E-01
        2   -1    0    0  501    0  0.00000000000E+00  0.00000000000E+00  0.33589138860E+03  0.33589138861E+03  0.25500000920E-02 0.  1.
       -2   -1    0    0    0  501  0.00000000000E+00  0.00000000000E+00 -0.12719106338E+04  0.12719106338E+04  0.25500000920E-02 0. -1.
    10030    2    1    2    0    0  0.00000000000E+00  0.00000000000E+00 -0.93601924524E+03  0.16078020225E+04  0.13072472283E+04 0.  0.
        2    1    3    3  502    0  0.16210560811E+03 -0.82990124836E+02 -0.12400767249E+04  0.12533777852E+04  0.25500000920E-02 0. -1.
       -2    1    3    3    0  502 -0.16210560811E+03  0.82990124836E+02  0.30405747962E+03  0.35442423721E+03  0.25500000920E-02 0.  1.
</event>
<event>
 5   0  0.1101619E-03  0.1299670E+04  0.7818609E-02  0.9029827E-01
        2   -1    0    0  501    0  0.00000000000E+00  0.00000000000E+00  0.49815157596E+03  0.49815157597E+03  0.25500000920E-02 0.  1.
       -2   -1    0    0    0  501  0.00000000000E+00  0.00000000000E+00 -0.84770458262E+03  0.84770458262E+03  0.25500000920E-02 0. -1.
    10030    2    1    2    0    0  0.00000000000E+00  0.00000000000E+00 -0.34955300666E+03  0.13458561586E+04  0.12996697639E+04 0.  0.
        1    1    3    3  502    0  0.18822193688E+01  0.35731124346E+03 -0.73684564934E+03  0.81891170369E+03  0.50400001928E-02 0. -1.
       -1    1    3    3    0  502 -0.18822193688E+01 -0.35731124346E+03  0.38729264269E+03  0.52694445491E+03  0.50400001928E-02 0.  1.
</event>
<event>
 5   0  0.4012375E-04  0.1300890E+04  0.7818609E-02  0.9028860E-01
        3   -1    0    0  501    0  0.00000000000E+00  0.00000000000E+00  0.49059495816E+03  0.49059496855E+03  0.10100000352E+00 0. -1.
       -3   -1    0    0    0  501  0.00000000000E+00  0.00000000000E+00 -0.86237872623E+03  0.86237873215E+03  0.10100000352E+00 0.  1.
    10030    2    1    2    0    0  0.00000000000E+00  0.00000000000E+00 -0.37178376808E+03  0.13529737007E+04  0.13008899510E+04 0.  0.
        3    1    3    3  502    0  0.55739211438E+03 -0.11112418703E+03  0.14306921256E+03  0.58609160026E+03  0.10100000352E+00 0.  1.
       -3    1    3    3    0  502 -0.55739211438E+03  0.11112418703E+03 -0.51485298064E+03  0.76688210044E+03  0.10100000352E+00 0. -1.
</event>
<event>
 5   0  0.5710383E-04  0.1300229E+04  0.7818609E-02  0.9029383E-01
       -1   -1    0    0    0  501  0.00000000000E+00  0.00000000000E+00  0.73867708938E+03  0.73867708939E+03  0.50400001928E-02 0. -1.
        1   -1    0    0  501    0  0.00000000000E+00  0.00000000000E+00 -0.57217010906E+03  0.57217010908E+03  0.50400001928E-02 0.  1.
    10030    2    1    2    0    0  0.00000000000E+00  0.00000000000E+00  0.16650698032E+03  0.13108471985E+04  0.13002291349E+04 0.  0.
        1    1    3    3  502    0  0.21852644313E+03 -0.22458237607E+03  0.65751717585E+03  0.72836796096E+03  0.50400001928E-02 0. -1.
       -1    1    3    3    0  502 -0.21852644313E+03  0.22458237607E+03 -0.49101019554E+03  0.58247923751E+03  0.50400001928E-02 0.  1.
</event>
<event>
 5   0  0.1031295E-03  0.1285216E+04  0.7818609E-02  0.9041372E-01
       -2   -1    0    0    0  501  0.00000000000E+00  0.00000000000E+00  0.41377892577E+03  0.41377892578E+03  0.25500000920E-02 0. -1.
        2   -1    0    0  501    0  0.00000000000E+00  0.00000000000E+00 -0.99798462249E+03  0.99798462249E+03  0.25500000920E-02 0.  1.
    10030    2    1    2    0    0  0.00000000000E+00  0.00000000000E+00 -0.58420569672E+03  0.14117635483E+04  0.12852159430E+04 0.  0.
        2    1    3    3  502    0  0.35952144941E+03  0.17457798530E+02 -0.87685785694E+03  0.94786082765E+03  0.25500000920E-02 0.  1.
       -2    1    3    3    0  502 -0.35952144941E+03 -0.17457798530E+02  0.29265216022E+03  0.46390272062E+03  0.25500000920E-02 0. -1.
</event>
<event>
 5   0  0.5766027E-04  0.1299739E+04  0.7818609E-02  0.9029772E-01
       -1   -1    0    0    0  501  0.00000000000E+00  0.00000000000E+00  0.61725324024E+03  0.61725324026E+03  0.50400001928E-02 0. -1.
        1   -1    0    0  501    0  0.00000000000E+00  0.00000000000E+00 -0.68420909392E+03  0.68420909394E+03  0.50400001928E-02 0.  1.
    10030    2    1    2    0    0  0.00000000000E+00  0.00000000000E+00 -0.66955853675E+02  0.13014623342E+04  0.12997388665E+04 0.  0.
        3    1    3    3  502    0  0.20498772441E+03 -0.36306784792E+03 -0.53262868950E+03  0.67641079266E+03  0.10100000352E+00 0.  1.
       -3    1    3    3    0  502 -0.20498772441E+03  0.36306784792E+03  0.46567283582E+03  0.62505154154E+03  0.10100000352E+00 0. -1.
</event>
<event>
 5   0  0.1101619E-03  0.1258951E+04  0.7818609E-02  0.9062766E-01
        2   -1    0    0  501    0  0.00000000000E+00  0.00000000000E+00  0.82508363104E+03  0.82508363104E+03  0.25500000920E-02 0. -1.
       -2   -1    0    0    0  501  0.00000000000E+00  0.00000000000E+00 -0.48024178537E+03  0.48024178537E+03  0.25500000920E-02 0.  1.
    10030    2    1    2    0    0  0.00000000000E+00  0.00000000000E+00  0.34484184567E+03  0.13053254164E+04  0.12589513669E+04 0.  0.
        1    1    3    3  502    0  0.22798902675E+02 -0.29679459139E+03  0.74749815201E+03  0.80458704111E+03  0.50400001928E-02 0. -1.
       -1    1    3    3    0  502 -0.22798902675E+02  0.29679459139E+03 -0.40265630634E+03  0.50073837530E+03  0.50400001928E-02 0.  1.
</event>
<event>
 5   0  0.5766027E-04  0.1300591E+04  0.7818609E-02  0.9029096E-01
        1   -1    0    0  501    0  0.00000000000E+00  0.00000000000E+00  0.89812583162E+03  0.89812583163E+03  0.50400001928E-02 0. -1.
       -1   -1    0    0    0  501  0.00000000000E+00  0.00000000000E+00 -0.47085218393E+03  0.47085218396E+03  0.50400001928E-02 0.  1.
    10030    2    1    2    0    0  0.00000000000E+00  0.00000000000E+00  0.42727364769E+03  0.13689780156E+04  0.13005914182E+04 0.  0.
        3    1    3    3  502    0  0.11328947042E+03 -0.29913184460E+03  0.80959683490E+03  0.87049492235E+03  0.10100000352E+00 0. -1.
       -3    1    3    3    0  502 -0.11328947042E+03  0.29913184460E+03 -0.38232318721E+03  0.49848309324E+03  0.10100000352E+00 0.  1.
</event>
<event>
 5   0  0.1081574E-03  0.1307756E+04  0.7818609E-02  0.9023437E-01
        2   -1    0    0  501    0  0.00000000000E+00  0.00000000000E+00  0.72149961002E+03  0.72149961002E+03  0.25500000920E-02 0. -1.
       -2   -1    0    0    0  501  0.00000000000E+00  0.00000000000E+00 -0.59259382735E+03  0.59259382736E+03  0.25500000920E-02 0.  1.
    10030    2    1    2    0    0  0.00000000000E+00  0.00000000000E+00  0.12890578266E+03  0.13140934374E+04  0.13077556581E+04 0.  0.
        5    1    3    3  502    0  0.58080382302E+02  0.47884321228E+03  0.50803303856E+03  0.70055964131E+03  0.46999998093E+01 0. -1.
       -5    1    3    3    0  502 -0.58080382302E+02 -0.47884321228E+03 -0.37912725590E+03  0.61353379607E+03  0.46999998093E+01 0.  1.
</event>
<event>
 5   0  0.1101619E-03  0.1237189E+04  0.7818609E-02  0.9080913E-01
        2   -1    0    0  501    0  0.00000000000E+00  0.00000000000E+00  0.11674851240E+04  0.11674851240E+04  0.25500000920E-02 0.  1.
       -2   -1    0    0    0  501  0.00000000000E+00  0.00000000000E+00 -0.32776377153E+03  0.32776377154E+03  0.25500000920E-02 0. -1.
    10030    2    1    2    0    0  0.00000000000E+00  0.00000000000E+00  0.83972135252E+03  0.14952488956E+04  0.12371892781E+04 0.  0.
        1    1    3    3  502    0 -0.41972065004E+03  0.42906488346E+03  0.23898736492E+03  0.64604725748E+03  0.50400001928E-02 0.  1.
       -1    1    3    3    0  502  0.41972065004E+03 -0.42906488346E+03  0.60073398760E+03  0.84920163811E+03  0.50400001928E-02 0. -1.
</event>
<event>
 5   0  0.5563545E-04  0.1309288E+04  0.7818609E-02  0.9022232E-01
        1   -1    0    0  501    0  0.00000000000E+00  0.00000000000E+00  0.28380026223E+03  0.28380026228E+03  0.50400001928E-02 0. -1.
       -1   -1    0    0    0  501  0.00000000000E+00  0.00000000000E+00 -0.15100710564E+04  0.15100710564E+04  0.50400001928E-02 0.  1.
    10030    2    1    2    0    0  0.00000000000E+00  0.00000000000E+00 -0.12262707942E+04  0.17938713187E+04  0.13092876870E+04 0.  0.
        2    1    3    3  502    0 -0.32703813415E+03  0.49784715089E+03 -0.98522330965E+03  0.11512908828E+04  0.25500000920E-02 0.  1.
       -2    1    3    3    0  502  0.32703813415E+03 -0.49784715089E+03 -0.24104748453E+03  0.64258043593E+03  0.25500000920E-02 0. -1.
</event>
<event>
 5   0  0.1031295E-03  0.1281943E+04  0.7818609E-02  0.9044008E-01
       -2   -1    0    0    0  501  0.00000000000E+00  0.00000000000E+00  0.42652549162E+03  0.42652549163E+03  0.25500000920E-02 0.  1.
        2   -1    0    0  501    0  0.00000000000E+00  0.00000000000E+00 -0.96323577089E+03  0.96323577090E+03  0.25500000920E-02 0. -1.
    10030    2    1    2    0    0  0.00000000000E+00  0.00000000000E+00 -0.53671027928E+03  0.13897612625E+04  0.12819432292E+04 0.  0.
        2    1    3    3  502    0  0.30810415938E+03  0.50500102500E+03 -0.84156073455E+00  0.59156987458E+03  0.25500000920E-02 0.  1.
       -2    1    3    3    0  502 -0.30810415938E+03 -0.50500102500E+03 -0.53586871854E+03  0.79819138795E+03  0.25500000920E-02 0. -1.
</event>
<event>
 5   0  0.1101619E-03  0.1306914E+04  0.7818609E-02  0.9024100E-01
       -2   -1    0    0    0  501  0.00000000000E+00  0.00000000000E+00  0.33703237254E+03  0.33703237255E+03  0.25500000920E-02 0. -1.
        2   -1    0    0  501    0  0.00000000000E+00  0.00000000000E+00 -0.12669579621E+04  0.12669579621E+04  0.25500000920E-02 0.  1.
    10030    2    1    2    0    0  0.00000000000E+00  0.00000000000E+00 -0.92992558958E+03  0.16039903347E+04  0.13069136894E+04 0.  0.
        1    1    3    3  502    0  0.45346786930E+03 -0.14168388141E+03 -0.10156120040E+04  0.11212382323E+04  0.50400001928E-02 0.  1.
       -1    1    3    3    0  502 -0.45346786930E+03  0.14168388141E+03  0.85686414446E+02  0.48275210241E+03  0.50400001928E-02 0. -1.
</event>
<event>
 5   0  0.5563545E-04  0.1292654E+04  0.7818609E-02  0.9035411E-01
       -1   -1    0    0    0  501  0.00000000000E+00  0.00000000000E+00  0.39742960278E+03  0.39742960282E+03  0.50400001928E-02 0. -1.
        1   -1    0    0  501    0  0.00000000000E+00  0.00000000000E+00 -0.10511005629E+04  0.10511005629E+04  0.50400001928E-02 0.  1.
    10030    2    1    2    0    0  0.00000000000E+00  0.00000000000E+00 -0.65367096008E+03  0.14485301657E+04  0.12926538272E+04 0.  0.
        2    1    3    3  502    0 -0.35023770643E+03  0.24674329768E+03  0.21545161627E+03  0.47954989826E+03  0.25500000920E-02 0. -1.
       -2    1    3    3    0  502  0.35023770643E+03 -0.24674329768E+03 -0.86912257635E+03  0.96898026744E+03  0.25500000920E-02 0.  1.
</event>
<event>
 5   0  0.6006119E-04  0.1323213E+04  0.7818609E-02  0.9011357E-01
        1   -1    0    0  501    0  0.00000000000E+00  0.00000000000E+00  0.39222790699E+03  0.39222790703E+03  0.50400001928E-02 0. -1.
       -1   -1    0    0    0  501  0.00000000000E+00  0.00000000000E+00 -0.11159911542E+04  0.11159911543E+04  0.50400001928E-02 0.  1.
    10030    2    1    2    0    0  0.00000000000E+00  0.00000000000E+00 -0.72376324725E+03  0.15082190613E+04  0.13232125675E+04 0.  0.
        4    1    3    3  502    0  0.29824736688E+02  0.45495320137E+03 -0.90833917355E+03  0.10163432479E+04  0.12699999809E+01 0.  1.
       -4    1    3    3    0  502 -0.29824736688E+02 -0.45495320137E+03  0.18457592631E+03  0.49187581342E+03  0.12699999809E+01 0. -1.
</event>
<event>
 5   0  0.1081574E-03  0.1310445E+04  0.7818609E-02  0.9021323E-01
        2   -1    0    0  501    0  0.00000000000E+00  0.00000000000E+00  0.73724371905E+03  0.73724371905E+03  0.25500000920E-02 0.  1.
       -2   -1    0    0    0  501  0.00000000000E+00  0.00000000000E+00 -0.58232622906E+03  0.58232622907E+03  0.25500000920E-02 0. -1.
    10030    2    1    2    0    0  0.00000000000E+00  0.00000000000E+00  0.15491748999E+03  0.13195699481E+04  0.13104447410E+04 0.  0.
        5    1    3    3  502    0 -0.49166374330E+03 -0.81170238939E+02 -0.35091209687E+03  0.60949424434E+03  0.46999998093E+01 0. -1.
       -5    1    3    3    0  502  0.49166374330E+03  0.81170238939E+02  0.50582958686E+03  0.71007570378E+03  0.46999998093E+01 0.  1.
</event>
<event>
 5   0  0.5766027E-04  0.1290639E+04  0.7818609E-02  0.9037022E-01
       -1   -1    0    0    0  501  0.00000000000E+00  0.00000000000E+00  0.92697127889E+03  0.92697127891E+03  0.50400001928E-02 0.  1.
        1   -1    0    0  501    0  0.00000000000E+00  0.00000000000E+00 -0.44924485328E+03  0.44924485331E+03  0.50400001928E-02 0. -1.
    10030    2    1    2    0    0  0.00000000000E+00  0.00000000000E+00  0.47772642561E+03  0.13762161322E+04  0.12906387197E+04 0.  0.
        3    1    3    3  502    0 -0.15674470246E+02  0.34165797161E+03 -0.34465207669E+03  0.48555218334E+03  0.10100000352E+00 0. -1.
       -3    1    3    3    0  502  0.15674470246E+02 -0.34165797161E+03  0.82237850230E+03  0.89066394888E+03  0.10100000352E+00 0.  1.
</event>
<event>
 5   0  0.5766027E-04  0.1298630E+04  0.7818609E-02  0.9030652E-01
       -1   -1    0    0    0  501  0.00000000000E+00  0.00000000000E+00  0.27102360097E+03  0.27102360102E+03  0.50400001928E-02 0. -1.
        1   -1    0    0  501    0  0.00000000000E+00  0.00000000000E+00 -0.15556209032E+04  0.15556209032E+04  0.50400001928E-02 0.  1.
    10030    2    1    2    0    0  0.00000000000E+00  0.00000000000E+00 -0.12845973022E+04  0.18266445042E+04  0.12986300150E+04 0.  0.
        3    1    3    3  502    0  0.29584354198E+03 -0.23505853274E+03 -0.13850466739E+04  0.14356636842E+04  0.10100000352E+00 0.  1.
       -3    1    3    3    0  502 -0.29584354198E+03  0.23505853274E+03  0.10044937166E+03  0.39098082001E+03  0.10100000352E+00 0. -1.
</event>
<event>
 5   0  0.1046253E-03  0.1285474E+04  0.7818609E-02  0.9041165E-01
        2   -1    0    0  501    0  0.00000000000E+00  0.00000000000E+00  0.65695545527E+03  0.65695545527E+03  0.25500000920E-02 0. -1.
       -2   -1    0    0    0  501  0.00000000000E+00  0.00000000000E+00 -0.62882591567E+03  0.62882591568E+03  0.25500000920E-02 0.  1.
    10030    2    1    2    0    0  0.00000000000E+00  0.00000000000E+00  0.28129539598E+02  0.12857813710E+04  0.12854736337E+04 0.  0.
        3    1    3    3  502    0 -0.56830583609E+03 -0.43909267475E+01 -0.28620670030E+03  0.63632152963E+03  0.10100000352E+00 0.  1.
       -3    1    3    3    0  502  0.56830583609E+03  0.43909267475E+01  0.31433623990E+03  0.64945984132E+03  0.10100000352E+00 0. -1.
</event>
<event>
 5   0  0.1081574E-03  0.1296155E+04  0.7818609E-02  0.9032620E-01
        2   -1    0    0  501    0  0.00000000000E+00  0.00000000000E+00  0.40273086672E+03  0.40273086673E+03  0.25500000920E-02 0.  1.
       -2   -1    0    0    0  501  0.00000000000E+00  0.00000000000E+00 -0.10428918140E+04  0.10428918140E+04  0.25500000920E-02 0. -1.
    10030    2    1    2    0    0  0.00000000000E+00  0.00000000000E+00 -0.64016094727E+03  0.14456226807E+04  0.12961554292E+04 0.  0.
        5    1    3    3  502    0 -0.34328195911E+02  0.48954883906E+03 -0.79214525571E+03  0.93185443445E+03  0.46999998093E+01 0. -1.
       -5    1    3    3    0  502  0.34328195911E+02 -0.48954883906E+03  0.15198430845E+03  0.51376824627E+03  0.46999998093E+01 0.  1.
</event>
<event>
 5   0  0.5812938E-04  0.1311452E+04  0.7818609E-02  0.9020533E-01
       -1   -1    0    0    0  501  0.00000000000E+00  0.00000000000E+00  0.76904054869E+03  0.76904054871E+03  0.50400001928E-02 0. -1.
        1   -1    0    0  501    0  0.00000000000E+00  0.00000000000E+00 -0.55910781712E+03  0.55910781714E+03  0.50400001928E-02 0.  1.
    10030    2    1    2    0    0  0.00000000000E+00  0.00000000000E+00  0.20993273157E+03  0.13281483659E+04  0.13114519930E+04 0.  0.
        5    1    3    3  502    0  0.40814813771E+03  0.51245709747E+03  0.13283604837E+03  0.66847938248E+03  0.46999998093E+01 0.  1.
       -5    1    3    3    0  502 -0.40814813771E+03 -0.51245709747E+03  0.77096683206E+02  0.65966898337E+03  0.46999998093E+01 0. -1.
</event>
<event>
 5   0  0.5563545E-04  0.1255822E+04  0.7818609E-02  0.9065351E-01
        1   -1    0    0  501    0  0.00000000000E+00  0.00000000000E+00  0.51135660634E+03  0.51135660637E+03  0.50400001928E-02 0. -1.
       -1   -1    0    0    0  501  0.00000000000E+00  0.00000000000E+00 -0.77103209648E+03  0.77103209650E+03  0.50400001928E-02 0.  1.
    10030    2    1    2    0    0  0.00000000000E+00  0.00000000000E+00 -0.25967549014E+03  0.12823887029E+04  0.12558222108E+04 0.  0.
        2    1    3    3  502    0  0.54528055990E+03  0.23650735615E+03  0.76944782013E+02  0.59932221551E+03  0.25500000920E-02 0.  1.
       -2    1    3    3    0  502 -0.54528055990E+03 -0.23650735615E+03 -0.33662027216E+03  0.68306648736E+03  0.25500000920E-02 0. -1.
</event>
<event>
 5   0  0.1103241E-03  0.1305994E+04  0.7818609E-02  0.9024825E-01
       -2   -1    0    0    0  501  0.00000000000E+00  0.00000000000E+00  0.29339377150E+03  0.29339377151E+03  0.25500000920E-02 0. -1.
        2   -1    0    0  501    0  0.00000000000E+00  0.00000000000E+00 -0.14533550010E+04  0.14533550010E+04  0.25500000920E-02 0.  1.
    10030    2    1    2    0    0  0.00000000000E+00  0.00000000000E+00 -0.11599612295E+04  0.17467487725E+04  0.13059943416E+04 0.  0.
        4    1    3    3  502    0  0.40253049929E+03  0.27217587136E+03  0.34655216388E+01  0.48592605461E+03  0.12699999809E+01 0. -1.
       -4    1    3    3    0  502 -0.40253049929E+03 -0.27217587136E+03 -0.11634267511E+04  0.12608227179E+04  0.12699999809E+01 0.  1.
</event>
<event>
 5   0  0.1081574E-03  0.1399004E+04  0.7818609E-02  0.8954540E-01
       -2   -1    0    0    0  501  0.00000000000E+00  0.00000000000E+00  0.75837386381E+03  0.75837386381E+03  0.25500000920E-02 0.  1.
        2   -1    0    0  501    0  0.00000000000E+00  0.00000000000E+00 -0.64520060425E+03  0.64520060425E+03  0.25500000920E-02 0. -1.
    10030    2    1    2    0    0  0.00000000000E+00  0.00000000000E+00  0.11317325956E+03  0.14035744681E+04  0.13990043248E+04 0.  0.
        5    1    3    3  502    0 -0.53089141835E+03  0.45160535040E+03  0.11583965508E+03  0.70656493423E+03  0.46999998093E+01 0.  1.
       -5    1    3    3    0  502  0.53089141835E+03 -0.45160535040E+03 -0.26663955201E+01  0.69700953383E+03  0.46999998093E+01 0. -1.
</event>
<event>
 5   0  0.5710383E-04  0.1298843E+04  0.7818609E-02  0.9030483E-01
        1   -1    0    0  501    0  0.00000000000E+00  0.00000000000E+00  0.39994864572E+03  0.39994864575E+03  0.50400001928E-02 0.  1.
       -1   -1    0    0    0  501  0.00000000000E+00  0.00000000000E+00 -0.10545066028E+04  0.10545066028E+04  0.50400001928E-02 0. -1.
    10030    2    1    2    0    0  0.00000000000E+00  0.00000000000E+00 -0.65455795706E+03  0.14544552486E+04  0.12988433127E+04 0.  0.
        1    1    3    3  502    0  0.18545015387E+03 -0.38008335620E+03  0.22460963158E+03  0.47885760290E+03  0.50400001928E-02 0.  1.
       -1    1    3    3    0  502 -0.18545015387E+03  0.38008335620E+03 -0.87916758865E+03  0.97559764565E+03  0.50400001928E-02 0. -1.
</event>
<event>
 5   0  0.1031295E-03  0.1340499E+04  0.7818609E-02  0.8998051E-01
       -2   -1    0    0    0  501  0.00000000000E+00  0.00000000000E+00  0.33897843065E+03  0.33897843066E+03  0.25500000920E-02 0.  1.
        2   -1    0    0  501    0  0.00000000000E+00  0.00000000000E+00 -0.13252598229E+04  0.13252598229E+04  0.25500000920E-02 0. -1.
    10030    2    1    2    0    0  0.00000000000E+00  0.00000000000E+00 -0.98628139226E+03  0.16642382536E+04  0.13404991533E+04 0.  0.
        2    1    3    3  502    0 -0.10748011199E+03 -0.49691768546E+03  0.49093998339E+02  0.51077331692E+03  0.25500000920E-02 0. -1.
       -2    1    3    3    0  502  0.10748011199E+03  0.49691768546E+03 -0.10353753906E+04  0.11534649366E+04  0.25500000920E-02 0.  1.
</event>
<event>
 5   0  0.5563545E-04  0.1387322E+04  0.7818609E-02  0.8963047E-01
        1   -1    0    0  501    0  0.00000000000E+00  0.00000000000E+00  0.10294324321E+04  0.10294324321E+04  0.50400001928E-02 0. -1.
       -1   -1    0    0    0  501  0.00000000000E+00  0.00000000000E+00 -0.46740841611E+03  0.46740841614E+03  0.50400001928E-02 0.  1.
    10030    2    1    2    0    0  0.00000000000E+00  0.00000000000E+00  0.56202401598E+03  0.14968408482E+04  0.13873217112E+04 0.  0.
        2    1    3    3  502    0  0.42337261341E+03  0.50853594735E+03  0.50555710714E+03  0.83273114997E+03  0.25500000920E-02 0. -1.
       -2    1    3    3    0  502 -0.42337261341E+03 -0.50853594735E+03  0.56466908836E+02  0.66410969827E+03  0.25500000920E-02 0.  1.
</event>
<event>
 5   0  0.1101619E-03  0.1305600E+04  0.7818609E-02  0.9025136E-01
       -2   -1    0    0    0  501  0.00000000000E+00  0.00000000000E+00  0.18771731263E+03  0.18771731265E+03  0.25500000920E-02 0. -1.
        2   -1    0    0  501    0  0.00000000000E+00  0.00000000000E+00 -0.22701566378E+04  0.22701566378E+04  0.25500000920E-02 0.  1.
    10030    2    1    2    0    0  0.00000000000E+00  0.00000000000E+00 -0.20824393252E+04  0.24578739504E+04  0.13055997906E+04 0.  0.
        1    1    3    3  502    0  0.28838006759E+02  0.65083829665E+03 -0.11194216198E+04  0.12951937623E+04  0.50400001928E-02 0.  1.
       -1    1    3    3    0  502 -0.28838006759E+02 -0.65083829665E+03 -0.96301770536E+03  0.11626801881E+04  0.50400001928E-02 0. -1.
</event>
<event>
 5   0  0.5766027E-04  0.1299443E+04  0.7818609E-02  0.9030007E-01
        1   -1    0    0  501    0  0.00000000000E+00  0.00000000000E+00  0.59844929040E+03  0.59844929043E+03  0.50400001928E-02 0.  1.
       -1   -1    0    0    0  501  0.00000000000E+00  0.00000000000E+00 -0.70538615065E+03  0.70538615067E+03  0.50400001928E-02 0. -1.
    10030    2    1    2    0    0  0.00000000000E+00  0.00000000000E+00 -0.10693686025E+03  0.13038354411E+04  0.12994427134E+04 0.  0.
        3    1    3    3  502    0  0.34174677385E+03  0.53668031218E+03 -0.18552342577E+03  0.66274849425E+03  0.10100000352E+00 0.  1.
       -3    1    3    3    0  502 -0.34174677385E+03 -0.53668031218E+03  0.78586565525E+02  0.64108694684E+03  0.10100000352E+00 0. -1.
</event>
<event>
 5   0  0.5766027E-04  0.1295114E+04  0.7818609E-02  0.9033449E-01
       -1   -1    0    0    0  501  0.00000000000E+00  0.00000000000E+00  0.31536500962E+03  0.31536500966E+03  0.50400001928E-02 0.  1.
        1   -1    0    0  501    0  0.00000000000E+00  0.00000000000E+00 -0.13296659744E+04  0.13296659744E+04  0.50400001928E-02 0. -1.
    10030    2    1    2    0    0  0.00000000000E+00  0.00000000000E+00 -0.10143009647E+04  0.16450309840E+04  0.12951140843E+04 0.  0.
        3    1    3    3  502    0  0.42175350027E+03  0.27528178858E+03  0.98527759119E+01  0.50373918401E+03  0.10100000352E+00 0.  1.
       -3    1    3    3    0  502 -0.42175350027E+03 -0.27528178858E+03 -0.10241537407E+04  0.11412918000E+04  0.10100000352E+00 0. -1.
</event>
<event>
 5   0  0.1103241E-03  0.1239039E+04  0.7818609E-02  0.9079356E-01
        2   -1    0    0  501    0  0.00000000000E+00  0.00000000000E+00  0.55891160293E+03  0.55891160294E+03  0.25500000920E-02 0. -1.
       -2   -1    0    0    0  501  0.00000000000E+00  0.00000000000E+00 -0.68669958365E+03  0.68669958366E+03  0.25500000920E-02 0.  1.
    10030    2    1    2    0    0  0.00000000000E+00  0.00000000000E+00 -0.12778798072E+03  0.12456111866E+04  0.12390389260E+04 0.  0.
        4    1    3    3  502    0  0.39883930472E+02 -0.84029122562E+02 -0.67963868604E+03  0.68597520204E+03  0.12699999809E+01 0.  1.
       -4    1    3    3    0  502 -0.39883930472E+02  0.84029122562E+02  0.55185070532E+03  0.55963598456E+03  0.12699999809E+01 0. -1.
</event>
<event>
 5   0  0.1101619E-03  0.1313254E+04  0.7818609E-02  0.9019120E-01
        2   -1    0    0  501    0  0.00000000000E+00  0.00000000000E+00  0.10139285282E+04  0.10139285282E+04  0.25500000920E-02 0. -1.
       -2   -1    0    0    0  501  0.00000000000E+00  0.00000000000E+00 -0.42523608428E+03  0.42523608429E+03  0.25500000920E-02 0.  1.
    10030    2    1    2    0    0  0.00000000000E+00  0.00000000000E+00  0.58869244389E+03  0.14391646125E+04  0.13132539694E+04 0.  0.
        1    1    3    3  502    0 -0.59100480151E+03  0.20008220173E+03  0.51850443240E+03  0.81127455852E+03  0.50400001928E-02 0.  1.
       -1    1    3    3    0  502  0.59100480151E+03 -0.20008220173E+03  0.70188011490E+02  0.62789005394E+03  0.50400001928E-02 0. -1.
</event>
<event>
 5   0  0.4012375E-04  0.1293102E+04  0.7818609E-02  0.9035053E-01
        4   -1    0    0  501    0  0.00000000000E+00  0.00000000000E+00  0.89916774770E+03  0.89916864458E+03  0.12699999809E+01 0.  1.
       -4   -1    0    0    0  501  0.00000000000E+00  0.00000000000E+00 -0.46490384520E+03  0.46490557986E+03  0.12699999809E+01 0. -1.
    10030    2    1    2    0    0  0.00000000000E+00  0.00000000000E+00  0.43426390250E+03  0.13640742244E+04  0.12931022205E+04 0.  0.
        3    1    3    3  502    0  0.16424335167E+03 -0.19456772564E+03  0.84405312905E+03  0.88162246641E+03  0.10100000352E+00 0.  1.
       -3    1    3    3    0  502 -0.16424335167E+03  0.19456772564E+03 -0.40978922655E+03  0.48245175803E+03  0.10100000352E+00 0. -1.
</event>
<event>
 5   0  0.6006119E-04  0.1296709E+04  0.7818609E-02  0.9032179E-01
       -1   -1    0    0    0  501  0.00000000000E+00  0.00000000000E+00  0.52395442669E+03  0.52395442671E+03  0.50400001928E-02 0.  1.
        1   -1    0    0  501    0  0.00000000000E+00  0.00000000000E+00 -0.80229032934E+03  0.80229032936E+03  0.50400001928E-02 0. -1.
    10030    2    1    2    0    0  0.00000000000E+00  0.00000000000E+00 -0.27833590266E+03  0.13262447561E+04  0.12967090184E+04 0.  0.
        4    1    3    3  502    0  0.22466744820E+03  0.13420578207E+03  0.46753420873E+03  0.53579520664E+03  0.12699999809E+01 0.  1.
       -4    1    3    3    0  502 -0.22466744820E+03 -0.13420578207E+03 -0.74587011139E+03  0.79044954943E+03  0.12699999809E+01 0. -1.
</event>
<event>
 5   0  0.5812938E-04  0.1296907E+04  0.7818609E-02  0.9032022E-01
       -1   -1    0    0    0  501  0.00000000000E+00  0.00000000000E+00  0.15344893274E+04  0.15344893274E+04  0.50400001928E-02 0. -1.
        1   -1    0    0  501    0  0.00000000000E+00  0.00000000000E+00 -0.27402719220E+03  0.27402719225E+03  0.50400001928E-02 0.  1.
    10030    2    1    2    0    0  0.00000000000E+00  0.00000000000E+00  0.12604621352E+04  0.18085165196E+04  0.12969067845E+04 0.  0.
        5    1    3    3  502    0  0.12934525568E+03  0.82443103806E+02  0.15088035588E+04  0.15165873960E+04  0.46999998093E+01 0. -1.
       -5    1    3    3    0  502 -0.12934525568E+03 -0.82443103806E+02 -0.24834142365E+03  0.29192912364E+03  0.46999998093E+01 0.  1.
</event>
<event>
 5   0  0.1031295E-03  0.1278113E+04  0.7818609E-02  0.9047104E-01
        2   -1    0    0  501    0  0.00000000000E+00  0.00000000000E+00  0.11184584480E+04  0.11184584480E+04  0.25500000920E-02 0.  1.
       -2   -1    0    0    0  501  0.00000000000E+00  0.00000000000E+00 -0.36513911397E+03  0.36513911398E+03  0.25500000920E-02 0. -1.
    10030    2    1    2    0    0  0.00000000000E+00  0.00000000000E+00  0.75331933404E+03  0.14835975620E+04  0.12781125564E+04 0.  0.
        2    1    3    3  502    0  0.54490353848E+03  0.24268045881E+03  0.64282667657E+03  0.87694914759E+03  0.25500000920E-02 0.  1.
       -2    1    3    3    0  502 -0.54490353848E+03 -0.24268045881E+03  0.11049265747E+03  0.60664841440E+03  0.25500000920E-02 0. -1.
</event>
<event>
 5   0  0.6006119E-04  0.1297303E+04  0.7818609E-02  0.9031707E-01
       -1   -1    0    0    0  501  0.00000000000E+00  0.00000000000E+00  0.25331051979E+03  0.25331051984E+03  0.50400001928E-02 0. -1.
        1   -1    0    0  501    0  0.00000000000E+00  0.00000000000E+00 -0.16610000731E+04  0.16610000731E+04  0.50400001928E-02 0.  1.
    10030    2    1    2    0    0  0.00000000000E+00  0.00000000000E+00 -0.14076895533E+04  0.19143105930E+04  0.12973030362E+04 0.  0.
        4    1    3    3  502    0 -0.96761816457E+02 -0.49204357133E+03 -0.96730386289E+02  0.51071333030E+03  0.12699999809E+01 0. -1.
       -4    1    3    3    0  502  0.96761816457E+02  0.49204357133E+03 -0.13109591670E+04  0.14035972627E+04  0.12699999809E+01 0.  1.
</event>
<event>
 5   0  0.1081574E-03  0.1300806E+04  0.7818609E-02  0.9028926E-01
        2   -1    0    0  501    0  0.00000000000E+00  0.00000000000E+00  0.12732099780E+04  0.12732099780E+04  0.25500000920E-02 0. -1.
       -2   -1    0    0    0  501  0.00000000000E+00  0.00000000000E+00 -0.33225009817E+03  0.33225009818E+03  0.25500000920E-02 0.  1.
    10030    2    1    2    0    0  0.00000000000E+00  0.00000000000E+00  0.94095987983E+03  0.16054600762E+04  0.13008061196E+04 0.  0.
        5    1    3    3  502    0  0.36561157640E+03 -0.50724123114E+02 -0.19043287315E+03  0.41536914984E+03  0.46999998093E+01 0.  1.
       -5    1    3    3    0  502 -0.36561157640E+03  0.50724123114E+02  0.11313927530E+04  0.11900909263E+04  0.46999998093E+01 0. -1.
</event>
<event>
 5   0  0.5812938E-04  0.1304947E+04  0.7818609E-02  0.9025651E-01
        1   -1    0    0  501    0  0.00000000000E+00  0.00000000000E+00  0.85335741298E+03  0.85335741299E+03  0.50400001928E-02 0.  1.
       -1   -1    0    0    0  501  0.00000000000E+00  0.00000000000E+00 -0.49887879884E+03  0.49887879887E+03  0.50400001928E-02 0. -1.
    10030    2    1    2    0    0  0.00000000000E+00  0.00000000000E+00  0.35447861413E+03  0.13522362119E+04  0.13049473877E+04 0.  0.
        5    1    3    3  502    0 -0.29860877573E+02  0.13432125007E+02 -0.49800936563E+03  0.49910671428E+03  0.46999998093E+01 0. -1.
       -5    1    3    3    0  502  0.29860877573E+02 -0.13432125007E+02  0.85248797976E+03  0.85312949757E+03  0.46999998093E+01 0.  1.
</event>
<event>
 5   0  0.5710383E-04  0.1306491E+04  0.7818609E-02  0.9024433E-01
       -1   -1    0    0    0  501  0.00000000000E+00  0.00000000000E+00  0.40909493863E+03  0.40909493866E+03  0.50400001928E-02 0.  1.
        1   -1    0    0  501    0  0.00000000000E+00  0.00000000000E+00 -0.10431071529E+04  0.10431071530E+04  0.50400001928E-02 0. -1.
    10030    2    1    2    0    0  0.00000000000E+00  0.00000000000E+00 -0.63401221432E+03  0.14522020916E+04  0.13064912656E+04 0.  0.
        1    1    3    3  502    0  0.60517311561E+03 -0.24635378558E+02 -0.58902063646E+03  0.84485898938E+03  0.50400001928E-02 0.  1.
       -1    1    3    3    0  502 -0.60517311561E+03  0.24635378558E+02 -0.44991577852E+02  0.60734310223E+03  0.50400001928E-02 0. -1.
</event>
<event>
 5   0  0.1031295E-03  0.1292988E+04  0.7818609E-02  0.9035144E-01
        2   -1    0    0  501    0  0.00000000000E+00  0.00000000000E+00  0.73664357162E+03  0.73664357162E+03  0.25500000920E-02 0. -1.
       -2   -1    0    0    0  501  0.00000000000E+00  0.00000000000E+00 -0.56737671005E+03  0.56737671005E+03  0.25500000920E-02 0.  1.
    10030    2    1    2    0    0  0.00000000000E+00  0.00000000000E+00  0.16926686157E+03  0.13040202817E+04  0.12929878671E+04 0.  0.
        2    1    3    3  502    0  0.11396274527E+03  0.22552533329E+03  0.68477825178E+03  0.72991125309E+03  0.25500000920E-02 0. -1.
       -2    1    3    3    0  502 -0.11396274527E+03 -0.22552533329E+03 -0.51551139021E+03  0.57410902859E+03  0.25500000920E-02 0.  1.
</event>
<event>
 5   0  0.5812938E-04  0.1303160E+04  0.7818609E-02  0.9027063E-01
       -1   -1    0    0    0  501  0.00000000000E+00  0.00000000000E+00  0.40907595367E+03  0.40907595370E+03  0.50400001928E-02 0.  1.
        1   -1    0    0  501    0  0.00000000000E+00  0.00000000000E+00 -0.10378419514E+04  0.10378419514E+04  0.50400001928E-02 0. -1.
    10030    2    1    2    0    0  0.00000000000E+00  0.00000000000E+00 -0.62876599775E+03  0.14469179051E+04  0.13031595237E+04 0.  0.
        5    1    3    3  502    0  0.62646116041E+03 -0.17066117646E+03 -0.25402356726E+03  0.69722943525E+03  0.46999998093E+01 0. -1.
       -5    1    3    3    0  502 -0.62646116041E+03  0.17066117646E+03 -0.37474243050E+03  0.74968846988E+03  0.46999998093E+01 0.  1.
</event>
<event>
 5   0  0.1101619E-03  0.1330144E+04  0.7818609E-02  0.9005997E-01
       -2   -1    0    0    0  501  0.00000000000E+00  0.00000000000E+00  0.10979431158E+04  0.10979431158E+04  0.25500000920E-02 0.  1.
        2   -1    0    0  501    0  0.00000000000E+00  0.00000000000E+00 -0.40286303066E+03  0.40286303066E+03  0.25500000920E-02 0. -1.
    10030    2    1    2    0    0  0.00000000000E+00  0.00000000000E+00  0.69508008511E+03  0.15008061464E+04  0.13301438886E+04 0.  0.
        1    1    3    3  502    0 -0.23789233903E+03 -0.44428637596E+03 -0.14211972897E+03  0.52362311468E+03  0.50400001928E-02 0. -1.
       -1    1    3    3    0  502  0.23789233903E+03  0.44428637596E+03  0.83719981408E+03  0.97718303176E+03  0.50400001928E-02 0.  1.
</event>
<event>
 5   0  0.5710383E-04  0.1297768E+04  0.7818609E-02  0.9031337E-01
       -1   -1    0    0    0  501  0.00000000000E+00  0.00000000000E+00  0.24171433652E+03  0.24171433657E+03  0.50400001928E-02 0. -1.
        1   -1    0    0  501    0  0.00000000000E+00  0.00000000000E+00 -0.17419354002E+04  0.17419354003E+04  0.50400001928E-02 0.  1.
    10030    2    1    2    0    0  0.00000000000E+00  0.00000000000E+00 -0.15002210637E+04  0.19836497368E+04  0.12977684841E+04 0.  0.
        1    1    3    3  502    0 -0.33421966161E+03  0.33605164651E+03 -0.14275298838E+04  0.15041526054E+04  0.50400001928E-02 0.  1.
       -1    1    3    3    0  502  0.33421966161E+03 -0.33605164651E+03 -0.72691179940E+02  0.47949713138E+03  0.50400001928E-02 0. -1.
</event>
<event>
 5   0  0.5563545E-04  0.1301143E+04  0.7818609E-02  0.9028659E-01
       -1   -1    0    0    0  501  0.00000000000E+00  0.00000000000E+00  0.24348145002E+03  0.24348145007E+03  0.50400001928E-02 0.  1.
        1   -1    0    0  501    0  0.00000000000E+00  0.00000000000E+00 -0.17382977164E+04  0.17382977164E+04  0.50400001928E-02 0. -1.
    10030    2    1    2    0    0  0.00000000000E+00  0.00000000000E+00 -0.14948162663E+04  0.19817791664E+04  0.13011429569E+04 0.  0.
        2    1    3    3  502    0 -0.51130994492E+03 -0.23229038018E+03 -0.24721997229E+03  0.61360768835E+03  0.25500000920E-02 0.  1.
       -2    1    3    3    0  502  0.51130994492E+03  0.23229038018E+03 -0.12475962941E+04  0.13681714781E+04  0.25500000920E-02 0. -1.
</event>
<event>
 5   0  0.1103241E-03  0.1296565E+04  0.7818609E-02  0.9032293E-01
       -2   -1    0    0    0  501  0.00000000000E+00  0.00000000000E+00  0.36354282015E+03  0.36354282016E+03  0.25500000920E-02 0.  1.
        2   -1    0    0  501    0  0.00000000000E+00  0.00000000000E+00 -0.11560406871E+04  0.11560406871E+04  0.25500000920E-02 0. -1.
    10030    2    1    2    0    0  0.00000000000E+00  0.00000000000E+00 -0.79249786696E+03  0.15195835073E+04  0.12965651416E+04 0.  0.
        4    1    3    3  502    0 -0.44933834391E+03 -0.36353795576E+03 -0.52141818678E+02  0.58033195220E+03  0.12699999809E+01 0.  1.
       -4    1    3    3    0  502  0.44933834391E+03  0.36353795576E+03 -0.74035604828E+03  0.93925155508E+03  0.12699999809E+01 0. -1.
</event>
<event>
 5   0  0.1031295E-03  0.1285500E+04  0.7818609E-02  0.9041143E-01
        2   -1    0    0  501    0  0.00000000000E+00  0.00000000000E+00  0.13831011652E+04  0.13831011652E+04  0.25500000920E-02 0. -1.
       -2   -1    0    0    0  501  0.00000000000E+00  0.00000000000E+00 -0.29869672460E+03  0.29869672461E+03  0.25500000920E-02 0.  1.
    10030    2    1    2    0    0  0.00000000000E+00  0.00000000000E+00  0.10844044406E+04  0.16817978898E+04  0.12855003506E+04 0.  0.
        2    1    3    3  502    0 -0.38958260174E+03  0.40136350578E+03  0.12794834372E+03  0.57379268558E+03  0.25500000920E-02 0.  1.
       -2    1    3    3    0  502  0.38958260174E+03 -0.40136350578E+03  0.95645609686E+03  0.11080052042E+04  0.25500000920E-02 0. -1.
</event>
<event>
 5   0  0.1103241E-03  0.1299221E+04  0.7818609E-02  0.9030183E-01
        2   -1    0    0  501    0  0.00000000000E+00  0.00000000000E+00  0.11252134635E+04  0.11252134635E+04  0.25500000920E-02 0. -1.
       -2   -1    0    0    0  501  0.00000000000E+00  0.00000000000E+00 -0.37503443649E+03  0.37503443650E+03  0.25500000920E-02 0.  1.
    10030    2    1    2    0    0  0.00000000000E+00  0.00000000000E+00  0.75017902703E+03  0.15002479000E+04  0.12992209931E+04 0.  0.
        4    1    3    3  502    0  0.15468381928E+03  0.47997801337E+03  0.84794525740E+03  0.98656918141E+03  0.12699999809E+01 0. -1.
       -4    1    3    3    0  502 -0.15468381928E+03 -0.47997801337E+03 -0.97766230370E+02  0.51367871862E+03  0.12699999809E+01 0.  1.
</event>
<event>
 5   0  0.5563545E-04  0.1305479E+04  0.7818609E-02  0.9025231E-01
       -1   -1    0    0    0  501  0.00000000000E+00  0.00000000000E+00  0.10129589499E+04  0.10129589499E+04  0.50400001928E-02 0.  1.
        1   -1    0    0  501    0  0.00000000000E+00  0.00000000000E+00 -0.42061813367E+03  0.42061813370E+03  0.50400001928E-02 0. -1.
    10030    2    1    2    0    0  0.00000000000E+00  0.00000000000E+00  0.59234081623E+03  0.14335770836E+04  0.13054790738E+04 0.  0.
        2    1    3    3  502    0 -0.40617146503E+03  0.38686356949E+03 -0.70395974974E+02  0.56532669644E+03  0.25500000920E-02 0. -1.
       -2    1    3    3    0  502  0.40617146503E+03 -0.38686356949E+03  0.66273679120E+03  0.86825038717E+03  0.25500000920E-02 0.  1.
</event>
<event>
 5   0  0.1101619E-03  0.1296938E+04  0.7818609E-02  0.9031997E-01
        2   -1    0    0  501    0  0.00000000000E+00  0.00000000000E+00  0.57991905904E+03  0.57991905904E+03  0.25500000920E-02 0.  1.
       -2   -1    0    0    0  501  0.00000000000E+00  0.00000000000E+00 -0.72512226288E+03  0.72512226289E+03  0.25500000920E-02 0. -1.
    10030    2    1    2    0    0  0.00000000000E+00  0.00000000000E+00 -0.14520320385E+03  0.13050413219E+04  0.12969382721E+04 0.  0.
        1    1    3    3  502    0 -0.62711024691E+03  0.14315803422E+03  0.10074599191E+02  0.64332183401E+03  0.50400001928E-02 0. -1.
       -1    1    3    3    0  502  0.62711024691E+03 -0.14315803422E+03 -0.15527780304E+03  0.66171948792E+03  0.50400001928E-02 0.  1.
</event>
<event>
 5   0  0.6006119E-04  0.1290200E+04  0.7818609E-02  0.9037373E-01
       -1   -1    0    0    0  501  0.00000000000E+00  0.00000000000E+00  0.50364903544E+03  0.50364903547E+03  0.50400001928E-02 0.  1.
        1   -1    0    0  501    0  0.00000000000E+00  0.00000000000E+00 -0.82627739739E+03  0.82627739740E+03  0.50400001928E-02 0. -1.
    10030    2    1    2    0    0  0.00000000000E+00  0.00000000000E+00 -0.32262836194E+03  0.13299264329E+04  0.12901996965E+04 0.  0.
        4    1    3    3  502    0  0.36313301213E+03 -0.34253980948E+03  0.25986599404E+03  0.56278864002E+03  0.12699999809E+01 0.  1.
       -4    1    3    3    0  502 -0.36313301213E+03  0.34253980948E+03 -0.58249435598E+03  0.76713779285E+03  0.12699999809E+01 0. -1.
</event>
<event>
 5   0  0.5563545E-04  0.1301941E+04  0.7818609E-02  0.9028027E-01
       -1   -1    0    0    0  501  0.00000000000E+00  0.00000000000E+00  0.39219820262E+03  0.39219820266E+03  0.50400001928E-02 0.  1.
        1   -1    0    0  501    0  0.00000000000E+00  0.00000000000E+00 -0.10804808540E+04  0.10804808540E+04  0.50400001928E-02 0. -1.
    10030    2    1    2    0    0  0.00000000000E+00  0.00000000000E+00 -0.68828265135E+03  0.14726790566E+04  0.13019410877E+04 0.  0.
        2    1    3    3  502    0  0.17866900232E+03 -0.61608787645E+03 -0.46946729173E+03  0.79491283919E+03  0.25500000920E-02 0.  1.
       -2    1    3    3    0  502 -0.17866900232E+03  0.61608787645E+03 -0.21881535962E+03  0.67776621745E+03  0.25500000920E-02 0. -1.
</event>
<event>
 5   0  0.5710383E-04  0.1281651E+04  0.7818609E-02  0.9044244E-01
        1   -1    0    0  501    0  0.00000000000E+00  0.00000000000E+00  0.12924249982E+04  0.12924249982E+04  0.50400001928E-02 0. -1.
       -1   -1    0    0    0  501  0.00000000000E+00  0.00000000000E+00 -0.31774192275E+03  0.31774192279E+03  0.50400001928E-02 0.  1.
    10030    2    1    2    0    0  0.00000000000E+00  0.00000000000E+00  0.97468307540E+03  0.16101669209E+04  0.12816514409E+04 0.  0.
        1    1    3    3  502    0  0.47974221088E+03 -0.27228001996E+03  0.77602159941E+02  0.55705573637E+03  0.50400001928E-02 0.  1.
       -1    1    3    3    0  502 -0.47974221088E+03  0.27228001996E+03  0.89708091546E+03  0.10531111846E+04  0.50400001928E-02 0. -1.
</event>
<event>
 5   0  0.1101619E-03  0.1303977E+04  0.7818609E-02  0.9026417E-01
       -2   -1    0    0    0  501  0.00000000000E+00  0.00000000000E+00  0.39711365808E+03  0.39711365808E+03  0.25500000920E-02 0. -1.
        2   -1    0    0  501    0  0.00000000000E+00  0.00000000000E+00 -0.10704466841E+04  0.10704466841E+04  0.25500000920E-02 0.  1.
    10030    2    1    2    0    0  0.00000000000E+00  0.00000000000E+00 -0.67333302607E+03  0.14675603422E+04  0.13039769914E+04 0.  0.
        1    1    3    3  502    0  0.39395512826E+03  0.51918457223E+03 -0.31604480729E+03  0.72431870290E+03  0.50400001928E-02 0. -1.
       -1    1    3    3    0  502 -0.39395512826E+03 -0.51918457223E+03 -0.35728821878E+03  0.74324163933E+03  0.50400001928E-02 0.  1.
</event>
<event>
 5   0  0.5766027E-04  0.1286544E+04  0.7818609E-02  0.9040304E-01
       -1   -1    0    0    0  501  0.00000000000E+00  0.00000000000E+00  0.20508930220E+03  0.20508930226E+03  0.50400001928E-02 0.  1.
        1   -1    0    0  501    0  0.00000000000E+00  0.00000000000E+00 -0.20176525490E+04  0.20176525490E+04  0.50400001928E-02 0. -1.
    10030    2    1    2    0    0  0.00000000000E+00  0.00000000000E+00 -0.18125632468E+04  0.22227418512E+04  0.12865441359E+04 0.  0.
        3    1    3    3  502    0  0.15418747904E+02 -0.55983365197E+03 -0.14530260521E+04  0.15572206568E+04  0.10100000352E+00 0.  1.
       -3    1    3    3    0  502 -0.15418747904E+02  0.55983365197E+03 -0.35953719461E+03  0.66552119439E+03  0.10100000352E+00 0. -1.
</event>
<event>
 5   0  0.5812938E-04  0.1337494E+04  0.7818609E-02  0.9000349E-01
       -1   -1    0    0    0  501  0.00000000000E+00  0.00000000000E+00  0.31439969927E+03  0.31439969931E+03  0.50400001928E-02 0.  1.
        1   -1    0    0  501    0  0.00000000000E+00  0.00000000000E+00 -0.14224652864E+04  0.14224652864E+04  0.50400001928E-02 0. -1.
    10030    2    1    2    0    0  0.00000000000E+00  0.00000000000E+00 -0.11080655871E+04  0.17368649857E+04  0.13374941620E+04 0.  0.
        5    1    3    3  502    0 -0.44810665177E+03 -0.36224258271E+03 -0.11331034875E+03  0.58726534482E+03  0.46999998093E+01 0.  1.
       -5    1    3    3    0  502  0.44810665177E+03  0.36224258271E+03 -0.99475523839E+03  0.11495996409E+04  0.46999998093E+01 0. -1.
</event>
<event>
 5   0  0.5766027E-04  0.1295464E+04  0.7818609E-02  0.9033170E-01
       -1   -1    0    0    0  501  0.00000000000E+00  0.00000000000E+00  0.21468020237E+03  0.21468020243E+03  0.50400001928E-02 0. -1.
        1   -1    0    0  501    0  0.00000000000E+00  0.00000000000E+00 -0.19543332839E+04  0.19543332839E+04  0.50400001928E-02 0.  1.
    10030    2    1    2    0    0  0.00000000000E+00  0.00000000000E+00 -0.17396530816E+04  0.21690134864E+04  0.12954638783E+04 0.  0.
        3    1    3    3  502    0  0.52765460297E+03  0.24110000990E+03 -0.38743789584E+03  0.69760786130E+03  0.10100000352E+00 0. -1.
       -3    1    3    3    0  502 -0.52765460297E+03 -0.24110000990E+03 -0.13522151857E+04  0.14714056251E+04  0.10100000352E+00 0.  1.
</event>
<event>
 5   0  0.1031295E-03  0.1176162E+04  0.7818609E-02  0.9133981E-01
        2   -1    0    0  501    0  0.00000000000E+00  0.00000000000E+00  0.11739520746E+04  0.11739520746E+04  0.25500000920E-02 0. -1.
       -2   -1    0    0    0  501  0.00000000000E+00  0.00000000000E+00 -0.29459420100E+03  0.29459420102E+03  0.25500000920E-02 0.  1.
    10030    2    1    2    0    0  0.00000000000E+00  0.00000000000E+00  0.87935787362E+03  0.14685462756E+04  0.11761623586E+04 0.  0.
        2    1    3    3  502    0  0.51224164442E+03 -0.26278554476E+03  0.58946687427E+03  0.82396537589E+03  0.25500000920E-02 0. -1.
       -2    1    3    3    0  502 -0.51224164442E+03  0.26278554476E+03  0.28989099936E+03  0.64458089975E+03  0.25500000920E-02 0.  1.
</event>
<event>
 5   0  0.1031295E-03  0.1323242E+04  0.7818609E-02  0.9011334E-01
       -2   -1    0    0    0  501  0.00000000000E+00  0.00000000000E+00  0.50187642888E+03  0.50187642888E+03  0.25500000920E-02 0. -1.
        2   -1    0    0  501    0  0.00000000000E+00  0.00000000000E+00 -0.87221158304E+03  0.87221158305E+03  0.25500000920E-02 0.  1.
    10030    2    1    2    0    0  0.00000000000E+00  0.00000000000E+00 -0.37033515417E+03  0.13740880119E+04  0.13232421313E+04 0.  0.
        2    1    3    3  502    0  0.48246076030E+03  0.23345499920E+02 -0.65467938816E+03  0.81358373808E+03  0.25500000920E-02 0. -1.
       -2    1    3    3    0  502 -0.48246076030E+03 -0.23345499920E+02  0.28434423399E+03  0.56050427385E+03  0.25500000920E-02 0.  1.
</event>
<event>
 5   0  0.1103241E-03  0.1138895E+04  0.7818609E-02  0.9168090E-01
       -2   -1    0    0    0  501  0.00000000000E+00  0.00000000000E+00  0.72444580522E+03  0.72444580522E+03  0.25500000920E-02 0. -1.
        2   -1    0    0  501    0  0.00000000000E+00  0.00000000000E+00 -0.44761194966E+03  0.44761194967E+03  0.25500000920E-02 0.  1.
    10030    2    1    2    0    0  0.00000000000E+00  0.00000000000E+00  0.27683385556E+03  0.11720577549E+04  0.11388952530E+04 0.  0.
        4    1    3    3  502    0  0.40366625935E+03 -0.27664821948E+03  0.43807997685E+03  0.65680770801E+03  0.12699999809E+01 0. -1.
       -4    1    3    3    0  502 -0.40366625935E+03  0.27664821948E+03 -0.16124612129E+03  0.51525004688E+03  0.12699999809E+01 0.  1.
</event>
<event>
 5   0  0.4012375E-04  0.1296150E+04  0.7818609E-02  0.9032624E-01
       -3   -1    0    0    0  501  0.00000000000E+00  0.00000000000E+00  0.73703080858E+03  0.73703081550E+03  0.10100000352E+00 0. -1.
        3   -1    0    0  501    0  0.00000000000E+00  0.00000000000E+00 -0.56985586651E+03  0.56985587547E+03  0.10100000352E+00 0.  1.
    10030    2    1    2    0    0  0.00000000000E+00  0.00000000000E+00  0.16717494206E+03  0.13068866910E+04  0.12961502080E+04 0.  0.
        2    1    3    3  502    0  0.25179533096E+03 -0.54940765019E+02 -0.51596562958E+03  0.57674943196E+03  0.25500000920E-02 0.  1.
       -2    1    3    3    0  502 -0.25179533096E+03  0.54940765019E+02  0.68314057164E+03  0.73013725900E+03  0.25500000920E-02 0. -1.
</event>
<event>
 5   0  0.5766027E-04  0.1295575E+04  0.7818609E-02  0.9033081E-01
       -1   -1    0    0    0  501  0.00000000000E+00  0.00000000000E+00  0.27137896876E+03  0.27137896881E+03  0.50400001928E-02 0.  1.
        1   -1    0    0  501    0  0.00000000000E+00  0.00000000000E+00 -0.15462833204E+04  0.15462833204E+04  0.50400001928E-02 0. -1.
    10030    2    1    2    0    0  0.00000000000E+00  0.00000000000E+00 -0.12749043516E+04  0.18176622892E+04  0.12955751973E+04 0.  0.
        3    1    3    3  502    0  0.20189830161E+02 -0.64528425368E+03 -0.71207902322E+03  0.96117425205E+03  0.10100000352E+00 0. -1.
       -3    1    3    3    0  502 -0.20189830161E+02  0.64528425368E+03 -0.56282532840E+03  0.85648803715E+03  0.10100000352E+00 0.  1.
</event>
<event>
 5   0  0.6006119E-04  0.1317516E+04  0.7818609E-02  0.9015789E-01
        1   -1    0    0  501    0  0.00000000000E+00  0.00000000000E+00  0.12982432782E+04  0.12982432782E+04  0.50400001928E-02 0.  1.
       -1   -1    0    0    0  501  0.00000000000E+00  0.00000000000E+00 -0.33426875036E+03  0.33426875039E+03  0.50400001928E-02 0. -1.
    10030    2    1    2    0    0  0.00000000000E+00  0.00000000000E+00  0.96397452787E+03  0.16325120286E+04  0.13175160846E+04 0.  0.
        4    1    3    3  502    0  0.19313777442E+03 -0.27983890864E+03 -0.21713299775E+03  0.40343570282E+03  0.12699999809E+01 0. -1.
       -4    1    3    3    0  502 -0.19313777442E+03  0.27983890864E+03  0.11811075256E+04  0.12290763258E+04  0.12699999809E+01 0.  1.
</event>
<event>
 5   0  0.1081574E-03  0.1300127E+04  0.7818609E-02  0.9029465E-01
       -2   -1    0    0    0  501  0.00000000000E+00  0.00000000000E+00  0.23861522619E+03  0.23861522620E+03  0.25500000920E-02 0.  1.
        2   -1    0    0  501    0  0.00000000000E+00  0.00000000000E+00 -0.17709779642E+04  0.17709779642E+04  0.25500000920E-02 0. -1.
    10030    2    1    2    0    0  0.00000000000E+00  0.00000000000E+00 -0.15323627380E+04  0.20095931904E+04  0.13001266208E+04 0.  0.
        5    1    3    3  502    0 -0.14807286979E+03 -0.23469149846E+03 -0.16747982545E+04  0.16976386416E+04  0.46999998093E+01 0. -1.
       -5    1    3    3    0  502  0.14807286979E+03  0.23469149846E+03  0.14243551642E+03  0.31195454886E+03  0.46999998093E+01 0.  1.
</event>
<event>
 5   0  0.5766027E-04  0.1294480E+04  0.7818609E-02  0.9033954E-01
       -1   -1    0    0    0  501  0.00000000000E+00  0.00000000000E+00  0.29509593247E+03  0.29509593251E+03  0.50400001928E-02 0. -1.
        1   -1    0    0  501    0  0.00000000000E+00  0.00000000000E+00 -0.14196041254E+04  0.14196041254E+04  0.50400001928E-02 0.  1.
    10030    2    1    2    0    0  0.00000000000E+00  0.00000000000E+00 -0.11245081929E+04  0.17147000579E+04  0.12944796687E+04 0.  0.
        3    1    3    3  502    0  0.19460120064E+02 -0.51396605294E+03 -0.41793476414E+02  0.51602955799E+03  0.10100000352E+00 0. -1.
       -3    1    3    3    0  502 -0.19460120064E+02  0.51396605294E+03 -0.10827147165E+04  0.11986704999E+04  0.10100000352E+00 0.  1.
</event>
<event>
 5   0  0.5563545E-04  0.1295349E+04  0.7818609E-02  0.9033262E-01
        1   -1    0    0  501    0  0.00000000000E+00  0.00000000000E+00  0.62678031907E+03  0.62678031909E+03  0.50400001928E-02 0. -1.
       -1   -1    0    0    0  501  0.00000000000E+00  0.00000000000E+00 -0.66926488345E+03  0.66926488346E+03  0.50400001928E-02 0.  1.
    10030    2    1    2    0    0  0.00000000000E+00  0.00000000000E+00 -0.42484564376E+02  0.12960452026E+04  0.12953486901E+04 0.  0.
        2    1    3    3  502    0  0.20115762364E+03  0.21126164174E+03 -0.59981456270E+03  0.66698829109E+03  0.25500000920E-02 0.  1.
       -2    1    3    3    0  502 -0.20115762364E+03 -0.21126164174E+03  0.55732999833E+03  0.62905691146E+03  0.25500000920E-02 0. -1.
</event>
<event>
 5   0  0.1046253E-03  0.1317536E+04  0.7818609E-02  0.9015774E-01
       -2   -1    0    0    0  501  0.00000000000E+00  0.00000000000E+00  0.27734953280E+03  0.27734953282E+03  0.25500000920E-02 0. -1.
        2   -1    0    0  501    0  0.00000000000E+00  0.00000000000E+00 -0.15647228796E+04  0.15647228796E+04  0.25500000920E-02 0.  1.
    10030    2    1    2    0    0  0.00000000000E+00  0.00000000000E+00 -0.12873733468E+04  0.18420724124E+04  0.13175358206E+04 0.  0.
        3    1    3    3  502    0  0.35467787706E+01 -0.65504697074E+03 -0.54605792652E+03  0.85280618128E+03  0.10100000352E+00 0.  1.
       -3    1    3    3    0  502 -0.35467787706E+01  0.65504697074E+03 -0.74131542024E+03  0.98926623111E+03  0.10100000352E+00 0. -1.
</event>
<event>
 5   0  0.5766027E-04  0.1297877E+04  0.7818609E-02  0.9031251E-01
        1   -1    0    0  501    0  0.00000000000E+00  0.00000000000E+00  0.18110468096E+04  0.18110468097E+04  0.50400001928E-02 0. -1.
       -1   -1    0    0    0  501  0.00000000000E+00  0.00000000000E+00 -0.23252900618E+03  0.23252900623E+03  0.50400001928E-02 0.  1.
    10030    2    1    2    0    0  0.00000000000E+00  0.00000000000E+00  0.15785178035E+04  0.20435758159E+04  0.12978765964E+04 0.  0.
        3    1    3    3  502    0  0.18664780909E+03  0.62151317550E+03  0.79273459732E+03  0.10244726370E+04  0.10100000352E+00 0.  1.
       -3    1    3    3    0  502 -0.18664780909E+03 -0.62151317550E+03  0.78578320615E+03  0.10191031789E+04  0.10100000352E+00 0. -1.
</event>
<event>
 5   0  0.5766027E-04  0.1308433E+04  0.7818609E-02  0.9022904E-01
       -1   -1    0    0    0  501  0.00000000000E+00  0.00000000000E+00  0.80485665206E+03  0.80485665208E+03  0.50400001928E-02 0. -1.
        1   -1    0    0  501    0  0.00000000000E+00  0.00000000000E+00 -0.53177085319E+03  0.53177085321E+03  0.50400001928E-02 0.  1.
    10030    2    1    2    0    0  0.00000000000E+00  0.00000000000E+00  0.27308579888E+03  0.13366275053E+04  0.13084331218E+04 0.  0.
        3    1    3    3  502    0 -0.13126874585E+03 -0.15600058362E+03  0.77157429837E+03  0.79805674851E+03  0.10100000352E+00 0. -1.
       -3    1    3    3    0  502  0.13126874585E+03  0.15600058362E+03 -0.49848849950E+03  0.53857075678E+03  0.10100000352E+00 0.  1.
</event>
<event>
 5   0  0.5766027E-04  0.1296527E+04  0.7818609E-02  0.9032324E-01
        1   -1    0    0  501    0  0.00000000000E+00  0.00000000000E+00  0.76729404454E+03  0.76729404456E+03  0.50400001928E-02 0.  1.
       -1   -1    0    0    0  501  0.00000000000E+00  0.00000000000E+00 -0.54769789385E+03  0.54769789387E+03  0.50400001928E-02 0. -1.
    10030    2    1    2    0    0  0.00000000000E+00  0.00000000000E+00  0.21959615069E+03  0.13149919384E+04  0.12965266402E+04 0.  0.
        3    1    3    3  502    0 -0.11938878930E+03  0.54716450470E+03  0.44094874171E+03  0.71279624103E+03  0.10100000352E+00 0.  1.
       -3    1    3    3    0  502  0.11938878930E+03 -0.54716450470E+03 -0.22135259102E+03  0.60219569740E+03  0.10100000352E+00 0. -1.
</event>
<event>
 5   0  0.4012375E-04  0.1297509E+04  0.7818609E-02  0.9031543E-01
        4   -1    0    0  501    0  0.00000000000E+00  0.00000000000E+00  0.50101977788E+03  0.50102138749E+03  0.12699999809E+01 0.  1.
       -4   -1    0    0    0  501  0.00000000000E+00  0.00000000000E+00 -0.84004834546E+03  0.84004930547E+03  0.12699999809E+01 0. -1.
    10030    2    1    2    0    0  0.00000000000E+00  0.00000000000E+00 -0.33902856759E+03  0.13410706930E+04  0.12975092423E+04 0.  0.
        5    1    3    3  502    0 -0.42416202790E+03 -0.16317798468E+03 -0.64800393550E+03  0.79149963425E+03  0.46999998093E+01 0. -1.
       -5    1    3    3    0  502  0.42416202790E+03  0.16317798468E+03  0.30897536791E+03  0.54957105871E+03  0.46999998093E+01 0.  1.
</event>
<event>
 5   0  0.6006119E-04  0.1265864E+04  0.7818609E-02  0.9057082E-01
       -1   -1    0    0    0  501  0.00000000000E+00  0.00000000000E+00  0.30425651497E+03  0.30425651501E+03  0.50400001928E-02 0. -1.
        1   -1    0    0  501    0  0.00000000000E+00  0.00000000000E+00 -0.13166621368E+04  0.13166621368E+04  0.50400001928E-02 0.  1.
    10030    2    1    2    0    0  0.00000000000E+00  0.00000000000E+00 -0.10124056219E+04  0.16209186519E+04  0.12658641842E+04 0.  0.
        4    1    3    3  502    0 -0.19309106416E+02 -0.62933946012E+03 -0.42360988867E+03  0.75887281433E+03  0.12699999809E+01 0. -1.
       -4    1    3    3    0  502  0.19309106416E+02  0.62933946012E+03 -0.58879573319E+03  0.86204583752E+03  0.12699999809E+01 0.  1.
</event>
<event>
 5   0  0.6006119E-04  0.1298960E+04  0.7818609E-02  0.9030391E-01
        1   -1    0    0  501    0  0.00000000000E+00  0.00000000000E+00  0.43708532133E+03  0.43708532136E+03  0.50400001928E-02 0. -1.
       -1   -1    0    0    0  501  0.00000000000E+00  0.00000000000E+00 -0.96508400240E+03  0.96508400241E+03  0.50400001928E-02 0.  1.
    10030    2    1    2    0    0  0.00000000000E+00  0.00000000000E+00 -0.52799868107E+03  0.14021693238E+04  0.12989596627E+04 0.  0.
        4    1    3    3  502    0  0.21259125082E+03  0.30177853448E+03 -0.84083392269E+03  0.91829658730E+03  0.12699999809E+01 0.  1.
       -4    1    3    3    0  502 -0.21259125082E+03 -0.30177853448E+03  0.31283524163E+03  0.48387273647E+03  0.12699999809E+01 0. -1.
</event>
<event>
 5   0  0.1046253E-03  0.1306721E+04  0.7818609E-02  0.9024252E-01
       -2   -1    0    0    0  501  0.00000000000E+00  0.00000000000E+00  0.52920485630E+03  0.52920485630E+03  0.25500000920E-02 0.  1.
        2   -1    0    0  501    0  0.00000000000E+00  0.00000000000E+00 -0.80664382346E+03  0.80664382347E+03  0.25500000920E-02 0. -1.
    10030    2    1    2    0    0  0.00000000000E+00  0.00000000000E+00 -0.27743896717E+03  0.13358486798E+04  0.13067208251E+04 0.  0.
        3    1    3    3  502    0 -0.56843574377E+03  0.12036625216E+03 -0.44416483371E+03  0.73136149691E+03  0.10100000352E+00 0. -1.
       -3    1    3    3    0  502  0.56843574377E+03 -0.12036625216E+03  0.16672586655E+03  0.60448718286E+03  0.10100000352E+00 0.  1.
</event>
<event>
 5   0  0.1103241E-03  0.1306553E+04  0.7818609E-02  0.9024385E-01
        2   -1    0    0  501    0  0.00000000000E+00  0.00000000000E+00  0.16783977799E+04  0.16783977799E+04  0.25500000920E-02 0.  1.
       -2   -1    0    0    0  501  0.00000000000E+00  0.00000000000E+00 -0.25427237312E+03  0.25427237313E+03  0.25500000920E-02 0. -1.
    10030    2    1    2    0    0  0.00000000000E+00  0.00000000000E+00  0.14241254068E+04  0.19326701531E+04  0.13065530017E+04 0.  0.
        4    1    3    3  502    0 -0.23017917893E+03 -0.17187530301E+03 -0.15582698388E+03  0.32681376348E+03  0.12699999809E+01 0. -1.
       -4    1    3    3    0  502  0.23017917893E+03  0.17187530301E+03  0.15799523907E+04  0.16058563896E+04  0.12699999809E+01 0.  1.
</event>
<event>
 5   0  0.1103241E-03  0.1294482E+04  0.7818609E-02  0.9033953E-01
       -2   -1    0    0    0  501  0.00000000000E+00  0.00000000000E+00  0.10146881855E+04  0.10146881855E+04  0.25500000920E-02 0. -1.
        2   -1    0    0  501    0  0.00000000000E+00  0.00000000000E+00 -0.41285652183E+03  0.41285652184E+03  0.25500000920E-02 0.  1.
    10030    2    1    2    0    0  0.00000000000E+00  0.00000000000E+00  0.60183166371E+03  0.14275447074E+04  0.12944815720E+04 0.  0.
        4    1    3    3  502    0 -0.11768651071E+03 -0.19640815602E+02 -0.40062249810E+03  0.41801420469E+03  0.12699999809E+01 0.  1.
       -4    1    3    3    0  502  0.11768651071E+03  0.19640815602E+02  0.10024541618E+04  0.10095305027E+04  0.12699999809E+01 0. -1.
</event>
<event>
 5   0  0.5812938E-04  0.1298953E+04  0.7818609E-02  0.9030396E-01
        1   -1    0    0  501    0  0.00000000000E+00  0.00000000000E+00  0.11561656534E+04  0.11561656534E+04  0.50400001928E-02 0. -1.
       -1   -1    0    0    0  501  0.00000000000E+00  0.00000000000E+00 -0.36484387931E+03  0.36484387935E+03  0.50400001928E-02 0.  1.
    10030    2    1    2    0    0  0.00000000000E+00  0.00000000000E+00  0.79132177407E+03  0.15210095327E+04  0.12989533666E+04 0.  0.
        5    1    3    3  502    0  0.58589982216E+03  0.53121417833E+01  0.72371723826E+03  0.93117965582E+03  0.46999998093E+01 0. -1.
       -5    1    3    3    0  502 -0.58589982216E+03 -0.53121417833E+01  0.67604535810E+02  0.58982987693E+03  0.46999998093E+01 0.  1.
</event>
<event>
 5   0  0.5766027E-04  0.1283842E+04  0.7818609E-02  0.9042477E-01
        1   -1    0    0  501    0  0.00000000000E+00  0.00000000000E+00  0.15072475263E+04  0.15072475263E+04  0.50400001928E-02 0. -1.
       -1   -1    0    0    0  501  0.00000000000E+00  0.00000000000E+00 -0.27338761316E+03  0.27338761321E+03  0.50400001928E-02 0.  1.
    10030    2    1    2    0    0  0.00000000000E+00  0.00000000000E+00  0.12338599131E+04  0.17806351395E+04  0.12838423637E+04 0.  0.
        3    1    3    3  502    0 -0.50428975916E+03  0.60600452596E+02  0.11613567586E+04  0.12675685808E+04  0.10100000352E+00 0. -1.
       -3    1    3    3    0  502  0.50428975916E+03 -0.60600452596E+02  0.72503154516E+02  0.51306655871E+03  0.10100000352E+00 0.  1.
</event>
<event>
 5   0  0.1103241E-03  0.1291969E+04  0.7818609E-02  0.9035958E-01
        2   -1    0    0  501    0  0.00000000000E+00  0.00000000000E+00  0.94475917998E+03  0.94475917998E+03  0.25500000920E-02 0. -1.
       -2   -1    0    0    0  501  0.00000000000E+00  0.00000000000E+00 -0.44169580951E+03  0.44169580951E+03  0.25500000920E-02 0.  1.
    10030    2    1    2    0    0  0.00000000000E+00  0.00000000000E+00  0.50306337047E+03  0.13864549895E+04  0.12919693043E+04 0.  0.
        4    1    3    3  502    0  0.52031331665E+02  0.58943511954E+02 -0.43654075618E+03  0.44356627665E+03  0.12699999809E+01 0.  1.
       -4    1    3    3    0  502 -0.52031331665E+02 -0.58943511954E+02  0.93960412666E+03  0.94288871284E+03  0.12699999809E+01 0. -1.
</event>
<event>
 5   0  0.1081574E-03  0.1274852E+04  0.7818609E-02  0.9049749E-01
        2   -1    0    0  501    0  0.00000000000E+00  0.00000000000E+00  0.41660482434E+03  0.41660482435E+03  0.25500000920E-02 0.  1.
       -2   -1    0    0    0  501  0.00000000000E+00  0.00000000000E+00 -0.97529275810E+03  0.97529275811E+03  0.25500000920E-02 0. -1.
    10030    2    1    2    0    0  0.00000000000E+00  0.00000000000E+00 -0.55868793376E+03  0.13918975825E+04  0.12748516277E+04 0.  0.
        5    1    3    3  502    0  0.13108040133E+02 -0.28720844082E+03 -0.90045808307E+03  0.94525518171E+03  0.46999998093E+01 0. -1.
       -5    1    3    3    0  502 -0.13108040133E+02  0.28720844082E+03  0.34177014930E+03  0.44664240075E+03  0.46999998093E+01 0.  1.
</event>
<event>
 5   0  0.5812938E-04  0.1297029E+04  0.7818609E-02  0.9031924E-01
       -1   -1    0    0    0  501  0.00000000000E+00  0.00000000000E+00  0.31812184046E+03  0.31812184050E+03  0.50400001928E-02 0.  1.
        1   -1    0    0  501    0  0.00000000000E+00  0.00000000000E+00 -0.13220440260E+04  0.13220440260E+04  0.50400001928E-02 0. -1.
    10030    2    1    2    0    0  0.00000000000E+00  0.00000000000E+00 -0.10039221855E+04  0.16401658665E+04  0.12970290340E+04 0.  0.
        5    1    3    3  502    0  0.31761852778E+03  0.91904521755E+02 -0.12074213160E+04  0.12518850964E+04  0.46999998093E+01 0. -1.
       -5    1    3    3    0  502 -0.31761852778E+03 -0.91904521755E+02  0.20349913047E+03  0.38828077008E+03  0.46999998093E+01 0.  1.
</event>
<event>
 5   0  0.5766027E-04  0.1293489E+04  0.7818609E-02  0.9034744E-01
       -1   -1    0    0    0  501  0.00000000000E+00  0.00000000000E+00  0.12350583503E+04  0.12350583503E+04  0.50400001928E-02 0. -1.
        1   -1    0    0  501    0  0.00000000000E+00  0.00000000000E+00 -0.33867124517E+03  0.33867124521E+03  0.50400001928E-02 0.  1.
    10030    2    1    2    0    0  0.00000000000E+00  0.00000000000E+00  0.89638710516E+03  0.15737295956E+04  0.12934894656E+04 0.  0.
        3    1    3    3  502    0  0.45588535696E+03  0.43904880970E+02  0.10037660023E+04  0.11033155917E+04  0.10100000352E+00 0. -1.
       -3    1    3    3    0  502 -0.45588535696E+03 -0.43904880970E+02 -0.10737889716E+03  0.47041400386E+03  0.10100000352E+00 0.  1.
</event>
<event>
 5   0  0.1031295E-03  0.1300187E+04  0.7818609E-02  0.9029417E-01
        2   -1    0    0  501    0  0.00000000000E+00  0.00000000000E+00  0.10039258974E+04  0.10039258974E+04  0.25500000920E-02 0. -1.
       -2   -1    0    0    0  501  0.00000000000E+00  0.00000000000E+00 -0.42096855853E+03  0.42096855854E+03  0.25500000920E-02 0.  1.
    10030    2    1    2    0    0  0.00000000000E+00  0.00000000000E+00  0.58295733885E+03  0.14248944559E+04  0.13001865065E+04 0.  0.
        2    1    3    3  502    0 -0.17016116558E+03 -0.31514757174E+03 -0.30309804842E+03  0.46919211546E+03  0.25500000920E-02 0.  1.
       -2    1    3    3    0  502  0.17016116558E+03  0.31514757174E+03  0.88605538727E+03  0.95570234046E+03  0.25500000920E-02 0. -1.
</event>
<event>
 5   0  0.1081574E-03  0.1314318E+04  0.7818609E-02  0.9018288E-01
       -2   -1    0    0    0  501  0.00000000000E+00  0.00000000000E+00  0.23630038084E+03  0.23630038086E+03  0.25500000920E-02 0. -1.
        2   -1    0    0  501    0  0.00000000000E+00  0.00000000000E+00 -0.18275791668E+04  0.18275791668E+04  0.25500000920E-02 0.  1.
    10030    2    1    2    0    0  0.00000000000E+00  0.00000000000E+00 -0.15912787859E+04  0.20638795476E+04  0.13143175463E+04 0.  0.
        5    1    3    3  502    0 -0.13443659130E+03  0.62949441387E+03 -0.10033661808E+04  0.11920999107E+04  0.46999998093E+01 0.  1.
       -5    1    3    3    0  502  0.13443659130E+03 -0.62949441387E+03 -0.58791260507E+03  0.87177963694E+03  0.46999998093E+01 0. -1.
</event>
<event>
 5   0  0.1101619E-03  0.1299490E+04  0.7818609E-02  0.9029969E-01
        2   -1    0    0  501    0  0.00000000000E+00  0.00000000000E+00  0.96783356806E+03  0.96783356806E+03  0.25500000920E-02 0.  1.
       -2   -1    0    0    0  501  0.00000000000E+00  0.00000000000E+00 -0.43619986345E+03  0.43619986346E+03  0.25500000920E-02 0. -1.
    10030    2    1    2    0    0  0.00000000000E+00  0.00000000000E+00  0.53163370461E+03  0.14040334315E+04  0.12994904697E+04 0.  0.
        1    1    3    3  502    0 -0.25841487950E+03  0.10389230270E+03  0.90006630679E+03  0.94217366613E+03  0.50400001928E-02 0.  1.
       -1    1    3    3    0  502  0.25841487950E+03 -0.10389230270E+03 -0.36843260218E+03  0.46185976539E+03  0.50400001928E-02 0. -1.
</event>
<event>
 5   0  0.1103241E-03  0.1385688E+04  0.7818609E-02  0.8964244E-01
        2   -1    0    0  501    0  0.00000000000E+00  0.00000000000E+00  0.13542031235E+04  0.13542031235E+04  0.25500000920E-02 0. -1.
       -2   -1    0    0    0  501  0.00000000000E+00  0.00000000000E+00 -0.35447598746E+03  0.35447598747E+03  0.25500000920E-02 0.  1.
    10030    2    1    2    0    0  0.00000000000E+00  0.00000000000E+00  0.99972713603E+03  0.17086791110E+04  0.13856875397E+04 0.  0.
        4    1    3    3  502    0 -0.26810181473E+03  0.38931882661E+03 -0.12474690250E+03  0.48888765008E+03  0.12699999809E+01 0.  1.
       -4    1    3    3    0  502  0.26810181473E+03 -0.38931882661E+03  0.11244740385E+04  0.12197914609E+04  0.12699999809E+01 0. -1.
</event>
<event>
 5   0  0.1081574E-03  0.1307050E+04  0.7818609E-02  0.9023993E-01
        2   -1    0    0  501    0  0.00000000000E+00  0.00000000000E+00  0.10138748528E+04  0.10138748529E+04  0.25500000920E-02 0.  1.
       -2   -1    0    0    0  501  0.00000000000E+00  0.00000000000E+00 -0.42125000780E+03  0.42125000781E+03  0.25500000920E-02 0. -1.
    10030    2    1    2    0    0  0.00000000000E+00  0.00000000000E+00  0.59262484505E+03  0.14351248607E+04  0.13070497920E+04 0.  0.
        5    1    3    3  502    0  0.34984154537E+03  0.11353177824E+03 -0.29679837388E+03  0.47264144579E+03  0.46999998093E+01 0. -1.
       -5    1    3    3    0  502 -0.34984154537E+03 -0.11353177824E+03  0.88942321893E+03  0.96248341487E+03  0.46999998093E+01 0.  1.
</event>
<event>
 5   0  0.1046253E-03  0.1283822E+04  0.7818609E-02  0.9042494E-01
       -2   -1    0    0    0  501  0.00000000000E+00  0.00000000000E+00  0.19407296231E+03  0.19407296233E+03  0.25500000920E-02 0.  1.
        2   -1    0    0  501    0  0.00000000000E+00  0.00000000000E+00 -0.21231680181E+04  0.21231680181E+04  0.25500000920E-02 0. -1.
    10030    2    1    2    0    0  0.00000000000E+00  0.00000000000E+00 -0.19290950558E+04  0.23172409805E+04  0.12838216493E+04 0.  0.
        3    1    3    3  502    0 -0.23972504322E+03  0.55139918110E+03 -0.55877223560E+03  0.82081397085E+03  0.10100000352E+00 0.  1.
       -3    1    3    3    0  502  0.23972504322E+03 -0.55139918110E+03 -0.13703228202E+04  0.14964270096E+04  0.10100000352E+00 0. -1.
</event>
<event>
 5   0  0.5563545E-04  0.1308556E+04  0.7818609E-02  0.9022807E-01
        1   -1    0    0  501    0  0.00000000000E+00  0.00000000000E+00  0.72772127744E+03  0.72772127746E+03  0.50400001928E-02 0. -1.
       -1   -1    0    0    0  501  0.00000000000E+00  0.00000000000E+00 -0.58824717472E+03  0.58824717474E+03  0.50400001928E-02 0.  1.
    10030    2    1    2    0    0  0.00000000000E+00  0.00000000000E+00  0.13947410272E+03  0.13159684522E+04  0.13085564343E+04 0.  0.
        2    1    3    3  502    0  0.28428832839E+03  0.14104793420E+03  0.64513664306E+03  0.71896847053E+03  0.25500000920E-02 0. -1.
       -2    1    3    3    0  502 -0.28428832839E+03 -0.14104793420E+03 -0.50566254034E+03  0.59699998166E+03  0.25500000920E-02 0.  1.
</event>
<event>
 5   0  0.1081574E-03  0.1299207E+04  0.7818609E-02  0.9030195E-01
       -2   -1    0    0    0  501  0.00000000000E+00  0.00000000000E+00  0.29381543049E+03  0.29381543050E+03  0.25500000920E-02 0.  1.
        2   -1    0    0  501    0  0.00000000000E+00  0.00000000000E+00 -0.14362228922E+04  0.14362228922E+04  0.25500000920E-02 0. -1.
    10030    2    1    2    0    0  0.00000000000E+00  0.00000000000E+00 -0.11424074617E+04  0.17300383227E+04  0.12992066000E+04 0.  0.
        5    1    3    3  502    0 -0.60731373134E+02  0.59520443557E+03 -0.90809282994E+03  0.10874793320E+04  0.46999998093E+01 0. -1.
       -5    1    3    3    0  502  0.60731373134E+02 -0.59520443557E+03 -0.23431463173E+03  0.64255899063E+03  0.46999998093E+01 0.  1.
</event>
<event>
 5   0  0.5812938E-04  0.1297468E+04  0.7818609E-02  0.9031576E-01
        1   -1    0    0  501    0  0.00000000000E+00  0.00000000000E+00  0.37813102809E+03  0.37813102812E+03  0.50400001928E-02 0.  1.
       -1   -1    0    0    0  501  0.00000000000E+00  0.00000000000E+00 -0.11129885975E+04  0.11129885976E+04  0.50400001928E-02 0. -1.
    10030    2    1    2    0    0  0.00000000000E+00  0.00000000000E+00 -0.73485756945E+03  0.14911196257E+04  0.12974675683E+04 0.  0.
        5    1    3    3  502    0 -0.37820264486E+03  0.52640777672E+03 -0.33721751021E+03  0.73067101158E+03  0.46999998093E+01 0.  1.
       -5    1    3    3    0  502  0.37820264486E+03 -0.52640777672E+03 -0.39764005924E+03  0.76044861410E+03  0.46999998093E+01 0. -1.
</event>
<event>
 5   0  0.5812938E-04  0.1298506E+04  0.7818609E-02  0.9030751E-01
        1   -1    0    0  501    0  0.00000000000E+00  0.00000000000E+00  0.15289303532E+04  0.15289303532E+04  0.50400001928E-02 0.  1.
       -1   -1    0    0    0  501  0.00000000000E+00  0.00000000000E+00 -0.27570217138E+03  0.27570217142E+03  0.50400001928E-02 0. -1.
    10030    2    1    2    0    0  0.00000000000E+00  0.00000000000E+00  0.12532281818E+04  0.18046325246E+04  0.12985059388E+04 0.  0.
        5    1    3    3  502    0 -0.65043534630E+02  0.64460969538E+03  0.68483571722E+03  0.94274830700E+03  0.46999998093E+01 0.  1.
       -5    1    3    3    0  502  0.65043534630E+02 -0.64460969538E+03  0.56839246457E+03  0.86188421760E+03  0.46999998093E+01 0. -1.
</event>
<event>
 5   0  0.5812938E-04  0.1299011E+04  0.7818609E-02  0.9030350E-01
       -1   -1    0    0    0  501  0.00000000000E+00  0.00000000000E+00  0.36768843660E+03  0.36768843664E+03  0.50400001928E-02 0. -1.
        1   -1    0    0  501    0  0.00000000000E+00  0.00000000000E+00 -0.11473228418E+04  0.11473228419E+04  0.50400001928E-02 0.  1.
    10030    2    1    2    0    0  0.00000000000E+00  0.00000000000E+00 -0.77963440524E+03  0.15150112785E+04  0.12990109192E+04 0.  0.
        5    1    3    3  502    0 -0.50209429439E+03 -0.16785859604E+03 -0.82862409290E+03  0.98331844591E+03  0.46999998093E+01 0.  1.
       -5    1    3    3    0  502  0.50209429439E+03  0.16785859604E+03  0.48989687663E+02  0.53169283258E+03  0.46999998093E+01 0. -1.
</event>
<event>
 5   0  0.5710383E-04  0.1261390E+04  0.7818609E-02  0.9060757E-01
       -1   -1    0    0    0  501  0.00000000000E+00  0.00000000000E+00  0.49638878839E+03  0.49638878841E+03  0.50400001928E-02 0.  1.
        1   -1    0    0  501    0  0.00000000000E+00  0.00000000000E+00 -0.80133939150E+03  0.80133939151E+03  0.50400001928E-02 0. -1.
    10030    2    1    2    0    0  0.00000000000E+00  0.00000000000E+00 -0.30495060311E+03  0.12977281799E+04  0.12613895349E+04 0.  0.
        1    1    3    3  502    0 -0.94469045734E+02 -0.36402431822E+03 -0.67335907111E+03  0.77126554670E+03  0.50400001928E-02 0. -1.
       -1    1    3    3    0  502  0.94469045734E+02  0.36402431822E+03  0.36840846801E+03  0.52646263322E+03  0.50400001928E-02 0.  1.
</event>
<event>
 5   0  0.1046253E-03  0.1290882E+04  0.7818609E-02  0.9036827E-01
        2   -1    0    0  501    0  0.00000000000E+00  0.00000000000E+00  0.46559077571E+03  0.46559077572E+03  0.25500000920E-02 0. -1.
       -2   -1    0    0    0  501  0.00000000000E+00  0.00000000000E+00 -0.89476451356E+03  0.89476451356E+03  0.25500000920E-02 0.  1.
    10030    2    1    2    0    0  0.00000000000E+00  0.00000000000E+00 -0.42917373785E+03  0.13603552893E+04  0.12908820302E+04 0.  0.
        3    1    3    3  502    0 -0.14570130047E+03  0.49100653148E+03 -0.62850793336E+03  0.81076415524E+03  0.10100000352E+00 0.  1.
       -3    1    3    3    0  502  0.14570130047E+03 -0.49100653148E+03  0.19933419551E+03  0.54959113404E+03  0.10100000352E+00 0. -1.
</event>
<event>
 5   0  0.4012375E-04  0.1306769E+04  0.7818609E-02  0.9024214E-01
        4   -1    0    0  501    0  0.00000000000E+00  0.00000000000E+00  0.97989459369E+03  0.97989541669E+03  0.12699999809E+01 0. -1.
       -4   -1    0    0    0  501  0.00000000000E+00  0.00000000000E+00 -0.43566884108E+03  0.43567069213E+03  0.12699999809E+01 0.  1.
    10030    2    1    2    0    0  0.00000000000E+00  0.00000000000E+00  0.54422575262E+03  0.14155661088E+04  0.13067691987E+04 0.  0.
        1    1    3    3  502    0 -0.20101887816E+03  0.84461424075E+02  0.93932242279E+03  0.96429711993E+03  0.50400001928E-02 0. -1.
       -1    1    3    3    0  502  0.20101887816E+03 -0.84461424075E+02 -0.39509667017E+03  0.45126898889E+03  0.50400001928E-02 0.  1.
</event>
<event>
 5   0  0.6006119E-04  0.1282022E+04  0.7818609E-02  0.9043944E-01
       -1   -1    0    0    0  501  0.00000000000E+00  0.00000000000E+00  0.35912284162E+03  0.35912284166E+03  0.50400001928E-02 0. -1.
        1   -1    0    0  501    0  0.00000000000E+00  0.00000000000E+00 -0.11441636092E+04  0.11441636092E+04  0.50400001928E-02 0.  1.
    10030    2    1    2    0    0  0.00000000000E+00  0.00000000000E+00 -0.78504076759E+03  0.15032864509E+04  0.12820222879E+04 0.  0.
        4    1    3    3  502    0  0.11084738036E+03  0.62720187755E+03 -0.47727468588E+03  0.79590330796E+03  0.12699999809E+01 0.  1.
       -4    1    3    3    0  502 -0.11084738036E+03 -0.62720187755E+03 -0.30776608171E+03  0.70738314292E+03  0.12699999809E+01 0. -1.
</event>
<event>
 5   0  0.1031295E-03  0.1300537E+04  0.7818609E-02  0.9029140E-01
        2   -1    0    0  501    0  0.00000000000E+00  0.00000000000E+00  0.10727434210E+04  0.10727434210E+04  0.25500000920E-02 0.  1.
       -2   -1    0    0    0  501  0.00000000000E+00  0.00000000000E+00 -0.39417521221E+03  0.39417521222E+03  0.25500000920E-02 0. -1.
    10030    2    1    2    0    0  0.00000000000E+00  0.00000000000E+00  0.67856820875E+03  0.14669186332E+04  0.13005366056E+04 0.  0.
        2    1    3    3  502    0 -0.23174047605E+03 -0.73045828854E+02  0.10196154431E+04  0.10481674452E+04  0.25500000920E-02 0.  1.
       -2    1    3    3    0  502  0.23174047605E+03  0.73045828854E+02 -0.34104723437E+03  0.41875118797E+03  0.25500000920E-02 0. -1.
</event>
<event>
 5   0  0.1031295E-03  0.1302515E+04  0.7818609E-02  0.9027573E-01
        2   -1    0    0  501    0  0.00000000000E+00  0.00000000000E+00  0.65120637886E+03  0.65120637887E+03  0.25500000920E-02 0.  1.
       -2   -1    0    0    0  501  0.00000000000E+00  0.00000000000E+00 -0.65130825220E+03  0.65130825221E+03  0.25500000920E-02 0. -1.
    10030    2    1    2    0    0  0.00000000000E+00  0.00000000000E+00 -0.10187334177E+00  0.13025146311E+04  0.13025146271E+04 0.  0.
        2    1    3    3  502    0  0.52243223268E+03  0.30222147527E+03  0.24461788223E+03  0.65123817930E+03  0.25500000920E-02 0.  1.
       -2    1    3    3    0  502 -0.52243223268E+03 -0.30222147527E+03 -0.24471975557E+03  0.65127645178E+03  0.25500000920E-02 0. -1.
</event>
<event>
 5   0  0.5710383E-04  0.1290953E+04  0.7818609E-02  0.9036770E-01
       -1   -1    0    0    0  501  0.00000000000E+00  0.00000000000E+00  0.30158176657E+03  0.30158176661E+03  0.50400001928E-02 0.  1.
        1   -1    0    0  501    0  0.00000000000E+00  0.00000000000E+00 -0.13815158429E+04  0.13815158429E+04  0.50400001928E-02 0. -1.
    10030    2    1    2    0    0  0.00000000000E+00  0.00000000000E+00 -0.10799340763E+04  0.16830976095E+04  0.12909531184E+04 0.  0.
        1    1    3    3  502    0 -0.44645937850E+03  0.44404278773E+03 -0.72499131749E+03  0.96026682982E+03  0.50400001928E-02 0. -1.
       -1    1    3    3    0  502  0.44645937850E+03 -0.44404278773E+03 -0.35494275883E+03  0.72283077969E+03  0.50400001928E-02 0.  1.
</event>
<event>
 5   0  0.1081574E-03  0.1299467E+04  0.7818609E-02  0.9029988E-01
       -2   -1    0    0    0  501  0.00000000000E+00  0.00000000000E+00  0.30624503947E+03  0.30624503948E+03  0.25500000920E-02 0. -1.
        2   -1    0    0  501    0  0.00000000000E+00  0.00000000000E+00 -0.13784837554E+04  0.13784837554E+04  0.25500000920E-02 0.  1.
    10030    2    1    2    0    0  0.00000000000E+00  0.00000000000E+00 -0.10722387159E+04  0.16847287949E+04  0.12994672941E+04 0.  0.
        5    1    3    3  502    0  0.77485656688E+02 -0.20115569673E+03  0.25850977150E+03  0.33662595455E+03  0.46999998093E+01 0. -1.
       -5    1    3    3    0  502 -0.77485656688E+02  0.20115569673E+03 -0.13307484874E+04  0.13481028403E+04  0.46999998093E+01 0.  1.
</event>
<event>
 5   0  0.5766027E-04  0.1299768E+04  0.7818609E-02  0.9029749E-01
        1   -1    0    0  501    0  0.00000000000E+00  0.00000000000E+00  0.92673145292E+03  0.92673145293E+03  0.50400001928E-02 0.  1.
       -1   -1    0    0    0  501  0.00000000000E+00  0.00000000000E+00 -0.45574066653E+03  0.45574066655E+03  0.50400001928E-02 0. -1.
    10030    2    1    2    0    0  0.00000000000E+00  0.00000000000E+00  0.47099078640E+03  0.13824721195E+04  0.12997679948E+04 0.  0.
        3    1    3    3  502    0  0.16027686629E+02 -0.47199059249E+03  0.71035248103E+03  0.85301387072E+03  0.10100000352E+00 0.  1.
       -3    1    3    3    0  502 -0.16027686629E+02  0.47199059249E+03 -0.23936169463E+03  0.52945824877E+03  0.10100000352E+00 0. -1.
</event>
<event>
 5   0  0.1103241E-03  0.1288826E+04  0.7818609E-02  0.9038474E-01
        2   -1    0    0  501    0  0.00000000000E+00  0.00000000000E+00  0.16647609027E+04  0.16647609027E+04  0.25500000920E-02 0.  1.
       -2   -1    0    0    0  501  0.00000000000E+00  0.00000000000E+00 -0.24944605396E+03  0.24944605398E+03  0.25500000920E-02 0. -1.
    10030    2    1    2    0    0  0.00000000000E+00  0.00000000000E+00  0.14153148487E+04  0.19142069567E+04  0.12888258812E+04 0.  0.
        4    1    3    3  502    0  0.50181735539E+03  0.31575188437E+03  0.10826501674E+04  0.12343633616E+04  0.12699999809E+01 0.  1.
       -4    1    3    3    0  502 -0.50181735539E+03 -0.31575188437E+03  0.33266468137E+03  0.67984359508E+03  0.12699999809E+01 0. -1.
</event>
<event>
 5   0  0.4012375E-04  0.1296152E+04  0.7818609E-02  0.9032622E-01
       -3   -1    0    0    0  501  0.00000000000E+00  0.00000000000E+00  0.40996408360E+03  0.40996409604E+03  0.10100000352E+00 0. -1.
        3   -1    0    0  501    0  0.00000000000E+00  0.00000000000E+00 -0.10244865910E+04  0.10244865960E+04  0.10100000352E+00 0.  1.
    10030    2    1    2    0    0  0.00000000000E+00  0.00000000000E+00 -0.61452250743E+03  0.14344506921E+04  0.12961523351E+04 0.  0.
        1    1    3    3  502    0 -0.30157830003E+01 -0.51282453898E+03  0.13125509422E+03  0.52936377144E+03  0.50400001928E-02 0. -1.
       -1    1    3    3    0  502  0.30157830003E+01  0.51282453898E+03 -0.74577760165E+03  0.90508692062E+03  0.50400001928E-02 0.  1.
</event>
<event>
 5   0  0.4012375E-04  0.1295121E+04  0.7818609E-02  0.9033443E-01
       -4   -1    0    0    0  501  0.00000000000E+00  0.00000000000E+00  0.10119850535E+04  0.10119858504E+04  0.12699999809E+01 0. -1.
        4   -1    0    0  501    0  0.00000000000E+00  0.00000000000E+00 -0.41436650184E+03  0.41436844806E+03  0.12699999809E+01 0.  1.
    10030    2    1    2    0    0  0.00000000000E+00  0.00000000000E+00  0.59761855164E+03  0.14263542984E+04  0.12951210953E+04 0.  0.
        3    1    3    3  502    0 -0.31131944085E+03 -0.48238419368E+03  0.62869423356E+03  0.85139341910E+03  0.10100000352E+00 0. -1.
       -3    1    3    3    0  502  0.31131944085E+03  0.48238419368E+03 -0.31075681925E+02  0.57496087934E+03  0.10100000352E+00 0.  1.
</event>
<event>
 5   0  0.5710383E-04  0.1307550E+04  0.7818609E-02  0.9023599E-01
        1   -1    0    0  501    0  0.00000000000E+00  0.00000000000E+00  0.11855543411E+04  0.11855543411E+04  0.50400001928E-02 0.  1.
       -1   -1    0    0    0  501  0.00000000000E+00  0.00000000000E+00 -0.36052467574E+03  0.36052467578E+03  0.50400001928E-02 0. -1.
    10030    2    1    2    0    0  0.00000000000E+00  0.00000000000E+00  0.82502966534E+03  0.15460790169E+04  0.13075497611E+04 0.  0.
        1    1    3    3  502    0 -0.20219306376E+03 -0.89000718225E+00 -0.32262505733E+03  0.38074893932E+03  0.50400001928E-02 0. -1.
       -1    1    3    3    0  502  0.20219306376E+03  0.89000718225E+00  0.11476547227E+04  0.11653300776E+04  0.50400001928E-02 0.  1.
</event>
<event>
 5   0  0.5710383E-04  0.1305319E+04  0.7818609E-02  0.9025358E-01
        1   -1    0    0  501    0  0.00000000000E+00  0.00000000000E+00  0.17171304841E+04  0.17171304841E+04  0.50400001928E-02 0. -1.
       -1   -1    0    0    0  501  0.00000000000E+00  0.00000000000E+00 -0.24806755233E+03  0.24806755238E+03  0.50400001928E-02 0.  1.
    10030    2    1    2    0    0  0.00000000000E+00  0.00000000000E+00  0.14690629317E+04  0.19651980364E+04  0.13053188978E+04 0.  0.
        1    1    3    3  502    0 -0.60161126946E+03 -0.64231668431E+02  0.36605286065E+03  0.70714674826E+03  0.50400001928E-02 0.  1.
       -1    1    3    3    0  502  0.60161126946E+03  0.64231668431E+02  0.11030100711E+04  0.12580512882E+04  0.50400001928E-02 0. -1.
</event>
<event>
 5   0  0.5766027E-04  0.1302012E+04  0.7818609E-02  0.9027971E-01
        1   -1    0    0  501    0  0.00000000000E+00  0.00000000000E+00  0.81737432121E+03  0.81737432122E+03  0.50400001928E-02 0.  1.
       -1   -1    0    0    0  501  0.00000000000E+00  0.00000000000E+00 -0.51850002843E+03  0.51850002846E+03  0.50400001928E-02 0. -1.
    10030    2    1    2    0    0  0.00000000000E+00  0.00000000000E+00  0.29887429277E+03  0.13358743497E+04  0.13020116878E+04 0.  0.
        3    1    3    3  502    0  0.61446861152E+03  0.35214796075E+02  0.36707866451E+03  0.71662996906E+03  0.10100000352E+00 0.  1.
       -3    1    3    3    0  502 -0.61446861152E+03 -0.35214796075E+02 -0.68204371742E+02  0.61924438062E+03  0.10100000352E+00 0. -1.
</event>
<event>
 5   0  0.1103241E-03  0.1302685E+04  0.7818609E-02  0.9027439E-01
       -2   -1    0    0    0  501  0.00000000000E+00  0.00000000000E+00  0.21402767447E+03  0.21402767448E+03  0.25500000920E-02 0.  1.
        2   -1    0    0  501    0  0.00000000000E+00  0.00000000000E+00 -0.19822051779E+04  0.19822051779E+04  0.25500000920E-02 0. -1.
    10030    2    1    2    0    0  0.00000000000E+00  0.00000000000E+00 -0.17681775035E+04  0.21962328524E+04  0.13026845582E+04 0.  0.
        4    1    3    3  502    0 -0.38590905961E+02 -0.55073374157E+03 -0.30141024947E+03  0.62900450198E+03  0.12699999809E+01 0.  1.
       -4    1    3    3    0  502  0.38590905961E+02  0.55073374157E+03 -0.14667672540E+04  0.15672283504E+04  0.12699999809E+01 0. -1.
</event>
<event>
 5   0  0.1101619E-03  0.1316322E+04  0.7818609E-02  0.9016721E-01
        2   -1    0    0  501    0  0.00000000000E+00  0.00000000000E+00  0.42375256940E+03  0.42375256941E+03  0.25500000920E-02 0.  1.
       -2   -1    0    0    0  501  0.00000000000E+00  0.00000000000E+00 -0.10222377704E+04  0.10222377704E+04  0.25500000920E-02 0. -1.
    10030    2    1    2    0    0  0.00000000000E+00  0.00000000000E+00 -0.59848520098E+03  0.14459903398E+04  0.13163219693E+04 0.  0.
        1    1    3    3  502    0  0.60236343661E+03 -0.56407464447E+02 -0.58390750918E+03  0.84081596745E+03  0.50400001928E-02 0. -1.
       -1    1    3    3    0  502 -0.60236343661E+03  0.56407464447E+02 -0.14577691797E+02  0.60517437234E+03  0.50400001928E-02 0.  1.
</event>
<event>
 5   0  0.4012375E-04  0.1298904E+04  0.7818609E-02  0.9030434E-01
       -4   -1    0    0    0  501  0.00000000000E+00  0.00000000000E+00  0.39551674469E+03  0.39551878366E+03  0.12699999809E+01 0. -1.
        4   -1    0    0  501    0  0.00000000000E+00  0.00000000000E+00 -0.10664177875E+04  0.10664185437E+04  0.12699999809E+01 0.  1.
    10030    2    1    2    0    0  0.00000000000E+00  0.00000000000E+00 -0.67090104278E+03  0.14619373274E+04  0.12989043613E+04 0.  0.
        3    1    3    3  502    0  0.49555407688E+03  0.41168947058E+03 -0.24314408255E+03  0.68860810217E+03  0.10100000352E+00 0. -1.
       -3    1    3    3    0  502 -0.49555407688E+03 -0.41168947058E+03 -0.42775696023E+03  0.77332922519E+03  0.10100000352E+00 0.  1.
</event>
<event>
 5   0  0.5563545E-04  0.1309788E+04  0.7818609E-02  0.9021839E-01
        1   -1    0    0  501    0  0.00000000000E+00  0.00000000000E+00  0.87660131226E+03  0.87660131228E+03  0.50400001928E-02 0.  1.
       -1   -1    0    0    0  501  0.00000000000E+00  0.00000000000E+00 -0.48926058830E+03  0.48926058833E+03  0.50400001928E-02 0. -1.
    10030    2    1    2    0    0  0.00000000000E+00  0.00000000000E+00  0.38734072396E+03  0.13658619006E+04  0.13097884925E+04 0.  0.
        2    1    3    3  502    0 -0.25945702549E+03  0.59541296347E+03  0.10609951010E+03  0.65809699224E+03  0.25500000920E-02 0.  1.
       -2    1    3    3    0  502  0.25945702549E+03 -0.59541296347E+03  0.28124121386E+03  0.70776490837E+03  0.25500000920E-02 0. -1.
</event>
<event>
 5   0  0.5812938E-04  0.1295566E+04  0.7818609E-02  0.9033088E-01
        1   -1    0    0  501    0  0.00000000000E+00  0.00000000000E+00  0.72242366914E+03  0.72242366915E+03  0.50400001928E-02 0. -1.
       -1   -1    0    0    0  501  0.00000000000E+00  0.00000000000E+00 -0.58085454898E+03  0.58085454900E+03  0.50400001928E-02 0.  1.
    10030    2    1    2    0    0  0.00000000000E+00  0.00000000000E+00  0.14156912016E+03  0.13032782182E+04  0.12955664005E+04 0.  0.
        5    1    3    3  502    0  0.59592021704E+03 -0.25061499523E+03  0.11192055834E+03  0.65610752342E+03  0.46999998093E+01 0.  1.
       -5    1    3    3    0  502 -0.59592021704E+03  0.25061499523E+03  0.29648561825E+02  0.64717069473E+03  0.46999998093E+01 0. -1.
</event>
<event>
 5   0  0.1103241E-03  0.1342968E+04  0.7818609E-02  0.8996168E-01
       -2   -1    0    0    0  501  0.00000000000E+00  0.00000000000E+00  0.64872609292E+03  0.64872609293E+03  0.25500000920E-02 0. -1.
        2   -1    0    0  501    0  0.00000000000E+00  0.00000000000E+00 -0.69504031772E+03  0.69504031772E+03  0.25500000920E-02 0.  1.
    10030    2    1    2    0    0  0.00000000000E+00  0.00000000000E+00 -0.46314224798E+02  0.13437664106E+04  0.13429680409E+04 0.  0.
        4    1    3    3  502    0 -0.40760334612E+03  0.45803482060E+03  0.25078071774E+03  0.66244166984E+03  0.12699999809E+01 0. -1.
       -4    1    3    3    0  502  0.40760334612E+03 -0.45803482060E+03 -0.29709494254E+03  0.68132474081E+03  0.12699999809E+01 0.  1.
</event>
<event>
 5   0  0.5766027E-04  0.1300574E+04  0.7818609E-02  0.9029110E-01
        1   -1    0    0  501    0  0.00000000000E+00  0.00000000000E+00  0.49024611739E+03  0.49024611742E+03  0.50400001928E-02 0.  1.
       -1   -1    0    0    0  501  0.00000000000E+00  0.00000000000E+00 -0.86257309647E+03  0.86257309649E+03  0.50400001928E-02 0. -1.
    10030    2    1    2    0    0  0.00000000000E+00  0.00000000000E+00 -0.37232697908E+03  0.13528192139E+04  0.13005738911E+04 0.  0.
        3    1    3    3  502    0 -0.12841165429E+03 -0.36402938744E+03  0.35818110237E+03  0.52659344866E+03  0.10100000352E+00 0.  1.
       -3    1    3    3    0  502  0.12841165429E+03  0.36402938744E+03 -0.73050808145E+03  0.82622576524E+03  0.10100000352E+00 0. -1.
</event>
<event>
 5   0  0.1103241E-03  0.1305555E+04  0.7818609E-02  0.9025171E-01
       -2   -1    0    0    0  501  0.00000000000E+00  0.00000000000E+00  0.73429157631E+03  0.73429157631E+03  0.25500000920E-02 0.  1.
        2   -1    0    0  501    0  0.00000000000E+00  0.00000000000E+00 -0.58031248215E+03  0.58031248216E+03  0.25500000920E-02 0. -1.
    10030    2    1    2    0    0  0.00000000000E+00  0.00000000000E+00  0.15397909416E+03  0.13146040585E+04  0.13055551574E+04 0.  0.
        4    1    3    3  502    0  0.21534903534E+03 -0.56213562451E+03  0.33121778328E+03  0.68707968987E+03  0.12699999809E+01 0.  1.
       -4    1    3    3    0  502 -0.21534903534E+03  0.56213562451E+03 -0.17723868912E+03  0.62752436860E+03  0.12699999809E+01 0. -1.
</event>
<event>
 5   0  0.5710383E-04  0.1301606E+04  0.7818609E-02  0.9028293E-01
        1   -1    0    0  501    0  0.00000000000E+00  0.00000000000E+00  0.20557553167E+04  0.20557553167E+04  0.50400001928E-02 0. -1.
       -1   -1    0    0    0  501  0.00000000000E+00  0.00000000000E+00 -0.20602867993E+03  0.20602868000E+03  0.50400001928E-02 0.  1.
    10030    2    1    2    0    0  0.00000000000E+00  0.00000000000E+00  0.18497266367E+04  0.22617839967E+04  0.13016060145E+04 0.  0.
        1    1    3    3  502    0  0.22829304453E+03 -0.60929714101E+03  0.90130281970E+03  0.11116238091E+04  0.50400001928E-02 0. -1.
       -1    1    3    3    0  502 -0.22829304453E+03  0.60929714101E+03  0.94842381702E+03  0.11501601875E+04  0.50400001928E-02 0.  1.
</event>
<event>
 5   0  0.5710383E-04  0.1294351E+04  0.7818609E-02  0.9034057E-01
        1   -1    0    0  501    0  0.00000000000E+00  0.00000000000E+00  0.42066971206E+03  0.42066971209E+03  0.50400001928E-02 0. -1.
       -1   -1    0    0    0  501  0.00000000000E+00  0.00000000000E+00 -0.99564180467E+03  0.99564180469E+03  0.50400001928E-02 0.  1.
    10030    2    1    2    0    0  0.00000000000E+00  0.00000000000E+00 -0.57497209261E+03  0.14163115168E+04  0.12943513454E+04 0.  0.
        1    1    3    3  502    0 -0.15892667495E+03  0.16782783046E+03  0.37396589687E+03  0.43962979964E+03  0.50400001928E-02 0. -1.
       -1    1    3    3    0  502  0.15892667495E+03 -0.16782783046E+03 -0.94893798948E+03  0.97668171714E+03  0.50400001928E-02 0.  1.
</event>
<event>
 5   0  0.1103241E-03  0.1256921E+04  0.7818609E-02  0.9064443E-01
       -2   -1    0    0    0  501  0.00000000000E+00  0.00000000000E+00  0.45750429092E+03  0.45750429092E+03  0.25500000920E-02 0.  1.
        2   -1    0    0  501    0  0.00000000000E+00  0.00000000000E+00 -0.86329809534E+03  0.86329809535E+03  0.25500000920E-02 0. -1.
    10030    2    1    2    0    0  0.00000000000E+00  0.00000000000E+00 -0.40579380443E+03  0.13208023863E+04  0.12569209728E+04 0.  0.
        4    1    3    3  502    0  0.95988617246E+02 -0.28446484158E+03  0.37727477470E+03  0.48215342917E+03  0.12699999809E+01 0.  1.
       -4    1    3    3    0  502 -0.95988617246E+02  0.28446484158E+03 -0.78306857912E+03  0.83864895710E+03  0.12699999809E+01 0. -1.
</event>
<event>
 5   0  0.1101619E-03  0.1312728E+04  0.7818609E-02  0.9019532E-01
       -2   -1    0    0    0  501  0.00000000000E+00  0.00000000000E+00  0.32815581063E+03  0.32815581064E+03  0.25500000920E-02 0. -1.
        2   -1    0    0  501    0  0.00000000000E+00  0.00000000000E+00 -0.13128332424E+04  0.13128332424E+04  0.25500000920E-02 0.  1.
    10030    2    1    2    0    0  0.00000000000E+00  0.00000000000E+00 -0.98467743178E+03  0.16409890530E+04  0.13127282383E+04 0.  0.
        1    1    3    3  502    0 -0.24208410740E+03 -0.78177171849E+02  0.26402244745E+03  0.36663911144E+03  0.50400001928E-02 0. -1.
       -1    1    3    3    0  502  0.24208410740E+03  0.78177171849E+02 -0.12486998792E+04  0.12743499416E+04  0.50400001928E-02 0.  1.
</event>
<event>
 5   0  0.1031295E-03  0.1308453E+04  0.7818609E-02  0.9022889E-01
        2   -1    0    0  501    0  0.00000000000E+00  0.00000000000E+00  0.13722257395E+04  0.13722257395E+04  0.25500000920E-02 0.  1.
       -2   -1    0    0    0  501  0.00000000000E+00  0.00000000000E+00 -0.31191086164E+03  0.31191086165E+03  0.25500000920E-02 0. -1.
    10030    2    1    2    0    0  0.00000000000E+00  0.00000000000E+00  0.10603148779E+04  0.16841366012E+04  0.13084526935E+04 0.  0.
        2    1    3    3  502    0 -0.35607261059E+03  0.25700756554E+03 -0.94025152569E+02  0.44908943662E+03  0.25500000920E-02 0. -1.
       -2    1    3    3    0  502  0.35607261059E+03 -0.25700756554E+03  0.11543400304E+04  0.12350471645E+04  0.25500000920E-02 0.  1.
</event>
<event>
 5   0  0.1103241E-03  0.1300045E+04  0.7818609E-02  0.9029530E-01
       -2   -1    0    0    0  501  0.00000000000E+00  0.00000000000E+00  0.15452586663E+04  0.15452586663E+04  0.25500000920E-02 0.  1.
        2   -1    0    0  501    0  0.00000000000E+00  0.00000000000E+00 -0.27343578556E+03  0.27343578557E+03  0.25500000920E-02 0. -1.
    10030    2    1    2    0    0  0.00000000000E+00  0.00000000000E+00  0.12718228808E+04  0.18186944519E+04  0.13000446413E+04 0.  0.
        4    1    3    3  502    0 -0.64166881243E+03 -0.52027541823E+02  0.51014865346E+03  0.82140062788E+03  0.12699999809E+01 0.  1.
       -4    1    3    3    0  502  0.64166881243E+03  0.52027541823E+02  0.76167422730E+03  0.99729382400E+03  0.12699999809E+01 0. -1.
</event>
<event>
 5   0  0.5710383E-04  0.1301328E+04  0.7818609E-02  0.9028513E-01
       -1   -1    0    0    0  501  0.00000000000E+00  0.00000000000E+00  0.24335148457E+03  0.24335148462E+03  0.50400001928E-02 0.  1.
        1   -1    0    0  501    0  0.00000000000E+00  0.00000000000E+00 -0.17397203100E+04  0.17397203100E+04  0.50400001928E-02 0. -1.
    10030    2    1    2    0    0  0.00000000000E+00  0.00000000000E+00 -0.14963688254E+04  0.19830717946E+04  0.13013278145E+04 0.  0.
        1    1    3    3  502    0 -0.14571083056E+03  0.46440090626E+03 -0.90149643115E+02  0.49500182429E+03  0.50400001928E-02 0.  1.
       -1    1    3    3    0  502  0.14571083056E+03 -0.46440090626E+03 -0.14062191823E+04  0.14880699703E+04  0.50400001928E-02 0. -1.
</event>
<event>
 5   0  0.5766027E-04  0.1310402E+04  0.7818609E-02  0.9021357E-01
       -1   -1    0    0    0  501  0.00000000000E+00  0.00000000000E+00  0.48524934253E+03  0.48524934256E+03  0.50400001928E-02 0.  1.
        1   -1    0    0  501    0  0.00000000000E+00  0.00000000000E+00 -0.88467578201E+03  0.88467578202E+03  0.50400001928E-02 0. -1.
    10030    2    1    2    0    0  0.00000000000E+00  0.00000000000E+00 -0.39942643947E+03  0.13699251246E+04  0.13104019866E+04 0.  0.
        3    1    3    3  502    0 -0.18089622920E+03  0.13336278066E+03  0.44369318593E+03  0.49736579139E+03  0.10100000352E+00 0.  1.
       -3    1    3    3    0  502  0.18089622920E+03 -0.13336278066E+03 -0.84311962540E+03  0.87255933319E+03  0.10100000352E+00 0. -1.
</event>
<event>
 5   0  0.1031295E-03  0.1300534E+04  0.7818609E-02  0.9029142E-01
       -2   -1    0    0    0  501  0.00000000000E+00  0.00000000000E+00  0.38653275367E+03  0.38653275368E+03  0.25500000920E-02 0. -1.
        2   -1    0    0  501    0  0.00000000000E+00  0.00000000000E+00 -0.10939495544E+04  0.10939495544E+04  0.25500000920E-02 0.  1.
    10030    2    1    2    0    0  0.00000000000E+00  0.00000000000E+00 -0.70741680076E+03  0.14804823081E+04  0.13005342497E+04 0.  0.
        2    1    3    3  502    0  0.14886005528E+03  0.17871641349E+02  0.36658833212E+03  0.39606276886E+03  0.25500000920E-02 0. -1.
       -2    1    3    3    0  502 -0.14886005528E+03 -0.17871641349E+02 -0.10740051329E+04  0.10844195392E+04  0.25500000920E-02 0.  1.
</event>
<event>
 5   0  0.5563545E-04  0.1294956E+04  0.7818609E-02  0.9033574E-01
       -1   -1    0    0    0  501  0.00000000000E+00  0.00000000000E+00  0.69753407100E+03  0.69753407102E+03  0.50400001928E-02 0.  1.
        1   -1    0    0  501    0  0.00000000000E+00  0.00000000000E+00 -0.60101448002E+03  0.60101448004E+03  0.50400001928E-02 0. -1.
    10030    2    1    2    0    0  0.00000000000E+00  0.00000000000E+00  0.96519590979E+02  0.12985485511E+04  0.12949564889E+04 0.  0.
        2    1    3    3  502    0 -0.37699626193E+02 -0.57630012386E+03 -0.24527214919E+03  0.62745639031E+03  0.25500000920E-02 0. -1.
       -2    1    3    3    0  502  0.37699626193E+02  0.57630012386E+03  0.34179174016E+03  0.67109216075E+03  0.25500000920E-02 0.  1.
</event>
<event>
 5   0  0.6006119E-04  0.1298322E+04  0.7818609E-02  0.9030897E-01
        1   -1    0    0  501    0  0.00000000000E+00  0.00000000000E+00  0.87840721877E+03  0.87840721878E+03  0.50400001928E-02 0. -1.
       -1   -1    0    0    0  501  0.00000000000E+00  0.00000000000E+00 -0.47974297640E+03  0.47974297643E+03  0.50400001928E-02 0.  1.
    10030    2    1    2    0    0  0.00000000000E+00  0.00000000000E+00  0.39866424236E+03  0.13581501952E+04  0.12983215220E+04 0.  0.
        4    1    3    3  502    0 -0.16708738029E+03  0.54969344917E+03 -0.11679746291E+03  0.58628008747E+03  0.12699999809E+01 0.  1.
       -4    1    3    3    0  502  0.16708738029E+03 -0.54969344917E+03  0.51546170527E+03  0.77187010774E+03  0.12699999809E+01 0. -1.
</event>
<event>
 5   0  0.6006119E-04  0.1315487E+04  0.7818609E-02  0.9017373E-01
        1   -1    0    0  501    0  0.00000000000E+00  0.00000000000E+00  0.71365031336E+03  0.71365031338E+03  0.50400001928E-02 0.  1.
       -1   -1    0    0    0  501  0.00000000000E+00  0.00000000000E+00 -0.60621684336E+03  0.60621684338E+03  0.50400001928E-02 0. -1.
    10030    2    1    2    0    0  0.00000000000E+00  0.00000000000E+00  0.10743347000E+03  0.13198671568E+04  0.13154874994E+04 0.  0.
        4    1    3    3  502    0  0.72899365092E+02 -0.60508009709E+03 -0.19447089099E+03  0.63973180448E+03  0.12699999809E+01 0. -1.
       -4    1    3    3    0  502 -0.72899365092E+02  0.60508009709E+03  0.30190436100E+03  0.68013535227E+03  0.12699999809E+01 0.  1.
</event>
<event>
 5   0  0.1031295E-03  0.1368453E+04  0.7818609E-02  0.8976976E-01
       -2   -1    0    0    0  501  0.00000000000E+00  0.00000000000E+00  0.53716287406E+03  0.53716287406E+03  0.25500000920E-02 0.  1.
        2   -1    0    0  501    0  0.00000000000E+00  0.00000000000E+00 -0.87155248012E+03  0.87155248012E+03  0.25500000920E-02 0. -1.
    10030    2    1    2    0    0  0.00000000000E+00  0.00000000000E+00 -0.33438960606E+03  0.14087153542E+04  0.13684526081E+04 0.  0.
        2    1    3    3  502    0  0.58124226212E+03  0.25703502243E+03 -0.42814074648E+03  0.76629894221E+03  0.25500000920E-02 0. -1.
       -2    1    3    3    0  502 -0.58124226212E+03 -0.25703502243E+03  0.93751140417E+02  0.64241641197E+03  0.25500000920E-02 0.  1.
</event>
<event>
 5   0  0.5710383E-04  0.1292339E+04  0.7818609E-02  0.9035662E-01
        1   -1    0    0  501    0  0.00000000000E+00  0.00000000000E+00  0.39483759798E+03  0.39483759801E+03  0.50400001928E-02 0. -1.
       -1   -1    0    0    0  501  0.00000000000E+00  0.00000000000E+00 -0.10574860343E+04  0.10574860343E+04  0.50400001928E-02 0.  1.
    10030    2    1    2    0    0  0.00000000000E+00  0.00000000000E+00 -0.66264843630E+03  0.14523236323E+04  0.12923393451E+04 0.  0.
        1    1    3    3  502    0 -0.49831087795E+03 -0.21522812273E+03 -0.72529126659E+03  0.90591627500E+03  0.50400001928E-02 0.  1.
       -1    1    3    3    0  502  0.49831087795E+03  0.21522812273E+03  0.62642830285E+02  0.54640735730E+03  0.50400001928E-02 0. -1.
</event>
<event>
 5   0  0.1031295E-03  0.1263976E+04  0.7818609E-02  0.9058631E-01
       -2   -1    0    0    0  501  0.00000000000E+00  0.00000000000E+00  0.61045143952E+03  0.61045143952E+03  0.25500000920E-02 0. -1.
        2   -1    0    0  501    0  0.00000000000E+00  0.00000000000E+00 -0.65428412872E+03  0.65428412872E+03  0.25500000920E-02 0.  1.
    10030    2    1    2    0    0  0.00000000000E+00  0.00000000000E+00 -0.43832689198E+02  0.12647355682E+04  0.12639757723E+04 0.  0.
        2    1    3    3  502    0  0.30385207600E+03  0.46882510427E+03  0.27370265824E+03  0.62212234136E+03  0.25500000920E-02 0. -1.
       -2    1    3    3    0  502 -0.30385207600E+03 -0.46882510427E+03 -0.31753534744E+03  0.64261322688E+03  0.25500000920E-02 0.  1.
</event>
<event>
 5   0  0.1031295E-03  0.1294902E+04  0.7818609E-02  0.9033618E-01
        2   -1    0    0  501    0  0.00000000000E+00  0.00000000000E+00  0.78562194549E+03  0.78562194549E+03  0.25500000920E-02 0. -1.
       -2   -1    0    0    0  501  0.00000000000E+00  0.00000000000E+00 -0.53358046810E+03  0.53358046811E+03  0.25500000920E-02 0.  1.
    10030    2    1    2    0    0  0.00000000000E+00  0.00000000000E+00  0.25204147739E+03  0.13192024136E+04  0.12949015799E+04 0.  0.
        2    1    3    3  502    0 -0.37775702047E+03 -0.22531084746E+03  0.61004441434E+03  0.75207681255E+03  0.25500000920E-02 0. -1.
       -2    1    3    3    0  502  0.37775702047E+03  0.22531084746E+03 -0.35800293695E+03  0.56712560105E+03  0.25500000920E-02 0.  1.
</event>
<event>
 5   0  0.1031295E-03  0.1295136E+04  0.7818609E-02  0.9033432E-01
        2   -1    0    0  501    0  0.00000000000E+00  0.00000000000E+00  0.91213355935E+03  0.91213355935E+03  0.25500000920E-02 0.  1.
       -2   -1    0    0    0  501  0.00000000000E+00  0.00000000000E+00 -0.45973981079E+03  0.45973981080E+03  0.25500000920E-02 0. -1.
    10030    2    1    2    0    0  0.00000000000E+00  0.00000000000E+00  0.45239374856E+03  0.13718733702E+04  0.12951356840E+04 0.  0.
        2    1    3    3  502    0  0.30008989039E+03  0.48783837724E+03  0.54626570707E+03  0.79148369999E+03  0.25500000920E-02 0.  1.
       -2    1    3    3    0  502 -0.30008989039E+03 -0.48783837724E+03 -0.93871958512E+02  0.58038967016E+03  0.25500000920E-02 0. -1.
</event>
<event>
 5   0  0.1101619E-03  0.1304953E+04  0.7818609E-02  0.9025646E-01
        2   -1    0    0  501    0  0.00000000000E+00  0.00000000000E+00  0.22976235306E+04  0.22976235306E+04  0.25500000920E-02 0.  1.
       -2   -1    0    0    0  501  0.00000000000E+00  0.00000000000E+00 -0.18528961394E+03  0.18528961395E+03  0.25500000920E-02 0. -1.
    10030    2    1    2    0    0  0.00000000000E+00  0.00000000000E+00  0.21123339166E+04  0.24829131445E+04  0.13049532972E+04 0.  0.
        1    1    3    3  502    0  0.27184887209E+03  0.31735305253E+03  0.10271364112E+03  0.43030786805E+03  0.50400001928E-02 0. -1.
       -1    1    3    3    0  502 -0.27184887209E+03 -0.31735305253E+03  0.20096202755E+04  0.20526052765E+04  0.50400001928E-02 0.  1.
</event>
<event>
 5   0  0.5563545E-04  0.1296738E+04  0.7818609E-02  0.9032156E-01
        1   -1    0    0  501    0  0.00000000000E+00  0.00000000000E+00  0.38855708030E+03  0.38855708033E+03  0.50400001928E-02 0. -1.
       -1   -1    0    0    0  501  0.00000000000E+00  0.00000000000E+00 -0.10819060944E+04  0.10819060944E+04  0.50400001928E-02 0.  1.
    10030    2    1    2    0    0  0.00000000000E+00  0.00000000000E+00 -0.69334901413E+03  0.14704631748E+04  0.12967378659E+04 0.  0.
        2    1    3    3  502    0 -0.32633256268E+03 -0.25503329140E+03 -0.91235144309E+03  0.10019581213E+04  0.25500000920E-02 0.  1.
       -2    1    3    3    0  502  0.32633256268E+03  0.25503329140E+03  0.21900242896E+03  0.46850505343E+03  0.25500000920E-02 0. -1.
</event>
<event>
 5   0  0.1103241E-03  0.1297240E+04  0.7818609E-02  0.9031757E-01
       -2   -1    0    0    0  501  0.00000000000E+00  0.00000000000E+00  0.10702021190E+04  0.10702021190E+04  0.25500000920E-02 0. -1.
        2   -1    0    0  501    0  0.00000000000E+00  0.00000000000E+00 -0.39311043189E+03  0.39311043190E+03  0.25500000920E-02 0.  1.
    10030    2    1    2    0    0  0.00000000000E+00  0.00000000000E+00  0.67709168708E+03  0.14633125509E+04  0.12972395572E+04 0.  0.
        4    1    3    3  502    0  0.59792676065E+03  0.17995335935E+03  0.53653311024E+03  0.82326727976E+03  0.12699999809E+01 0. -1.
       -4    1    3    3    0  502 -0.59792676065E+03 -0.17995335935E+03  0.14055857684E+03  0.64004527111E+03  0.12699999809E+01 0.  1.
</event>
<event>
 5   0  0.1081574E-03  0.1274334E+04  0.7818609E-02  0.9050170E-01
        2   -1    0    0  501    0  0.00000000000E+00  0.00000000000E+00  0.38961935146E+03  0.38961935147E+03  0.25500000920E-02 0. -1.
       -2   -1    0    0    0  501  0.00000000000E+00  0.00000000000E+00 -0.10419963438E+04  0.10419963438E+04  0.25500000920E-02 0.  1.
    10030    2    1    2    0    0  0.00000000000E+00  0.00000000000E+00 -0.65237699232E+03  0.14316156953E+04  0.12743342414E+04 0.  0.
        5    1    3    3  502    0  0.18040166285E+03  0.31114733416E+03 -0.91703013061E+03  0.98505013779E+03  0.46999998093E+01 0.  1.
       -5    1    3    3    0  502 -0.18040166285E+03 -0.31114733416E+03  0.26465313828E+03  0.44656555747E+03  0.46999998093E+01 0. -1.
</event>
<event>
 5   0  0.5766027E-04  0.1298673E+04  0.7818609E-02  0.9030618E-01
       -1   -1    0    0    0  501  0.00000000000E+00  0.00000000000E+00  0.47619312084E+03  0.47619312086E+03  0.50400001928E-02 0.  1.
        1   -1    0    0  501    0  0.00000000000E+00  0.00000000000E+00 -0.88543521706E+03  0.88543521707E+03  0.50400001928E-02 0. -1.
    10030    2    1    2    0    0  0.00000000000E+00  0.00000000000E+00 -0.40924209622E+03  0.13616283379E+04  0.12986734144E+04 0.  0.
        3    1    3    3  502    0 -0.44798447221E+03 -0.35349283545E+02  0.28682083585E+03  0.53310961468E+03  0.10100000352E+00 0.  1.
       -3    1    3    3    0  502  0.44798447221E+03  0.35349283545E+02 -0.69606293207E+03  0.82851872326E+03  0.10100000352E+00 0. -1.
</event>
<event>
 5   0  0.1081574E-03  0.1293319E+04  0.7818609E-02  0.9034880E-01
        2   -1    0    0  501    0  0.00000000000E+00  0.00000000000E+00  0.93889294199E+03  0.93889294199E+03  0.25500000920E-02 0. -1.
       -2   -1    0    0    0  501  0.00000000000E+00  0.00000000000E+00 -0.44538439389E+03  0.44538439390E+03  0.25500000920E-02 0.  1.
    10030    2    1    2    0    0  0.00000000000E+00  0.00000000000E+00  0.49350854809E+03  0.13842773359E+04  0.12933186211E+04 0.  0.
        5    1    3    3  502    0  0.28486183699E+02  0.14784440429E+03 -0.42634334220E+03  0.45217271697E+03  0.46999998093E+01 0.  1.
       -5    1    3    3    0  502 -0.28486183699E+02 -0.14784440429E+03  0.91985189029E+03  0.93210461892E+03  0.46999998093E+01 0. -1.
</event>
<event>
 5   0  0.5812938E-04  0.1309605E+04  0.7818609E-02  0.9021983E-01
       -1   -1    0    0    0  501  0.00000000000E+00  0.00000000000E+00  0.49308210206E+03  0.49308210209E+03  0.50400001928E-02 0. -1.
        1   -1    0    0  501    0  0.00000000000E+00  0.00000000000E+00 -0.86956417779E+03  0.86956417781E+03  0.50400001928E-02 0.  1.
    10030    2    1    2    0    0  0.00000000000E+00  0.00000000000E+00 -0.37648207573E+03  0.13626462799E+04  0.13096053340E+04 0.  0.
        5    1    3    3  502    0  0.21673683057E+03  0.40740424711E+03  0.29510674873E+03  0.54778020905E+03  0.46999998093E+01 0. -1.
       -5    1    3    3    0  502 -0.21673683057E+03 -0.40740424711E+03 -0.67158882445E+03  0.81486607084E+03  0.46999998093E+01 0.  1.
</event>
<event>
 5   0  0.1081574E-03  0.1296589E+04  0.7818609E-02  0.9032274E-01
        2   -1    0    0  501    0  0.00000000000E+00  0.00000000000E+00  0.17883050959E+04  0.17883050959E+04  0.25500000920E-02 0. -1.
       -2   -1    0    0    0  501  0.00000000000E+00  0.00000000000E+00 -0.23501922770E+03  0.23501922771E+03  0.25500000920E-02 0.  1.
    10030    2    1    2    0    0  0.00000000000E+00  0.00000000000E+00  0.15532858682E+04  0.20233243236E+04  0.12965894995E+04 0.  0.
        5    1    3    3  502    0  0.49280351352E+03  0.18092935827E+03  0.13701926912E+04  0.14673243802E+04  0.46999998093E+01 0. -1.
       -5    1    3    3    0  502 -0.49280351352E+03 -0.18092935827E+03  0.18309317695E+03  0.55599994340E+03  0.46999998093E+01 0.  1.
</event>
<event>
 5   0  0.1031295E-03  0.1298568E+04  0.7818609E-02  0.9030702E-01
        2   -1    0    0  501    0  0.00000000000E+00  0.00000000000E+00  0.80687883179E+03  0.80687883179E+03  0.25500000920E-02 0. -1.
       -2   -1    0    0    0  501  0.00000000000E+00  0.00000000000E+00 -0.52246965024E+03  0.52246965025E+03  0.25500000920E-02 0.  1.
    10030    2    1    2    0    0  0.00000000000E+00  0.00000000000E+00  0.28440918155E+03  0.13293484820E+04  0.12985679821E+04 0.  0.
        2    1    3    3  502    0 -0.24172360198E+03 -0.39325999143E+03 -0.32522110327E+03  0.56467024593E+03  0.25500000920E-02 0.  1.
       -2    1    3    3    0  502  0.24172360198E+03  0.39325999143E+03  0.60963028482E+03  0.76467823612E+03  0.25500000920E-02 0. -1.
</event>
<event>
 5   0  0.5710383E-04  0.1279831E+04  0.7818609E-02  0.9045714E-01
       -1   -1    0    0    0  501  0.00000000000E+00  0.00000000000E+00  0.51522331497E+03  0.51522331499E+03  0.50400001928E-02 0. -1.
        1   -1    0    0  501    0  0.00000000000E+00  0.00000000000E+00 -0.79478457123E+03  0.79478457125E+03  0.50400001928E-02 0.  1.
    10030    2    1    2    0    0  0.00000000000E+00  0.00000000000E+00 -0.27956125626E+03  0.13100078862E+04  0.12798305224E+04 0.  0.
        1    1    3    3  502    0  0.37469856991E+03 -0.50043982263E+03  0.13861845055E-01  0.62517120421E+03  0.50400001928E-02 0. -1.
       -1    1    3    3    0  502 -0.37469856991E+03  0.50043982263E+03 -0.27957511811E+03  0.68483668203E+03  0.50400001928E-02 0.  1.
</event>
<event>
 5   0  0.5710383E-04  0.1294669E+04  0.7818609E-02  0.9033804E-01
       -1   -1    0    0    0  501  0.00000000000E+00  0.00000000000E+00  0.66652243880E+03  0.66652243881E+03  0.50400001928E-02 0. -1.
        1   -1    0    0  501    0  0.00000000000E+00  0.00000000000E+00 -0.62869874913E+03  0.62869874915E+03  0.50400001928E-02 0.  1.
    10030    2    1    2    0    0  0.00000000000E+00  0.00000000000E+00  0.37823689666E+02  0.12952211880E+04  0.12946687971E+04 0.  0.
        1    1    3    3  502    0 -0.70635764874E+01  0.64509106518E+03 -0.34491142815E+02  0.64605109353E+03  0.50400001928E-02 0. -1.
       -1    1    3    3    0  502  0.70635764874E+01 -0.64509106518E+03  0.72314832481E+02  0.64917009444E+03  0.50400001928E-02 0.  1.
</event>
<event>
 5   0  0.1103241E-03  0.1268922E+04  0.7818609E-02  0.9054580E-01
       -2   -1    0    0    0  501  0.00000000000E+00  0.00000000000E+00  0.27116243914E+03  0.27116243916E+03  0.25500000920E-02 0. -1.
        2   -1    0    0  501    0  0.00000000000E+00  0.00000000000E+00 -0.14845008450E+04  0.14845008450E+04  0.25500000920E-02 0.  1.
    10030    2    1    2    0    0  0.00000000000E+00  0.00000000000E+00 -0.12133384059E+04  0.17556632842E+04  0.12689221726E+04 0.  0.
        4    1    3    3  502    0  0.28126218452E+03  0.55176923971E+03 -0.41604763342E+03  0.74609312857E+03  0.12699999809E+01 0. -1.
       -4    1    3    3    0  502 -0.28126218452E+03 -0.55176923971E+03 -0.79729077244E+03  0.10095701556E+04  0.12699999809E+01 0.  1.
</event>
<event>
 5   0  0.1103241E-03  0.1285998E+04  0.7818609E-02  0.9040743E-01
        2   -1    0    0  501    0  0.00000000000E+00  0.00000000000E+00  0.11054993087E+04  0.11054993087E+04  0.25500000920E-02 0.  1.
       -2   -1    0    0    0  501  0.00000000000E+00  0.00000000000E+00 -0.37399209748E+03  0.37399209749E+03  0.25500000920E-02 0. -1.
    10030    2    1    2    0    0  0.00000000000E+00  0.00000000000E+00  0.73150721124E+03  0.14794914062E+04  0.12859984529E+04 0.  0.
        4    1    3    3  502    0  0.34910896168E+03 -0.53997117196E+03  0.36653275695E+03  0.74013094010E+03  0.12699999809E+01 0.  1.
       -4    1    3    3    0  502 -0.34910896168E+03  0.53997117196E+03  0.36497445429E+03  0.73936046611E+03  0.12699999809E+01 0. -1.
</event>
<event>
 5   0  0.1101619E-03  0.1295386E+04  0.7818609E-02  0.9033232E-01
       -2   -1    0    0    0  501  0.00000000000E+00  0.00000000000E+00  0.17338248454E+03  0.17338248456E+03  0.25500000920E-02 0.  1.
        2   -1    0    0  501    0  0.00000000000E+00  0.00000000000E+00 -0.24195432770E+04  0.24195432770E+04  0.25500000920E-02 0. -1.
    10030    2    1    2    0    0  0.00000000000E+00  0.00000000000E+00 -0.22461607924E+04  0.25929257615E+04  0.12953863128E+04 0.  0.
        1    1    3    3  502    0  0.63392786437E+03  0.12886139956E+03 -0.10586334864E+04  0.12406347795E+04  0.50400001928E-02 0. -1.
       -1    1    3    3    0  502 -0.63392786437E+03 -0.12886139956E+03 -0.11875273060E+04  0.13522909820E+04  0.50400001928E-02 0.  1.
</event>
<event>
 5   0  0.4012375E-04  0.1291889E+04  0.7818609E-02  0.9036022E-01
       -4   -1    0    0    0  501  0.00000000000E+00  0.00000000000E+00  0.59727023573E+03  0.59727158596E+03  0.12699999809E+01 0.  1.
        4   -1    0    0  501    0  0.00000000000E+00  0.00000000000E+00 -0.69858246542E+03  0.69858361983E+03  0.12699999809E+01 0. -1.
    10030    2    1    2    0    0  0.00000000000E+00  0.00000000000E+00 -0.10131222969E+03  0.12958552058E+04  0.12918887516E+04 0.  0.
        4    1    3    3  502    0  0.56105992747E+03  0.12041683644E+03  0.24682494761E+03  0.62467001239E+03  0.12699999809E+01 0.  1.
       -4    1    3    3    0  502 -0.56105992747E+03 -0.12041683644E+03 -0.34813717730E+03  0.67118519340E+03  0.12699999809E+01 0. -1.
</event>
<event>
 5   0  0.5766027E-04  0.1301705E+04  0.7818609E-02  0.9028214E-01
        1   -1    0    0  501    0  0.00000000000E+00  0.00000000000E+00  0.18537062771E+04  0.18537062771E+04  0.50400001928E-02 0. -1.
       -1   -1    0    0    0  501  0.00000000000E+00  0.00000000000E+00 -0.22852003328E+03  0.22852003334E+03  0.50400001928E-02 0.  1.
    10030    2    1    2    0    0  0.00000000000E+00  0.00000000000E+00  0.16251862438E+04  0.20822263104E+04  0.13017050667E+04 0.  0.
        3    1    3    3  502    0 -0.45972917083E+03  0.45482899930E+03  0.93001703992E+03  0.11327630087E+04  0.10100000352E+00 0. -1.
       -3    1    3    3    0  502  0.45972917083E+03 -0.45482899930E+03  0.69516920385E+03  0.94946330171E+03  0.10100000352E+00 0.  1.
</event>
<event>
 5   0  0.5710383E-04  0.1293392E+04  0.7818609E-02  0.9034822E-01
       -1   -1    0    0    0  501  0.00000000000E+00  0.00000000000E+00  0.42285289181E+03  0.42285289184E+03  0.50400001928E-02 0.  1.
        1   -1    0    0  501    0  0.00000000000E+00  0.00000000000E+00 -0.98903339720E+03  0.98903339721E+03  0.50400001928E-02 0. -1.
    10030    2    1    2    0    0  0.00000000000E+00  0.00000000000E+00 -0.56618050539E+03  0.14118862890E+04  0.12933918697E+04 0.  0.
        1    1    3    3  502    0  0.29750253245E+03  0.31490431926E+03 -0.80722831746E+03  0.91612774417E+03  0.50400001928E-02 0. -1.
       -1    1    3    3    0  502 -0.29750253245E+03 -0.31490431926E+03  0.24104781206E+03  0.49575854488E+03  0.50400001928E-02 0.  1.
</event>
<event>
 5   0  0.1031295E-03  0.1299216E+04  0.7818609E-02  0.9030187E-01
       -2   -1    0    0    0  501  0.00000000000E+00  0.00000000000E+00  0.95340806515E+03  0.95340806515E+03  0.25500000920E-02 0. -1.
        2   -1    0    0  501    0  0.00000000000E+00  0.00000000000E+00 -0.44261251745E+03  0.44261251746E+03  0.25500000920E-02 0.  1.
    10030    2    1    2    0    0  0.00000000000E+00  0.00000000000E+00  0.51079554770E+03  0.13960205826E+04  0.12992156771E+04 0.  0.
        2    1    3    3  502    0  0.61871361550E+03  0.82145732537E+02  0.44891669835E+03  0.76881770365E+03  0.25500000920E-02 0. -1.
       -2    1    3    3    0  502 -0.61871361550E+03 -0.82145732537E+02  0.61878849346E+02  0.62720287896E+03  0.25500000920E-02 0.  1.
</event>
<event>
 5   0  0.5812938E-04  0.1301265E+04  0.7818609E-02  0.9028563E-01
       -1   -1    0    0    0  501  0.00000000000E+00  0.00000000000E+00  0.47710821734E+03  0.47710821736E+03  0.50400001928E-02 0. -1.
        1   -1    0    0  501    0  0.00000000000E+00  0.00000000000E+00 -0.88726754896E+03  0.88726754897E+03  0.50400001928E-02 0.  1.
    10030    2    1    2    0    0  0.00000000000E+00  0.00000000000E+00 -0.41015933162E+03  0.13643757663E+04  0.13012649824E+04 0.  0.
        5    1    3    3  502    0  0.37637927334E+03  0.51412489095E+03 -0.34304718009E+03  0.72366374696E+03  0.46999998093E+01 0.  1.
       -5    1    3    3    0  502 -0.37637927334E+03 -0.51412489095E+03 -0.67112151534E+02  0.64071201938E+03  0.46999998093E+01 0. -1.
</event>
<event>
 5   0  0.5710383E-04  0.1308068E+04  0.7818609E-02  0.9023192E-01
       -1   -1    0    0    0  501  0.00000000000E+00  0.00000000000E+00  0.11702942339E+04  0.11702942339E+04  0.50400001928E-02 0.  1.
        1   -1    0    0  501    0  0.00000000000E+00  0.00000000000E+00 -0.36551525072E+03  0.36551525075E+03  0.50400001928E-02 0. -1.
    10030    2    1    2    0    0  0.00000000000E+00  0.00000000000E+00  0.80477898319E+03  0.15358094847E+04  0.13080678734E+04 0.  0.
        1    1    3    3  502    0 -0.31200778294E+03  0.40892285478E+03  0.87669554860E+03  0.10164456910E+04  0.50400001928E-02 0.  1.
       -1    1    3    3    0  502  0.31200778294E+03 -0.40892285478E+03 -0.71916565413E+02  0.51936379368E+03  0.50400001928E-02 0. -1.
</event>
<event>
 5   0  0.5563545E-04  0.1300023E+04  0.7818609E-02  0.9029547E-01
       -1   -1    0    0    0  501  0.00000000000E+00  0.00000000000E+00  0.59796304569E+03  0.59796304572E+03  0.50400001928E-02 0. -1.
        1   -1    0    0  501    0  0.00000000000E+00  0.00000000000E+00 -0.70659092732E+03  0.70659092734E+03  0.50400001928E-02 0.  1.
    10030    2    1    2    0    0  0.00000000000E+00  0.00000000000E+00 -0.10862788162E+03  0.13045539731E+04  0.13000234813E+04 0.  0.
        2    1    3    3  502    0 -0.31380341674E+03  0.54504099417E+03  0.11049297318E+03  0.63855380886E+03  0.25500000920E-02 0. -1.
       -2    1    3    3    0  502  0.31380341674E+03 -0.54504099417E+03 -0.21912085481E+03  0.66600016419E+03  0.25500000920E-02 0.  1.
</event>
<event>
 5   0  0.1031295E-03  0.1302833E+04  0.7818609E-02  0.9027321E-01
        2   -1    0    0  501    0  0.00000000000E+00  0.00000000000E+00  0.82979268619E+03  0.82979268620E+03  0.25500000920E-02 0. -1.
       -2   -1    0    0    0  501  0.00000000000E+00  0.00000000000E+00 -0.51138499725E+03  0.51138499725E+03  0.25500000920E-02 0.  1.
    10030    2    1    2    0    0  0.00000000000E+00  0.00000000000E+00  0.31840768895E+03  0.13411776835E+04  0.13028331137E+04 0.  0.
        2    1    3    3  502    0 -0.55421419156E+03 -0.18315628916E+03 -0.13852077973E+03  0.59990632836E+03  0.25500000920E-02 0.  1.
       -2    1    3    3    0  502  0.55421419156E+03  0.18315628916E+03  0.45692846868E+03  0.74127135509E+03  0.25500000920E-02 0. -1.
</event>
<event>
 5   0  0.1046253E-03  0.1289011E+04  0.7818609E-02  0.9038325E-01
        2   -1    0    0  501    0  0.00000000000E+00  0.00000000000E+00  0.10571238833E+04  0.10571238833E+04  0.25500000920E-02 0.  1.
       -2   -1    0    0    0  501  0.00000000000E+00  0.00000000000E+00 -0.39294079639E+03  0.39294079640E+03  0.25500000920E-02 0. -1.
    10030    2    1    2    0    0  0.00000000000E+00  0.00000000000E+00  0.66418308689E+03  0.14500646797E+04  0.12890106293E+04 0.  0.
        3    1    3    3  502    0  0.21014700206E+03 -0.34510287833E+03 -0.23277071957E+03  0.46630459702E+03  0.10100000352E+00 0. -1.
       -3    1    3    3    0  502 -0.21014700206E+03  0.34510287833E+03  0.89695380646E+03  0.98376008266E+03  0.10100000352E+00 0.  1.
</event>
<event>
 5   0  0.5812938E-04  0.1332354E+04  0.7818609E-02  0.9004294E-01
        1   -1    0    0  501    0  0.00000000000E+00  0.00000000000E+00  0.10104997215E+04  0.10104997215E+04  0.50400001928E-02 0. -1.
       -1   -1    0    0    0  501  0.00000000000E+00  0.00000000000E+00 -0.43918080604E+03  0.43918080607E+03  0.50400001928E-02 0.  1.
    10030    2    1    2    0    0  0.00000000000E+00  0.00000000000E+00  0.57131891547E+03  0.14496805276E+04  0.13323544307E+04 0.  0.
        5    1    3    3  502    0 -0.18898557631E+03 -0.49216987772E+03 -0.15741350950E+03  0.55022526256E+03  0.46999998093E+01 0.  1.
       -5    1    3    3    0  502  0.18898557631E+03  0.49216987772E+03  0.72873242497E+03  0.89945526503E+03  0.46999998093E+01 0. -1.
</event>
<event>
 5   0  0.5710383E-04  0.1292191E+04  0.7818609E-02  0.9035781E-01
        1   -1    0    0  501    0  0.00000000000E+00  0.00000000000E+00  0.44507149114E+03  0.44507149117E+03  0.50400001928E-02 0.  1.
       -1   -1    0    0    0  501  0.00000000000E+00  0.00000000000E+00 -0.93791485076E+03  0.93791485077E+03  0.50400001928E-02 0. -1.
    10030    2    1    2    0    0  0.00000000000E+00  0.00000000000E+00 -0.49284335962E+03  0.13829863419E+04  0.12921906380E+04 0.  0.
        1    1    3    3  502    0 -0.25409304907E+03  0.27307546817E+03 -0.81103657340E+03  0.89270029255E+03  0.50400001928E-02 0. -1.
       -1    1    3    3    0  502  0.25409304907E+03 -0.27307546817E+03  0.31819321378E+03  0.49028604939E+03  0.50400001928E-02 0.  1.
</event>
<event>
 5   0  0.5766027E-04  0.1310262E+04  0.7818609E-02  0.9021467E-01
       -1   -1    0    0    0  501  0.00000000000E+00  0.00000000000E+00  0.72634438249E+03  0.72634438250E+03  0.50400001928E-02 0. -1.
        1   -1    0    0  501    0  0.00000000000E+00  0.00000000000E+00 -0.59089929179E+03  0.59089929181E+03  0.50400001928E-02 0.  1.
    10030    2    1    2    0    0  0.00000000000E+00  0.00000000000E+00  0.13544509069E+03  0.13172436743E+04  0.13102616246E+04 0.  0.
        3    1    3    3  502    0 -0.24407516015E+03  0.50607899787E+03  0.40642693820E+03  0.69344899033E+03  0.10100000352E+00 0. -1.
       -3    1    3    3    0  502  0.24407516015E+03 -0.50607899787E+03 -0.27098184751E+03  0.62379468399E+03  0.10100000352E+00 0.  1.
</event>
<event>
 5   0  0.1081574E-03  0.1298017E+04  0.7818609E-02  0.9031139E-01
        2   -1    0    0  501    0  0.00000000000E+00  0.00000000000E+00  0.15463289274E+04  0.15463289274E+04  0.25500000920E-02 0.  1.
       -2   -1    0    0    0  501  0.00000000000E+00  0.00000000000E+00 -0.27239472950E+03  0.27239472951E+03  0.25500000920E-02 0. -1.
    10030    2    1    2    0    0  0.00000000000E+00  0.00000000000E+00  0.12739341979E+04  0.18187236569E+04  0.12980167178E+04 0.  0.
        5    1    3    3  502    0 -0.69655758685E+02  0.41267155911E+03 -0.58040105127E+02  0.42254051193E+03  0.46999998093E+01 0. -1.
       -5    1    3    3    0  502  0.69655758685E+02 -0.41267155911E+03  0.13319743030E+04  0.13961831449E+04  0.46999998093E+01 0.  1.
</event>
<event>
 5   0  0.4012375E-04  0.1294024E+04  0.7818609E-02  0.9034318E-01
       -3   -1    0    0    0  501  0.00000000000E+00  0.00000000000E+00  0.52539351573E+03  0.52539352544E+03  0.10100000352E+00 0.  1.
        3   -1    0    0  501    0  0.00000000000E+00  0.00000000000E+00 -0.79678255784E+03  0.79678256425E+03  0.10100000352E+00 0. -1.
    10030    2    1    2    0    0  0.00000000000E+00  0.00000000000E+00 -0.27138904211E+03  0.13221760897E+04  0.12940238019E+04 0.  0.
        2    1    3    3  502    0  0.47120834067E+03  0.25866718034E+03  0.23224872758E+03  0.58556424239E+03  0.25500000920E-02 0.  1.
       -2    1    3    3    0  502 -0.47120834067E+03 -0.25866718034E+03 -0.50363776969E+03  0.73661184729E+03  0.25500000920E-02 0. -1.
</event>
<event>
 5   0  0.1031295E-03  0.1301189E+04  0.7818609E-02  0.9028623E-01
       -2   -1    0    0    0  501  0.00000000000E+00  0.00000000000E+00  0.23571901517E+03  0.23571901519E+03  0.25500000920E-02 0. -1.
        2   -1    0    0  501    0  0.00000000000E+00  0.00000000000E+00 -0.17956688537E+04  0.17956688537E+04  0.25500000920E-02 0.  1.
    10030    2    1    2    0    0  0.00000000000E+00  0.00000000000E+00 -0.15599498385E+04  0.20313878688E+04  0.13011891389E+04 0.  0.
        2    1    3    3  502    0 -0.20615875009E+02 -0.42127695230E+03 -0.66416319972E+01  0.42183337484E+03  0.25500000920E-02 0. -1.
       -2    1    3    3    0  502  0.20615875009E+02  0.42127695230E+03 -0.15533082065E+04  0.16095544940E+04  0.25500000920E-02 0.  1.
</event>
<event>
 5   0  0.1031295E-03  0.1300108E+04  0.7818609E-02  0.9029480E-01
       -2   -1    0    0    0  501  0.00000000000E+00  0.00000000000E+00  0.31517786701E+03  0.31517786702E+03  0.25500000920E-02 0. -1.
        2   -1    0    0  501    0  0.00000000000E+00  0.00000000000E+00 -0.13407356357E+04  0.13407356357E+04  0.25500000920E-02 0.  1.
    10030    2    1    2    0    0  0.00000000000E+00  0.00000000000E+00 -0.10255577687E+04  0.16559135027E+04  0.13001079923E+04 0.  0.
        2    1    3    3  502    0 -0.18265290825E+03  0.54866505469E+03 -0.89098660394E+03  0.10621923345E+04  0.25500000920E-02 0.  1.
       -2    1    3    3    0  502  0.18265290825E+03 -0.54866505469E+03 -0.13457116472E+03  0.59372116815E+03  0.25500000920E-02 0. -1.
</event>
<event>
 5   0  0.1081574E-03  0.1315156E+04  0.7818609E-02  0.9017632E-01
        2   -1    0    0  501    0  0.00000000000E+00  0.00000000000E+00  0.10868413650E+04  0.10868413650E+04  0.25500000920E-02 0. -1.
       -2   -1    0    0    0  501  0.00000000000E+00  0.00000000000E+00 -0.39785852016E+03  0.39785852016E+03  0.25500000920E-02 0.  1.
    10030    2    1    2    0    0  0.00000000000E+00  0.00000000000E+00  0.68898284483E+03  0.14846998852E+04  0.13151564122E+04 0.  0.
        5    1    3    3  502    0 -0.63446037747E+03  0.47968128662E+02  0.53185764020E+03  0.82929822825E+03  0.46999998093E+01 0. -1.
       -5    1    3    3    0  502  0.63446037747E+03 -0.47968128662E+02  0.15712520463E+03  0.65540165690E+03  0.46999998093E+01 0.  1.
</event>
<event>
 5   0  0.1101619E-03  0.1300625E+04  0.7818609E-02  0.9029069E-01
       -2   -1    0    0    0  501  0.00000000000E+00  0.00000000000E+00  0.30496707277E+03  0.30496707278E+03  0.25500000920E-02 0.  1.
        2   -1    0    0  501    0  0.00000000000E+00  0.00000000000E+00 -0.13867285794E+04  0.13867285794E+04  0.25500000920E-02 0. -1.
    10030    2    1    2    0    0  0.00000000000E+00  0.00000000000E+00 -0.10817615066E+04  0.16916956522E+04  0.13006253197E+04 0.  0.
        1    1    3    3  502    0 -0.17798493164E+03  0.48081532214E+03 -0.20536853186E+02  0.51311185160E+03  0.50400001928E-02 0.  1.
       -1    1    3    3    0  502  0.17798493164E+03 -0.48081532214E+03 -0.10612246534E+04  0.11785838005E+04  0.50400001928E-02 0. -1.
</event>
<event>
 5   0  0.1031295E-03  0.1303386E+04  0.7818609E-02  0.9026885E-01
        2   -1    0    0  501    0  0.00000000000E+00  0.00000000000E+00  0.15089935779E+04  0.15089935779E+04  0.25500000920E-02 0. -1.
       -2   -1    0    0    0  501  0.00000000000E+00  0.00000000000E+00 -0.28144820422E+03  0.28144820423E+03  0.25500000920E-02 0.  1.
    10030    2    1    2    0    0  0.00000000000E+00  0.00000000000E+00  0.12275453737E+04  0.17904417822E+04  0.13033856416E+04 0.  0.
        2    1    3    3  502    0 -0.61409736605E+03  0.21332377938E+03  0.67643627533E+03  0.93818369439E+03  0.25500000920E-02 0.  1.
       -2    1    3    3    0  502  0.61409736605E+03 -0.21332377938E+03  0.55110909839E+03  0.85225808778E+03  0.25500000920E-02 0. -1.
</event>
<event>
 5   0  0.1101619E-03  0.1270144E+04  0.7818609E-02  0.9053582E-01
        2   -1    0    0  501    0  0.00000000000E+00  0.00000000000E+00  0.25836423774E+04  0.25836423774E+04  0.25500000920E-02 0.  1.
       -2   -1    0    0    0  501  0.00000000000E+00  0.00000000000E+00 -0.15610383178E+03  0.15610383181E+03  0.25500000920E-02 0. -1.
    10030    2    1    2    0    0  0.00000000000E+00  0.00000000000E+00  0.24275385456E+04  0.27397462092E+04  0.12701440471E+04 0.  0.
        1    1    3    3  502    0 -0.24935977948E+03 -0.93596338742E+02  0.24573446696E+04  0.24717369196E+04  0.50400001928E-02 0.  1.
       -1    1    3    3    0  502  0.24935977948E+03  0.93596338742E+02 -0.29806124047E+02  0.26800928959E+03  0.50400001928E-02 0. -1.
</event>
<event>
 5   0  0.6006119E-04  0.1300950E+04  0.7818609E-02  0.9028812E-01
        1   -1    0    0  501    0  0.00000000000E+00  0.00000000000E+00  0.67142034818E+03  0.67142034820E+03  0.50400001928E-02 0.  1.
       -1   -1    0    0    0  501  0.00000000000E+00  0.00000000000E+00 -0.63018327534E+03  0.63018327536E+03  0.50400001928E-02 0. -1.
    10030    2    1    2    0    0  0.00000000000E+00  0.00000000000E+00  0.41237072845E+02  0.13016036236E+04  0.13009502284E+04 0.  0.
        4    1    3    3  502    0 -0.12165780572E+03  0.44827390045E+03  0.47622198144E+03  0.66523612351E+03  0.12699999809E+01 0.  1.
       -4    1    3    3    0  502  0.12165780572E+03 -0.44827390045E+03 -0.43498490859E+03  0.63636750005E+03  0.12699999809E+01 0. -1.
</event>
<event>
 5   0  0.6006119E-04  0.1299392E+04  0.7818609E-02  0.9030047E-01
       -1   -1    0    0    0  501  0.00000000000E+00  0.00000000000E+00  0.37002175507E+03  0.37002175510E+03  0.50400001928E-02 0. -1.
        1   -1    0    0  501    0  0.00000000000E+00  0.00000000000E+00 -0.11407575412E+04  0.11407575412E+04  0.50400001928E-02 0.  1.
    10030    2    1    2    0    0  0.00000000000E+00  0.00000000000E+00 -0.77073578614E+03  0.15107792963E+04  0.12993923311E+04 0.  0.
        4    1    3    3  502    0  0.40787365194E+03  0.39550979629E+03 -0.75177781891E+03  0.94231651625E+03  0.12699999809E+01 0.  1.
       -4    1    3    3    0  502 -0.40787365194E+03 -0.39550979629E+03 -0.18957967239E+02  0.56846278007E+03  0.12699999809E+01 0. -1.
</event>
<event>
 5   0  0.6006119E-04  0.1300739E+04  0.7818609E-02  0.9028979E-01
       -1   -1    0    0    0  501  0.00000000000E+00  0.00000000000E+00  0.63418072780E+03  0.63418072782E+03  0.50400001928E-02 0. -1.
        1   -1    0    0  501    0  0.00000000000E+00  0.00000000000E+00 -0.66697143124E+03  0.66697143126E+03  0.50400001928E-02 0.  1.
    10030    2    1    2    0    0  0.00000000000E+00  0.00000000000E+00 -0.32790703442E+02  0.13011521591E+04  0.13007389096E+04 0.  0.
        4    1    3    3  502    0 -0.25326082646E+03 -0.12914159747E+03  0.56873511411E+03  0.63583004123E+03  0.12699999809E+01 0. -1.
       -4    1    3    3    0  502  0.25326082646E+03  0.12914159747E+03 -0.60152581755E+03  0.66532211785E+03  0.12699999809E+01 0.  1.
</event>
<event>
 5   0  0.1103241E-03  0.1299097E+04  0.7818609E-02  0.9030282E-01
        2   -1    0    0  501    0  0.00000000000E+00  0.00000000000E+00  0.59257012252E+03  0.59257012253E+03  0.25500000920E-02 0. -1.
       -2   -1    0    0    0  501  0.00000000000E+00  0.00000000000E+00 -0.71200521866E+03  0.71200521866E+03  0.25500000920E-02 0.  1.
    10030    2    1    2    0    0  0.00000000000E+00  0.00000000000E+00 -0.11943509614E+03  0.13045753412E+04  0.12990966395E+04 0.  0.
        4    1    3    3  502    0 -0.15836106370E+03  0.62978160924E+03 -0.45223907680E+02  0.65096076422E+03  0.12699999809E+01 0.  1.
       -4    1    3    3    0  502  0.15836106370E+03 -0.62978160924E+03 -0.74211188458E+02  0.65361457697E+03  0.12699999809E+01 0. -1.
</event>
<event>
 5   0  0.5812938E-04  0.1302289E+04  0.7818609E-02  0.9027752E-01
        1   -1    0    0  501    0  0.00000000000E+00  0.00000000000E+00  0.40847811766E+03  0.40847811769E+03  0.50400001928E-02 0.  1.
       -1   -1    0    0    0  501  0.00000000000E+00  0.00000000000E+00 -0.10379722789E+04  0.10379722789E+04  0.50400001928E-02 0. -1.
    10030    2    1    2    0    0  0.00000000000E+00  0.00000000000E+00 -0.62949416123E+03  0.14464503966E+04  0.13022886972E+04 0.  0.
        5    1    3    3  502    0  0.21748678215E+03 -0.33070495367E+03 -0.88899078852E+03  0.97313564258E+03  0.46999998093E+01 0. -1.
       -5    1    3    3    0  502 -0.21748678215E+03  0.33070495367E+03  0.25949662729E+03  0.47331475401E+03  0.46999998093E+01 0.  1.
</event>
<event>
 5   0  0.5563545E-04  0.1299750E+04  0.7818609E-02  0.9029763E-01
       -1   -1    0    0    0  501  0.00000000000E+00  0.00000000000E+00  0.50673023263E+03  0.50673023266E+03  0.50400001928E-02 0. -1.
        1   -1    0    0  501    0  0.00000000000E+00  0.00000000000E+00 -0.83345679980E+03  0.83345679981E+03  0.50400001928E-02 0.  1.
    10030    2    1    2    0    0  0.00000000000E+00  0.00000000000E+00 -0.32672656716E+03  0.13401870325E+04  0.12997503731E+04 0.  0.
        2    1    3    3  502    0 -0.47387496281E+03  0.18938217739E+03 -0.57826817826E+03  0.77124391439E+03  0.25500000920E-02 0.  1.
       -2    1    3    3    0  502  0.47387496281E+03 -0.18938217739E+03  0.25154161110E+03  0.56894311808E+03  0.25500000920E-02 0. -1.
</event>
<event>
 5   0  0.6006119E-04  0.1297935E+04  0.7818609E-02  0.9031204E-01
       -1   -1    0    0    0  501  0.00000000000E+00  0.00000000000E+00  0.83344675343E+03  0.83344675345E+03  0.50400001928E-02 0.  1.
        1   -1    0    0  501    0  0.00000000000E+00  0.00000000000E+00 -0.50532175389E+03  0.50532175391E+03  0.50400001928E-02 0. -1.
    10030    2    1    2    0    0  0.00000000000E+00  0.00000000000E+00  0.32812499955E+03  0.13387685074E+04  0.12979349371E+04 0.  0.
        4    1    3    3  502    0  0.11689596584E+03  0.63158113301E+03  0.25970378963E+03  0.69282542220E+03  0.12699999809E+01 0.  1.
       -4    1    3    3    0  502 -0.11689596584E+03 -0.63158113301E+03  0.68421209913E+02  0.64594308516E+03  0.12699999809E+01 0. -1.
</event>
<event>
 5   0  0.6006119E-04  0.1286984E+04  0.7818609E-02  0.9039951E-01
       -1   -1    0    0    0  501  0.00000000000E+00  0.00000000000E+00  0.78112309708E+03  0.78112309709E+03  0.50400001928E-02 0.  1.
        1   -1    0    0  501    0  0.00000000000E+00  0.00000000000E+00 -0.53011072398E+03  0.53011072400E+03  0.50400001928E-02 0. -1.
    10030    2    1    2    0    0  0.00000000000E+00  0.00000000000E+00  0.25101237310E+03  0.13112338211E+04  0.12869836526E+04 0.  0.
        4    1    3    3  502    0 -0.51676936937E+03  0.20739191915E+02 -0.26459138054E+03  0.58093967566E+03  0.12699999809E+01 0. -1.
       -4    1    3    3    0  502  0.51676936937E+03 -0.20739191915E+02  0.51560375364E+03  0.73029414544E+03  0.12699999809E+01 0.  1.
</event>
<event>
 5   0  0.1046253E-03  0.1285558E+04  0.7818609E-02  0.9041097E-01
       -2   -1    0    0    0  501  0.00000000000E+00  0.00000000000E+00  0.28994095609E+03  0.28994095611E+03  0.25500000920E-02 0. -1.
        2   -1    0    0  501    0  0.00000000000E+00  0.00000000000E+00 -0.14249972253E+04  0.14249972253E+04  0.25500000920E-02 0.  1.
    10030    2    1    2    0    0  0.00000000000E+00  0.00000000000E+00 -0.11350562692E+04  0.17149381814E+04  0.12855583346E+04 0.  0.
        3    1    3    3  502    0 -0.44113245424E+02  0.34374802190E+03 -0.12896861929E+04  0.13354396906E+04  0.10100000352E+00 0.  1.
       -3    1    3    3    0  502  0.44113245424E+02 -0.34374802190E+03  0.15462992370E+03  0.37949849076E+03  0.10100000352E+00 0. -1.
</event>
<event>
 5   0  0.5563545E-04  0.1292280E+04  0.7818609E-02  0.9035710E-01
        1   -1    0    0  501    0  0.00000000000E+00  0.00000000000E+00  0.92604942568E+03  0.92604942569E+03  0.50400001928E-02 0. -1.
       -1   -1    0    0    0  501  0.00000000000E+00  0.00000000000E+00 -0.45083623505E+03  0.45083623507E+03  0.50400001928E-02 0.  1.
    10030    2    1    2    0    0  0.00000000000E+00  0.00000000000E+00  0.47521319063E+03  0.13768856608E+04  0.12922795929E+04 0.  0.
        2    1    3    3  502    0 -0.30340956393E+03 -0.22563514017E+03  0.79586434259E+03  0.88111783081E+03  0.25500000920E-02 0. -1.
       -2    1    3    3    0  502  0.30340956393E+03  0.22563514017E+03 -0.32065115195E+03  0.49576782996E+03  0.25500000920E-02 0.  1.
</event>
<event>
 5   0  0.1046253E-03  0.1304091E+04  0.7818609E-02  0.9026328E-01
       -2   -1    0    0    0  501  0.00000000000E+00  0.00000000000E+00  0.30882348323E+03  0.30882348324E+03  0.25500000920E-02 0. -1.
        2   -1    0    0  501    0  0.00000000000E+00  0.00000000000E+00 -0.13767185766E+04  0.13767185766E+04  0.25500000920E-02 0.  1.
    10030    2    1    2    0    0  0.00000000000E+00  0.00000000000E+00 -0.10678950934E+04  0.16855420598E+04  0.13040905279E+04 0.  0.
        3    1    3    3  502    0 -0.50854201274E+03 -0.34608513772E+03 -0.81347856049E+03  0.10198712075E+04  0.10100000352E+00 0.  1.
       -3    1    3    3    0  502  0.50854201274E+03  0.34608513772E+03 -0.25441653287E+03  0.66567085235E+03  0.10100000352E+00 0. -1.
</event>
<event>
 5   0  0.5812938E-04  0.1321317E+04  0.7818609E-02  0.9012829E-01
       -1   -1    0    0    0  501  0.00000000000E+00  0.00000000000E+00  0.28164723315E+03  0.28164723319E+03  0.50400001928E-02 0.  1.
        1   -1    0    0  501    0  0.00000000000E+00  0.00000000000E+00 -0.15497038520E+04  0.15497038520E+04  0.50400001928E-02 0. -1.
    10030    2    1    2    0    0  0.00000000000E+00  0.00000000000E+00 -0.12680566189E+04  0.18313510852E+04  0.13213172248E+04 0.  0.
        5    1    3    3  502    0 -0.65505779347E+03  0.78691920325E+02 -0.58693310045E+03  0.88306607087E+03  0.46999998093E+01 0.  1.
       -5    1    3    3    0  502  0.65505779347E+03 -0.78691920325E+02 -0.68112351844E+03  0.94828501437E+03  0.46999998093E+01 0. -1.
</event>
<event>
 5   0  0.1046253E-03  0.1269014E+04  0.7818609E-02  0.9054505E-01
        2   -1    0    0  501    0  0.00000000000E+00  0.00000000000E+00  0.14934897761E+04  0.14934897761E+04  0.25500000920E-02 0.  1.
       -2   -1    0    0    0  501  0.00000000000E+00  0.00000000000E+00 -0.26956946843E+03  0.26956946845E+03  0.25500000920E-02 0. -1.
    10030    2    1    2    0    0  0.00000000000E+00  0.00000000000E+00  0.12239203076E+04  0.17630592445E+04  0.12690141765E+04 0.  0.
        3    1    3    3  502    0  0.60625090867E+03 -0.91490386485E+02  0.38499292022E+03  0.72396837908E+03  0.10100000352E+00 0. -1.
       -3    1    3    3    0  502 -0.60625090867E+03  0.91490386485E+02  0.83892738740E+03  0.10390908654E+04  0.10100000352E+00 0.  1.
</event>
<event>
 5   0  0.5766027E-04  0.1302265E+04  0.7818609E-02  0.9027771E-01
       -1   -1    0    0    0  501  0.00000000000E+00  0.00000000000E+00  0.40408952134E+03  0.40408952137E+03  0.50400001928E-02 0. -1.
        1   -1    0    0  501    0  0.00000000000E+00  0.00000000000E+00 -0.10492073664E+04  0.10492073664E+04  0.50400001928E-02 0.  1.
    10030    2    1    2    0    0  0.00000000000E+00  0.00000000000E+00 -0.64511784510E+03  0.14532968878E+04  0.13022652610E+04 0.  0.
        3    1    3    3  502    0 -0.23066460823E+03  0.34508847317E+03  0.23730246290E+03  0.47812622277E+03  0.10100000352E+00 0. -1.
       -3    1    3    3    0  502  0.23066460823E+03 -0.34508847317E+03 -0.88242030800E+03  0.97517066505E+03  0.10100000352E+00 0.  1.
</event>
<event>
 5   0  0.5812938E-04  0.1294087E+04  0.7818609E-02  0.9034267E-01
       -1   -1    0    0    0  501  0.00000000000E+00  0.00000000000E+00  0.50169033544E+03  0.50169033547E+03  0.50400001928E-02 0. -1.
        1   -1    0    0  501    0  0.00000000000E+00  0.00000000000E+00 -0.83450935093E+03  0.83450935095E+03  0.50400001928E-02 0.  1.
    10030    2    1    2    0    0  0.00000000000E+00  0.00000000000E+00 -0.33281901549E+03  0.13361996864E+04  0.12940869773E+04 0.  0.
        5    1    3    3  502    0 -0.50918299115E+02  0.17905255579E+03  0.47342586955E+03  0.50873041474E+03  0.46999998093E+01 0. -1.
       -5    1    3    3    0  502  0.50918299115E+02 -0.17905255579E+03 -0.80624488504E+03  0.82746927168E+03  0.46999998093E+01 0.  1.
</event>
<event>
 5   0  0.1081574E-03  0.1302041E+04  0.7818609E-02  0.9027948E-01
       -2   -1    0    0    0  501  0.00000000000E+00  0.00000000000E+00  0.46346477704E+03  0.46346477704E+03  0.25500000920E-02 0.  1.
        2   -1    0    0  501    0  0.00000000000E+00  0.00000000000E+00 -0.91447673960E+03  0.91447673961E+03  0.25500000920E-02 0. -1.
    10030    2    1    2    0    0  0.00000000000E+00  0.00000000000E+00 -0.45101196257E+03  0.13779415167E+04  0.13020411026E+04 0.  0.
        5    1    3    3  502    0 -0.38826474138E+02  0.64959182787E+03 -0.24469089685E+03  0.69525014415E+03  0.46999998093E+01 0. -1.
       -5    1    3    3    0  502  0.38826474138E+02 -0.64959182787E+03 -0.20632106572E+03  0.68269137250E+03  0.46999998093E+01 0.  1.
</event>
<event>
 5   0  0.5710383E-04  0.1301937E+04  0.7818609E-02  0.9028031E-01
       -1   -1    0    0    0  501  0.00000000000E+00  0.00000000000E+00  0.25293890308E+03  0.25293890313E+03  0.50400001928E-02 0. -1.
        1   -1    0    0  501    0  0.00000000000E+00  0.00000000000E+00 -0.16753447565E+04  0.16753447565E+04  0.50400001928E-02 0.  1.
    10030    2    1    2    0    0  0.00000000000E+00  0.00000000000E+00 -0.14224058535E+04  0.19282836597E+04  0.13019368111E+04 0.  0.
        1    1    3    3  502    0  0.19897676911E+03 -0.98404286542E+02  0.19515149513E+03  0.29556600673E+03  0.50400001928E-02 0. -1.
       -1    1    3    3    0  502 -0.19897676911E+03  0.98404286542E+02 -0.16175573486E+04  0.16327176529E+04  0.50400001928E-02 0.  1.
</event>
<event>
 5   0  0.5563545E-04  0.1303428E+04  0.7818609E-02  0.9026851E-01
       -1   -1    0    0    0  501  0.00000000000E+00  0.00000000000E+00  0.33441058411E+03  0.33441058415E+03  0.50400001928E-02 0.  1.
        1   -1    0    0  501    0  0.00000000000E+00  0.00000000000E+00 -0.12700883418E+04  0.12700883418E+04  0.50400001928E-02 0. -1.
    10030    2    1    2    0    0  0.00000000000E+00  0.00000000000E+00 -0.93567775769E+03  0.16044989260E+04  0.13034277645E+04 0.  0.
        2    1    3    3  502    0 -0.51065273791E+03 -0.36284691418E+03 -0.24658036624E+03  0.67322060195E+03  0.25500000920E-02 0. -1.
       -2    1    3    3    0  502  0.51065273791E+03  0.36284691418E+03 -0.68909739144E+03  0.93127832401E+03  0.25500000920E-02 0.  1.
</event>
<event>
 5   0  0.1031295E-03  0.1304474E+04  0.7818609E-02  0.9026025E-01
        2   -1    0    0  501    0  0.00000000000E+00  0.00000000000E+00  0.13704498578E+04  0.13704498578E+04  0.25500000920E-02 0.  1.
       -2   -1    0    0    0  501  0.00000000000E+00  0.00000000000E+00 -0.31041836376E+03  0.31041836377E+03  0.25500000920E-02 0. -1.
    10030    2    1    2    0    0  0.00000000000E+00  0.00000000000E+00  0.10600314940E+04  0.16808682215E+04  0.13044735374E+04 0.  0.
        2    1    3    3  502    0 -0.49860159285E+03 -0.28292173296E+03  0.12918915407E+03  0.58765473954E+03  0.25500000920E-02 0. -1.
       -2    1    3    3    0  502  0.49860159285E+03  0.28292173296E+03  0.93084233995E+03  0.10932134820E+04  0.25500000920E-02 0.  1.
</event>
<event>
 5   0  0.1031295E-03  0.1302216E+04  0.7818609E-02  0.9027810E-01
        2   -1    0    0  501    0  0.00000000000E+00  0.00000000000E+00  0.10674401588E+04  0.10674401588E+04  0.25500000920E-02 0. -1.
       -2   -1    0    0    0  501  0.00000000000E+00  0.00000000000E+00 -0.39715728522E+03  0.39715728523E+03  0.25500000920E-02 0.  1.
    10030    2    1    2    0    0  0.00000000000E+00  0.00000000000E+00  0.67028287355E+03  0.14645974440E+04  0.13022160122E+04 0.  0.
        2    1    3    3  502    0  0.64701978660E+03  0.26223916516E+02  0.25870066024E+03  0.69731508636E+03  0.25500000920E-02 0.  1.
       -2    1    3    3    0  502 -0.64701978660E+03 -0.26223916516E+02  0.41158221331E+03  0.76728235765E+03  0.25500000920E-02 0. -1.
</event>
<event>
 5   0  0.1103241E-03  0.1297942E+04  0.7818609E-02  0.9031199E-01
       -2   -1    0    0    0  501  0.00000000000E+00  0.00000000000E+00  0.52845703704E+03  0.52845703704E+03  0.25500000920E-02 0. -1.
        2   -1    0    0  501    0  0.00000000000E+00  0.00000000000E+00 -0.79696805238E+03  0.79696805238E+03  0.25500000920E-02 0.  1.
    10030    2    1    2    0    0  0.00000000000E+00  0.00000000000E+00 -0.26851101534E+03  0.13254250894E+04  0.12979420258E+04 0.  0.
        4    1    3    3  502    0  0.40422971086E+02 -0.38308296596E+03 -0.66759325711E+03  0.77075868158E+03  0.12699999809E+01 0.  1.
       -4    1    3    3    0  502 -0.40422971086E+02  0.38308296596E+03  0.39908224177E+03  0.55466640784E+03  0.12699999809E+01 0. -1.
</event>
<event>
 5   0  0.1101619E-03  0.1293249E+04  0.7818609E-02  0.9034936E-01
       -2   -1    0    0    0  501  0.00000000000E+00  0.00000000000E+00  0.32720818980E+03  0.32720818981E+03  0.25500000920E-02 0.  1.
        2   -1    0    0  501    0  0.00000000000E+00  0.00000000000E+00 -0.12778515578E+04  0.12778515579E+04  0.25500000920E-02 0. -1.
    10030    2    1    2    0    0  0.00000000000E+00  0.00000000000E+00 -0.95064336805E+03  0.16050597477E+04  0.12932493883E+04 0.  0.
        1    1    3    3  502    0  0.34898772404E+03  0.30519243955E+03 -0.10347682750E+04  0.11338784060E+04  0.50400001928E-02 0. -1.
       -1    1    3    3    0  502 -0.34898772404E+03 -0.30519243955E+03  0.84124906960E+02  0.47118134162E+03  0.50400001928E-02 0.  1.
</event>
<event>
 5   0  0.4012375E-04  0.1292230E+04  0.7818609E-02  0.9035750E-01
       -4   -1    0    0    0  501  0.00000000000E+00  0.00000000000E+00  0.68352516062E+03  0.68352634045E+03  0.12699999809E+01 0.  1.
        4   -1    0    0  501    0  0.00000000000E+00  0.00000000000E+00 -0.61074983616E+03  0.61075115658E+03  0.12699999809E+01 0. -1.
    10030    2    1    2    0    0  0.00000000000E+00  0.00000000000E+00  0.72775324459E+02  0.12942774970E+04  0.12922298524E+04 0.  0.
        3    1    3    3  502    0 -0.31823919887E+02  0.25983138740E+03 -0.55525927507E+03  0.61387130941E+03  0.10100000352E+00 0. -1.
       -3    1    3    3    0  502  0.31823919887E+02 -0.25983138740E+03  0.62803459953E+03  0.68040618763E+03  0.10100000352E+00 0.  1.
</event>
<event>
 5   0  0.1031295E-03  0.1297673E+04  0.7818609E-02  0.9031412E-01
       -2   -1    0    0    0  501  0.00000000000E+00  0.00000000000E+00  0.55804615535E+03  0.55804615536E+03  0.25500000920E-02 0. -1.
        2   -1    0    0  501    0  0.00000000000E+00  0.00000000000E+00 -0.75439808709E+03  0.75439808709E+03  0.25500000920E-02 0.  1.
    10030    2    1    2    0    0  0.00000000000E+00  0.00000000000E+00 -0.19635193173E+03  0.13124442425E+04  0.12976732287E+04 0.  0.
        2    1    3    3  502    0  0.36321115491E+03  0.34036598601E+03  0.32275563512E+03  0.59324745891E+03  0.25500000920E-02 0. -1.
       -2    1    3    3    0  502 -0.36321115491E+03 -0.34036598601E+03 -0.51910756686E+03  0.71919678355E+03  0.25500000920E-02 0.  1.
</event>
<event>
 5   0  0.1046253E-03  0.1295041E+04  0.7818609E-02  0.9033507E-01
       -2   -1    0    0    0  501  0.00000000000E+00  0.00000000000E+00  0.67607954635E+03  0.67607954635E+03  0.25500000920E-02 0.  1.
        2   -1    0    0  501    0  0.00000000000E+00  0.00000000000E+00 -0.62016822386E+03  0.62016822386E+03  0.25500000920E-02 0. -1.
    10030    2    1    2    0    0  0.00000000000E+00  0.00000000000E+00  0.55911322491E+02  0.12962477702E+04  0.12950413915E+04 0.  0.
        3    1    3    3  502    0  0.29082167853E+03  0.40736916967E+03 -0.38322641973E+03  0.63038828358E+03  0.10100000352E+00 0. -1.
       -3    1    3    3    0  502 -0.29082167853E+03 -0.40736916967E+03  0.43913774222E+03  0.66585948663E+03  0.10100000352E+00 0.  1.
</event>
<event>
 5   0  0.4012375E-04  0.1294948E+04  0.7818609E-02  0.9033581E-01
       -3   -1    0    0    0  501  0.00000000000E+00  0.00000000000E+00  0.81523402373E+03  0.81523402999E+03  0.10100000352E+00 0. -1.
        3   -1    0    0  501    0  0.00000000000E+00  0.00000000000E+00 -0.51423601838E+03  0.51423602830E+03  0.10100000352E+00 0.  1.
    10030    2    1    2    0    0  0.00000000000E+00  0.00000000000E+00  0.30099800536E+03  0.13294700583E+04  0.12949481984E+04 0.  0.
        4    1    3    3  502    0  0.62386064859E+03  0.11904827566E+03  0.21260243313E+02  0.63547479230E+03  0.12699999809E+01 0. -1.
       -4    1    3    3    0  502 -0.62386064859E+03 -0.11904827566E+03  0.27973776204E+03  0.69399526599E+03  0.12699999809E+01 0.  1.
</event>
<event>
 5   0  0.4012375E-04  0.1305622E+04  0.7818609E-02  0.9025118E-01
        3   -1    0    0  501    0  0.00000000000E+00  0.00000000000E+00  0.29703133522E+03  0.29703135239E+03  0.10100000352E+00 0. -1.
       -3   -1    0    0    0  501  0.00000000000E+00  0.00000000000E+00 -0.14347387603E+04  0.14347387638E+04  0.10100000352E+00 0.  1.
    10030    2    1    2    0    0  0.00000000000E+00  0.00000000000E+00 -0.11377074250E+04  0.17317701162E+04  0.13056222847E+04 0.  0.
        2    1    3    3  502    0 -0.49636868930E+03 -0.19562796161E+03 -0.69892738831E+02  0.53808658228E+03  0.25500000920E-02 0. -1.
       -2    1    3    3    0  502  0.49636868930E+03  0.19562796161E+03 -0.10678146862E+04  0.11936835339E+04  0.25500000920E-02 0.  1.
</event>
<event>
 5   0  0.5766027E-04  0.1258033E+04  0.7818609E-02  0.9063523E-01
       -1   -1    0    0    0  501  0.00000000000E+00  0.00000000000E+00  0.18379832590E+03  0.18379832597E+03  0.50400001928E-02 0. -1.
        1   -1    0    0  501    0  0.00000000000E+00  0.00000000000E+00 -0.21526964520E+04  0.21526964521E+04  0.50400001928E-02 0.  1.
    10030    2    1    2    0    0  0.00000000000E+00  0.00000000000E+00 -0.19688981262E+04  0.23364947780E+04  0.12580333925E+04 0.  0.
        3    1    3    3  502    0 -0.20970482903E+03  0.58686236843E+03 -0.82599923459E+03  0.10347261959E+04  0.10100000352E+00 0. -1.
       -3    1    3    3    0  502  0.20970482903E+03 -0.58686236843E+03 -0.11428988916E+04  0.13017685821E+04  0.10100000352E+00 0.  1.
</event>
<event>
 5   0  0.1081574E-03  0.1297623E+04  0.7818609E-02  0.9031452E-01
        2   -1    0    0  501    0  0.00000000000E+00  0.00000000000E+00  0.22526828446E+04  0.22526828446E+04  0.25500000920E-02 0. -1.
       -2   -1    0    0    0  501  0.00000000000E+00  0.00000000000E+00 -0.18686894816E+03  0.18686894817E+03  0.25500000920E-02 0.  1.
    10030    2    1    2    0    0  0.00000000000E+00  0.00000000000E+00  0.20658138964E+04  0.24395517928E+04  0.12976231714E+04 0.  0.
        5    1    3    3  502    0  0.33997427580E+03 -0.47819561995E+03  0.51230614006E+03  0.77893082510E+03  0.46999998093E+01 0.  1.
       -5    1    3    3    0  502 -0.33997427580E+03  0.47819561995E+03  0.15535077564E+04  0.16606209677E+04  0.46999998093E+01 0. -1.
</event>
<event>
 5   0  0.6006119E-04  0.1295383E+04  0.7818609E-02  0.9033235E-01
       -1   -1    0    0    0  501  0.00000000000E+00  0.00000000000E+00  0.25806481613E+03  0.25806481617E+03  0.50400001928E-02 0. -1.
        1   -1    0    0  501    0  0.00000000000E+00  0.00000000000E+00 -0.16255767640E+04  0.16255767640E+04  0.50400001928E-02 0.  1.
    10030    2    1    2    0    0  0.00000000000E+00  0.00000000000E+00 -0.13675119479E+04  0.18836415802E+04  0.12953828295E+04 0.  0.
        4    1    3    3  502    0 -0.24706188556E+03 -0.59766373561E+03 -0.63211855687E+03  0.90433234986E+03  0.12699999809E+01 0.  1.
       -4    1    3    3    0  502  0.24706188556E+03  0.59766373561E+03 -0.73539339100E+03  0.97930923032E+03  0.12699999809E+01 0. -1.
</event>
<event>
 5   0  0.1101619E-03  0.1295230E+04  0.7818609E-02  0.9033356E-01
        2   -1    0    0  501    0  0.00000000000E+00  0.00000000000E+00  0.31971622275E+03  0.31971622276E+03  0.25500000920E-02 0. -1.
       -2   -1    0    0    0  501  0.00000000000E+00  0.00000000000E+00 -0.13118055286E+04  0.13118055286E+04  0.25500000920E-02 0.  1.
    10030    2    1    2    0    0  0.00000000000E+00  0.00000000000E+00 -0.99208930589E+03  0.16315217514E+04  0.12952304947E+04 0.  0.
        1    1    3    3  502    0  0.62464563531E+03 -0.24574846245E+02 -0.28294821535E+03  0.68618203516E+03  0.50400001928E-02 0. -1.
       -1    1    3    3    0  502 -0.62464563531E+03  0.24574846245E+02 -0.70914109054E+03  0.94533971623E+03  0.50400001928E-02 0.  1.
</event>
<event>
 5   0  0.4012375E-04  0.1305880E+04  0.7818609E-02  0.9024915E-01
       -3   -1    0    0    0  501  0.00000000000E+00  0.00000000000E+00  0.81241790054E+03  0.81241790682E+03  0.10100000352E+00 0. -1.
        3   -1    0    0  501    0  0.00000000000E+00  0.00000000000E+00 -0.52476800122E+03  0.52476801094E+03  0.10100000352E+00 0.  1.
    10030    2    1    2    0    0  0.00000000000E+00  0.00000000000E+00  0.28764989932E+03  0.13371859178E+04  0.13058804364E+04 0.  0.
        3    1    3    3  502    0 -0.23222312596E+02  0.65157292953E+03  0.17994608589E+03  0.67636318818E+03  0.10100000352E+00 0. -1.
       -3    1    3    3    0  502  0.23222312596E+02 -0.65157292953E+03  0.10770381342E+03  0.66082272958E+03  0.10100000352E+00 0.  1.
</event>
<event>
 5   0  0.1031295E-03  0.1329235E+04  0.7818609E-02  0.9006697E-01
        2   -1    0    0  501    0  0.00000000000E+00  0.00000000000E+00  0.12162246454E+04  0.12162246454E+04  0.25500000920E-02 0.  1.
       -2   -1    0    0    0  501  0.00000000000E+00  0.00000000000E+00 -0.36318662101E+03  0.36318662102E+03  0.25500000920E-02 0. -1.
    10030    2    1    2    0    0  0.00000000000E+00  0.00000000000E+00  0.85303802443E+03  0.15794112665E+04  0.13292351476E+04 0.  0.
        2    1    3    3  502    0  0.23521439061E+03 -0.20004992088E+03  0.11258197934E+04  0.11673970994E+04  0.25500000920E-02 0.  1.
       -2    1    3    3    0  502 -0.23521439061E+03  0.20004992088E+03 -0.27278176898E+03  0.41201416710E+03  0.25500000920E-02 0. -1.
</event>
<event>
 5   0  0.5812938E-04  0.1308324E+04  0.7818609E-02  0.9022990E-01
       -1   -1    0    0    0  501  0.00000000000E+00  0.00000000000E+00  0.60065269804E+03  0.60065269806E+03  0.50400001928E-02 0. -1.
        1   -1    0    0  501    0  0.00000000000E+00  0.00000000000E+00 -0.71243774513E+03  0.71243774515E+03  0.50400001928E-02 0.  1.
    10030    2    1    2    0    0  0.00000000000E+00  0.00000000000E+00 -0.11178504709E+03  0.13130904432E+04  0.13083235897E+04 0.  0.
        5    1    3    3  502    0  0.40277104819E+03 -0.47537506518E+03  0.14408100098E+03  0.63952122302E+03  0.46999998093E+01 0. -1.
       -5    1    3    3    0  502 -0.40277104819E+03  0.47537506518E+03 -0.25586604807E+03  0.67356922020E+03  0.46999998093E+01 0.  1.
</event>
<event>
 5   0  0.1103241E-03  0.1308141E+04  0.7818609E-02  0.9023134E-01
        2   -1    0    0  501    0  0.00000000000E+00  0.00000000000E+00  0.16343818178E+04  0.16343818178E+04  0.25500000920E-02 0. -1.
       -2   -1    0    0    0  501  0.00000000000E+00  0.00000000000E+00 -0.26175546791E+03  0.26175546792E+03  0.25500000920E-02 0.  1.
    10030    2    1    2    0    0  0.00000000000E+00  0.00000000000E+00  0.13726263499E+04  0.18961372857E+04  0.13081412423E+04 0.  0.
        4    1    3    3  502    0  0.35122484200E+03 -0.29288216181E+03  0.13641227061E+04  0.14387394554E+04  0.12699999809E+01 0. -1.
       -4    1    3    3    0  502 -0.35122484200E+03  0.29288216181E+03  0.85036438137E+01  0.45739783034E+03  0.12699999809E+01 0.  1.
</event>
<event>
 5   0  0.1081574E-03  0.1316669E+04  0.7818609E-02  0.9016450E-01
       -2   -1    0    0    0  501  0.00000000000E+00  0.00000000000E+00  0.37515851557E+03  0.37515851558E+03  0.25500000920E-02 0.  1.
        2   -1    0    0  501    0  0.00000000000E+00  0.00000000000E+00 -0.11552562768E+04  0.11552562769E+04  0.25500000920E-02 0. -1.
    10030    2    1    2    0    0  0.00000000000E+00  0.00000000000E+00 -0.78009776128E+03  0.15304147924E+04  0.13166688725E+04 0.  0.
        5    1    3    3  502    0 -0.59578124379E+03 -0.26006379973E+03 -0.51080722368E+03  0.82676150137E+03  0.46999998093E+01 0. -1.
       -5    1    3    3    0  502  0.59578124379E+03  0.26006379973E+03 -0.26929053760E+03  0.70365329106E+03  0.46999998093E+01 0.  1.
</event>
<event>
 5   0  0.6006119E-04  0.1265690E+04  0.7818609E-02  0.9057225E-01
        1   -1    0    0  501    0  0.00000000000E+00  0.00000000000E+00  0.13782162394E+04  0.13782162394E+04  0.50400001928E-02 0.  1.
       -1   -1    0    0    0  501  0.00000000000E+00  0.00000000000E+00 -0.29058770331E+03  0.29058770335E+03  0.50400001928E-02 0. -1.
    10030    2    1    2    0    0  0.00000000000E+00  0.00000000000E+00  0.10876285361E+04  0.16688039427E+04  0.12656898383E+04 0.  0.
        4    1    3    3  502    0 -0.88752025653E+02  0.59912456107E+03  0.30190063263E+03  0.67673685182E+03  0.12699999809E+01 0. -1.
       -4    1    3    3    0  502  0.88752025653E+02 -0.59912456107E+03  0.78572790343E+03  0.99206709090E+03  0.12699999809E+01 0.  1.
</event>
<event>
 5   0  0.1046253E-03  0.1301757E+04  0.7818609E-02  0.9028173E-01
       -2   -1    0    0    0  501  0.00000000000E+00  0.00000000000E+00  0.67411377595E+03  0.67411377596E+03  0.25500000920E-02 0.  1.
        2   -1    0    0  501    0  0.00000000000E+00  0.00000000000E+00 -0.62844431934E+03  0.62844431935E+03  0.25500000920E-02 0. -1.
    10030    2    1    2    0    0  0.00000000000E+00  0.00000000000E+00  0.45669456611E+02  0.13025580953E+04  0.13017572325E+04 0.  0.
        3    1    3    3  502    0 -0.52243875164E+03  0.16627598942E+03 -0.32817020631E+03  0.63897233773E+03  0.10100000352E+00 0. -1.
       -3    1    3    3    0  502  0.52243875164E+03 -0.16627598942E+03  0.37383966292E+03  0.66358575757E+03  0.10100000352E+00 0.  1.
</event>
<event>
 5   0  0.5812938E-04  0.1300144E+04  0.7818609E-02  0.9029451E-01
       -1   -1    0    0    0  501  0.00000000000E+00  0.00000000000E+00  0.32666086982E+03  0.32666086986E+03  0.50400001928E-02 0. -1.
        1   -1    0    0  501    0  0.00000000000E+00  0.00000000000E+00 -0.12936773766E+04  0.12936773766E+04  0.50400001928E-02 0.  1.
    10030    2    1    2    0    0  0.00000000000E+00  0.00000000000E+00 -0.96701650679E+03  0.16203382465E+04  0.13001442645E+04 0.  0.
        5    1    3    3  502    0  0.55998575194E+03  0.19546237024E+03 -0.15193775610E+03  0.61228812848E+03  0.46999998093E+01 0. -1.
       -5    1    3    3    0  502 -0.55998575194E+03 -0.19546237024E+03 -0.81507875070E+03  0.10080501180E+04  0.46999998093E+01 0.  1.
</event>
<event>
 5   0  0.5766027E-04  0.1283072E+04  0.7818609E-02  0.9043098E-01
        1   -1    0    0  501    0  0.00000000000E+00  0.00000000000E+00  0.53811319499E+03  0.53811319502E+03  0.50400001928E-02 0. -1.
       -1   -1    0    0    0  501  0.00000000000E+00  0.00000000000E+00 -0.76483578245E+03  0.76483578247E+03  0.50400001928E-02 0.  1.
    10030    2    1    2    0    0  0.00000000000E+00  0.00000000000E+00 -0.22672258746E+03  0.13029489775E+04  0.12830716684E+04 0.  0.
        3    1    3    3  502    0  0.23127088813E+03 -0.24918349007E+03  0.43911634636E+03  0.55533936585E+03  0.10100000352E+00 0. -1.
       -3    1    3    3    0  502 -0.23127088813E+03  0.24918349007E+03 -0.66583893382E+03  0.74760961163E+03  0.10100000352E+00 0.  1.
</event>
<event>
 5   0  0.5766027E-04  0.1306187E+04  0.7818609E-02  0.9024673E-01
       -1   -1    0    0    0  501  0.00000000000E+00  0.00000000000E+00  0.42515889682E+03  0.42515889685E+03  0.50400001928E-02 0. -1.
        1   -1    0    0  501    0  0.00000000000E+00  0.00000000000E+00 -0.10032275369E+04  0.10032275369E+04  0.50400001928E-02 0.  1.
    10030    2    1    2    0    0  0.00000000000E+00  0.00000000000E+00 -0.57806864009E+03  0.14283864338E+04  0.13061869895E+04 0.  0.
        3    1    3    3  502    0  0.63184570297E+03  0.31833658807E+02 -0.11172761727E+03  0.64243711354E+03  0.10100000352E+00 0.  1.
       -3    1    3    3    0  502 -0.63184570297E+03 -0.31833658807E+02 -0.46634102282E+03  0.78594932022E+03  0.10100000352E+00 0. -1.
</event>
<event>
 5   0  0.5710383E-04  0.1299626E+04  0.7818609E-02  0.9029862E-01
        1   -1    0    0  501    0  0.00000000000E+00  0.00000000000E+00  0.13509375200E+04  0.13509375200E+04  0.50400001928E-02 0. -1.
       -1   -1    0    0    0  501  0.00000000000E+00  0.00000000000E+00 -0.31256581065E+03  0.31256581069E+03  0.50400001928E-02 0.  1.
    10030    2    1    2    0    0  0.00000000000E+00  0.00000000000E+00  0.10383717093E+04  0.16635033307E+04  0.12996259171E+04 0.  0.
        1    1    3    3  502    0  0.12710226673E+03 -0.30823915540E+03  0.12331044569E+04  0.12773852061E+04  0.50400001928E-02 0. -1.
       -1    1    3    3    0  502 -0.12710226673E+03  0.30823915540E+03 -0.19473274757E+03  0.38611812458E+03  0.50400001928E-02 0.  1.
</event>
<event>
 5   0  0.1046253E-03  0.1311742E+04  0.7818609E-02  0.9020305E-01
       -2   -1    0    0    0  501  0.00000000000E+00  0.00000000000E+00  0.33080483620E+03  0.33080483621E+03  0.25500000920E-02 0.  1.
        2   -1    0    0  501    0  0.00000000000E+00  0.00000000000E+00 -0.13003638562E+04  0.13003638562E+04  0.25500000920E-02 0. -1.
    10030    2    1    2    0    0  0.00000000000E+00  0.00000000000E+00 -0.96955902000E+03  0.16311686924E+04  0.13117418229E+04 0.  0.
        3    1    3    3  502    0 -0.36148893983E+03  0.42778373070E+03 -0.60354175488E+02  0.56330791808E+03  0.10100000352E+00 0.  1.
       -3    1    3    3    0  502  0.36148893983E+03 -0.42778373070E+03 -0.90920484451E+03  0.10678607743E+04  0.10100000352E+00 0. -1.
</event>
<event>
 5   0  0.5812938E-04  0.1301285E+04  0.7818609E-02  0.9028547E-01
        1   -1    0    0  501    0  0.00000000000E+00  0.00000000000E+00  0.84551836938E+03  0.84551836940E+03  0.50400001928E-02 0. -1.
       -1   -1    0    0    0  501  0.00000000000E+00  0.00000000000E+00 -0.50068148340E+03  0.50068148342E+03  0.50400001928E-02 0.  1.
    10030    2    1    2    0    0  0.00000000000E+00  0.00000000000E+00  0.34483688599E+03  0.13461998528E+04  0.13012845829E+04 0.  0.
        5    1    3    3  502    0  0.51239703494E+03 -0.36083947483E+03 -0.84221130043E+01  0.62677657103E+03  0.46999998093E+01 0.  1.
       -5    1    3    3    0  502 -0.51239703494E+03  0.36083947483E+03  0.35325899899E+03  0.71942328179E+03  0.46999998093E+01 0. -1.
</event>
<event>
 5   0  0.1046253E-03  0.1258657E+04  0.7818609E-02  0.9063009E-01
        2   -1    0    0  501    0  0.00000000000E+00  0.00000000000E+00  0.16100261371E+04  0.16100261371E+04  0.25500000920E-02 0.  1.
       -2   -1    0    0    0  501  0.00000000000E+00  0.00000000000E+00 -0.24599239601E+03  0.24599239602E+03  0.25500000920E-02 0. -1.
    10030    2    1    2    0    0  0.00000000000E+00  0.00000000000E+00  0.13640337411E+04  0.18560185331E+04  0.12586567238E+04 0.  0.
        3    1    3    3  502    0 -0.17308745479E+03 -0.58442582893E+03  0.45101030421E+03  0.75823685035E+03  0.10100000352E+00 0. -1.
       -3    1    3    3    0  502  0.17308745479E+03  0.58442582893E+03  0.91302343687E+03  0.10977816828E+04  0.10100000352E+00 0.  1.
</event>
<event>
 5   0  0.1081574E-03  0.1295659E+04  0.7818609E-02  0.9033015E-01
        2   -1    0    0  501    0  0.00000000000E+00  0.00000000000E+00  0.10125461717E+04  0.10125461717E+04  0.25500000920E-02 0. -1.
       -2   -1    0    0    0  501  0.00000000000E+00  0.00000000000E+00 -0.41448263141E+03  0.41448263142E+03  0.25500000920E-02 0.  1.
    10030    2    1    2    0    0  0.00000000000E+00  0.00000000000E+00  0.59806354033E+03  0.14270288032E+04  0.12956585996E+04 0.  0.
        5    1    3    3  502    0 -0.40060198479E+03 -0.12752534576E+02  0.85957042354E+03  0.94843448924E+03  0.46999998093E+01 0. -1.
       -5    1    3    3    0  502  0.40060198479E+03  0.12752534576E+02 -0.26150688321E+03  0.47859431393E+03  0.46999998093E+01 0.  1.
</event>
<event>
 5   0  0.5563545E-04  0.1300118E+04  0.7818609E-02  0.9029472E-01
        1   -1    0    0  501    0  0.00000000000E+00  0.00000000000E+00  0.62135416121E+03  0.62135416123E+03  0.50400001928E-02 0.  1.
       -1   -1    0    0    0  501  0.00000000000E+00  0.00000000000E+00 -0.68008941716E+03  0.68008941718E+03  0.50400001928E-02 0. -1.
    10030    2    1    2    0    0  0.00000000000E+00  0.00000000000E+00 -0.58735255944E+02  0.13014435784E+04  0.13001175168E+04 0.  0.
        2    1    3    3  502    0 -0.56675882634E+03 -0.23580381083E+03  0.18476030923E+03  0.64105801322E+03  0.25500000920E-02 0.  1.
       -2    1    3    3    0  502  0.56675882634E+03  0.23580381083E+03 -0.24349556518E+03  0.66038556519E+03  0.25500000920E-02 0. -1.
</event>
<event>
 5   0  0.6006119E-04  0.1295839E+04  0.7818609E-02  0.9032871E-01
        1   -1    0    0  501    0  0.00000000000E+00  0.00000000000E+00  0.22542466712E+04  0.22542466712E+04  0.50400001928E-02 0.  1.
       -1   -1    0    0    0  501  0.00000000000E+00  0.00000000000E+00 -0.18622628445E+03  0.18622628452E+03  0.50400001928E-02 0. -1.
    10030    2    1    2    0    0  0.00000000000E+00  0.00000000000E+00  0.20680203868E+04  0.24404729557E+04  0.12958394683E+04 0.  0.
        4    1    3    3  502    0 -0.55441686040E+03  0.33329740597E+03  0.96524592828E+03  0.11619666651E+04  0.12699999809E+01 0.  1.
       -4    1    3    3    0  502  0.55441686040E+03 -0.33329740597E+03  0.11027744585E+04  0.12785062906E+04  0.12699999809E+01 0. -1.
</event>
<event>
 5   0  0.1031295E-03  0.1302892E+04  0.7818609E-02  0.9027275E-01
       -2   -1    0    0    0  501  0.00000000000E+00  0.00000000000E+00  0.28166011487E+03  0.28166011488E+03  0.25500000920E-02 0.  1.
        2   -1    0    0  501    0  0.00000000000E+00  0.00000000000E+00 -0.15067161987E+04  0.15067161987E+04  0.25500000920E-02 0. -1.
    10030    2    1    2    0    0  0.00000000000E+00  0.00000000000E+00 -0.12250560838E+04  0.17883763136E+04  0.13028919489E+04 0.  0.
        2    1    3    3  502    0 -0.41343477664E+02 -0.58086108987E+02  0.27628865350E+03  0.28533962091E+03  0.25500000920E-02 0.  1.
       -2    1    3    3    0  502  0.41343477664E+02  0.58086108987E+02 -0.15013447373E+04  0.15030366927E+04  0.25500000920E-02 0. -1.
</event>
<event>
 5   0  0.1046253E-03  0.1300002E+04  0.7818609E-02  0.9029564E-01
        2   -1    0    0  501    0  0.00000000000E+00  0.00000000000E+00  0.76840367748E+03  0.76840367748E+03  0.25500000920E-02 0.  1.
       -2   -1    0    0    0  501  0.00000000000E+00  0.00000000000E+00 -0.54984277971E+03  0.54984277971E+03  0.25500000920E-02 0. -1.
    10030    2    1    2    0    0  0.00000000000E+00  0.00000000000E+00  0.21856089777E+03  0.13182464572E+04  0.13000018676E+04 0.  0.
        3    1    3    3  502    0 -0.47603881899E+03 -0.35321574068E+02 -0.33809216057E+03  0.58495033124E+03  0.10100000352E+00 0. -1.
       -3    1    3    3    0  502  0.47603881899E+03  0.35321574068E+02  0.55665305834E+03  0.73329612595E+03  0.10100000352E+00 0.  1.
</event>
<event>
 5   0  0.5710383E-04  0.1284467E+04  0.7818609E-02  0.9041975E-01
        1   -1    0    0  501    0  0.00000000000E+00  0.00000000000E+00  0.18019084868E+04  0.18019084868E+04  0.50400001928E-02 0. -1.
       -1   -1    0    0    0  501  0.00000000000E+00  0.00000000000E+00 -0.22890373363E+03  0.22890373369E+03  0.50400001928E-02 0.  1.
    10030    2    1    2    0    0  0.00000000000E+00  0.00000000000E+00  0.15730047531E+04  0.20308122204E+04  0.12844665513E+04 0.  0.
        1    1    3    3  502    0  0.46716612527E+03  0.62757049925E+02  0.96827163170E+02  0.48120487889E+03  0.50400001928E-02 0.  1.
       -1    1    3    3    0  502 -0.46716612527E+03 -0.62757049925E+02  0.14761775900E+04  0.15496073416E+04  0.50400001928E-02 0. -1.
</event>
<event>
 5   0  0.1081574E-03  0.1295665E+04  0.7818609E-02  0.9033010E-01
        2   -1    0    0  501    0  0.00000000000E+00  0.00000000000E+00  0.23843793108E+04  0.23843793108E+04  0.25500000920E-02 0. -1.
       -2   -1    0    0    0  501  0.00000000000E+00  0.00000000000E+00 -0.17601517159E+03  0.17601517161E+03  0.25500000920E-02 0.  1.
    10030    2    1    2    0    0  0.00000000000E+00  0.00000000000E+00  0.22083641392E+04  0.25603944824E+04  0.12956649776E+04 0.  0.
        5    1    3    3  502    0  0.25624519105E+03  0.93970410986E+02 -0.56818546838E+02  0.27882337302E+03  0.46999998093E+01 0.  1.
       -5    1    3    3    0  502 -0.25624519105E+03 -0.93970410986E+02  0.22651826860E+04  0.22815711094E+04  0.46999998093E+01 0. -1.
</event>
<event>
 5   0  0.6006119E-04  0.1295954E+04  0.7818609E-02  0.9032780E-01
       -1   -1    0    0    0  501  0.00000000000E+00  0.00000000000E+00  0.74989400991E+03  0.74989400993E+03  0.50400001928E-02 0.  1.
        1   -1    0    0  501    0  0.00000000000E+00  0.00000000000E+00 -0.55991098790E+03  0.55991098792E+03  0.50400001928E-02 0. -1.
    10030    2    1    2    0    0  0.00000000000E+00  0.00000000000E+00  0.18998302202E+03  0.13098049978E+04  0.12959535423E+04 0.  0.
        4    1    3    3  502    0 -0.38454274769E+03  0.21978994937E+03  0.57300701892E+03  0.72423711813E+03  0.12699999809E+01 0.  1.
       -4    1    3    3    0  502  0.38454274769E+03 -0.21978994937E+03 -0.38302399691E+03  0.58556787971E+03  0.12699999809E+01 0. -1.
</event>
<event>
 5   0  0.5812938E-04  0.1297759E+04  0.7818609E-02  0.9031344E-01
       -1   -1    0    0    0  501  0.00000000000E+00  0.00000000000E+00  0.14934593605E+04  0.14934593605E+04  0.50400001928E-02 0. -1.
        1   -1    0    0  501    0  0.00000000000E+00  0.00000000000E+00 -0.28192577477E+03  0.28192577481E+03  0.50400001928E-02 0.  1.
    10030    2    1    2    0    0  0.00000000000E+00  0.00000000000E+00  0.12115335857E+04  0.17753851353E+04  0.12977591261E+04 0.  0.
        5    1    3    3  502    0 -0.36780132411E+02 -0.58259919572E+03  0.21822763912E+03  0.62323349835E+03  0.46999998093E+01 0.  1.
       -5    1    3    3    0  502  0.36780132411E+02  0.58259919572E+03  0.99330594659E+03  0.11521516370E+04  0.46999998093E+01 0. -1.
</event>
<event>
 5   0  0.1031295E-03  0.1297776E+04  0.7818609E-02  0.9031331E-01
       -2   -1    0    0    0  501  0.00000000000E+00  0.00000000000E+00  0.21423773157E+03  0.21423773159E+03  0.25500000920E-02 0.  1.
        2   -1    0    0  501    0  0.00000000000E+00  0.00000000000E+00 -0.19653658852E+04  0.19653658852E+04  0.25500000920E-02 0. -1.
    10030    2    1    2    0    0  0.00000000000E+00  0.00000000000E+00 -0.17511281536E+04  0.21796036167E+04  0.12977758342E+04 0.  0.
        2    1    3    3  502    0  0.23851260757E+03 -0.56919150513E+03 -0.12122520709E+04  0.13603022888E+04  0.25500000920E-02 0. -1.
       -2    1    3    3    0  502 -0.23851260757E+03  0.56919150513E+03 -0.53887608266E+03  0.81930132793E+03  0.25500000920E-02 0.  1.
</event>
<event>
 5   0  0.5710383E-04  0.1321438E+04  0.7818609E-02  0.9012735E-01
       -1   -1    0    0    0  501  0.00000000000E+00  0.00000000000E+00  0.22220988390E+03  0.22220988395E+03  0.50400001928E-02 0.  1.
        1   -1    0    0  501    0  0.00000000000E+00  0.00000000000E+00 -0.19645832878E+04  0.19645832878E+04  0.50400001928E-02 0. -1.
    10030    2    1    2    0    0  0.00000000000E+00  0.00000000000E+00 -0.17423734039E+04  0.21867931718E+04  0.13214383442E+04 0.  0.
        1    1    3    3  502    0  0.82823996344E+02  0.14845477542E+03  0.18540005149E+03  0.25153889130E+03  0.50400001928E-02 0.  1.
       -1    1    3    3    0  502 -0.82823996344E+02 -0.14845477542E+03 -0.19277734554E+04  0.19352542805E+04  0.50400001928E-02 0. -1.
</event>
<event>
 5   0  0.5563545E-04  0.1274568E+04  0.7818609E-02  0.9049980E-01
       -1   -1    0    0    0  501  0.00000000000E+00  0.00000000000E+00  0.23800513021E+03  0.23800513026E+03  0.50400001928E-02 0.  1.
        1   -1    0    0  501    0  0.00000000000E+00  0.00000000000E+00 -0.17063959887E+04  0.17063959887E+04  0.50400001928E-02 0. -1.
    10030    2    1    2    0    0  0.00000000000E+00  0.00000000000E+00 -0.14683908585E+04  0.19444011190E+04  0.12745681615E+04 0.  0.
        2    1    3    3  502    0  0.52585604547E+02 -0.62641101733E+03 -0.57437772605E+03  0.85150794514E+03  0.25500000920E-02 0. -1.
       -2    1    3    3    0  502 -0.52585604547E+02  0.62641101733E+03 -0.89401313248E+03  0.10928931739E+04  0.25500000920E-02 0.  1.
</event>
<event>
 5   0  0.1081574E-03  0.1309914E+04  0.7818609E-02  0.9021740E-01
       -2   -1    0    0    0  501  0.00000000000E+00  0.00000000000E+00  0.35999816290E+03  0.35999816291E+03  0.25500000920E-02 0.  1.
        2   -1    0    0  501    0  0.00000000000E+00  0.00000000000E+00 -0.11915866228E+04  0.11915866228E+04  0.25500000920E-02 0. -1.
    10030    2    1    2    0    0  0.00000000000E+00  0.00000000000E+00 -0.83158845992E+03  0.15515847857E+04  0.13099144936E+04 0.  0.
        5    1    3    3  502    0 -0.21324449776E+03 -0.42932201285E+03  0.11280872683E+03  0.49248198484E+03  0.46999998093E+01 0.  1.
       -5    1    3    3    0  502  0.21324449776E+03  0.42932201285E+03 -0.94439718675E+03  0.10591028009E+04  0.46999998093E+01 0. -1.
</event>
<event>
 5   0  0.1103241E-03  0.1329782E+04  0.7818609E-02  0.9006276E-01
       -2   -1    0    0    0  501  0.00000000000E+00  0.00000000000E+00  0.70677826297E+03  0.70677826298E+03  0.25500000920E-02 0.  1.
        2   -1    0    0  501    0  0.00000000000E+00  0.00000000000E+00 -0.62548590058E+03  0.62548590058E+03  0.25500000920E-02 0. -1.
    10030    2    1    2    0    0  0.00000000000E+00  0.00000000000E+00  0.81292362394E+02  0.13322641636E+04  0.13297816939E+04 0.  0.
        4    1    3    3  502    0  0.35870921810E+03 -0.55190239234E+03 -0.53388889624E+02  0.66039423094E+03  0.12699999809E+01 0. -1.
       -4    1    3    3    0  502 -0.35870921810E+03  0.55190239234E+03  0.13468125202E+03  0.67186993262E+03  0.12699999809E+01 0.  1.
</event>
<event>
 5   0  0.5563545E-04  0.1292840E+04  0.7818609E-02  0.9035263E-01
        1   -1    0    0  501    0  0.00000000000E+00  0.00000000000E+00  0.62852270324E+03  0.62852270326E+03  0.50400001928E-02 0. -1.
       -1   -1    0    0    0  501  0.00000000000E+00  0.00000000000E+00 -0.66482683589E+03  0.66482683591E+03  0.50400001928E-02 0.  1.
    10030    2    1    2    0    0  0.00000000000E+00  0.00000000000E+00 -0.36304132651E+02  0.12933495392E+04  0.12928399129E+04 0.  0.
        2    1    3    3  502    0  0.16021591202E+03  0.27233910152E+03 -0.58230790215E+03  0.66251054150E+03  0.25500000920E-02 0.  1.
       -2    1    3    3    0  502 -0.16021591202E+03 -0.27233910152E+03  0.54600376950E+03  0.63083899768E+03  0.25500000920E-02 0. -1.
</event>
<event>
 5   0  0.5766027E-04  0.1296796E+04  0.7818609E-02  0.9032110E-01
       -1   -1    0    0    0  501  0.00000000000E+00  0.00000000000E+00  0.94619469957E+03  0.94619469958E+03  0.50400001928E-02 0.  1.
        1   -1    0    0  501    0  0.00000000000E+00  0.00000000000E+00 -0.44432700165E+03  0.44432700168E+03  0.50400001928E-02 0. -1.
    10030    2    1    2    0    0  0.00000000000E+00  0.00000000000E+00  0.50186769792E+03  0.13905217013E+04  0.12967958264E+04 0.  0.
        3    1    3    3  502    0 -0.30075415617E+03  0.57415935697E+03  0.26974651563E+03  0.70205072648E+03  0.10100000352E+00 0.  1.
       -3    1    3    3    0  502  0.30075415617E+03 -0.57415935697E+03  0.23212118229E+03  0.68847097479E+03  0.10100000352E+00 0. -1.
</event>
<event>
 5   0  0.5563545E-04  0.1301063E+04  0.7818609E-02  0.9028723E-01
        1   -1    0    0  501    0  0.00000000000E+00  0.00000000000E+00  0.93439011273E+03  0.93439011274E+03  0.50400001928E-02 0. -1.
       -1   -1    0    0    0  501  0.00000000000E+00  0.00000000000E+00 -0.45290644226E+03  0.45290644229E+03  0.50400001928E-02 0.  1.
    10030    2    1    2    0    0  0.00000000000E+00  0.00000000000E+00  0.48148367047E+03  0.13872965550E+04  0.13010631063E+04 0.  0.
        2    1    3    3  502    0  0.50674329304E+03  0.35367291497E+03  0.24001060122E+02  0.61842489174E+03  0.25500000920E-02 0.  1.
       -2    1    3    3    0  502 -0.50674329304E+03 -0.35367291497E+03  0.45748261035E+03  0.76887166329E+03  0.25500000920E-02 0. -1.
</event>
<event>
 5   0  0.1046253E-03  0.1269630E+04  0.7818609E-02  0.9054002E-01
        2   -1    0    0  501    0  0.00000000000E+00  0.00000000000E+00  0.41361965022E+03  0.41361965022E+03  0.25500000920E-02 0.  1.
       -2   -1    0    0    0  501  0.00000000000E+00  0.00000000000E+00 -0.97430049817E+03  0.97430049817E+03  0.25500000920E-02 0. -1.
    10030    2    1    2    0    0  0.00000000000E+00  0.00000000000E+00 -0.56068084795E+03  0.13879201484E+04  0.12696296015E+04 0.  0.
        3    1    3    3  502    0  0.62059555321E+03  0.13360547303E+03 -0.28115699786E+03  0.69428994717E+03  0.10100000352E+00 0. -1.
       -3    1    3    3    0  502 -0.62059555321E+03 -0.13360547303E+03 -0.27952385009E+03  0.69363020123E+03  0.10100000352E+00 0.  1.
</event>
<event>
 5   0  0.5812938E-04  0.1301525E+04  0.7818609E-02  0.9028357E-01
        1   -1    0    0  501    0  0.00000000000E+00  0.00000000000E+00  0.58098701489E+03  0.58098701491E+03  0.50400001928E-02 0. -1.
       -1   -1    0    0    0  501  0.00000000000E+00  0.00000000000E+00 -0.72891789135E+03  0.72891789137E+03  0.50400001928E-02 0.  1.
    10030    2    1    2    0    0  0.00000000000E+00  0.00000000000E+00 -0.14793087646E+03  0.13099049063E+04  0.13015249976E+04 0.  0.
        5    1    3    3  502    0 -0.20293631699E+03  0.10394513187E+03  0.53945203532E+03  0.58567766528E+03  0.46999998093E+01 0. -1.
       -5    1    3    3    0  502  0.20293631699E+03 -0.10394513187E+03 -0.68738291178E+03  0.72422724100E+03  0.46999998093E+01 0.  1.
</event>
<event>
 5   0  0.6006119E-04  0.1308557E+04  0.7818609E-02  0.9022807E-01
       -1   -1    0    0    0  501  0.00000000000E+00  0.00000000000E+00  0.61815747264E+03  0.61815747266E+03  0.50400001928E-02 0.  1.
        1   -1    0    0  501    0  0.00000000000E+00  0.00000000000E+00 -0.69251012894E+03  0.69251012896E+03  0.50400001928E-02 0. -1.
    10030    2    1    2    0    0  0.00000000000E+00  0.00000000000E+00 -0.74352656302E+02  0.13106676016E+04  0.13085569320E+04 0.  0.
        4    1    3    3  502    0 -0.20591279237E+03  0.29400534483E+03 -0.58508652832E+03  0.68641611241E+03  0.12699999809E+01 0. -1.
       -4    1    3    3    0  502  0.20591279237E+03 -0.29400534483E+03  0.51073387202E+03  0.62425148921E+03  0.12699999809E+01 0.  1.
</event>
<event>
 5   0  0.5766027E-04  0.1284741E+04  0.7818609E-02  0.9041754E-01
       -1   -1    0    0    0  501  0.00000000000E+00  0.00000000000E+00  0.32295735230E+03  0.32295735234E+03  0.50400001928E-02 0.  1.
        1   -1    0    0  501    0  0.00000000000E+00  0.00000000000E+00 -0.12776919096E+04  0.12776919096E+04  0.50400001928E-02 0. -1.
    10030    2    1    2    0    0  0.00000000000E+00  0.00000000000E+00 -0.95473455726E+03  0.16006492619E+04  0.12847412132E+04 0.  0.
        3    1    3    3  502    0  0.60848712097E+03 -0.39595053016E+02 -0.22566112368E+03  0.65019020106E+03  0.10100000352E+00 0.  1.
       -3    1    3    3    0  502 -0.60848712097E+03  0.39595053016E+02 -0.72907343358E+03  0.95045906085E+03  0.10100000352E+00 0. -1.
</event>
<event>
 5   0  0.1101619E-03  0.1297307E+04  0.7818609E-02  0.9031704E-01
       -2   -1    0    0    0  501  0.00000000000E+00  0.00000000000E+00  0.27458465280E+03  0.27458465281E+03  0.25500000920E-02 0. -1.
        2   -1    0    0  501    0  0.00000000000E+00  0.00000000000E+00 -0.15323189366E+04  0.15323189366E+04  0.25500000920E-02 0.  1.
    10030    2    1    2    0    0  0.00000000000E+00  0.00000000000E+00 -0.12577342838E+04  0.18069035894E+04  0.12973068460E+04 0.  0.
        1    1    3    3  502    0 -0.25105139792E+03  0.49046216195E+02  0.20136863058E+03  0.32554824700E+03  0.50400001928E-02 0. -1.
       -1    1    3    3    0  502  0.25105139792E+03 -0.49046216195E+02 -0.14591029143E+04  0.14813553424E+04  0.50400001928E-02 0.  1.
</event>
<event>
 5   0  0.5710383E-04  0.1298036E+04  0.7818609E-02  0.9031124E-01
        1   -1    0    0  501    0  0.00000000000E+00  0.00000000000E+00  0.11058157673E+04  0.11058157673E+04  0.50400001928E-02 0.  1.
       -1   -1    0    0    0  501  0.00000000000E+00  0.00000000000E+00 -0.38091726830E+03  0.38091726833E+03  0.50400001928E-02 0. -1.
    10030    2    1    2    0    0  0.00000000000E+00  0.00000000000E+00  0.72489849898E+03  0.14867330356E+04  0.12980359338E+04 0.  0.
        1    1    3    3  502    0  0.44735595862E+03 -0.23637487044E+03 -0.10311829310E+03  0.51636597050E+03  0.50400001928E-02 0. -1.
       -1    1    3    3    0  502 -0.44735595862E+03  0.23637487044E+03  0.82801679207E+03  0.97036706512E+03  0.50400001928E-02 0.  1.
</event>
<event>
 5   0  0.1046253E-03  0.1298822E+04  0.7818609E-02  0.9030500E-01
       -2   -1    0    0    0  501  0.00000000000E+00  0.00000000000E+00  0.34929451812E+03  0.34929451813E+03  0.25500000920E-02 0. -1.
        2   -1    0    0  501    0  0.00000000000E+00  0.00000000000E+00 -0.12073896055E+04  0.12073896055E+04  0.25500000920E-02 0.  1.
    10030    2    1    2    0    0  0.00000000000E+00  0.00000000000E+00 -0.85809508742E+03  0.15566841237E+04  0.12988218823E+04 0.  0.
        3    1    3    3  502    0 -0.25051740136E+03 -0.50698497724E+03 -0.81171990901E+03  0.98928355713E+03  0.10100000352E+00 0.  1.
       -3    1    3    3    0  502  0.25051740136E+03  0.50698497724E+03 -0.46375178406E+02  0.56740056653E+03  0.10100000352E+00 0. -1.
</event>
<event>
 5   0  0.1046253E-03  0.1285271E+04  0.7818609E-02  0.9041327E-01
        2   -1    0    0  501    0  0.00000000000E+00  0.00000000000E+00  0.22267020793E+04  0.22267020793E+04  0.25500000920E-02 0. -1.
       -2   -1    0    0    0  501  0.00000000000E+00  0.00000000000E+00 -0.18546740943E+03  0.18546740945E+03  0.25500000920E-02 0.  1.
    10030    2    1    2    0    0  0.00000000000E+00  0.00000000000E+00  0.20412346699E+04  0.24121694888E+04  0.12852714363E+04 0.  0.
        3    1    3    3  502    0  0.62976026156E+03 -0.16882315145E+02  0.12587364671E+04  0.14075867659E+04  0.10100000352E+00 0. -1.
       -3    1    3    3    0  502 -0.62976026156E+03  0.16882315145E+02  0.78249820276E+03  0.10045827229E+04  0.10100000352E+00 0.  1.
</event>
<event>
 5   0  0.1103241E-03  0.1320846E+04  0.7818609E-02  0.9013195E-01
        2   -1    0    0  501    0  0.00000000000E+00  0.00000000000E+00  0.67927671142E+03  0.67927671142E+03  0.25500000920E-02 0.  1.
       -2   -1    0    0    0  501  0.00000000000E+00  0.00000000000E+00 -0.64209289457E+03  0.64209289458E+03  0.25500000920E-02 0. -1.
    10030    2    1    2    0    0  0.00000000000E+00  0.00000000000E+00  0.37183816844E+02  0.13213696060E+04  0.13208463194E+04 0.  0.
        4    1    3    3  502    0 -0.35326000396E+03  0.15945958243E+03 -0.51635085062E+03  0.64563132100E+03  0.12699999809E+01 0. -1.
       -4    1    3    3    0  502  0.35326000396E+03 -0.15945958243E+03  0.55353466747E+03  0.67573828500E+03  0.12699999809E+01 0.  1.
</event>
<event>
 5   0  0.5766027E-04  0.1290597E+04  0.7818609E-02  0.9037055E-01
       -1   -1    0    0    0  501  0.00000000000E+00  0.00000000000E+00  0.45298676448E+03  0.45298676451E+03  0.50400001928E-02 0.  1.
        1   -1    0    0  501    0  0.00000000000E+00  0.00000000000E+00 -0.91925428102E+03  0.91925428103E+03  0.50400001928E-02 0. -1.
    10030    2    1    2    0    0  0.00000000000E+00  0.00000000000E+00 -0.46626751653E+03  0.13722410455E+04  0.12905967961E+04 0.  0.
        3    1    3    3  502    0 -0.25159173979E+03 -0.21306787989E+03 -0.82294525015E+03  0.88652987537E+03  0.10100000352E+00 0. -1.
       -3    1    3    3    0  502  0.25159173979E+03  0.21306787989E+03  0.35667773362E+03  0.48571117018E+03  0.10100000352E+00 0.  1.
</event>
<event>
 5   0  0.1103241E-03  0.1299240E+04  0.7818609E-02  0.9030168E-01
        2   -1    0    0  501    0  0.00000000000E+00  0.00000000000E+00  0.76260752577E+03  0.76260752578E+03  0.25500000920E-02 0.  1.
       -2   -1    0    0    0  501  0.00000000000E+00  0.00000000000E+00 -0.55337223063E+03  0.55337223063E+03  0.25500000920E-02 0. -1.
    10030    2    1    2    0    0  0.00000000000E+00  0.00000000000E+00  0.20923529515E+03  0.13159797564E+04  0.12992395124E+04 0.  0.
        4    1    3    3  502    0 -0.29763682088E+03 -0.56228177187E+03 -0.28436024923E+02  0.63683489896E+03  0.12699999809E+01 0. -1.
       -4    1    3    3    0  502  0.29763682088E+03  0.56228177187E+03  0.23767132007E+03  0.67914485745E+03  0.12699999809E+01 0.  1.
</event>
<event>
 5   0  0.5812938E-04  0.1325059E+04  0.7818609E-02  0.9009926E-01
        1   -1    0    0  501    0  0.00000000000E+00  0.00000000000E+00  0.15262075213E+04  0.15262075213E+04  0.50400001928E-02 0. -1.
       -1   -1    0    0    0  501  0.00000000000E+00  0.00000000000E+00 -0.28760538157E+03  0.28760538162E+03  0.50400001928E-02 0.  1.
    10030    2    1    2    0    0  0.00000000000E+00  0.00000000000E+00  0.12386021397E+04  0.18138129029E+04  0.13250592388E+04 0.  0.
        5    1    3    3  502    0 -0.36016923862E+03 -0.32902201355E+03  0.56847250615E+01  0.48788499869E+03  0.46999998093E+01 0.  1.
       -5    1    3    3    0  502  0.36016923862E+03  0.32902201355E+03  0.12329174147E+04  0.13259279042E+04  0.46999998093E+01 0. -1.
</event>
<event>
 5   0  0.1101619E-03  0.1305291E+04  0.7818609E-02  0.9025380E-01
       -2   -1    0    0    0  501  0.00000000000E+00  0.00000000000E+00  0.59442151981E+03  0.59442151982E+03  0.25500000920E-02 0.  1.
        2   -1    0    0  501    0  0.00000000000E+00  0.00000000000E+00 -0.71657260674E+03  0.71657260675E+03  0.25500000920E-02 0. -1.
    10030    2    1    2    0    0  0.00000000000E+00  0.00000000000E+00 -0.12215108693E+03  0.13109941266E+04  0.13052910449E+04 0.  0.
        1    1    3    3  502    0 -0.40837894646E+03 -0.46761993188E+03 -0.26321195924E+03  0.67433100189E+03  0.50400001928E-02 0. -1.
       -1    1    3    3    0  502  0.40837894646E+03  0.46761993188E+03  0.14106087231E+03  0.63666312467E+03  0.50400001928E-02 0.  1.
</event>
<event>
 5   0  0.5563545E-04  0.1300382E+04  0.7818609E-02  0.9029262E-01
       -1   -1    0    0    0  501  0.00000000000E+00  0.00000000000E+00  0.77598179175E+03  0.77598179177E+03  0.50400001928E-02 0. -1.
        1   -1    0    0  501    0  0.00000000000E+00  0.00000000000E+00 -0.54479139897E+03  0.54479139900E+03  0.50400001928E-02 0.  1.
    10030    2    1    2    0    0  0.00000000000E+00  0.00000000000E+00  0.23119039278E+03  0.13207731908E+04  0.13003817992E+04 0.  0.
        2    1    3    3  502    0 -0.24161604345E+03  0.49268723145E+03 -0.23862739983E+03  0.59838286777E+03  0.25500000920E-02 0.  1.
       -2    1    3    3    0  502  0.24161604345E+03 -0.49268723145E+03  0.46981779261E+03  0.72239032299E+03  0.25500000920E-02 0. -1.
</event>
<event>
 5   0  0.1081574E-03  0.1303875E+04  0.7818609E-02  0.9026498E-01
       -2   -1    0    0    0  501  0.00000000000E+00  0.00000000000E+00  0.33904939663E+03  0.33904939664E+03  0.25500000920E-02 0.  1.
        2   -1    0    0  501    0  0.00000000000E+00  0.00000000000E+00 -0.12535718522E+04  0.12535718522E+04  0.25500000920E-02 0. -1.
    10030    2    1    2    0    0  0.00000000000E+00  0.00000000000E+00 -0.91452245557E+03  0.15926212488E+04  0.13038754237E+04 0.  0.
        5    1    3    3  502    0  0.31012813911E+03  0.35851336130E+03 -0.10039062353E+04  0.11102076887E+04  0.46999998093E+01 0. -1.
       -5    1    3    3    0  502 -0.31012813911E+03 -0.35851336130E+03  0.89383779716E+02  0.48241356010E+03  0.46999998093E+01 0.  1.
</event>
<event>
 5   0  0.5766027E-04  0.1294249E+04  0.7818609E-02  0.9034139E-01
       -1   -1    0    0    0  501  0.00000000000E+00  0.00000000000E+00  0.66913092696E+03  0.66913092698E+03  0.50400001928E-02 0. -1.
        1   -1    0    0  501    0  0.00000000000E+00  0.00000000000E+00 -0.62584143962E+03  0.62584143964E+03  0.50400001928E-02 0.  1.
    10030    2    1    2    0    0  0.00000000000E+00  0.00000000000E+00  0.43289487341E+02  0.12949723666E+04  0.12942486046E+04 0.  0.
        3    1    3    3  502    0  0.29295853121E+03 -0.57641726952E+03 -0.46050726078E+01  0.64660868112E+03  0.10100000352E+00 0. -1.
       -3    1    3    3    0  502 -0.29295853121E+03  0.57641726952E+03  0.47894559949E+02  0.64836368550E+03  0.10100000352E+00 0.  1.
</event>
<event>
 5   0  0.5766027E-04  0.1295995E+04  0.7818609E-02  0.9032747E-01
       -1   -1    0    0    0  501  0.00000000000E+00  0.00000000000E+00  0.32579568285E+03  0.32579568289E+03  0.50400001928E-02 0.  1.
        1   -1    0    0  501    0  0.00000000000E+00  0.00000000000E+00 -0.12888476454E+04  0.12888476454E+04  0.50400001928E-02 0. -1.
    10030    2    1    2    0    0  0.00000000000E+00  0.00000000000E+00 -0.96305196253E+03  0.16146433283E+04  0.12959953684E+04 0.  0.
        3    1    3    3  502    0 -0.26408691874E+03 -0.56400610284E+03 -0.25846212875E+03  0.67427551260E+03  0.10100000352E+00 0. -1.
       -3    1    3    3    0  502  0.26408691874E+03  0.56400610284E+03 -0.70458983378E+03  0.94036781567E+03  0.10100000352E+00 0.  1.
</event>
<event>
 5   0  0.4012375E-04  0.1295689E+04  0.7818609E-02  0.9032991E-01
        3   -1    0    0  501    0  0.00000000000E+00  0.00000000000E+00  0.14565849896E+04  0.14565849931E+04  0.10100000352E+00 0. -1.
       -3   -1    0    0    0  501  0.00000000000E+00  0.00000000000E+00 -0.28814140229E+03  0.28814141999E+03  0.10100000352E+00 0.  1.
    10030    2    1    2    0    0  0.00000000000E+00  0.00000000000E+00  0.11684435873E+04  0.17447264131E+04  0.12956889441E+04 0.  0.
        2    1    3    3  502    0 -0.29505719849E+02 -0.62872351476E+03  0.79081547305E+03  0.10107190302E+04  0.25500000920E-02 0. -1.
       -2    1    3    3    0  502  0.29505719849E+02  0.62872351476E+03  0.37762811427E+03  0.73400738293E+03  0.25500000920E-02 0.  1.
</event>
<event>
 5   0  0.5710383E-04  0.1310242E+04  0.7818609E-02  0.9021483E-01
       -1   -1    0    0    0  501  0.00000000000E+00  0.00000000000E+00  0.88632241388E+03  0.88632241390E+03  0.50400001928E-02 0. -1.
        1   -1    0    0  501    0  0.00000000000E+00  0.00000000000E+00 -0.48422941324E+03  0.48422941327E+03  0.50400001928E-02 0.  1.
    10030    2    1    2    0    0  0.00000000000E+00  0.00000000000E+00  0.40209300064E+03  0.13705518272E+04  0.13102417830E+04 0.  0.
        1    1    3    3  502    0  0.40422664028E+03  0.51078752879E+03  0.27412128619E+03  0.70671462122E+03  0.50400001928E-02 0. -1.
       -1    1    3    3    0  502 -0.40422664028E+03 -0.51078752879E+03  0.12797171445E+03  0.66383720595E+03  0.50400001928E-02 0.  1.
</event>
<event>
 5   0  0.5563545E-04  0.1295418E+04  0.7818609E-02  0.9033206E-01
       -1   -1    0    0    0  501  0.00000000000E+00  0.00000000000E+00  0.73559221058E+03  0.73559221060E+03  0.50400001928E-02 0. -1.
        1   -1    0    0  501    0  0.00000000000E+00  0.00000000000E+00 -0.57032577626E+03  0.57032577629E+03  0.50400001928E-02 0.  1.
    10030    2    1    2    0    0  0.00000000000E+00  0.00000000000E+00  0.16526643432E+03  0.13059179869E+04  0.12954183858E+04 0.  0.
        2    1    3    3  502    0 -0.23098107965E+03  0.59590888163E+02  0.68969660109E+03  0.72978403290E+03  0.25500000920E-02 0. -1.
       -2    1    3    3    0  502  0.23098107965E+03 -0.59590888163E+02 -0.52443016677E+03  0.57613395399E+03  0.25500000920E-02 0.  1.
</event>
<event>
 5   0  0.5812938E-04  0.1299611E+04  0.7818609E-02  0.9029873E-01
        1   -1    0    0  501    0  0.00000000000E+00  0.00000000000E+00  0.14634927838E+04  0.14634927838E+04  0.50400001928E-02 0.  1.
       -1   -1    0    0    0  501  0.00000000000E+00  0.00000000000E+00 -0.28852037431E+03  0.28852037435E+03  0.50400001928E-02 0. -1.
    10030    2    1    2    0    0  0.00000000000E+00  0.00000000000E+00  0.11749724094E+04  0.17520131581E+04  0.12996114586E+04 0.  0.
        5    1    3    3  502    0  0.40457381434E+03  0.32936586737E+01 -0.97975424055E+02  0.41630769048E+03  0.46999998093E+01 0. -1.
       -5    1    3    3    0  502 -0.40457381434E+03 -0.32936586737E+01  0.12729478335E+04  0.13357054676E+04  0.46999998093E+01 0.  1.
</event>
<event>
 5   0  0.1081574E-03  0.1286848E+04  0.7818609E-02  0.9040060E-01
        2   -1    0    0  501    0  0.00000000000E+00  0.00000000000E+00  0.23075286417E+04  0.23075286417E+04  0.25500000920E-02 0.  1.
       -2   -1    0    0    0  501  0.00000000000E+00  0.00000000000E+00 -0.17941030901E+03  0.17941030903E+03  0.25500000920E-02 0. -1.
    10030    2    1    2    0    0  0.00000000000E+00  0.00000000000E+00  0.21281183327E+04  0.24869389507E+04  0.12868479734E+04 0.  0.
        5    1    3    3  502    0 -0.24310211772E+03 -0.26253315505E+03  0.20974936806E+04  0.21277979527E+04  0.46999998093E+01 0.  1.
       -5    1    3    3    0  502  0.24310211772E+03  0.26253315505E+03  0.30624652014E+02  0.35914099801E+03  0.46999998093E+01 0. -1.
</event>
<event>
 5   0  0.5812938E-04  0.1293897E+04  0.7818609E-02  0.9034419E-01
        1   -1    0    0  501    0  0.00000000000E+00  0.00000000000E+00  0.18243335008E+04  0.18243335008E+04  0.50400001928E-02 0. -1.
       -1   -1    0    0    0  501  0.00000000000E+00  0.00000000000E+00 -0.22942206205E+03  0.22942206210E+03  0.50400001928E-02 0.  1.
    10030    2    1    2    0    0  0.00000000000E+00  0.00000000000E+00  0.15949114388E+04  0.20537555629E+04  0.12938969877E+04 0.  0.
        5    1    3    3  502    0  0.33972856282E+03 -0.37916500514E+03  0.14310476532E+04  0.15189144391E+04  0.46999998093E+01 0. -1.
       -5    1    3    3    0  502 -0.33972856282E+03  0.37916500514E+03  0.16386378555E+03  0.53484112382E+03  0.46999998093E+01 0.  1.
</event>
<event>
 5   0  0.1101619E-03  0.1305271E+04  0.7818609E-02  0.9025395E-01
       -2   -1    0    0    0  501  0.00000000000E+00  0.00000000000E+00  0.48693416809E+03  0.48693416810E+03  0.25500000920E-02 0. -1.
        2   -1    0    0  501    0  0.00000000000E+00  0.00000000000E+00 -0.87472462199E+03  0.87472462200E+03  0.25500000920E-02 0.  1.
    10030    2    1    2    0    0  0.00000000000E+00  0.00000000000E+00 -0.38779045390E+03  0.13616587901E+04  0.13052713222E+04 0.  0.
        1    1    3    3  502    0  0.39844563857E+03  0.22890660287E+03 -0.67735519668E+03  0.81851525473E+03  0.50400001928E-02 0.  1.
       -1    1    3    3    0  502 -0.39844563857E+03 -0.22890660287E+03  0.28956474278E+03  0.54314353537E+03  0.50400001928E-02 0. -1.
</event>
<event>
 5   0  0.5710383E-04  0.1360635E+04  0.7818609E-02  0.8982816E-01
       -1   -1    0    0    0  501  0.00000000000E+00  0.00000000000E+00  0.29480770021E+03  0.29480770025E+03  0.50400001928E-02 0. -1.
        1   -1    0    0  501    0  0.00000000000E+00  0.00000000000E+00 -0.15699454922E+04  0.15699454922E+04  0.50400001928E-02 0.  1.
    10030    2    1    2    0    0  0.00000000000E+00  0.00000000000E+00 -0.12751377920E+04  0.18647531924E+04  0.13606351753E+04 0.  0.
        1    1    3    3  502    0  0.28277280995E+02 -0.36076215818E+03 -0.14271054130E+04  0.14722699478E+04  0.50400001928E-02 0.  1.
       -1    1    3    3    0  502 -0.28277280995E+02  0.36076215818E+03  0.15196762107E+03  0.39248324458E+03  0.50400001928E-02 0. -1.
</event>
<event>
 5   0  0.1103241E-03  0.1338981E+04  0.7818609E-02  0.8999212E-01
        2   -1    0    0  501    0  0.00000000000E+00  0.00000000000E+00  0.35825788384E+03  0.35825788385E+03  0.25500000920E-02 0.  1.
       -2   -1    0    0    0  501  0.00000000000E+00  0.00000000000E+00 -0.12511025362E+04  0.12511025362E+04  0.25500000920E-02 0. -1.
    10030    2    1    2    0    0  0.00000000000E+00  0.00000000000E+00 -0.89284465233E+03  0.16093604200E+04  0.13389807274E+04 0.  0.
        4    1    3    3  502    0 -0.53482096295E+03 -0.81228550409E+02  0.27668692422E+02  0.54166291109E+03  0.12699999809E+01 0.  1.
       -4    1    3    3    0  502  0.53482096295E+03  0.81228550409E+02 -0.92051334475E+03  0.10676975089E+04  0.12699999809E+01 0. -1.
</event>
<event>
 5   0  0.1046253E-03  0.1259050E+04  0.7818609E-02  0.9062685E-01
       -2   -1    0    0    0  501  0.00000000000E+00  0.00000000000E+00  0.22258522047E+03  0.22258522048E+03  0.25500000920E-02 0.  1.
        2   -1    0    0  501    0  0.00000000000E+00  0.00000000000E+00 -0.17804480778E+04  0.17804480778E+04  0.25500000920E-02 0. -1.
    10030    2    1    2    0    0  0.00000000000E+00  0.00000000000E+00 -0.15578628573E+04  0.20030332983E+04  0.12590495271E+04 0.  0.
        3    1    3    3  502    0 -0.53255166333E+03 -0.11239486575E+03 -0.12821657588E+04  0.13929080814E+04  0.10100000352E+00 0. -1.
       -3    1    3    3    0  502  0.53255166333E+03  0.11239486575E+03 -0.27569709854E+03  0.61012521691E+03  0.10100000352E+00 0.  1.
</event>
<event>
 5   0  0.5766027E-04  0.1290089E+04  0.7818609E-02  0.9037462E-01
        1   -1    0    0  501    0  0.00000000000E+00  0.00000000000E+00  0.12469818656E+04  0.12469818657E+04  0.50400001928E-02 0. -1.
       -1   -1    0    0    0  501  0.00000000000E+00  0.00000000000E+00 -0.33367163588E+03  0.33367163592E+03  0.50400001928E-02 0.  1.
    10030    2    1    2    0    0  0.00000000000E+00  0.00000000000E+00  0.91331022977E+03  0.15806535016E+04  0.12900891117E+04 0.  0.
        3    1    3    3  502    0 -0.32363428980E+02  0.64079341845E+03  0.37520856563E+03  0.74326648961E+03  0.10100000352E+00 0. -1.
       -3    1    3    3    0  502  0.32363428980E+02 -0.64079341845E+03  0.53810166414E+03  0.83738701196E+03  0.10100000352E+00 0.  1.
</event>
<event>
 5   0  0.5812938E-04  0.1285039E+04  0.7818609E-02  0.9041514E-01
       -1   -1    0    0    0  501  0.00000000000E+00  0.00000000000E+00  0.71571150787E+03  0.71571150789E+03  0.50400001928E-02 0.  1.
        1   -1    0    0  501    0  0.00000000000E+00  0.00000000000E+00 -0.57681216025E+03  0.57681216027E+03  0.50400001928E-02 0. -1.
    10030    2    1    2    0    0  0.00000000000E+00  0.00000000000E+00  0.13889934763E+03  0.12925236682E+04  0.12850386780E+04 0.  0.
        5    1    3    3  502    0  0.65943895598E+02  0.14991989725E+03  0.69434489369E+03  0.71341537294E+03  0.46999998093E+01 0.  1.
       -5    1    3    3    0  502 -0.65943895598E+02 -0.14991989725E+03 -0.55544554606E+03  0.57910829522E+03  0.46999998093E+01 0. -1.
</event>
<event>
 5   0  0.4012375E-04  0.1294033E+04  0.7818609E-02  0.9034311E-01
        3   -1    0    0  501    0  0.00000000000E+00  0.00000000000E+00  0.38649401054E+03  0.38649402373E+03  0.10100000352E+00 0. -1.
       -3   -1    0    0    0  501  0.00000000000E+00  0.00000000000E+00 -0.10831478157E+04  0.10831478204E+04  0.10100000352E+00 0.  1.
    10030    2    1    2    0    0  0.00000000000E+00  0.00000000000E+00 -0.69665380512E+03  0.14696418441E+04  0.12940326989E+04 0.  0.
        4    1    3    3  502    0 -0.43840345223E+03  0.17728032360E+03 -0.84984488252E+03  0.97255531324E+03  0.12699999809E+01 0.  1.
       -4    1    3    3    0  502  0.43840345223E+03 -0.17728032360E+03  0.15319107740E+03  0.49708653086E+03  0.12699999809E+01 0. -1.
</event>
<event>
 5   0  0.5563545E-04  0.1301806E+04  0.7818609E-02  0.9028135E-01
       -1   -1    0    0    0  501  0.00000000000E+00  0.00000000000E+00  0.44420198036E+03  0.44420198039E+03  0.50400001928E-02 0.  1.
        1   -1    0    0  501    0  0.00000000000E+00  0.00000000000E+00 -0.95378791030E+03  0.95378791031E+03  0.50400001928E-02 0. -1.
    10030    2    1    2    0    0  0.00000000000E+00  0.00000000000E+00 -0.50958592994E+03  0.13979898907E+04  0.13018056362E+04 0.  0.
        2    1    3    3  502    0 -0.18096747091E+03 -0.20744607239E+03  0.37860945381E+03  0.46811132970E+03  0.25500000920E-02 0.  1.
       -2    1    3    3    0  502  0.18096747091E+03  0.20744607239E+03 -0.88819538375E+03  0.92987856099E+03  0.25500000920E-02 0. -1.
</event>
<event>
 5   0  0.1081574E-03  0.1299576E+04  0.7818609E-02  0.9029901E-01
        2   -1    0    0  501    0  0.00000000000E+00  0.00000000000E+00  0.90349127875E+03  0.90349127875E+03  0.25500000920E-02 0.  1.
       -2   -1    0    0    0  501  0.00000000000E+00  0.00000000000E+00 -0.46732558450E+03  0.46732558450E+03  0.25500000920E-02 0. -1.
    10030    2    1    2    0    0  0.00000000000E+00  0.00000000000E+00  0.43616569425E+03  0.13708168633E+04  0.12995762231E+04 0.  0.
        5    1    3    3  502    0 -0.15749819317E+03  0.20678445977E+03  0.84624202198E+03  0.88527574428E+03  0.46999998093E+01 0.  1.
       -5    1    3    3    0  502  0.15749819317E+03 -0.20678445977E+03 -0.41007632773E+03  0.48554111897E+03  0.46999998093E+01 0. -1.
</event>
<event>
 5   0  0.1031295E-03  0.1329602E+04  0.7818609E-02  0.9006414E-01
       -2   -1    0    0    0  501  0.00000000000E+00  0.00000000000E+00  0.37480685845E+03  0.37480685846E+03  0.25500000920E-02 0.  1.
        2   -1    0    0  501    0  0.00000000000E+00  0.00000000000E+00 -0.11791689365E+04  0.11791689365E+04  0.25500000920E-02 0. -1.
    10030    2    1    2    0    0  0.00000000000E+00  0.00000000000E+00 -0.80436207807E+03  0.15539757950E+04  0.13296023536E+04 0.  0.
        2    1    3    3  502    0 -0.25503818461E+03 -0.44893663589E+03  0.87262538741E+02  0.52364427747E+03  0.25500000920E-02 0.  1.
       -2    1    3    3    0  502  0.25503818461E+03  0.44893663589E+03 -0.89162461681E+03  0.10303315175E+04  0.25500000920E-02 0. -1.
</event>
<event>
 5   0  0.1046253E-03  0.1295197E+04  0.7818609E-02  0.9033383E-01
        2   -1    0    0  501    0  0.00000000000E+00  0.00000000000E+00  0.57524733262E+03  0.57524733262E+03  0.25500000920E-02 0. -1.
       -2   -1    0    0    0  501  0.00000000000E+00  0.00000000000E+00 -0.72904969535E+03  0.72904969536E+03  0.25500000920E-02 0.  1.
    10030    2    1    2    0    0  0.00000000000E+00  0.00000000000E+00 -0.15380236274E+03  0.13042970280E+04  0.12951971164E+04 0.  0.
        3    1    3    3  502    0 -0.56310989996E+03  0.15871398962E+03 -0.35652271933E+03  0.68512141225E+03  0.10100000352E+00 0.  1.
       -3    1    3    3    0  502  0.56310989996E+03 -0.15871398962E+03  0.20272035659E+03  0.61917561572E+03  0.10100000352E+00 0. -1.
</event>
<event>
 5   0  0.1031295E-03  0.1314467E+04  0.7818609E-02  0.9018171E-01
       -2   -1    0    0    0  501  0.00000000000E+00  0.00000000000E+00  0.32403517481E+03  0.32403517482E+03  0.25500000920E-02 0.  1.
        2   -1    0    0  501    0  0.00000000000E+00  0.00000000000E+00 -0.13330523039E+04  0.13330523039E+04  0.25500000920E-02 0. -1.
    10030    2    1    2    0    0  0.00000000000E+00  0.00000000000E+00 -0.10090171291E+04  0.16570874788E+04  0.13144669435E+04 0.  0.
        2    1    3    3  502    0 -0.64634092761E+03  0.11712379360E+03 -0.53216428840E+03  0.84538358606E+03  0.25500000920E-02 0. -1.
       -2    1    3    3    0  502  0.64634092761E+03 -0.11712379360E+03 -0.47685284073E+03  0.81170389271E+03  0.25500000920E-02 0.  1.
</event>
<event>
 5   0  0.1046253E-03  0.1306469E+04  0.7818609E-02  0.9024451E-01
        2   -1    0    0  501    0  0.00000000000E+00  0.00000000000E+00  0.97470053136E+03  0.97470053136E+03  0.25500000920E-02 0.  1.
       -2   -1    0    0    0  501  0.00000000000E+00  0.00000000000E+00 -0.43779117841E+03  0.43779117841E+03  0.25500000920E-02 0. -1.
    10030    2    1    2    0    0  0.00000000000E+00  0.00000000000E+00  0.53690935295E+03  0.14124917098E+04  0.13064689728E+04 0.  0.
        3    1    3    3  502    0  0.14392847955E+03  0.32848910160E+03 -0.32183338256E+03  0.48186848146E+03  0.10100000352E+00 0. -1.
       -3    1    3    3    0  502 -0.14392847955E+03 -0.32848910160E+03  0.85874273551E+03  0.93062322832E+03  0.10100000352E+00 0.  1.
</event>
<event>
 5   0  0.1081574E-03  0.1287247E+04  0.7818609E-02  0.9039740E-01
       -2   -1    0    0    0  501  0.00000000000E+00  0.00000000000E+00  0.22926775967E+03  0.22926775969E+03  0.25500000920E-02 0.  1.
        2   -1    0    0  501    0  0.00000000000E+00  0.00000000000E+00 -0.18068435479E+04  0.18068435479E+04  0.25500000920E-02 0. -1.
    10030    2    1    2    0    0  0.00000000000E+00  0.00000000000E+00 -0.15775757882E+04  0.20361113076E+04  0.12872466311E+04 0.  0.
        5    1    3    3  502    0  0.10966547183E+03 -0.14197019836E+03  0.18889507906E+03  0.26054844813E+03  0.46999998093E+01 0.  1.
       -5    1    3    3    0  502 -0.10966547183E+03  0.14197019836E+03 -0.17664708673E+04  0.17755628594E+04  0.46999998093E+01 0. -1.
</event>
<event>
 5   0  0.1103241E-03  0.1309007E+04  0.7818609E-02  0.9022453E-01
        2   -1    0    0  501    0  0.00000000000E+00  0.00000000000E+00  0.78091585094E+03  0.78091585095E+03  0.25500000920E-02 0. -1.
       -2   -1    0    0    0  501  0.00000000000E+00  0.00000000000E+00 -0.54855407414E+03  0.54855407415E+03  0.25500000920E-02 0.  1.
    10030    2    1    2    0    0  0.00000000000E+00  0.00000000000E+00  0.23236177680E+03  0.13294699251E+04  0.13090066029E+04 0.  0.
        4    1    3    3  502    0  0.38962590834E+03 -0.38764435204E+03  0.47711861642E+03  0.72781885051E+03  0.12699999809E+01 0. -1.
       -4    1    3    3    0  502 -0.38962590834E+03  0.38764435204E+03 -0.24475683962E+03  0.60165107459E+03  0.12699999809E+01 0.  1.
</event>
<event>
 5   0  0.1103241E-03  0.1300915E+04  0.7818609E-02  0.9028840E-01
        2   -1    0    0  501    0  0.00000000000E+00  0.00000000000E+00  0.28690868548E+04  0.28690868548E+04  0.25500000920E-02 0.  1.
       -2   -1    0    0    0  501  0.00000000000E+00  0.00000000000E+00 -0.14746666358E+03  0.14746666361E+03  0.25500000920E-02 0. -1.
    10030    2    1    2    0    0  0.00000000000E+00  0.00000000000E+00  0.27216201912E+04  0.30165535184E+04  0.13009145492E+04 0.  0.
        4    1    3    3  502    0 -0.34868064741E+03  0.32987150067E+03  0.34291568514E+03  0.58990353521E+03  0.12699999809E+01 0. -1.
       -4    1    3    3    0  502  0.34868064741E+03 -0.32987150067E+03  0.23787045061E+04  0.24266499832E+04  0.12699999809E+01 0.  1.
</event>
<event>
 5   0  0.5710383E-04  0.1296894E+04  0.7818609E-02  0.9032032E-01
       -1   -1    0    0    0  501  0.00000000000E+00  0.00000000000E+00  0.53607006154E+03  0.53607006156E+03  0.50400001928E-02 0. -1.
        1   -1    0    0  501    0  0.00000000000E+00  0.00000000000E+00 -0.78438187197E+03  0.78438187199E+03  0.50400001928E-02 0.  1.
    10030    2    1    2    0    0  0.00000000000E+00  0.00000000000E+00 -0.24831181043E+03  0.13204519335E+04  0.12968941952E+04 0.  0.
        1    1    3    3  502    0  0.12820679845E+03 -0.54480967144E+03  0.20925080365E+03  0.59752862703E+03  0.50400001928E-02 0. -1.
       -1    1    3    3    0  502 -0.12820679845E+03  0.54480967144E+03 -0.45756261409E+03  0.72292330652E+03  0.50400001928E-02 0.  1.
</event>
<event>
 5   0  0.1031295E-03  0.1308257E+04  0.7818609E-02  0.9023043E-01
        2   -1    0    0  501    0  0.00000000000E+00  0.00000000000E+00  0.78338691331E+03  0.78338691331E+03  0.25500000920E-02 0.  1.
       -2   -1    0    0    0  501  0.00000000000E+00  0.00000000000E+00 -0.54619766640E+03  0.54619766641E+03  0.25500000920E-02 0. -1.
    10030    2    1    2    0    0  0.00000000000E+00  0.00000000000E+00  0.23718924691E+03  0.13295845797E+04  0.13082570144E+04 0.  0.
        2    1    3    3  502    0  0.50864775543E+03 -0.16372345712E+03  0.50204668980E+03  0.73319764611E+03  0.25500000920E-02 0.  1.
       -2    1    3    3    0  502 -0.50864775543E+03  0.16372345712E+03 -0.26485744290E+03  0.59638693361E+03  0.25500000920E-02 0. -1.
</event>
<event>
 5   0  0.5812938E-04  0.1304146E+04  0.7818609E-02  0.9026284E-01
        1   -1    0    0  501    0  0.00000000000E+00  0.00000000000E+00  0.30752344919E+03  0.30752344923E+03  0.50400001928E-02 0.  1.
       -1   -1    0    0    0  501  0.00000000000E+00  0.00000000000E+00 -0.13826561679E+04  0.13826561679E+04  0.50400001928E-02 0. -1.
    10030    2    1    2    0    0  0.00000000000E+00  0.00000000000E+00 -0.10751327187E+04  0.16901796172E+04  0.13041459947E+04 0.  0.
        5    1    3    3  502    0 -0.19086777532E+03 -0.42980429509E+03 -0.11229459186E+04  0.12174530241E+04  0.46999998093E+01 0. -1.
       -5    1    3    3    0  502  0.19086777532E+03  0.42980429509E+03  0.47813199875E+02  0.47272659308E+03  0.46999998093E+01 0.  1.
</event>
<event>
 5   0  0.6006119E-04  0.1301669E+04  0.7818609E-02  0.9028243E-01
        1   -1    0    0  501    0  0.00000000000E+00  0.00000000000E+00  0.77615969088E+03  0.77615969089E+03  0.50400001928E-02 0.  1.
       -1   -1    0    0    0  501  0.00000000000E+00  0.00000000000E+00 -0.54574545833E+03  0.54574545835E+03  0.50400001928E-02 0. -1.
    10030    2    1    2    0    0  0.00000000000E+00  0.00000000000E+00  0.23041423255E+03  0.13219051492E+04  0.13016691227E+04 0.  0.
        4    1    3    3  502    0 -0.14856429334E+03  0.17162436161E+03  0.73465513003E+03  0.76892525237E+03  0.12699999809E+01 0.  1.
       -4    1    3    3    0  502  0.14856429334E+03 -0.17162436161E+03 -0.50424089748E+03  0.55297989687E+03  0.12699999809E+01 0. -1.
</event>
<event>
 5   0  0.5812938E-04  0.1300813E+04  0.7818609E-02  0.9028920E-01
       -1   -1    0    0    0  501  0.00000000000E+00  0.00000000000E+00  0.48629674461E+03  0.48629674464E+03  0.50400001928E-02 0.  1.
        1   -1    0    0  501    0  0.00000000000E+00  0.00000000000E+00 -0.86989876296E+03  0.86989876297E+03  0.50400001928E-02 0. -1.
    10030    2    1    2    0    0  0.00000000000E+00  0.00000000000E+00 -0.38360201835E+03  0.13561955076E+04  0.13008134941E+04 0.  0.
        5    1    3    3  502    0  0.33351069088E+03 -0.54436043645E+03 -0.62214438474E+02  0.64144398981E+03  0.46999998093E+01 0.  1.
       -5    1    3    3    0  502 -0.33351069088E+03  0.54436043645E+03 -0.32138757988E+03  0.71475151780E+03  0.46999998093E+01 0. -1.
</event>
<event>
 5   0  0.1101619E-03  0.1282696E+04  0.7818609E-02  0.9043401E-01
       -2   -1    0    0    0  501  0.00000000000E+00  0.00000000000E+00  0.29698966585E+03  0.29698966586E+03  0.25500000920E-02 0.  1.
        2   -1    0    0  501    0  0.00000000000E+00  0.00000000000E+00 -0.13849882500E+04  0.13849882500E+04  0.25500000920E-02 0. -1.
    10030    2    1    2    0    0  0.00000000000E+00  0.00000000000E+00 -0.10879985842E+04  0.16819779159E+04  0.12826959072E+04 0.  0.
        1    1    3    3  502    0  0.32828016820E+03  0.45434298919E+03 -0.13532506766E+03  0.57663532204E+03  0.50400001928E-02 0. -1.
       -1    1    3    3    0  502 -0.32828016820E+03 -0.45434298919E+03 -0.95267351650E+03  0.11053425938E+04  0.50400001928E-02 0.  1.
</event>
<event>
 5   0  0.1046253E-03  0.1275918E+04  0.7818609E-02  0.9048883E-01
        2   -1    0    0  501    0  0.00000000000E+00  0.00000000000E+00  0.17101799047E+04  0.17101799047E+04  0.25500000920E-02 0.  1.
       -2   -1    0    0    0  501  0.00000000000E+00  0.00000000000E+00 -0.23798192857E+03  0.23798192859E+03  0.25500000920E-02 0. -1.
    10030    2    1    2    0    0  0.00000000000E+00  0.00000000000E+00  0.14721979761E+04  0.19481618333E+04  0.12759183547E+04 0.  0.
        3    1    3    3  502    0 -0.29668332076E+03 -0.42124783010E+03  0.13104969072E+04  0.14081451918E+04  0.10100000352E+00 0.  1.
       -3    1    3    3    0  502  0.29668332076E+03  0.42124783010E+03  0.16170106891E+03  0.54001664148E+03  0.10100000352E+00 0. -1.
</event>
<event>
 5   0  0.1081574E-03  0.1296529E+04  0.7818609E-02  0.9032322E-01
        2   -1    0    0  501    0  0.00000000000E+00  0.00000000000E+00  0.54805930351E+03  0.54805930351E+03  0.25500000920E-02 0.  1.
       -2   -1    0    0    0  501  0.00000000000E+00  0.00000000000E+00 -0.76679088625E+03  0.76679088625E+03  0.25500000920E-02 0. -1.
    10030    2    1    2    0    0  0.00000000000E+00  0.00000000000E+00 -0.21873158274E+03  0.13148501898E+04  0.12965290264E+04 0.  0.
        5    1    3    3  502    0  0.13796847913E+03 -0.62914553569E+03 -0.35081944968E+02  0.64506762373E+03  0.46999998093E+01 0. -1.
       -5    1    3    3    0  502 -0.13796847913E+03  0.62914553569E+03 -0.18364963777E+03  0.66978256604E+03  0.46999998093E+01 0.  1.
</event>
<event>
 5   0  0.5812938E-04  0.1267681E+04  0.7818609E-02  0.9055594E-01
        1   -1    0    0  501    0  0.00000000000E+00  0.00000000000E+00  0.82906042690E+03  0.82906042692E+03  0.50400001928E-02 0.  1.
       -1   -1    0    0    0  501  0.00000000000E+00  0.00000000000E+00 -0.48458927846E+03  0.48458927848E+03  0.50400001928E-02 0. -1.
    10030    2    1    2    0    0  0.00000000000E+00  0.00000000000E+00  0.34447114844E+03  0.13136497054E+04  0.12676810231E+04 0.  0.
        5    1    3    3  502    0  0.17378591909E+03  0.46129820010E+03 -0.24062626252E+03  0.54856236045E+03  0.46999998093E+01 0. -1.
       -5    1    3    3    0  502 -0.17378591909E+03 -0.46129820010E+03  0.58509741097E+03  0.76508734495E+03  0.46999998093E+01 0.  1.
</event>
<event>
 5   0  0.1046253E-03  0.1295499E+04  0.7818609E-02  0.9033142E-01
        2   -1    0    0  501    0  0.00000000000E+00  0.00000000000E+00  0.68022789880E+03  0.68022789880E+03  0.25500000920E-02 0.  1.
       -2   -1    0    0    0  501  0.00000000000E+00  0.00000000000E+00 -0.61682227486E+03  0.61682227487E+03  0.25500000920E-02 0. -1.
    10030    2    1    2    0    0  0.00000000000E+00  0.00000000000E+00  0.63405623937E+02  0.12970501737E+04  0.12954994712E+04 0.  0.
        3    1    3    3  502    0 -0.13922433198E+03 -0.78250867879E+02  0.66020664340E+03  0.67924917013E+03  0.10100000352E+00 0.  1.
       -3    1    3    3    0  502  0.13922433198E+03  0.78250867879E+02 -0.59680101946E+03  0.61780100354E+03  0.10100000352E+00 0. -1.
</event>
<event>
 5   0  0.1103241E-03  0.1301634E+04  0.7818609E-02  0.9028271E-01
        2   -1    0    0  501    0  0.00000000000E+00  0.00000000000E+00  0.41644827946E+03  0.41644827947E+03  0.25500000920E-02 0. -1.
       -2   -1    0    0    0  501  0.00000000000E+00  0.00000000000E+00 -0.10170834035E+04  0.10170834035E+04  0.25500000920E-02 0.  1.
    10030    2    1    2    0    0  0.00000000000E+00  0.00000000000E+00 -0.60063512404E+03  0.14335316830E+04  0.13016337941E+04 0.  0.
        4    1    3    3  502    0 -0.43616646609E+03 -0.30069648151E+03  0.11601158231E+03  0.54232818502E+03  0.12699999809E+01 0. -1.
       -4    1    3    3    0  502  0.43616646609E+03  0.30069648151E+03 -0.71664670635E+03  0.89120349795E+03  0.12699999809E+01 0.  1.
</event>
<event>
 5   0  0.1081574E-03  0.1348560E+04  0.7818609E-02  0.8991919E-01
       -2   -1    0    0    0  501  0.00000000000E+00  0.00000000000E+00  0.78350627815E+03  0.78350627815E+03  0.25500000920E-02 0.  1.
        2   -1    0    0  501    0  0.00000000000E+00  0.00000000000E+00 -0.58028022267E+03  0.58028022267E+03  0.25500000920E-02 0. -1.
    10030    2    1    2    0    0  0.00000000000E+00  0.00000000000E+00  0.20322605548E+03  0.13637865008E+04  0.13485595242E+04 0.  0.
        5    1    3    3  502    0 -0.46610185668E+03  0.16741028807E+03 -0.36110546769E+03  0.61294077540E+03  0.46999998093E+01 0. -1.
       -5    1    3    3    0  502  0.46610185668E+03 -0.16741028807E+03  0.56433152317E+03  0.75084572543E+03  0.46999998093E+01 0.  1.
</event>
<event>
 5   0  0.5812938E-04  0.1297730E+04  0.7818609E-02  0.9031367E-01
        1   -1    0    0  501    0  0.00000000000E+00  0.00000000000E+00  0.10092227569E+04  0.10092227570E+04  0.50400001928E-02 0. -1.
       -1   -1    0    0    0  501  0.00000000000E+00  0.00000000000E+00 -0.41717854114E+03  0.41717854117E+03  0.50400001928E-02 0.  1.
    10030    2    1    2    0    0  0.00000000000E+00  0.00000000000E+00  0.59204421580E+03  0.14264012981E+04  0.12977304458E+04 0.  0.
        5    1    3    3  502    0 -0.20633135452E+03 -0.61358917714E+03  0.34443069657E+03  0.73329318891E+03  0.46999998093E+01 0.  1.
       -5    1    3    3    0  502  0.20633135452E+03  0.61358917714E+03  0.24761351923E+03  0.69310810922E+03  0.46999998093E+01 0. -1.
</event>
<event>
 5   0  0.1046253E-03  0.1312792E+04  0.7818609E-02  0.9019482E-01
       -2   -1    0    0    0  501  0.00000000000E+00  0.00000000000E+00  0.92364038935E+03  0.92364038935E+03  0.25500000920E-02 0.  1.
        2   -1    0    0  501    0  0.00000000000E+00  0.00000000000E+00 -0.46647537293E+03  0.46647537294E+03  0.25500000920E-02 0. -1.
    10030    2    1    2    0    0  0.00000000000E+00  0.00000000000E+00  0.45716501641E+03  0.13901157623E+04  0.13127916744E+04 0.  0.
        3    1    3    3  502    0 -0.16992169039E+03 -0.43927244523E+03 -0.25553520081E+03  0.53584691010E+03  0.10100000352E+00 0. -1.
       -3    1    3    3    0  502  0.16992169039E+03  0.43927244523E+03  0.71270021722E+03  0.85426885220E+03  0.10100000352E+00 0.  1.
</event>
<event>
 5   0  0.1101619E-03  0.1315112E+04  0.7818609E-02  0.9017666E-01
        2   -1    0    0  501    0  0.00000000000E+00  0.00000000000E+00  0.89224683148E+03  0.89224683149E+03  0.25500000920E-02 0. -1.
       -2   -1    0    0    0  501  0.00000000000E+00  0.00000000000E+00 -0.48459681773E+03  0.48459681773E+03  0.25500000920E-02 0.  1.
    10030    2    1    2    0    0  0.00000000000E+00  0.00000000000E+00  0.40765001375E+03  0.13768436492E+04  0.13151121248E+04 0.  0.
        1    1    3    3  502    0 -0.48935462815E+03  0.26085665773E+03 -0.16612551403E+03  0.57888844729E+03  0.50400001928E-02 0.  1.
       -1    1    3    3    0  502  0.48935462815E+03 -0.26085665773E+03  0.57377552779E+03  0.79795520193E+03  0.50400001928E-02 0. -1.
</event>
<event>
 5   0  0.1103241E-03  0.1300547E+04  0.7818609E-02  0.9029132E-01
        2   -1    0    0  501    0  0.00000000000E+00  0.00000000000E+00  0.89196700346E+03  0.89196700346E+03  0.25500000920E-02 0.  1.
       -2   -1    0    0    0  501  0.00000000000E+00  0.00000000000E+00 -0.47407082349E+03  0.47407082349E+03  0.25500000920E-02 0. -1.
    10030    2    1    2    0    0  0.00000000000E+00  0.00000000000E+00  0.41789617997E+03  0.13660378270E+04  0.13005468571E+04 0.  0.
        4    1    3    3  502    0  0.40227158634E+03 -0.38318543258E+03 -0.14600467282E+03  0.57443231308E+03  0.12699999809E+01 0. -1.
       -4    1    3    3    0  502 -0.40227158634E+03  0.38318543258E+03  0.56390085279E+03  0.79160551388E+03  0.12699999809E+01 0.  1.
</event>
<event>
 5   0  0.1101619E-03  0.1307511E+04  0.7818609E-02  0.9023630E-01
       -2   -1    0    0    0  501  0.00000000000E+00  0.00000000000E+00  0.31159679111E+03  0.31159679112E+03  0.25500000920E-02 0. -1.
        2   -1    0    0  501    0  0.00000000000E+00  0.00000000000E+00 -0.13716317160E+04  0.13716317160E+04  0.25500000920E-02 0.  1.
    10030    2    1    2    0    0  0.00000000000E+00  0.00000000000E+00 -0.10600349249E+04  0.16832285071E+04  0.13075106750E+04 0.  0.
        1    1    3    3  502    0 -0.41950756335E+03  0.46923677062E+03 -0.30252967382E+03  0.69835087612E+03  0.50400001928E-02 0. -1.
       -1    1    3    3    0  502  0.41950756335E+03 -0.46923677062E+03 -0.75750525104E+03  0.98487763097E+03  0.50400001928E-02 0.  1.
</event>
<event>
 5   0  0.1046253E-03  0.1294421E+04  0.7818609E-02  0.9034001E-01
       -2   -1    0    0    0  501  0.00000000000E+00  0.00000000000E+00  0.28063656042E+03  0.28063656043E+03  0.25500000920E-02 0.  1.
        2   -1    0    0  501    0  0.00000000000E+00  0.00000000000E+00 -0.14926128453E+04  0.14926128453E+04  0.25500000920E-02 0. -1.
    10030    2    1    2    0    0  0.00000000000E+00  0.00000000000E+00 -0.12119762848E+04  0.17732494057E+04  0.12944214691E+04 0.  0.
        3    1    3    3  502    0  0.45372322440E+03 -0.60102684423E+02  0.20895955106E+02  0.45816345137E+03  0.10100000352E+00 0.  1.
       -3    1    3    3    0  502 -0.45372322440E+03  0.60102684423E+02 -0.12328722400E+04  0.13150859543E+04  0.10100000352E+00 0. -1.
</event>
<event>
 5   0  0.1031295E-03  0.1331978E+04  0.7818609E-02  0.9004584E-01
        2   -1    0    0  501    0  0.00000000000E+00  0.00000000000E+00  0.64196303704E+03  0.64196303705E+03  0.25500000920E-02 0.  1.
       -2   -1    0    0    0  501  0.00000000000E+00  0.00000000000E+00 -0.69091367978E+03  0.69091367979E+03  0.25500000920E-02 0. -1.
    10030    2    1    2    0    0  0.00000000000E+00  0.00000000000E+00 -0.48950642739E+02  0.13328767168E+04  0.13319775437E+04 0.  0.
        2    1    3    3  502    0  0.45728629784E+03  0.41614859329E+03 -0.27213104753E+03  0.67553365344E+03  0.25500000920E-02 0. -1.
       -2    1    3    3    0  502 -0.45728629784E+03 -0.41614859329E+03  0.22318040479E+03  0.65734306339E+03  0.25500000920E-02 0.  1.
</event>
<event>
 5   0  0.1101619E-03  0.1302625E+04  0.7818609E-02  0.9027486E-01
        2   -1    0    0  501    0  0.00000000000E+00  0.00000000000E+00  0.87059944706E+03  0.87059944706E+03  0.25500000920E-02 0. -1.
       -2   -1    0    0    0  501  0.00000000000E+00  0.00000000000E+00 -0.48725941633E+03  0.48725941634E+03  0.25500000920E-02 0.  1.
    10030    2    1    2    0    0  0.00000000000E+00  0.00000000000E+00  0.38334003073E+03  0.13578588634E+04  0.13026247018E+04 0.  0.
        1    1    3    3  502    0 -0.45864811311E+03  0.15238415908E+03  0.64679379511E+03  0.80741639630E+03  0.50400001928E-02 0. -1.
       -1    1    3    3    0  502  0.45864811311E+03 -0.15238415908E+03 -0.26345376439E+03  0.55044246710E+03  0.50400001928E-02 0.  1.
</event>
<event>
 5   0  0.1031295E-03  0.1253341E+04  0.7818609E-02  0.9067407E-01
        2   -1    0    0  501    0  0.00000000000E+00  0.00000000000E+00  0.22319045455E+04  0.22319045455E+04  0.25500000920E-02 0. -1.
       -2   -1    0    0    0  501  0.00000000000E+00  0.00000000000E+00 -0.17595541029E+03  0.17595541031E+03  0.25500000920E-02 0.  1.
    10030    2    1    2    0    0  0.00000000000E+00  0.00000000000E+00  0.20559491352E+04  0.24078599558E+04  0.12533406242E+04 0.  0.
        2    1    3    3  502    0 -0.10528299755E+02  0.49108383318E+03  0.28034827844E+03  0.56556991923E+03  0.25500000920E-02 0.  1.
       -2    1    3    3    0  502  0.10528299755E+02 -0.49108383318E+03  0.17756008568E+04  0.18422900366E+04  0.25500000920E-02 0. -1.
</event>
<event>
 5   0  0.5710383E-04  0.1307982E+04  0.7818609E-02  0.9023259E-01
       -1   -1    0    0    0  501  0.00000000000E+00  0.00000000000E+00  0.93612430868E+03  0.93612430869E+03  0.50400001928E-02 0.  1.
        1   -1    0    0  501    0  0.00000000000E+00  0.00000000000E+00 -0.45688810316E+03  0.45688810319E+03  0.50400001928E-02 0. -1.
    10030    2    1    2    0    0  0.00000000000E+00  0.00000000000E+00  0.47923620552E+03  0.13930124119E+04  0.13079817426E+04 0.  0.
        1    1    3    3  502    0  0.42109448315E+03 -0.47805531316E+03  0.39703283216E+03  0.75066138573E+03  0.50400001928E-02 0. -1.
       -1    1    3    3    0  502 -0.42109448315E+03  0.47805531316E+03  0.82203373356E+02  0.64235102615E+03  0.50400001928E-02 0.  1.
</event>
<event>
 5   0  0.5563545E-04  0.1302911E+04  0.7818609E-02  0.9027260E-01
        1   -1    0    0  501    0  0.00000000000E+00  0.00000000000E+00  0.12355004381E+04  0.12355004381E+04  0.50400001928E-02 0. -1.
       -1   -1    0    0    0  501  0.00000000000E+00  0.00000000000E+00 -0.34350000276E+03  0.34350000280E+03  0.50400001928E-02 0.  1.
    10030    2    1    2    0    0  0.00000000000E+00  0.00000000000E+00  0.89200043531E+03  0.15790004409E+04  0.13029112079E+04 0.  0.
        2    1    3    3  502    0  0.11589703515E+03  0.65147184209E+02  0.12188840009E+04  0.12261135698E+04  0.25500000920E-02 0. -1.
       -2    1    3    3    0  502 -0.11589703515E+03 -0.65147184209E+02 -0.32688356556E+03  0.35288687112E+03  0.25500000920E-02 0.  1.
</event>
<event>
 5   0  0.6006119E-04  0.1255242E+04  0.7818609E-02  0.9065832E-01
       -1   -1    0    0    0  501  0.00000000000E+00  0.00000000000E+00  0.40273524938E+03  0.40273524941E+03  0.50400001928E-02 0.  1.
        1   -1    0    0  501    0  0.00000000000E+00  0.00000000000E+00 -0.97808159012E+03  0.97808159013E+03  0.50400001928E-02 0. -1.
    10030    2    1    2    0    0  0.00000000000E+00  0.00000000000E+00 -0.57534634073E+03  0.13808168395E+04  0.12552417028E+04 0.  0.
        4    1    3    3  502    0  0.29204448949E+03  0.54097646820E+03 -0.14869838699E+03  0.63250165706E+03  0.12699999809E+01 0. -1.
       -4    1    3    3    0  502 -0.29204448949E+03 -0.54097646820E+03 -0.42664795375E+03  0.74831518248E+03  0.12699999809E+01 0.  1.
</event>
<event>
 5   0  0.5812938E-04  0.1310930E+04  0.7818609E-02  0.9020942E-01
       -1   -1    0    0    0  501  0.00000000000E+00  0.00000000000E+00  0.78537937773E+03  0.78537937775E+03  0.50400001928E-02 0.  1.
        1   -1    0    0  501    0  0.00000000000E+00  0.00000000000E+00 -0.54704061208E+03  0.54704061211E+03  0.50400001928E-02 0. -1.
    10030    2    1    2    0    0  0.00000000000E+00  0.00000000000E+00  0.23833876564E+03  0.13324199899E+04  0.13109300752E+04 0.  0.
        5    1    3    3  502    0  0.45562106477E+03  0.31985041145E+03  0.47084349942E+03  0.72911626735E+03  0.46999998093E+01 0.  1.
       -5    1    3    3    0  502 -0.45562106477E+03 -0.31985041145E+03 -0.23250473378E+03  0.60330372251E+03  0.46999998093E+01 0. -1.
</event>
<event>
 5   0  0.1046253E-03  0.1300541E+04  0.7818609E-02  0.9029136E-01
        2   -1    0    0  501    0  0.00000000000E+00  0.00000000000E+00  0.16945207815E+04  0.16945207815E+04  0.25500000920E-02 0. -1.
       -2   -1    0    0    0  501  0.00000000000E+00  0.00000000000E+00 -0.24954058641E+03  0.24954058643E+03  0.25500000920E-02 0.  1.
    10030    2    1    2    0    0  0.00000000000E+00  0.00000000000E+00  0.14449801951E+04  0.19440613679E+04  0.13005409790E+04 0.  0.
        3    1    3    3  502    0 -0.13611681806E+03 -0.11434331537E+03 -0.21251254119E+03  0.27706275877E+03  0.10100000352E+00 0.  1.
       -3    1    3    3    0  502  0.13611681806E+03  0.11434331537E+03  0.16574927363E+04  0.16669986092E+04  0.10100000352E+00 0. -1.
</event>
<event>
 5   0  0.4012375E-04  0.1309101E+04  0.7818609E-02  0.9022379E-01
        3   -1    0    0  501    0  0.00000000000E+00  0.00000000000E+00  0.63464434210E+03  0.63464435013E+03  0.10100000352E+00 0.  1.
       -3   -1    0    0    0  501  0.00000000000E+00  0.00000000000E+00 -0.67508132895E+03  0.67508133650E+03  0.10100000352E+00 0. -1.
    10030    2    1    2    0    0  0.00000000000E+00  0.00000000000E+00 -0.40436986850E+02  0.13097256866E+04  0.13091013041E+04 0.  0.
        1    1    3    3  502    0  0.54755609836E+03  0.35863467786E+03 -0.20010940539E+02  0.65485643525E+03  0.50400001928E-02 0.  1.
       -1    1    3    3    0  502 -0.54755609836E+03 -0.35863467786E+03 -0.20426046311E+02  0.65486925139E+03  0.50400001928E-02 0. -1.
</event>
<event>
 5   0  0.1046253E-03  0.1292929E+04  0.7818609E-02  0.9035191E-01
        2   -1    0    0  501    0  0.00000000000E+00  0.00000000000E+00  0.22045943324E+04  0.22045943324E+04  0.25500000920E-02 0.  1.
       -2   -1    0    0    0  501  0.00000000000E+00  0.00000000000E+00 -0.18956619887E+03  0.18956619889E+03  0.25500000920E-02 0. -1.
    10030    2    1    2    0    0  0.00000000000E+00  0.00000000000E+00  0.20150281335E+04  0.23941605313E+04  0.12929293371E+04 0.  0.
        3    1    3    3  502    0 -0.39618165121E+03  0.31449106174E+03  0.17529420866E+04  0.18244644414E+04  0.10100000352E+00 0.  1.
       -3    1    3    3    0  502  0.39618165121E+03 -0.31449106174E+03  0.26208604693E+03  0.56969608992E+03  0.10100000352E+00 0. -1.
</event>
<event>
 5   0  0.5766027E-04  0.1265665E+04  0.7818609E-02  0.9057245E-01
       -1   -1    0    0    0  501  0.00000000000E+00  0.00000000000E+00  0.30472662595E+03  0.30472662599E+03  0.50400001928E-02 0. -1.
        1   -1    0    0  501    0  0.00000000000E+00  0.00000000000E+00 -0.13142170795E+04  0.13142170795E+04  0.50400001928E-02 0.  1.
    10030    2    1    2    0    0  0.00000000000E+00  0.00000000000E+00 -0.10094904535E+04  0.16189437055E+04  0.12656649422E+04 0.  0.
        3    1    3    3  502    0  0.35755569084E+03 -0.46858549853E+02 -0.11699334483E+04  0.12242491901E+04  0.10100000352E+00 0.  1.
       -3    1    3    3    0  502 -0.35755569084E+03  0.46858549853E+02  0.16044299475E+03  0.39469451543E+03  0.10100000352E+00 0. -1.
</event>
<event>
 5   0  0.6006119E-04  0.1289891E+04  0.7818609E-02  0.9037620E-01
        1   -1    0    0  501    0  0.00000000000E+00  0.00000000000E+00  0.19279458843E+04  0.19279458843E+04  0.50400001928E-02 0.  1.
       -1   -1    0    0    0  501  0.00000000000E+00  0.00000000000E+00 -0.21575031735E+03  0.21575031741E+03  0.50400001928E-02 0. -1.
    10030    2    1    2    0    0  0.00000000000E+00  0.00000000000E+00  0.17121955669E+04  0.21436962017E+04  0.12898913697E+04 0.  0.
        4    1    3    3  502    0 -0.27065833769E+03 -0.46769815138E+03  0.27097962661E+03  0.60450729318E+03  0.12699999809E+01 0. -1.
       -4    1    3    3    0  502  0.27065833769E+03  0.46769815138E+03  0.14412159403E+04  0.15391889085E+04  0.12699999809E+01 0.  1.
</event>
<event>
 5   0  0.5812938E-04  0.1291934E+04  0.7818609E-02  0.9035986E-01
        1   -1    0    0  501    0  0.00000000000E+00  0.00000000000E+00  0.11152611815E+04  0.11152611815E+04  0.50400001928E-02 0. -1.
       -1   -1    0    0    0  501  0.00000000000E+00  0.00000000000E+00 -0.37414870863E+03  0.37414870866E+03  0.50400001928E-02 0.  1.
    10030    2    1    2    0    0  0.00000000000E+00  0.00000000000E+00  0.74111247283E+03  0.14894098901E+04  0.12919342566E+04 0.  0.
        5    1    3    3  502    0 -0.25432737078E+03  0.20354482534E+03  0.10136150863E+04  0.10646833054E+04  0.46999998093E+01 0. -1.
       -5    1    3    3    0  502  0.25432737078E+03 -0.20354482534E+03 -0.27250261351E+03  0.42472658478E+03  0.46999998093E+01 0.  1.
</event>
<event>
 5   0  0.1103241E-03  0.1318619E+04  0.7818609E-02  0.9014929E-01
        2   -1    0    0  501    0  0.00000000000E+00  0.00000000000E+00  0.73427645530E+03  0.73427645530E+03  0.25500000920E-02 0.  1.
       -2   -1    0    0    0  501  0.00000000000E+00  0.00000000000E+00 -0.59199641884E+03  0.59199641884E+03  0.25500000920E-02 0. -1.
    10030    2    1    2    0    0  0.00000000000E+00  0.00000000000E+00  0.14228003646E+03  0.13262728741E+04  0.13186190230E+04 0.  0.
        4    1    3    3  502    0  0.15235821436E+03 -0.60188629090E+03  0.29425475605E+03  0.68707176264E+03  0.12699999809E+01 0.  1.
       -4    1    3    3    0  502 -0.15235821436E+03  0.60188629090E+03 -0.15197471959E+03  0.63920111151E+03  0.12699999809E+01 0. -1.
</event>
<event>
 5   0  0.1103241E-03  0.1295518E+04  0.7818609E-02  0.9033127E-01
       -2   -1    0    0    0  501  0.00000000000E+00  0.00000000000E+00  0.21245427754E+03  0.21245427756E+03  0.25500000920E-02 0. -1.
        2   -1    0    0  501    0  0.00000000000E+00  0.00000000000E+00 -0.19749741839E+04  0.19749741839E+04  0.25500000920E-02 0.  1.
    10030    2    1    2    0    0  0.00000000000E+00  0.00000000000E+00 -0.17625199064E+04  0.21874284615E+04  0.12955179866E+04 0.  0.
        4    1    3    3  502    0 -0.61765205490E+02  0.21059531982E+03 -0.19102847585E+04  0.19228506964E+04  0.12699999809E+01 0.  1.
       -4    1    3    3    0  502  0.61765205490E+02 -0.21059531982E+03  0.14776485211E+03  0.26457776505E+03  0.12699999809E+01 0. -1.
</event>
<event>
 5   0  0.1046253E-03  0.1266039E+04  0.7818609E-02  0.9056939E-01
       -2   -1    0    0    0  501  0.00000000000E+00  0.00000000000E+00  0.28195482373E+03  0.28195482374E+03  0.25500000920E-02 0.  1.
        2   -1    0    0  501    0  0.00000000000E+00  0.00000000000E+00 -0.14211985025E+04  0.14211985025E+04  0.25500000920E-02 0. -1.
    10030    2    1    2    0    0  0.00000000000E+00  0.00000000000E+00 -0.11392436788E+04  0.17031533263E+04  0.12660391357E+04 0.  0.
        3    1    3    3  502    0  0.52833834850E+03  0.25857998834E+03 -0.25496659006E+03  0.64110295048E+03  0.10100000352E+00 0. -1.
       -3    1    3    3    0  502 -0.52833834850E+03 -0.25857998834E+03 -0.88427708872E+03  0.10620503758E+04  0.10100000352E+00 0.  1.
</event>
<event>
 5   0  0.5710383E-04  0.1286536E+04  0.7818609E-02  0.9040311E-01
        1   -1    0    0  501    0  0.00000000000E+00  0.00000000000E+00  0.98547386809E+03  0.98547386810E+03  0.50400001928E-02 0.  1.
       -1   -1    0    0    0  501  0.00000000000E+00  0.00000000000E+00 -0.41989288829E+03  0.41989288832E+03  0.50400001928E-02 0. -1.
    10030    2    1    2    0    0  0.00000000000E+00  0.00000000000E+00  0.56558097979E+03  0.14053667564E+04  0.12865356098E+04 0.  0.
        1    1    3    3  502    0  0.63627119665E+02  0.16299405381E+03 -0.39339857947E+03  0.43055535566E+03  0.50400001928E-02 0. -1.
       -1    1    3    3    0  502 -0.63627119665E+02 -0.16299405381E+03  0.95897955926E+03  0.97481140076E+03  0.50400001928E-02 0.  1.
</event>
<event>
 5   0  0.1103241E-03  0.1442141E+04  0.7818609E-02  0.8923867E-01
       -2   -1    0    0    0  501  0.00000000000E+00  0.00000000000E+00  0.38736937155E+03  0.38736937156E+03  0.25500000920E-02 0. -1.
        2   -1    0    0  501    0  0.00000000000E+00  0.00000000000E+00 -0.13422398148E+04  0.13422398148E+04  0.25500000920E-02 0.  1.
    10030    2    1    2    0    0  0.00000000000E+00  0.00000000000E+00 -0.95487044327E+03  0.17296091864E+04  0.14421408996E+04 0.  0.
        4    1    3    3  502    0  0.16769876407E+03 -0.51922441490E+03 -0.10428092825E+04  0.11769323180E+04  0.12699999809E+01 0.  1.
       -4    1    3    3    0  502 -0.16769876407E+03  0.51922441490E+03  0.87938839272E+02  0.55267686839E+03  0.12699999809E+01 0. -1.
</event>
<event>
 5   0  0.6006119E-04  0.1316055E+04  0.7818609E-02  0.9016929E-01
        1   -1    0    0  501    0  0.00000000000E+00  0.00000000000E+00  0.42293296589E+03  0.42293296592E+03  0.50400001928E-02 0.  1.
       -1   -1    0    0    0  501  0.00000000000E+00  0.00000000000E+00 -0.10238035206E+04  0.10238035206E+04  0.50400001928E-02 0. -1.
    10030    2    1    2    0    0  0.00000000000E+00  0.00000000000E+00 -0.60087055470E+03  0.14467364865E+04  0.13160551044E+04 0.  0.
        4    1    3    3  502    0  0.15134057474E+03  0.30706220692E+03  0.31733436832E+03  0.46679104822E+03  0.12699999809E+01 0.  1.
       -4    1    3    3    0  502 -0.15134057474E+03 -0.30706220692E+03 -0.91820492302E+03  0.97994543830E+03  0.12699999809E+01 0. -1.
</event>
<event>
 5   0  0.1101619E-03  0.1291420E+04  0.7818609E-02  0.9036397E-01
        2   -1    0    0  501    0  0.00000000000E+00  0.00000000000E+00  0.11809321589E+04  0.11809321589E+04  0.25500000920E-02 0.  1.
       -2   -1    0    0    0  501  0.00000000000E+00  0.00000000000E+00 -0.35306123098E+03  0.35306123099E+03  0.25500000920E-02 0. -1.
    10030    2    1    2    0    0  0.00000000000E+00  0.00000000000E+00  0.82787092796E+03  0.15339933899E+04  0.12914199344E+04 0.  0.
        1    1    3    3  502    0  0.23866497150E+03 -0.55074988904E+03  0.13120347824E+03  0.61441090617E+03  0.50400001928E-02 0. -1.
       -1    1    3    3    0  502 -0.23866497150E+03  0.55074988904E+03  0.69666744972E+03  0.91958248375E+03  0.50400001928E-02 0.  1.
</event>
<event>
 5   0  0.1081574E-03  0.1300849E+04  0.7818609E-02  0.9028892E-01
       -2   -1    0    0    0  501  0.00000000000E+00  0.00000000000E+00  0.35149872299E+03  0.35149872300E+03  0.25500000920E-02 0. -1.
        2   -1    0    0  501    0  0.00000000000E+00  0.00000000000E+00 -0.12035665916E+04  0.12035665916E+04  0.25500000920E-02 0.  1.
    10030    2    1    2    0    0  0.00000000000E+00  0.00000000000E+00 -0.85206786863E+03  0.15550653146E+04  0.13008491381E+04 0.  0.
        5    1    3    3  502    0 -0.25103608006E+03  0.58403961570E+03 -0.26165283086E+03  0.68746322091E+03  0.46999998093E+01 0. -1.
       -5    1    3    3    0  502  0.25103608006E+03 -0.58403961570E+03 -0.59041503778E+03  0.86760209372E+03  0.46999998093E+01 0.  1.
</event>
<event>
 5   0  0.5710383E-04  0.1297885E+04  0.7818609E-02  0.9031244E-01
        1   -1    0    0  501    0  0.00000000000E+00  0.00000000000E+00  0.52429728484E+03  0.52429728486E+03  0.50400001928E-02 0.  1.
       -1   -1    0    0    0  501  0.00000000000E+00  0.00000000000E+00 -0.80322058135E+03  0.80322058137E+03  0.50400001928E-02 0. -1.
    10030    2    1    2    0    0  0.00000000000E+00  0.00000000000E+00 -0.27892329651E+03  0.13275178662E+04  0.12978850025E+04 0.  0.
        1    1    3    3  502    0  0.58809080185E+03 -0.20509106076E+03 -0.32586759069E+03  0.70292447753E+03  0.50400001928E-02 0.  1.
       -1    1    3    3    0  502 -0.58809080185E+03  0.20509106076E+03  0.46944294181E+02  0.62459338870E+03  0.50400001928E-02 0. -1.
</event>
<event>
 5   0  0.5710383E-04  0.1299272E+04  0.7818609E-02  0.9030143E-01
       -1   -1    0    0    0  501  0.00000000000E+00  0.00000000000E+00  0.11899284064E+04  0.11899284064E+04  0.50400001928E-02 0.  1.
        1   -1    0    0  501    0  0.00000000000E+00  0.00000000000E+00 -0.35466591299E+03  0.35466591302E+03  0.50400001928E-02 0. -1.
    10030    2    1    2    0    0  0.00000000000E+00  0.00000000000E+00  0.83526249342E+03  0.15445943194E+04  0.12992721727E+04 0.  0.
        1    1    3    3  502    0 -0.16463199201E+03  0.62833991752E+03  0.40503317664E+03  0.76548456480E+03  0.50400001928E-02 0.  1.
       -1    1    3    3    0  502  0.16463199201E+03 -0.62833991752E+03  0.43022931678E+03  0.77910975465E+03  0.50400001928E-02 0. -1.
</event>
<event>
 5   0  0.6006119E-04  0.1298932E+04  0.7818609E-02  0.9030412E-01
       -1   -1    0    0    0  501  0.00000000000E+00  0.00000000000E+00  0.74220864217E+03  0.74220864218E+03  0.50400001928E-02 0. -1.
        1   -1    0    0  501    0  0.00000000000E+00  0.00000000000E+00 -0.56831242962E+03  0.56831242965E+03  0.50400001928E-02 0.  1.
    10030    2    1    2    0    0  0.00000000000E+00  0.00000000000E+00  0.17389621254E+03  0.13105210718E+04  0.12989324798E+04 0.  0.
        4    1    3    3  502    0 -0.73734026727E+02 -0.43309763039E+03  0.56954024232E+03  0.71929685434E+03  0.12699999809E+01 0. -1.
       -4    1    3    3    0  502  0.73734026727E+02  0.43309763039E+03 -0.39564402978E+03  0.59122421749E+03  0.12699999809E+01 0.  1.
</event>
<event>
 5   0  0.1103241E-03  0.1262059E+04  0.7818609E-02  0.9060206E-01
        2   -1    0    0  501    0  0.00000000000E+00  0.00000000000E+00  0.12731693308E+04  0.12731693308E+04  0.25500000920E-02 0.  1.
       -2   -1    0    0    0  501  0.00000000000E+00  0.00000000000E+00 -0.31276133515E+03  0.31276133516E+03  0.25500000920E-02 0. -1.
    10030    2    1    2    0    0  0.00000000000E+00  0.00000000000E+00  0.96040799561E+03  0.15859306659E+04  0.12620588572E+04 0.  0.
        4    1    3    3  502    0  0.16833255711E+03 -0.14537224376E+03  0.12222788950E+04  0.12423510974E+04  0.12699999809E+01 0.  1.
       -4    1    3    3    0  502 -0.16833255711E+03  0.14537224376E+03 -0.26187089944E+03  0.34357956853E+03  0.12699999809E+01 0. -1.
</event>
<event>
 5   0  0.5710383E-04  0.1328410E+04  0.7818609E-02  0.9007334E-01
       -1   -1    0    0    0  501  0.00000000000E+00  0.00000000000E+00  0.60013067842E+03  0.60013067844E+03  0.50400001928E-02 0.  1.
        1   -1    0    0  501    0  0.00000000000E+00  0.00000000000E+00 -0.73512087714E+03  0.73512087716E+03  0.50400001928E-02 0. -1.
    10030    2    1    2    0    0  0.00000000000E+00  0.00000000000E+00 -0.13499019872E+03  0.13352515556E+04  0.13284104648E+04 0.  0.
        1    1    3    3  502    0  0.14606069007E+03 -0.82237405024E+02 -0.71351160945E+03  0.73293624062E+03  0.50400001928E-02 0. -1.
       -1    1    3    3    0  502 -0.14606069007E+03  0.82237405024E+02  0.57852141073E+03  0.60231531499E+03  0.50400001928E-02 0.  1.
</event>
<event>
 5   0  0.1101619E-03  0.1290613E+04  0.7818609E-02  0.9037042E-01
        2   -1    0    0  501    0  0.00000000000E+00  0.00000000000E+00  0.46908251157E+03  0.46908251157E+03  0.25500000920E-02 0. -1.
       -2   -1    0    0    0  501  0.00000000000E+00  0.00000000000E+00 -0.88773461095E+03  0.88773461095E+03  0.25500000920E-02 0.  1.
    10030    2    1    2    0    0  0.00000000000E+00  0.00000000000E+00 -0.41865209938E+03  0.13568171225E+04  0.12906134680E+04 0.  0.
        1    1    3    3  502    0 -0.44196583754E+03 -0.42431590165E+03  0.36568055596E+01  0.61269173178E+03  0.50400001928E-02 0. -1.
       -1    1    3    3    0  502  0.44196583754E+03  0.42431590165E+03 -0.42230890494E+03  0.74412539075E+03  0.50400001928E-02 0.  1.
</event>
<event>
 5   0  0.4012375E-04  0.1311434E+04  0.7818609E-02  0.9020547E-01
        3   -1    0    0  501    0  0.00000000000E+00  0.00000000000E+00  0.10861817052E+04  0.10861817099E+04  0.10100000352E+00 0. -1.
       -3   -1    0    0    0  501  0.00000000000E+00  0.00000000000E+00 -0.39584974840E+03  0.39584976129E+03  0.10100000352E+00 0.  1.
    10030    2    1    2    0    0  0.00000000000E+00  0.00000000000E+00  0.69033195679E+03  0.14820314712E+04  0.13114339751E+04 0.  0.
        4    1    3    3  502    0 -0.52430729540E+03 -0.45816884672E+02 -0.96819709183E+02  0.53513829607E+03  0.12699999809E+01 0.  1.
       -4    1    3    3    0  502  0.52430729540E+03  0.45816884672E+02  0.78715166597E+03  0.94689317511E+03  0.12699999809E+01 0. -1.
</event>
<event>
 5   0  0.5812938E-04  0.1287668E+04  0.7818609E-02  0.9039402E-01
       -1   -1    0    0    0  501  0.00000000000E+00  0.00000000000E+00  0.24439495249E+03  0.24439495254E+03  0.50400001928E-02 0.  1.
        1   -1    0    0  501    0  0.00000000000E+00  0.00000000000E+00 -0.16961172362E+04  0.16961172362E+04  0.50400001928E-02 0. -1.
    10030    2    1    2    0    0  0.00000000000E+00  0.00000000000E+00 -0.14517222837E+04  0.19405121888E+04  0.12876684223E+04 0.  0.
        5    1    3    3  502    0  0.11580218295E+02 -0.56966219404E+03 -0.27413577958E+03  0.63231450435E+03  0.46999998093E+01 0.  1.
       -5    1    3    3    0  502 -0.11580218295E+02  0.56966219404E+03 -0.11775865041E+04  0.13081976844E+04  0.46999998093E+01 0. -1.
</event>
<event>
 5   0  0.1046253E-03  0.1297862E+04  0.7818609E-02  0.9031262E-01
        2   -1    0    0  501    0  0.00000000000E+00  0.00000000000E+00  0.13365090115E+04  0.13365090115E+04  0.25500000920E-02 0. -1.
       -2   -1    0    0    0  501  0.00000000000E+00  0.00000000000E+00 -0.31508302827E+03  0.31508302828E+03  0.25500000920E-02 0.  1.
    10030    2    1    2    0    0  0.00000000000E+00  0.00000000000E+00  0.10214259833E+04  0.16515920398E+04  0.12978617903E+04 0.  0.
        3    1    3    3  502    0 -0.57049020189E+03  0.29692782440E+03  0.40060928322E+03  0.75770245569E+03  0.10100000352E+00 0.  1.
       -3    1    3    3    0  502  0.57049020189E+03 -0.29692782440E+03  0.62081670004E+03  0.89388958413E+03  0.10100000352E+00 0. -1.
</event>
<event>
 5   0  0.5710383E-04  0.1337228E+04  0.7818609E-02  0.9000553E-01
        1   -1    0    0  501    0  0.00000000000E+00  0.00000000000E+00  0.38536680358E+03  0.38536680361E+03  0.50400001928E-02 0.  1.
       -1   -1    0    0    0  501  0.00000000000E+00  0.00000000000E+00 -0.11600496355E+04  0.11600496355E+04  0.50400001928E-02 0. -1.
    10030    2    1    2    0    0  0.00000000000E+00  0.00000000000E+00 -0.77468283188E+03  0.15454164391E+04  0.13372279088E+04 0.  0.
        1    1    3    3  502    0  0.65083204931E+03  0.72237362290E+02 -0.54344053420E+03  0.85095722993E+03  0.50400001928E-02 0.  1.
       -1    1    3    3    0  502 -0.65083204931E+03 -0.72237362290E+02 -0.23124229768E+03  0.69445920916E+03  0.50400001928E-02 0. -1.
</event>
<event>
 5   0  0.5812938E-04  0.1293388E+04  0.7818609E-02  0.9034825E-01
       -1   -1    0    0    0  501  0.00000000000E+00  0.00000000000E+00  0.14778753730E+03  0.14778753739E+03  0.50400001928E-02 0. -1.
        1   -1    0    0  501    0  0.00000000000E+00  0.00000000000E+00 -0.28298259914E+04  0.28298259914E+04  0.50400001928E-02 0.  1.
    10030    2    1    2    0    0  0.00000000000E+00  0.00000000000E+00 -0.26820384541E+04  0.29776135288E+04  0.12933878218E+04 0.  0.
        5    1    3    3  502    0  0.21762229786E+03 -0.45130614446E+03 -0.39978385620E+03  0.64100383948E+03  0.46999998093E+01 0.  1.
       -5    1    3    3    0  502 -0.21762229786E+03  0.45130614446E+03 -0.22822545979E+04  0.23366096893E+04  0.46999998093E+01 0. -1.
</event>
<event>
 5   0  0.4012375E-04  0.1450491E+04  0.7818609E-02  0.8918060E-01
        3   -1    0    0  501    0  0.00000000000E+00  0.00000000000E+00  0.56950297083E+03  0.56950297979E+03  0.10100000352E+00 0.  1.
       -3   -1    0    0    0  501  0.00000000000E+00  0.00000000000E+00 -0.92357858933E+03  0.92357859485E+03  0.10100000352E+00 0. -1.
    10030    2    1    2    0    0  0.00000000000E+00  0.00000000000E+00 -0.35407561850E+03  0.14930815746E+04  0.14504906221E+04 0.  0.
        3    1    3    3  502    0  0.15435769911E+03  0.66903990176E+03 -0.41743335856E+03  0.80354919480E+03  0.10100000352E+00 0.  1.
       -3    1    3    3    0  502 -0.15435769911E+03 -0.66903990176E+03  0.63357740066E+02  0.68953237984E+03  0.10100000352E+00 0. -1.
</event>
<event>
 5   0  0.1081574E-03  0.1248684E+04  0.7818609E-02  0.9071279E-01
        2   -1    0    0  501    0  0.00000000000E+00  0.00000000000E+00  0.51201622777E+03  0.51201622778E+03  0.25500000920E-02 0. -1.
       -2   -1    0    0    0  501  0.00000000000E+00  0.00000000000E+00 -0.76130938882E+03  0.76130938882E+03  0.25500000920E-02 0.  1.
    10030    2    1    2    0    0  0.00000000000E+00  0.00000000000E+00 -0.24929316104E+03  0.12733256166E+04  0.12486837253E+04 0.  0.
        5    1    3    3  502    0 -0.60997849276E+03  0.12681665375E+03 -0.83546782952E+02  0.62861624243E+03  0.46999998093E+01 0. -1.
       -5    1    3    3    0  502  0.60997849276E+03 -0.12681665375E+03 -0.16574637809E+03  0.64470937418E+03  0.46999998093E+01 0.  1.
</event>
<event>
 5   0  0.5710383E-04  0.1311138E+04  0.7818609E-02  0.9020779E-01
        1   -1    0    0  501    0  0.00000000000E+00  0.00000000000E+00  0.73499146504E+03  0.73499146506E+03  0.50400001928E-02 0. -1.
       -1   -1    0    0    0  501  0.00000000000E+00  0.00000000000E+00 -0.58472924906E+03  0.58472924908E+03  0.50400001928E-02 0.  1.
    10030    2    1    2    0    0  0.00000000000E+00  0.00000000000E+00  0.15026221598E+03  0.13197207141E+04  0.13111384480E+04 0.  0.
        1    1    3    3  502    0  0.97569449718E+01 -0.38754302609E+03 -0.45699390593E+03  0.59927308060E+03  0.50400001928E-02 0.  1.
       -1    1    3    3    0  502 -0.97569449718E+01  0.38754302609E+03  0.60725612192E+03  0.72044763354E+03  0.50400001928E-02 0. -1.
</event>
<event>
 5   0  0.5812938E-04  0.1311575E+04  0.7818609E-02  0.9020436E-01
       -1   -1    0    0    0  501  0.00000000000E+00  0.00000000000E+00  0.84775274004E+03  0.84775274005E+03  0.50400001928E-02 0. -1.
        1   -1    0    0  501    0  0.00000000000E+00  0.00000000000E+00 -0.50729067705E+03  0.50729067708E+03  0.50400001928E-02 0.  1.
    10030    2    1    2    0    0  0.00000000000E+00  0.00000000000E+00  0.34046206298E+03  0.13550434171E+04  0.13115747199E+04 0.  0.
        5    1    3    3  502    0 -0.28514631551E+03  0.26490438557E+03 -0.37504132756E+03  0.54051904880E+03  0.46999998093E+01 0.  1.
       -5    1    3    3    0  502  0.28514631551E+03 -0.26490438557E+03  0.71550339054E+03  0.81452436833E+03  0.46999998093E+01 0. -1.
</event>
<event>
 5   0  0.5766027E-04  0.1307930E+04  0.7818609E-02  0.9023300E-01
       -1   -1    0    0    0  501  0.00000000000E+00  0.00000000000E+00  0.71653945208E+03  0.71653945210E+03  0.50400001928E-02 0. -1.
        1   -1    0    0  501    0  0.00000000000E+00  0.00000000000E+00 -0.59685529440E+03  0.59685529442E+03  0.50400001928E-02 0.  1.
    10030    2    1    2    0    0  0.00000000000E+00  0.00000000000E+00  0.11968415768E+03  0.13133947465E+04  0.13079302208E+04 0.  0.
        3    1    3    3  502    0  0.34382346145E+03 -0.55489424938E+03  0.20331090488E+02  0.65309690252E+03  0.10100000352E+00 0.  1.
       -3    1    3    3    0  502 -0.34382346145E+03  0.55489424938E+03  0.99353067195E+02  0.66029784401E+03  0.10100000352E+00 0. -1.
</event>
<event>
 5   0  0.1103241E-03  0.1287994E+04  0.7818609E-02  0.9039141E-01
       -2   -1    0    0    0  501  0.00000000000E+00  0.00000000000E+00  0.76319525389E+03  0.76319525390E+03  0.25500000920E-02 0. -1.
        2   -1    0    0  501    0  0.00000000000E+00  0.00000000000E+00 -0.54341549149E+03  0.54341549150E+03  0.25500000920E-02 0.  1.
    10030    2    1    2    0    0  0.00000000000E+00  0.00000000000E+00  0.21977976240E+03  0.13066107454E+04  0.12879939814E+04 0.  0.
        4    1    3    3  502    0  0.54307386156E+03  0.82455078599E+01 -0.24113659511E+03  0.59426061447E+03  0.12699999809E+01 0.  1.
       -4    1    3    3    0  502 -0.54307386156E+03 -0.82455078599E+01  0.46091635751E+03  0.71235013092E+03  0.12699999809E+01 0. -1.
</event>
<event>
 5   0  0.5563545E-04  0.1300588E+04  0.7818609E-02  0.9029099E-01
       -1   -1    0    0    0  501  0.00000000000E+00  0.00000000000E+00  0.76672666036E+03  0.76672666037E+03  0.50400001928E-02 0. -1.
        1   -1    0    0  501    0  0.00000000000E+00  0.00000000000E+00 -0.55154206700E+03  0.55154206702E+03  0.50400001928E-02 0.  1.
    10030    2    1    2    0    0  0.00000000000E+00  0.00000000000E+00  0.21518459336E+03  0.13182687274E+04  0.13005875705E+04 0.  0.
        2    1    3    3  502    0 -0.58160571175E+03 -0.28573264437E+03  0.16286490256E+03  0.66815666164E+03  0.25500000920E-02 0. -1.
       -2    1    3    3    0  502  0.58160571175E+03  0.28573264437E+03  0.52319690799E+02  0.65011206576E+03  0.25500000920E-02 0.  1.
</event>
<event>
 5   0  0.4012375E-04  0.1297471E+04  0.7818609E-02  0.9031573E-01
       -3   -1    0    0    0  501  0.00000000000E+00  0.00000000000E+00  0.33686852523E+03  0.33686854037E+03  0.10100000352E+00 0. -1.
        3   -1    0    0  501    0  0.00000000000E+00  0.00000000000E+00 -0.12493235257E+04  0.12493235298E+04  0.10100000352E+00 0.  1.
    10030    2    1    2    0    0  0.00000000000E+00  0.00000000000E+00 -0.91245500046E+03  0.15861920701E+04  0.12974710615E+04 0.  0.
        2    1    3    3  502    0 -0.30504668209E+02  0.69921561468E+02 -0.12438210396E+04  0.12461582315E+04  0.25500000920E-02 0.  1.
       -2    1    3    3    0  502  0.30504668209E+02 -0.69921561468E+02  0.33136603909E+03  0.34003383863E+03  0.25500000920E-02 0. -1.
</event>
<event>
 5   0  0.1101619E-03  0.1303543E+04  0.7818609E-02  0.9026760E-01
       -2   -1    0    0    0  501  0.00000000000E+00  0.00000000000E+00  0.31873714678E+03  0.31873714679E+03  0.25500000920E-02 0.  1.
        2   -1    0    0  501    0  0.00000000000E+00  0.00000000000E+00 -0.13327783583E+04  0.13327783583E+04  0.25500000920E-02 0. -1.
    10030    2    1    2    0    0  0.00000000000E+00  0.00000000000E+00 -0.10140412115E+04  0.16515155051E+04  0.13035428205E+04 0.  0.
        1    1    3    3  502    0  0.31351082799E+03 -0.44331270229E+03 -0.50233718808E+02  0.54528764685E+03  0.50400001928E-02 0.  1.
       -1    1    3    3    0  502 -0.31351082799E+03  0.44331270229E+03 -0.96380749269E+03  0.11062278582E+04  0.50400001928E-02 0. -1.
</event>
<event>
 5   0  0.1103241E-03  0.1266310E+04  0.7818609E-02  0.9056717E-01
       -2   -1    0    0    0  501  0.00000000000E+00  0.00000000000E+00  0.68654889496E+03  0.68654889497E+03  0.25500000920E-02 0.  1.
        2   -1    0    0  501    0  0.00000000000E+00  0.00000000000E+00 -0.58391337289E+03  0.58391337290E+03  0.25500000920E-02 0. -1.
    10030    2    1    2    0    0  0.00000000000E+00  0.00000000000E+00  0.10263552207E+03  0.12704622679E+04  0.12663097266E+04 0.  0.
        4    1    3    3  502    0  0.25264835858E+03  0.55026000140E+03 -0.13440059808E+03  0.62022769682E+03  0.12699999809E+01 0. -1.
       -4    1    3    3    0  502 -0.25264835858E+03 -0.55026000140E+03  0.23703612015E+03  0.65023457105E+03  0.12699999809E+01 0.  1.
</event>
<event>
 5   0  0.1103241E-03  0.1281675E+04  0.7818609E-02  0.9044225E-01
       -2   -1    0    0    0  501  0.00000000000E+00  0.00000000000E+00  0.83353388009E+03  0.83353388009E+03  0.25500000920E-02 0.  1.
        2   -1    0    0  501    0  0.00000000000E+00  0.00000000000E+00 -0.49268848371E+03  0.49268848372E+03  0.25500000920E-02 0. -1.
    10030    2    1    2    0    0  0.00000000000E+00  0.00000000000E+00  0.34084539638E+03  0.13262223638E+04  0.12816747536E+04 0.  0.
        4    1    3    3  502    0  0.75871732050E+02  0.24010098635E+03  0.78019768320E+03  0.81982622618E+03  0.12699999809E+01 0.  1.
       -4    1    3    3    0  502 -0.75871732050E+02 -0.24010098635E+03 -0.43935228682E+03  0.50639613763E+03  0.12699999809E+01 0. -1.
</event>
<event>
 5   0  0.1031295E-03  0.1300711E+04  0.7818609E-02  0.9029002E-01
        2   -1    0    0  501    0  0.00000000000E+00  0.00000000000E+00  0.54285949846E+03  0.54285949846E+03  0.25500000920E-02 0.  1.
       -2   -1    0    0    0  501  0.00000000000E+00  0.00000000000E+00 -0.77913739898E+03  0.77913739899E+03  0.25500000920E-02 0. -1.
    10030    2    1    2    0    0  0.00000000000E+00  0.00000000000E+00 -0.23627790053E+03  0.13219968974E+04  0.13007107867E+04 0.  0.
        2    1    3    3  502    0  0.56881932283E+03 -0.23833378060E+03  0.91645589147E+02  0.62350407137E+03  0.25500000920E-02 0.  1.
       -2    1    3    3    0  502 -0.56881932283E+03  0.23833378060E+03 -0.32792348967E+03  0.69849282608E+03  0.25500000920E-02 0. -1.
</event>
<event>
 5   0  0.1046253E-03  0.1305138E+04  0.7818609E-02  0.9025500E-01
       -2   -1    0    0    0  501  0.00000000000E+00  0.00000000000E+00  0.34543735640E+03  0.34543735640E+03  0.25500000920E-02 0.  1.
        2   -1    0    0  501    0  0.00000000000E+00  0.00000000000E+00 -0.12327748214E+04  0.12327748214E+04  0.25500000920E-02 0. -1.
    10030    2    1    2    0    0  0.00000000000E+00  0.00000000000E+00 -0.88733746503E+03  0.15782121778E+04  0.13051382691E+04 0.  0.
        3    1    3    3  502    0 -0.14680988741E+03  0.59344347255E+02 -0.12091901033E+04  0.12195144980E+04  0.10100000352E+00 0. -1.
       -3    1    3    3    0  502  0.14680988741E+03 -0.59344347255E+02  0.32185263827E+03  0.35869767988E+03  0.10100000352E+00 0.  1.
</event>
<event>
 5   0  0.5766027E-04  0.1299963E+04  0.7818609E-02  0.9029595E-01
       -1   -1    0    0    0  501  0.00000000000E+00  0.00000000000E+00  0.64615742063E+03  0.64615742065E+03  0.50400001928E-02 0. -1.
        1   -1    0    0  501    0  0.00000000000E+00  0.00000000000E+00 -0.65382804679E+03  0.65382804681E+03  0.50400001928E-02 0.  1.
    10030    2    1    2    0    0  0.00000000000E+00  0.00000000000E+00 -0.76706261616E+01  0.12999854675E+04  0.12999628368E+04 0.  0.
        3    1    3    3  502    0 -0.23245717152E+02  0.63374727926E+03 -0.14631535917E+03  0.65083344403E+03  0.10100000352E+00 0.  1.
       -3    1    3    3    0  502  0.23245717152E+02 -0.63374727926E+03  0.13864473301E+03  0.64915202343E+03  0.10100000352E+00 0. -1.
</event>
<event>
 5   0  0.6006119E-04  0.1310785E+04  0.7818609E-02  0.9021056E-01
       -1   -1    0    0    0  501  0.00000000000E+00  0.00000000000E+00  0.10374312494E+04  0.10374312494E+04  0.50400001928E-02 0.  1.
        1   -1    0    0  501    0  0.00000000000E+00  0.00000000000E+00 -0.41404153371E+03  0.41404153374E+03  0.50400001928E-02 0. -1.
    10030    2    1    2    0    0  0.00000000000E+00  0.00000000000E+00  0.62338971570E+03  0.14514727832E+04  0.13107854526E+04 0.  0.
        4    1    3    3  502    0 -0.16739724687E+02 -0.31548405117E+03  0.94754524461E+03  0.99882631544E+03  0.12699999809E+01 0.  1.
       -4    1    3    3    0  502  0.16739724687E+02  0.31548405117E+03 -0.32415552891E+03  0.45264646773E+03  0.12699999809E+01 0. -1.
</event>
<event>
 5   0  0.1046253E-03  0.1294956E+04  0.7818609E-02  0.9033575E-01
       -2   -1    0    0    0  501  0.00000000000E+00  0.00000000000E+00  0.67895016820E+03  0.67895016821E+03  0.25500000920E-02 0.  1.
        2   -1    0    0  501    0  0.00000000000E+00  0.00000000000E+00 -0.61746477886E+03  0.61746477887E+03  0.25500000920E-02 0. -1.
    10030    2    1    2    0    0  0.00000000000E+00  0.00000000000E+00  0.61485389341E+02  0.12964149471E+04  0.12949560849E+04 0.  0.
        3    1    3    3  502    0  0.61090177691E+02 -0.51370466160E+03 -0.35905865580E+03  0.62972026938E+03  0.10100000352E+00 0. -1.
       -3    1    3    3    0  502 -0.61090177691E+02  0.51370466160E+03  0.42054404514E+03  0.66669467769E+03  0.10100000352E+00 0.  1.
</event>
<event>
 5   0  0.1031295E-03  0.1298368E+04  0.7818609E-02  0.9030860E-01
       -2   -1    0    0    0  501  0.00000000000E+00  0.00000000000E+00  0.34471446043E+03  0.34471446044E+03  0.25500000920E-02 0.  1.
        2   -1    0    0  501    0  0.00000000000E+00  0.00000000000E+00 -0.12225765614E+04  0.12225765614E+04  0.25500000920E-02 0. -1.
    10030    2    1    2    0    0  0.00000000000E+00  0.00000000000E+00 -0.87786210093E+03  0.15672910218E+04  0.12983679289E+04 0.  0.
        2    1    3    3  502    0  0.11505093877E+02 -0.12487112075E+03  0.32995541183E+03  0.35298121449E+03  0.25500000920E-02 0.  1.
       -2    1    3    3    0  502 -0.11505093877E+02  0.12487112075E+03 -0.12078175128E+04  0.12143098073E+04  0.25500000920E-02 0. -1.
</event>
<event>
 5   0  0.5710383E-04  0.1267596E+04  0.7818609E-02  0.9055664E-01
        1   -1    0    0  501    0  0.00000000000E+00  0.00000000000E+00  0.17810433862E+04  0.17810433862E+04  0.50400001928E-02 0. -1.
       -1   -1    0    0    0  501  0.00000000000E+00  0.00000000000E+00 -0.22554176285E+03  0.22554176291E+03  0.50400001928E-02 0.  1.
    10030    2    1    2    0    0  0.00000000000E+00  0.00000000000E+00  0.15555016233E+04  0.20065851491E+04  0.12675956218E+04 0.  0.
        1    1    3    3  502    0  0.14504551489E+03  0.36402957034E+03 -0.10798207983E+02  0.39201062587E+03  0.50400001928E-02 0.  1.
       -1    1    3    3    0  502 -0.14504551489E+03 -0.36402957034E+03  0.15662998313E+04  0.16145745232E+04  0.50400001928E-02 0. -1.
</event>
<event>
 5   0  0.1101619E-03  0.1301690E+04  0.7818609E-02  0.9028226E-01
       -2   -1    0    0    0  501  0.00000000000E+00  0.00000000000E+00  0.52481836185E+03  0.52481836186E+03  0.25500000920E-02 0. -1.
        2   -1    0    0  501    0  0.00000000000E+00  0.00000000000E+00 -0.80713504072E+03  0.80713504072E+03  0.25500000920E-02 0.  1.
    10030    2    1    2    0    0  0.00000000000E+00  0.00000000000E+00 -0.28231667886E+03  0.13319534026E+04  0.13016901165E+04 0.  0.
        1    1    3    3  502    0 -0.51476515933E+03 -0.20576109471E+03 -0.49008256286E+03  0.73993358878E+03  0.50400001928E-02 0.  1.
       -1    1    3    3    0  502  0.51476515933E+03  0.20576109471E+03  0.20776588400E+03  0.59201981380E+03  0.50400001928E-02 0. -1.
</event>
<event>
 5   0  0.5563545E-04  0.1300449E+04  0.7818609E-02  0.9029209E-01
        1   -1    0    0  501    0  0.00000000000E+00  0.00000000000E+00  0.74527930323E+03  0.74527930324E+03  0.50400001928E-02 0. -1.
       -1   -1    0    0    0  501  0.00000000000E+00  0.00000000000E+00 -0.56729358989E+03  0.56729358991E+03  0.50400001928E-02 0.  1.
    10030    2    1    2    0    0  0.00000000000E+00  0.00000000000E+00  0.17798571333E+03  0.13125728932E+04  0.13004494168E+04 0.  0.
        2    1    3    3  502    0  0.26172793986E+03 -0.34196743118E+03  0.58071935082E+03  0.72296486976E+03  0.25500000920E-02 0. -1.
       -2    1    3    3    0  502 -0.26172793986E+03  0.34196743118E+03 -0.40273363748E+03  0.58960802340E+03  0.25500000920E-02 0.  1.
</event>
<event>
 5   0  0.1081574E-03  0.1305973E+04  0.7818609E-02  0.9024842E-01
       -2   -1    0    0    0  501  0.00000000000E+00  0.00000000000E+00  0.30367306324E+03  0.30367306325E+03  0.25500000920E-02 0.  1.
        2   -1    0    0  501    0  0.00000000000E+00  0.00000000000E+00 -0.14041142983E+04  0.14041142983E+04  0.25500000920E-02 0. -1.
    10030    2    1    2    0    0  0.00000000000E+00  0.00000000000E+00 -0.11004412350E+04  0.17077873615E+04  0.13059734915E+04 0.  0.
        5    1    3    3  502    0 -0.35329465528E+03  0.45849124135E+03 -0.94542870210E+03  0.11085525935E+04  0.46999998093E+01 0. -1.
       -5    1    3    3    0  502  0.35329465528E+03 -0.45849124135E+03 -0.15501253294E+03  0.59923476802E+03  0.46999998093E+01 0.  1.
</event>
<event>
 5   0  0.5563545E-04  0.1300992E+04  0.7818609E-02  0.9028779E-01
        1   -1    0    0  501    0  0.00000000000E+00  0.00000000000E+00  0.78166426979E+03  0.78166426981E+03  0.50400001928E-02 0.  1.
       -1   -1    0    0    0  501  0.00000000000E+00  0.00000000000E+00 -0.54133834185E+03  0.54133834187E+03  0.50400001928E-02 0. -1.
    10030    2    1    2    0    0  0.00000000000E+00  0.00000000000E+00  0.24032592795E+03  0.13230026117E+04  0.13009916829E+04 0.  0.
        2    1    3    3  502    0 -0.35840874289E+03  0.29679355397E+03  0.58238752707E+03  0.74546527240E+03  0.25500000920E-02 0.  1.
       -2    1    3    3    0  502  0.35840874289E+03 -0.29679355397E+03 -0.34206159913E+03  0.57753733928E+03  0.25500000920E-02 0. -1.
</event>
<event>
 5   0  0.5766027E-04  0.1292283E+04  0.7818609E-02  0.9035707E-01
       -1   -1    0    0    0  501  0.00000000000E+00  0.00000000000E+00  0.51761400118E+03  0.51761400120E+03  0.50400001928E-02 0. -1.
        1   -1    0    0  501    0  0.00000000000E+00  0.00000000000E+00 -0.80658336080E+03  0.80658336082E+03  0.50400001928E-02 0.  1.
    10030    2    1    2    0    0  0.00000000000E+00  0.00000000000E+00 -0.28896935963E+03  0.13241973620E+04  0.12922830041E+04 0.  0.
        3    1    3    3  502    0 -0.63763012153E+03  0.83821253283E+02 -0.20848231376E+03  0.67606439022E+03  0.10100000352E+00 0.  1.
       -3    1    3    3    0  502  0.63763012153E+03 -0.83821253283E+02 -0.80487045866E+02  0.64813297180E+03  0.10100000352E+00 0. -1.
</event>
<event>
 5   0  0.5812938E-04  0.1298957E+04  0.7818609E-02  0.9030393E-01
       -1   -1    0    0    0  501  0.00000000000E+00  0.00000000000E+00  0.52030237046E+03  0.52030237049E+03  0.50400001928E-02 0.  1.
        1   -1    0    0  501    0  0.00000000000E+00  0.00000000000E+00 -0.81072477114E+03  0.81072477116E+03  0.50400001928E-02 0. -1.
    10030    2    1    2    0    0  0.00000000000E+00  0.00000000000E+00 -0.29042240068E+03  0.13310271416E+04  0.12989565354E+04 0.  0.
        5    1    3    3  502    0 -0.31559264827E+03  0.52792645390E+03 -0.35891454047E+03  0.71214239989E+03  0.46999998093E+01 0. -1.
       -5    1    3    3    0  502  0.31559264827E+03 -0.52792645390E+03  0.68492139789E+02  0.61888474175E+03  0.46999998093E+01 0.  1.
</event>
<event>
 5   0  0.1101619E-03  0.1297336E+04  0.7818609E-02  0.9031680E-01
        2   -1    0    0  501    0  0.00000000000E+00  0.00000000000E+00  0.15130797031E+04  0.15130797031E+04  0.25500000920E-02 0. -1.
       -2   -1    0    0    0  501  0.00000000000E+00  0.00000000000E+00 -0.27808865383E+03  0.27808865384E+03  0.25500000920E-02 0.  1.
    10030    2    1    2    0    0  0.00000000000E+00  0.00000000000E+00  0.12349910493E+04  0.17911683570E+04  0.12973361905E+04 0.  0.
        1    1    3    3  502    0  0.60715488335E+03  0.21568381976E+03  0.72094060457E+03  0.96690843301E+03  0.50400001928E-02 0. -1.
       -1    1    3    3    0  502 -0.60715488335E+03 -0.21568381976E+03  0.51405044472E+03  0.82425992395E+03  0.50400001928E-02 0.  1.
</event>
<event>
 5   0  0.5766027E-04  0.1299435E+04  0.7818609E-02  0.9030013E-01
       -1   -1    0    0    0  501  0.00000000000E+00  0.00000000000E+00  0.85210799540E+03  0.85210799542E+03  0.50400001928E-02 0.  1.
        1   -1    0    0  501    0  0.00000000000E+00  0.00000000000E+00 -0.49539861225E+03  0.49539861227E+03  0.50400001928E-02 0. -1.
    10030    2    1    2    0    0  0.00000000000E+00  0.00000000000E+00  0.35670938315E+03  0.13475066077E+04  0.12994354442E+04 0.  0.
        3    1    3    3  502    0  0.55793068162E+03 -0.57184953264E+02  0.51847658246E+03  0.76378972311E+03  0.10100000352E+00 0.  1.
       -3    1    3    3    0  502 -0.55793068162E+03  0.57184953264E+02 -0.16176719930E+03  0.58371688458E+03  0.10100000352E+00 0. -1.
</event>
<event>
 5   0  0.1031295E-03  0.1296615E+04  0.7818609E-02  0.9032254E-01
       -2   -1    0    0    0  501  0.00000000000E+00  0.00000000000E+00  0.19595741441E+03  0.19595741443E+03  0.25500000920E-02 0. -1.
        2   -1    0    0  501    0  0.00000000000E+00  0.00000000000E+00 -0.21448683453E+04  0.21448683453E+04  0.25500000920E-02 0.  1.
    10030    2    1    2    0    0  0.00000000000E+00  0.00000000000E+00 -0.19489109309E+04  0.23408257597E+04  0.12966153712E+04 0.  0.
        2    1    3    3  502    0  0.47688911151E+02 -0.62665386107E+03 -0.12618020541E+04  0.14096502111E+04  0.25500000920E-02 0.  1.
       -2    1    3    3    0  502 -0.47688911151E+02  0.62665386107E+03 -0.68710887678E+03  0.93117554865E+03  0.25500000920E-02 0. -1.
</event>
<event>
 5   0  0.6006119E-04  0.1262435E+04  0.7818609E-02  0.9059897E-01
       -1   -1    0    0    0  501  0.00000000000E+00  0.00000000000E+00  0.46806905939E+03  0.46806905942E+03  0.50400001928E-02 0.  1.
        1   -1    0    0  501    0  0.00000000000E+00  0.00000000000E+00 -0.85123169538E+03  0.85123169540E+03  0.50400001928E-02 0. -1.
    10030    2    1    2    0    0  0.00000000000E+00  0.00000000000E+00 -0.38316263599E+03  0.13193007548E+04  0.12624345037E+04 0.  0.
        4    1    3    3  502    0  0.19694692456E+03 -0.61541019749E+02 -0.81499087371E+03  0.84070632527E+03  0.12699999809E+01 0. -1.
       -4    1    3    3    0  502 -0.19694692456E+03  0.61541019749E+02  0.43182823772E+03  0.47859442955E+03  0.12699999809E+01 0.  1.
</event>
<event>
 5   0  0.5812938E-04  0.1283382E+04  0.7818609E-02  0.9042848E-01
       -1   -1    0    0    0  501  0.00000000000E+00  0.00000000000E+00  0.45735262257E+03  0.45735262260E+03  0.50400001928E-02 0.  1.
        1   -1    0    0  501    0  0.00000000000E+00  0.00000000000E+00 -0.90032805324E+03  0.90032805325E+03  0.50400001928E-02 0. -1.
    10030    2    1    2    0    0  0.00000000000E+00  0.00000000000E+00 -0.44297543067E+03  0.13576806758E+04  0.12833820886E+04 0.  0.
        5    1    3    3  502    0  0.92316939375E+02  0.55654840802E+03 -0.54492753410E+03  0.78437022839E+03  0.46999998093E+01 0. -1.
       -5    1    3    3    0  502 -0.92316939375E+02 -0.55654840802E+03  0.10195210343E+03  0.57331044745E+03  0.46999998093E+01 0.  1.
</event>
<event>
 5   0  0.1081574E-03  0.1384555E+04  0.7818609E-02  0.8965075E-01
        2   -1    0    0  501    0  0.00000000000E+00  0.00000000000E+00  0.88057431826E+03  0.88057431826E+03  0.25500000920E-02 0. -1.
       -2   -1    0    0    0  501  0.00000000000E+00  0.00000000000E+00 -0.54424472850E+03  0.54424472851E+03  0.25500000920E-02 0.  1.
    10030    2    1    2    0    0  0.00000000000E+00  0.00000000000E+00  0.33632958975E+03  0.14248190468E+04  0.13845547021E+04 0.  0.
        5    1    3    3  502    0  0.35357437758E+03  0.52541969552E+03 -0.11950919094E+03  0.64450386628E+03  0.46999998093E+01 0.  1.
       -5    1    3    3    0  502 -0.35357437758E+03 -0.52541969552E+03  0.45583878069E+03  0.78031518049E+03  0.46999998093E+01 0. -1.
</event>
<event>
 5   0  0.5812938E-04  0.1294165E+04  0.7818609E-02  0.9034205E-01
       -1   -1    0    0    0  501  0.00000000000E+00  0.00000000000E+00  0.45301591628E+03  0.45301591631E+03  0.50400001928E-02 0.  1.
        1   -1    0    0  501    0  0.00000000000E+00  0.00000000000E+00 -0.92428542381E+03  0.92428542382E+03  0.50400001928E-02 0. -1.
    10030    2    1    2    0    0  0.00000000000E+00  0.00000000000E+00 -0.47126950753E+03  0.13773013401E+04  0.12941653808E+04 0.  0.
        5    1    3    3  502    0 -0.17731279906E+03 -0.46734061228E+03 -0.67294098180E+03  0.83828320488E+03  0.46999998093E+01 0. -1.
       -5    1    3    3    0  502  0.17731279906E+03  0.46734061228E+03  0.20167147427E+03  0.53901813525E+03  0.46999998093E+01 0.  1.
</event>
<event>
 5   0  0.5563545E-04  0.1210290E+04  0.7818609E-02  0.9103897E-01
        1   -1    0    0  501    0  0.00000000000E+00  0.00000000000E+00  0.10588535571E+04  0.10588535571E+04  0.50400001928E-02 0. -1.
       -1   -1    0    0    0  501  0.00000000000E+00  0.00000000000E+00 -0.34584595581E+03  0.34584595585E+03  0.50400001928E-02 0.  1.
    10030    2    1    2    0    0  0.00000000000E+00  0.00000000000E+00  0.71300760129E+03  0.14046995130E+04  0.12102895861E+04 0.  0.
        2    1    3    3  502    0  0.20478633718E+03 -0.28049955640E+03  0.93166964378E+03  0.99429662082E+03  0.25500000920E-02 0. -1.
       -2    1    3    3    0  502 -0.20478633718E+03  0.28049955640E+03 -0.21866204249E+03  0.41040289213E+03  0.25500000920E-02 0.  1.
</event>
<event>
 5   0  0.1101619E-03  0.1309315E+04  0.7818609E-02  0.9022210E-01
       -2   -1    0    0    0  501  0.00000000000E+00  0.00000000000E+00  0.25583201545E+03  0.25583201546E+03  0.25500000920E-02 0. -1.
        2   -1    0    0  501    0  0.00000000000E+00  0.00000000000E+00 -0.16752269263E+04  0.16752269263E+04  0.25500000920E-02 0.  1.
    10030    2    1    2    0    0  0.00000000000E+00  0.00000000000E+00 -0.14193949108E+04  0.19310589417E+04  0.13093153644E+04 0.  0.
        1    1    3    3  502    0  0.55309968550E+03  0.13224053451E+03 -0.23140127444E+03  0.61396528478E+03  0.50400001928E-02 0. -1.
       -1    1    3    3    0  502 -0.55309968550E+03 -0.13224053451E+03 -0.11879936364E+04  0.13170936570E+04  0.50400001928E-02 0.  1.
</event>
<event>
 5   0  0.6006119E-04  0.1272095E+04  0.7818609E-02  0.9051992E-01
        1   -1    0    0  501    0  0.00000000000E+00  0.00000000000E+00  0.19892236502E+04  0.19892236502E+04  0.50400001928E-02 0. -1.
       -1   -1    0    0    0  501  0.00000000000E+00  0.00000000000E+00 -0.20337393625E+03  0.20337393631E+03  0.50400001928E-02 0.  1.
    10030    2    1    2    0    0  0.00000000000E+00  0.00000000000E+00  0.17858497140E+04  0.21925975865E+04  0.12720947196E+04 0.  0.
        4    1    3    3  502    0  0.49312904917E+03 -0.36660634762E+03  0.60982110396E+03  0.86571350052E+03  0.12699999809E+01 0.  1.
       -4    1    3    3    0  502 -0.49312904917E+03  0.36660634762E+03  0.11760286100E+04  0.13268840860E+04  0.12699999809E+01 0. -1.
</event>
<event>
 5   0  0.1101619E-03  0.1282876E+04  0.7818609E-02  0.9043256E-01
        2   -1    0    0  501    0  0.00000000000E+00  0.00000000000E+00  0.10128263230E+04  0.10128263231E+04  0.25500000920E-02 0. -1.
       -2   -1    0    0    0  501  0.00000000000E+00  0.00000000000E+00 -0.40623205627E+03  0.40623205628E+03  0.25500000920E-02 0.  1.
    10030    2    1    2    0    0  0.00000000000E+00  0.00000000000E+00  0.60659426678E+03  0.14190583793E+04  0.12828757069E+04 0.  0.
        1    1    3    3  502    0  0.49740595912E+03  0.40495495352E+03  0.31040732995E+03  0.71256853218E+03  0.50400001928E-02 0.  1.
       -1    1    3    3    0  502 -0.49740595912E+03 -0.40495495352E+03  0.29618693683E+03  0.70648984714E+03  0.50400001928E-02 0. -1.
</event>
<event>
 5   0  0.1101619E-03  0.1295162E+04  0.7818609E-02  0.9033411E-01
       -2   -1    0    0    0  501  0.00000000000E+00  0.00000000000E+00  0.28561859020E+03  0.28561859021E+03  0.25500000920E-02 0. -1.
        2   -1    0    0  501    0  0.00000000000E+00  0.00000000000E+00 -0.14682556327E+04  0.14682556327E+04  0.25500000920E-02 0.  1.
    10030    2    1    2    0    0  0.00000000000E+00  0.00000000000E+00 -0.11826370425E+04  0.17538742229E+04  0.12951619264E+04 0.  0.
        1    1    3    3  502    0  0.47190068629E+03 -0.27784311521E+03 -0.10593889107E+04  0.11925568827E+04  0.50400001928E-02 0.  1.
       -1    1    3    3    0  502 -0.47190068629E+03  0.27784311521E+03 -0.12324813182E+03  0.56131734021E+03  0.50400001928E-02 0. -1.
</event>
<event>
 5   0  0.6006119E-04  0.1303603E+04  0.7818609E-02  0.9026713E-01
       -1   -1    0    0    0  501  0.00000000000E+00  0.00000000000E+00  0.27047997335E+03  0.27047997340E+03  0.50400001928E-02 0.  1.
        1   -1    0    0  501    0  0.00000000000E+00  0.00000000000E+00 -0.15707085295E+04  0.15707085295E+04  0.50400001928E-02 0. -1.
    10030    2    1    2    0    0  0.00000000000E+00  0.00000000000E+00 -0.13002285562E+04  0.18411885029E+04  0.13036030090E+04 0.  0.
        4    1    3    3  502    0  0.47925015328E+02  0.39636176724E+03 -0.13777926443E+04  0.14344732975E+04  0.12699999809E+01 0. -1.
       -4    1    3    3    0  502 -0.47925015328E+02 -0.39636176724E+03  0.77564088182E+02  0.40671520539E+03  0.12699999809E+01 0.  1.
</event>
<event>
 5   0  0.5766027E-04  0.1295847E+04  0.7818609E-02  0.9032865E-01
       -1   -1    0    0    0  501  0.00000000000E+00  0.00000000000E+00  0.39358184025E+03  0.39358184028E+03  0.50400001928E-02 0. -1.
        1   -1    0    0  501    0  0.00000000000E+00  0.00000000000E+00 -0.10666267278E+04  0.10666267279E+04  0.50400001928E-02 0.  1.
    10030    2    1    2    0    0  0.00000000000E+00  0.00000000000E+00 -0.67304488760E+03  0.14602085681E+04  0.12958470750E+04 0.  0.
        3    1    3    3  502    0  0.14706934005E+03  0.59053731032E+03 -0.85965976346E+02  0.61461684402E+03  0.10100000352E+00 0. -1.
       -3    1    3    3    0  502 -0.14706934005E+03 -0.59053731032E+03 -0.58707891125E+03  0.84559172412E+03  0.10100000352E+00 0.  1.
</event>
<event>
 5   0  0.1103241E-03  0.1292290E+04  0.7818609E-02  0.9035702E-01
       -2   -1    0    0    0  501  0.00000000000E+00  0.00000000000E+00  0.36249941908E+03  0.36249941909E+03  0.25500000920E-02 0.  1.
        2   -1    0    0  501    0  0.00000000000E+00  0.00000000000E+00 -0.11517344993E+04  0.11517344993E+04  0.25500000920E-02 0. -1.
    10030    2    1    2    0    0  0.00000000000E+00  0.00000000000E+00 -0.78923508023E+03  0.15142339184E+04  0.12922895758E+04 0.  0.
        4    1    3    3  502    0  0.45760818658E+03  0.15478193687E+03  0.10819459674E+03  0.49504584037E+03  0.12699999809E+01 0.  1.
       -4    1    3    3    0  502 -0.45760818658E+03 -0.15478193687E+03 -0.89742967697E+03  0.10191880780E+04  0.12699999809E+01 0. -1.
</event>
<event>
 5   0  0.6006119E-04  0.1302639E+04  0.7818609E-02  0.9027475E-01
        1   -1    0    0  501    0  0.00000000000E+00  0.00000000000E+00  0.58937906580E+03  0.58937906582E+03  0.50400001928E-02 0.  1.
       -1   -1    0    0    0  501  0.00000000000E+00  0.00000000000E+00 -0.71976929574E+03  0.71976929576E+03  0.50400001928E-02 0. -1.
    10030    2    1    2    0    0  0.00000000000E+00  0.00000000000E+00 -0.13039022994E+03  0.13091483616E+04  0.13026387913E+04 0.  0.
        4    1    3    3  502    0  0.42311465571E+03  0.21360548050E+03 -0.51415115132E+03  0.69928987729E+03  0.12699999809E+01 0. -1.
       -4    1    3    3    0  502 -0.42311465571E+03 -0.21360548050E+03  0.38376092138E+03  0.60985848429E+03  0.12699999809E+01 0.  1.
</event>
<event>
 5   0  0.5710383E-04  0.1303673E+04  0.7818609E-02  0.9026658E-01
       -1   -1    0    0    0  501  0.00000000000E+00  0.00000000000E+00  0.52291564945E+03  0.52291564948E+03  0.50400001928E-02 0.  1.
        1   -1    0    0  501    0  0.00000000000E+00  0.00000000000E+00 -0.81254125608E+03  0.81254125609E+03  0.50400001928E-02 0. -1.
    10030    2    1    2    0    0  0.00000000000E+00  0.00000000000E+00 -0.28962560662E+03  0.13354569056E+04  0.13036725642E+04 0.  0.
        1    1    3    3  502    0  0.28220789823E+03  0.15437857513E+03  0.43594550778E+03  0.54177719412E+03  0.50400001928E-02 0.  1.
       -1    1    3    3    0  502 -0.28220789823E+03 -0.15437857513E+03 -0.72557111441E+03  0.79367971145E+03  0.50400001928E-02 0. -1.
</event>
<event>
 5   0  0.5812938E-04  0.1296529E+04  0.7818609E-02  0.9032322E-01
        1   -1    0    0  501    0  0.00000000000E+00  0.00000000000E+00  0.13393740498E+04  0.13393740498E+04  0.50400001928E-02 0.  1.
       -1   -1    0    0    0  501  0.00000000000E+00  0.00000000000E+00 -0.31376370903E+03  0.31376370907E+03  0.50400001928E-02 0. -1.
    10030    2    1    2    0    0  0.00000000000E+00  0.00000000000E+00  0.10256103408E+04  0.16531377589E+04  0.12965291662E+04 0.  0.
        5    1    3    3  502    0  0.80673627680E+01 -0.63836699138E+03  0.65619787854E+03  0.91553003436E+03  0.46999998093E+01 0.  1.
       -5    1    3    3    0  502 -0.80673627680E+01  0.63836699138E+03  0.36941246222E+03  0.73760772451E+03  0.46999998093E+01 0. -1.
</event>
<event>
 5   0  0.1103241E-03  0.1295286E+04  0.7818609E-02  0.9033311E-01
       -2   -1    0    0    0  501  0.00000000000E+00  0.00000000000E+00  0.39988461076E+03  0.39988461077E+03  0.25500000920E-02 0.  1.
        2   -1    0    0  501    0  0.00000000000E+00  0.00000000000E+00 -0.10489069990E+04  0.10489069990E+04  0.25500000920E-02 0. -1.
    10030    2    1    2    0    0  0.00000000000E+00  0.00000000000E+00 -0.64902238824E+03  0.14487916098E+04  0.12952864811E+04 0.  0.
        4    1    3    3  502    0  0.36137981817E+03  0.21620527727E+03 -0.87485937748E+03  0.97093801973E+03  0.12699999809E+01 0. -1.
       -4    1    3    3    0  502 -0.36137981817E+03 -0.21620527727E+03  0.22583698924E+03  0.47785359003E+03  0.12699999809E+01 0.  1.
</event>
<event>
 5   0  0.1031295E-03  0.1295818E+04  0.7818609E-02  0.9032888E-01
        2   -1    0    0  501    0  0.00000000000E+00  0.00000000000E+00  0.16257256007E+04  0.16257256007E+04  0.25500000920E-02 0. -1.
       -2   -1    0    0    0  501  0.00000000000E+00  0.00000000000E+00 -0.25821468731E+03  0.25821468732E+03  0.25500000920E-02 0.  1.
    10030    2    1    2    0    0  0.00000000000E+00  0.00000000000E+00  0.13675109134E+04  0.18839402881E+04  0.12958182398E+04 0.  0.
        2    1    3    3  502    0  0.41150252680E+03  0.38899855477E+03  0.22600369100E+03  0.60969818233E+03  0.25500000920E-02 0.  1.
       -2    1    3    3    0  502 -0.41150252680E+03 -0.38899855477E+03  0.11415072224E+04  0.12742421057E+04  0.25500000920E-02 0. -1.
</event>
<event>
 5   0  0.5812938E-04  0.1306285E+04  0.7818609E-02  0.9024596E-01
        1   -1    0    0  501    0  0.00000000000E+00  0.00000000000E+00  0.96367439686E+03  0.96367439687E+03  0.50400001928E-02 0. -1.
       -1   -1    0    0    0  501  0.00000000000E+00  0.00000000000E+00 -0.44267581943E+03  0.44267581945E+03  0.50400001928E-02 0.  1.
    10030    2    1    2    0    0  0.00000000000E+00  0.00000000000E+00  0.52099857743E+03  0.14063502163E+04  0.13062853491E+04 0.  0.
        5    1    3    3  502    0 -0.44752676413E+03 -0.47321222676E+03  0.20816214707E+03  0.68378621340E+03  0.46999998093E+01 0.  1.
       -5    1    3    3    0  502  0.44752676413E+03  0.47321222676E+03  0.31283643036E+03  0.72256400293E+03  0.46999998093E+01 0. -1.
</event>
<event>
 5   0  0.5710383E-04  0.1303934E+04  0.7818609E-02  0.9026451E-01
        1   -1    0    0  501    0  0.00000000000E+00  0.00000000000E+00  0.13893239171E+04  0.13893239172E+04  0.50400001928E-02 0. -1.
       -1   -1    0    0    0  501  0.00000000000E+00  0.00000000000E+00 -0.30594815616E+03  0.30594815620E+03  0.50400001928E-02 0.  1.
    10030    2    1    2    0    0  0.00000000000E+00  0.00000000000E+00  0.10833757610E+04  0.16952720734E+04  0.13039341867E+04 0.  0.
        1    1    3    3  502    0 -0.59169370231E+03  0.10930101854E+03  0.86804914724E+03  0.10561995418E+04  0.50400001928E-02 0. -1.
       -1    1    3    3    0  502  0.59169370231E+03 -0.10930101854E+03  0.21532661375E+03  0.63907253158E+03  0.50400001928E-02 0.  1.
</event>
<event>
 5   0  0.1046253E-03  0.1313359E+04  0.7818609E-02  0.9019038E-01
       -2   -1    0    0    0  501  0.00000000000E+00  0.00000000000E+00  0.37913018669E+03  0.37913018670E+03  0.25500000920E-02 0.  1.
        2   -1    0    0  501    0  0.00000000000E+00  0.00000000000E+00 -0.11374147256E+04  0.11374147256E+04  0.25500000920E-02 0. -1.
    10030    2    1    2    0    0  0.00000000000E+00  0.00000000000E+00 -0.75828453893E+03  0.15165449123E+04  0.13133594440E+04 0.  0.
        3    1    3    3  502    0  0.32392659821E+03  0.10270682625E+03  0.26970744934E+03  0.43384242718E+03  0.10100000352E+00 0.  1.
       -3    1    3    3    0  502 -0.32392659821E+03 -0.10270682625E+03 -0.10279919883E+04  0.10827024851E+04  0.10100000352E+00 0. -1.
</event>
<event>
 5   0  0.1103241E-03  0.1301204E+04  0.7818609E-02  0.9028611E-01
        2   -1    0    0  501    0  0.00000000000E+00  0.00000000000E+00  0.17748502942E+04  0.17748502942E+04  0.25500000920E-02 0.  1.
       -2   -1    0    0    0  501  0.00000000000E+00  0.00000000000E+00 -0.23848920905E+03  0.23848920906E+03  0.25500000920E-02 0. -1.
    10030    2    1    2    0    0  0.00000000000E+00  0.00000000000E+00  0.15363610852E+04  0.20133395033E+04  0.13012035088E+04 0.  0.
        4    1    3    3  502    0  0.45500048529E+03  0.36582579949E+03  0.32395172567E+03  0.66768277696E+03  0.12699999809E+01 0. -1.
       -4    1    3    3    0  502 -0.45500048529E+03 -0.36582579949E+03  0.12124093595E+04  0.13456567263E+04  0.12699999809E+01 0.  1.
</event>
<event>
 5   0  0.1103241E-03  0.1304045E+04  0.7818609E-02  0.9026363E-01
        2   -1    0    0  501    0  0.00000000000E+00  0.00000000000E+00  0.19824368057E+04  0.19824368057E+04  0.25500000920E-02 0. -1.
       -2   -1    0    0    0  501  0.00000000000E+00  0.00000000000E+00 -0.21445002772E+03  0.21445002774E+03  0.25500000920E-02 0.  1.
    10030    2    1    2    0    0  0.00000000000E+00  0.00000000000E+00  0.17679867780E+04  0.21968868335E+04  0.13040454409E+04 0.  0.
        4    1    3    3  502    0  0.79478956387E+02  0.18928293059E+03  0.19265677106E+04  0.19374750808E+04  0.12699999809E+01 0. -1.
       -4    1    3    3    0  502 -0.79478956387E+02 -0.18928293059E+03 -0.15858093261E+03  0.25941175264E+03  0.12699999809E+01 0.  1.
</event>
<event>
 5   0  0.5766027E-04  0.1280363E+04  0.7818609E-02  0.9045284E-01
       -1   -1    0    0    0  501  0.00000000000E+00  0.00000000000E+00  0.31671911606E+03  0.31671911610E+03  0.50400001928E-02 0. -1.
        1   -1    0    0  501    0  0.00000000000E+00  0.00000000000E+00 -0.12939939297E+04  0.12939939298E+04  0.50400001928E-02 0.  1.
    10030    2    1    2    0    0  0.00000000000E+00  0.00000000000E+00 -0.97727481368E+03  0.16107130459E+04  0.12803634072E+04 0.  0.
        3    1    3    3  502    0 -0.33784435694E+03  0.54334901218E+03 -0.51578381352E+03  0.82182717833E+03  0.10100000352E+00 0.  1.
       -3    1    3    3    0  502  0.33784435694E+03 -0.54334901218E+03 -0.46149100016E+03  0.78888586752E+03  0.10100000352E+00 0. -1.
</event>
<event>
 5   0  0.5766027E-04  0.1280063E+04  0.7818609E-02  0.9045526E-01
       -1   -1    0    0    0  501  0.00000000000E+00  0.00000000000E+00  0.45173914255E+03  0.45173914257E+03  0.50400001928E-02 0. -1.
        1   -1    0    0  501    0  0.00000000000E+00  0.00000000000E+00 -0.90680747342E+03  0.90680747343E+03  0.50400001928E-02 0.  1.
    10030    2    1    2    0    0  0.00000000000E+00  0.00000000000E+00 -0.45506833088E+03  0.13585466160E+04  0.12800631711E+04 0.  0.
        3    1    3    3  502    0  0.17010710572E+03 -0.32162553083E+03  0.33130591118E+03  0.49208030491E+03  0.10100000352E+00 0. -1.
       -3    1    3    3    0  502 -0.17010710572E+03  0.32162553083E+03 -0.78637424205E+03  0.86646631110E+03  0.10100000352E+00 0.  1.
</event>
<event>
 5   0  0.5710383E-04  0.1299909E+04  0.7818609E-02  0.9029638E-01
        1   -1    0    0  501    0  0.00000000000E+00  0.00000000000E+00  0.71121818392E+03  0.71121818394E+03  0.50400001928E-02 0. -1.
       -1   -1    0    0    0  501  0.00000000000E+00  0.00000000000E+00 -0.59396769052E+03  0.59396769054E+03  0.50400001928E-02 0.  1.
    10030    2    1    2    0    0  0.00000000000E+00  0.00000000000E+00  0.11725049340E+03  0.13051858745E+04  0.12999086463E+04 0.  0.
        1    1    3    3  502    0  0.12233689254E+03 -0.60989478006E+03 -0.13056119307E+03  0.63559750092E+03  0.50400001928E-02 0.  1.
       -1    1    3    3    0  502 -0.12233689254E+03  0.60989478006E+03  0.24781168647E+03  0.66958837355E+03  0.50400001928E-02 0. -1.
</event>
<event>
 5   0  0.5563545E-04  0.1351721E+04  0.7818609E-02  0.8989526E-01
        1   -1    0    0  501    0  0.00000000000E+00  0.00000000000E+00  0.20019269745E+04  0.20019269746E+04  0.50400001928E-02 0.  1.
       -1   -1    0    0    0  501  0.00000000000E+00  0.00000000000E+00 -0.22817392107E+03  0.22817392112E+03  0.50400001928E-02 0. -1.
    10030    2    1    2    0    0  0.00000000000E+00  0.00000000000E+00  0.17737530535E+04  0.22301008957E+04  0.13517211658E+04 0.  0.
        2    1    3    3  502    0  0.34797534987E+03  0.33829035064E+03  0.11082748313E+03  0.49780511898E+03  0.25500000920E-02 0. -1.
       -2    1    3    3    0  502 -0.34797534987E+03 -0.33829035064E+03  0.16629255703E+04  0.17322957767E+04  0.25500000920E-02 0.  1.
</event>
<event>
 5   0  0.1046253E-03  0.1298719E+04  0.7818609E-02  0.9030582E-01
       -2   -1    0    0    0  501  0.00000000000E+00  0.00000000000E+00  0.39061796684E+03  0.39061796685E+03  0.25500000920E-02 0.  1.
        2   -1    0    0  501    0  0.00000000000E+00  0.00000000000E+00 -0.10794888885E+04  0.10794888885E+04  0.25500000920E-02 0. -1.
    10030    2    1    2    0    0  0.00000000000E+00  0.00000000000E+00 -0.68887092164E+03  0.14701068553E+04  0.12987189917E+04 0.  0.
        3    1    3    3  502    0 -0.64614217087E+03  0.41755509990E+02 -0.28869810861E+03  0.70893570633E+03  0.10100000352E+00 0. -1.
       -3    1    3    3    0  502  0.64614217087E+03 -0.41755509990E+02 -0.40017281303E+03  0.76117114901E+03  0.10100000352E+00 0.  1.
</event>
<event>
 5   0  0.1046253E-03  0.1277523E+04  0.7818609E-02  0.9047582E-01
        2   -1    0    0  501    0  0.00000000000E+00  0.00000000000E+00  0.10422488365E+04  0.10422488365E+04  0.25500000920E-02 0. -1.
       -2   -1    0    0    0  501  0.00000000000E+00  0.00000000000E+00 -0.39147666264E+03  0.39147666265E+03  0.25500000920E-02 0.  1.
    10030    2    1    2    0    0  0.00000000000E+00  0.00000000000E+00  0.65077217385E+03  0.14337254991E+04  0.12775227531E+04 0.  0.
        3    1    3    3  502    0  0.16239728727E+03 -0.60908105707E+03  0.44127628407E+03  0.76946564711E+03  0.10100000352E+00 0. -1.
       -3    1    3    3    0  502 -0.16239728727E+03  0.60908105707E+03  0.20949588978E+03  0.66425985204E+03  0.10100000352E+00 0.  1.
</event>
<event>
 5   0  0.5766027E-04  0.1298454E+04  0.7818609E-02  0.9030792E-01
        1   -1    0    0  501    0  0.00000000000E+00  0.00000000000E+00  0.46293686242E+03  0.46293686244E+03  0.50400001928E-02 0.  1.
       -1   -1    0    0    0  501  0.00000000000E+00  0.00000000000E+00 -0.91048264674E+03  0.91048264675E+03  0.50400001928E-02 0. -1.
    10030    2    1    2    0    0  0.00000000000E+00  0.00000000000E+00 -0.44754578432E+03  0.13734195092E+04  0.12984544348E+04 0.  0.
        3    1    3    3  502    0  0.36043712499E+03  0.53850151018E+03 -0.18150093553E+03  0.67293491315E+03  0.10100000352E+00 0.  1.
       -3    1    3    3    0  502 -0.36043712499E+03 -0.53850151018E+03 -0.26604484879E+03  0.70048459605E+03  0.10100000352E+00 0. -1.
</event>
<event>
 5   0  0.1031295E-03  0.1298715E+04  0.7818609E-02  0.9030585E-01
       -2   -1    0    0    0  501  0.00000000000E+00  0.00000000000E+00  0.54394099065E+03  0.54394099065E+03  0.25500000920E-02 0. -1.
        2   -1    0    0  501    0  0.00000000000E+00  0.00000000000E+00 -0.77520423187E+03  0.77520423188E+03  0.25500000920E-02 0.  1.
    10030    2    1    2    0    0  0.00000000000E+00  0.00000000000E+00 -0.23126324123E+03  0.13191452225E+04  0.12987153004E+04 0.  0.
        2    1    3    3  502    0  0.27480984793E+03 -0.25864080789E+03  0.42112216569E+03  0.56547272124E+03  0.25500000920E-02 0. -1.
       -2    1    3    3    0  502 -0.27480984793E+03  0.25864080789E+03 -0.65238540692E+03  0.75367250129E+03  0.25500000920E-02 0.  1.
</event>
<event>
 5   0  0.1101619E-03  0.1375127E+04  0.7818609E-02  0.8972022E-01
        2   -1    0    0  501    0  0.00000000000E+00  0.00000000000E+00  0.25156632117E+04  0.25156632117E+04  0.25500000920E-02 0. -1.
       -2   -1    0    0    0  501  0.00000000000E+00  0.00000000000E+00 -0.18792009031E+03  0.18792009033E+03  0.25500000920E-02 0.  1.
    10030    2    1    2    0    0  0.00000000000E+00  0.00000000000E+00  0.23277431214E+04  0.27035833020E+04  0.13751271330E+04 0.  0.
        1    1    3    3  502    0  0.41310619683E+03  0.14858181519E+02  0.83671689771E+02  0.42175638360E+03  0.50400001928E-02 0.  1.
       -1    1    3    3    0  502 -0.41310619683E+03 -0.14858181519E+02  0.22440714316E+04  0.22818269184E+04  0.50400001928E-02 0. -1.
</event>
<event>
 5   0  0.1103241E-03  0.1297411E+04  0.7818609E-02  0.9031620E-01
       -2   -1    0    0    0  501  0.00000000000E+00  0.00000000000E+00  0.25639361708E+03  0.25639361709E+03  0.25500000920E-02 0.  1.
        2   -1    0    0  501    0  0.00000000000E+00  0.00000000000E+00 -0.16413011616E+04  0.16413011616E+04  0.25500000920E-02 0. -1.
    10030    2    1    2    0    0  0.00000000000E+00  0.00000000000E+00 -0.13849075445E+04  0.18976947787E+04  0.12974114869E+04 0.  0.
        4    1    3    3  502    0  0.32464729452E+03  0.78439708098E+02  0.12096975795E+03  0.35522380112E+03  0.12699999809E+01 0.  1.
       -4    1    3    3    0  502 -0.32464729452E+03 -0.78439708098E+02 -0.15058773025E+04  0.15424709776E+04  0.12699999809E+01 0. -1.
</event>
<event>
 5   0  0.5812938E-04  0.1145692E+04  0.7818609E-02  0.9161767E-01
       -1   -1    0    0    0  501  0.00000000000E+00  0.00000000000E+00  0.83155692868E+03  0.83155692870E+03  0.50400001928E-02 0. -1.
        1   -1    0    0  501    0  0.00000000000E+00  0.00000000000E+00 -0.39462439457E+03  0.39462439460E+03  0.50400001928E-02 0.  1.
    10030    2    1    2    0    0  0.00000000000E+00  0.00000000000E+00  0.43693253412E+03  0.12261813233E+04  0.11456921918E+04 0.  0.
        5    1    3    3  502    0  0.39268210229E+03  0.41676822511E+03  0.23489292344E+03  0.61894407049E+03  0.46999998093E+01 0. -1.
       -5    1    3    3    0  502 -0.39268210229E+03 -0.41676822511E+03  0.20203961067E+03  0.60723725281E+03  0.46999998093E+01 0.  1.
</event>
<event>
 5   0  0.1101619E-03  0.1292296E+04  0.7818609E-02  0.9035697E-01
       -2   -1    0    0    0  501  0.00000000000E+00  0.00000000000E+00  0.73709008957E+03  0.73709008957E+03  0.25500000920E-02 0. -1.
        2   -1    0    0  501    0  0.00000000000E+00  0.00000000000E+00 -0.56642643379E+03  0.56642643380E+03  0.25500000920E-02 0.  1.
    10030    2    1    2    0    0  0.00000000000E+00  0.00000000000E+00  0.17066365578E+03  0.13035165234E+04  0.12922961129E+04 0.  0.
        1    1    3    3  502    0  0.35284702362E+02 -0.33292112338E+03 -0.47212004810E+03  0.57877355196E+03  0.50400001928E-02 0.  1.
       -1    1    3    3    0  502 -0.35284702362E+02  0.33292112338E+03  0.64278370387E+03  0.72474297141E+03  0.50400001928E-02 0. -1.
</event>
<event>
 5   0  0.1046253E-03  0.1241415E+04  0.7818609E-02  0.9077359E-01
       -2   -1    0    0    0  501  0.00000000000E+00  0.00000000000E+00  0.17499737801E+03  0.17499737803E+03  0.25500000920E-02 0. -1.
        2   -1    0    0  501    0  0.00000000000E+00  0.00000000000E+00 -0.22016189810E+04  0.22016189810E+04  0.25500000920E-02 0.  1.
    10030    2    1    2    0    0  0.00000000000E+00  0.00000000000E+00 -0.20266216030E+04  0.23766163590E+04  0.12414145948E+04 0.  0.
        3    1    3    3  502    0 -0.44710953973E+03  0.42956870521E+03 -0.95778122571E+03  0.11409562216E+04  0.10100000352E+00 0. -1.
       -3    1    3    3    0  502  0.44710953973E+03 -0.42956870521E+03 -0.10688403772E+04  0.12356601374E+04  0.10100000352E+00 0.  1.
</event>
<event>
 5   0  0.6006119E-04  0.1277344E+04  0.7818609E-02  0.9047727E-01
       -1   -1    0    0    0  501  0.00000000000E+00  0.00000000000E+00  0.44740875326E+03  0.44740875329E+03  0.50400001928E-02 0.  1.
        1   -1    0    0  501    0  0.00000000000E+00  0.00000000000E+00 -0.91169851667E+03  0.91169851668E+03  0.50400001928E-02 0. -1.
    10030    2    1    2    0    0  0.00000000000E+00  0.00000000000E+00 -0.46428976341E+03  0.13591072700E+04  0.12773439579E+04 0.  0.
        4    1    3    3  502    0  0.20421545162E+03  0.58429852018E+03 -0.64612827240E+02  0.62232237764E+03  0.12699999809E+01 0. -1.
       -4    1    3    3    0  502 -0.20421545162E+03 -0.58429852018E+03 -0.39967693617E+03  0.73678489233E+03  0.12699999809E+01 0.  1.
</event>
<event>
 5   0  0.1081574E-03  0.1329200E+04  0.7818609E-02  0.9006724E-01
        2   -1    0    0  501    0  0.00000000000E+00  0.00000000000E+00  0.36776377798E+03  0.36776377799E+03  0.25500000920E-02 0. -1.
       -2   -1    0    0    0  501  0.00000000000E+00  0.00000000000E+00 -0.12010249738E+04  0.12010249738E+04  0.25500000920E-02 0.  1.
    10030    2    1    2    0    0  0.00000000000E+00  0.00000000000E+00 -0.83326119580E+03  0.15687887518E+04  0.13292004842E+04 0.  0.
        5    1    3    3  502    0 -0.62951903157E+03 -0.21275541078E+03 -0.42913879108E+03  0.79103809513E+03  0.46999998093E+01 0.  1.
       -5    1    3    3    0  502  0.62951903157E+03  0.21275541078E+03 -0.40412240472E+03  0.77775065665E+03  0.46999998093E+01 0. -1.
</event>
<event>
 5   0  0.1031295E-03  0.1303707E+04  0.7818609E-02  0.9026630E-01
        2   -1    0    0  501    0  0.00000000000E+00  0.00000000000E+00  0.16502855441E+04  0.16502855441E+04  0.25500000920E-02 0.  1.
       -2   -1    0    0    0  501  0.00000000000E+00  0.00000000000E+00 -0.25747858854E+03  0.25747858855E+03  0.25500000920E-02 0. -1.
    10030    2    1    2    0    0  0.00000000000E+00  0.00000000000E+00  0.13928069556E+04  0.19077641327E+04  0.13037073178E+04 0.  0.
        2    1    3    3  502    0 -0.52776941960E+03 -0.15783453866E+03  0.18641213128E+03  0.58155118825E+03  0.25500000920E-02 0. -1.
       -2    1    3    3    0  502  0.52776941960E+03  0.15783453866E+03  0.12063948243E+04  0.13262129444E+04  0.25500000920E-02 0.  1.
</event>
<event>
 5   0  0.1031295E-03  0.1280360E+04  0.7818609E-02  0.9045287E-01
        2   -1    0    0  501    0  0.00000000000E+00  0.00000000000E+00  0.76388196004E+03  0.76388196004E+03  0.25500000920E-02 0. -1.
       -2   -1    0    0    0  501  0.00000000000E+00  0.00000000000E+00 -0.53650986200E+03  0.53650986200E+03  0.25500000920E-02 0.  1.
    10030    2    1    2    0    0  0.00000000000E+00  0.00000000000E+00  0.22737209804E+03  0.13003918220E+04  0.12803596447E+04 0.  0.
        2    1    3    3  502    0  0.28418020116E+03  0.55341747128E+03 -0.39676191441E+02  0.62338068981E+03  0.25500000920E-02 0.  1.
       -2    1    3    3    0  502 -0.28418020116E+03 -0.55341747128E+03  0.26704828948E+03  0.67701113224E+03  0.25500000920E-02 0. -1.
</event>
<event>
 5   0  0.5766027E-04  0.1300789E+04  0.7818609E-02  0.9028940E-01
       -1   -1    0    0    0  501  0.00000000000E+00  0.00000000000E+00  0.25728406995E+03  0.25728407000E+03  0.50400001928E-02 0.  1.
        1   -1    0    0  501    0  0.00000000000E+00  0.00000000000E+00 -0.16441475423E+04  0.16441475423E+04  0.50400001928E-02 0. -1.
    10030    2    1    2    0    0  0.00000000000E+00  0.00000000000E+00 -0.13868634723E+04  0.19014316123E+04  0.13007889472E+04 0.  0.
        3    1    3    3  502    0  0.31856521287E+03 -0.41736368683E+03 -0.13234581765E+03  0.54147176066E+03  0.10100000352E+00 0.  1.
       -3    1    3    3    0  502 -0.31856521287E+03  0.41736368683E+03 -0.12545176547E+04  0.13599598516E+04  0.10100000352E+00 0. -1.
</event>
<event>
 5   0  0.5563545E-04  0.1304433E+04  0.7818609E-02  0.9026057E-01
       -1   -1    0    0    0  501  0.00000000000E+00  0.00000000000E+00  0.34288382128E+03  0.34288382132E+03  0.50400001928E-02 0.  1.
        1   -1    0    0  501    0  0.00000000000E+00  0.00000000000E+00 -0.12406143375E+04  0.12406143375E+04  0.50400001928E-02 0. -1.
    10030    2    1    2    0    0  0.00000000000E+00  0.00000000000E+00 -0.89773051619E+03  0.15834981588E+04  0.13044333403E+04 0.  0.
        2    1    3    3  502    0 -0.64572308153E+03 -0.32921480047E+02 -0.34483116309E+03  0.73276916755E+03  0.25500000920E-02 0. -1.
       -2    1    3    3    0  502  0.64572308153E+03  0.32921480047E+02 -0.55289935311E+03  0.85072899124E+03  0.25500000920E-02 0.  1.
</event>
<event>
 5   0  0.1101619E-03  0.1307956E+04  0.7818609E-02  0.9023280E-01
       -2   -1    0    0    0  501  0.00000000000E+00  0.00000000000E+00  0.63436268819E+03  0.63436268819E+03  0.25500000920E-02 0.  1.
        2   -1    0    0  501    0  0.00000000000E+00  0.00000000000E+00 -0.67419962895E+03  0.67419962896E+03  0.25500000920E-02 0. -1.
    10030    2    1    2    0    0  0.00000000000E+00  0.00000000000E+00 -0.39836940767E+02  0.13085623172E+04  0.13079557928E+04 0.  0.
        1    1    3    3  502    0 -0.61811381722E+03 -0.78113908384E+02  0.17897164174E+03  0.64822628942E+03  0.50400001928E-02 0.  1.
       -1    1    3    3    0  502  0.61811381722E+03  0.78113908384E+02 -0.21880858251E+03  0.66033602773E+03  0.50400001928E-02 0. -1.
</event>
<event>
 5   0  0.5563545E-04  0.1343544E+04  0.7818609E-02  0.8995730E-01
        1   -1    0    0  501    0  0.00000000000E+00  0.00000000000E+00  0.86066081321E+03  0.86066081322E+03  0.50400001928E-02 0.  1.
       -1   -1    0    0    0  501  0.00000000000E+00  0.00000000000E+00 -0.52433821309E+03  0.52433821311E+03  0.50400001928E-02 0. -1.
    10030    2    1    2    0    0  0.00000000000E+00  0.00000000000E+00  0.33632260012E+03  0.13849990263E+04  0.13435436024E+04 0.  0.
        2    1    3    3  502    0 -0.41140615856E+03  0.13186899826E+03  0.69845884315E+03  0.82127292393E+03  0.25500000920E-02 0.  1.
       -2    1    3    3    0  502  0.41140615856E+03 -0.13186899826E+03 -0.36213624303E+03  0.56372610240E+03  0.25500000920E-02 0. -1.
</event>
<event>
 5   0  0.5812938E-04  0.1297006E+04  0.7818609E-02  0.9031943E-01
       -1   -1    0    0    0  501  0.00000000000E+00  0.00000000000E+00  0.17999566678E+03  0.17999566685E+03  0.50400001928E-02 0. -1.
        1   -1    0    0  501    0  0.00000000000E+00  0.00000000000E+00 -0.23364800078E+04  0.23364800079E+04  0.50400001928E-02 0.  1.
    10030    2    1    2    0    0  0.00000000000E+00  0.00000000000E+00 -0.21564843411E+04  0.25164756747E+04  0.12970062097E+04 0.  0.
        5    1    3    3  502    0  0.24061756309E+02 -0.34275803572E+03 -0.11171024900E+02  0.34381524249E+03  0.46999998093E+01 0. -1.
       -5    1    3    3    0  502 -0.24061756309E+02  0.34275803572E+03 -0.21453133162E+04  0.21726604322E+04  0.46999998093E+01 0.  1.
</event>
<event>
 5   0  0.1081574E-03  0.1302721E+04  0.7818609E-02  0.9027410E-01
        2   -1    0    0  501    0  0.00000000000E+00  0.00000000000E+00  0.43602206362E+03  0.43602206362E+03  0.25500000920E-02 0. -1.
       -2   -1    0    0    0  501  0.00000000000E+00  0.00000000000E+00 -0.97304821138E+03  0.97304821138E+03  0.25500000920E-02 0.  1.
    10030    2    1    2    0    0  0.00000000000E+00  0.00000000000E+00 -0.53702614776E+03  0.14090702750E+04  0.13027209818E+04 0.  0.
        5    1    3    3  502    0  0.98512083443E+02  0.56380728633E+03 -0.60480475599E+03  0.83270292996E+03  0.46999998093E+01 0.  1.
       -5    1    3    3    0  502 -0.98512083443E+02 -0.56380728633E+03  0.67778608230E+02  0.57636734504E+03  0.46999998093E+01 0. -1.
</event>
<event>
 5   0  0.5563545E-04  0.1302329E+04  0.7818609E-02  0.9027720E-01
        1   -1    0    0  501    0  0.00000000000E+00  0.00000000000E+00  0.85630004566E+03  0.85630004567E+03  0.50400001928E-02 0.  1.
       -1   -1    0    0    0  501  0.00000000000E+00  0.00000000000E+00 -0.49517149720E+03  0.49517149722E+03  0.50400001928E-02 0. -1.
    10030    2    1    2    0    0  0.00000000000E+00  0.00000000000E+00  0.36112854846E+03  0.13514715429E+04  0.13023292605E+04 0.  0.
        2    1    3    3  502    0 -0.15910035992E+03  0.35694173280E+03 -0.35994984431E+03  0.53130425894E+03  0.25500000920E-02 0. -1.
       -2    1    3    3    0  502  0.15910035992E+03 -0.35694173280E+03  0.72107839277E+03  0.82016728395E+03  0.25500000920E-02 0.  1.
</event>
<event>
 5   0  0.5766027E-04  0.1296972E+04  0.7818609E-02  0.9031970E-01
       -1   -1    0    0    0  501  0.00000000000E+00  0.00000000000E+00  0.22230752474E+03  0.22230752480E+03  0.50400001928E-02 0.  1.
        1   -1    0    0  501    0  0.00000000000E+00  0.00000000000E+00 -0.18916777313E+04  0.18916777313E+04  0.50400001928E-02 0. -1.
    10030    2    1    2    0    0  0.00000000000E+00  0.00000000000E+00 -0.16693702065E+04  0.21139852561E+04  0.12969721572E+04 0.  0.
        3    1    3    3  502    0 -0.62364561772E+03  0.55382111202E+02 -0.55935978207E+03  0.83957394596E+03  0.10100000352E+00 0.  1.
       -3    1    3    3    0  502  0.62364561772E+03 -0.55382111202E+02 -0.11100104245E+04  0.12744113101E+04  0.10100000352E+00 0. -1.
</event>
<event>
 5   0  0.5766027E-04  0.1303347E+04  0.7818609E-02  0.9026916E-01
        1   -1    0    0  501    0  0.00000000000E+00  0.00000000000E+00  0.40096076048E+03  0.40096076052E+03  0.50400001928E-02 0.  1.
       -1   -1    0    0    0  501  0.00000000000E+00  0.00000000000E+00 -0.10591511713E+04  0.10591511713E+04  0.50400001928E-02 0. -1.
    10030    2    1    2    0    0  0.00000000000E+00  0.00000000000E+00 -0.65819041085E+03  0.14601119319E+04  0.13033465528E+04 0.  0.
        3    1    3    3  502    0 -0.62904989821E+03 -0.14128241525E+03 -0.43545421063E+03  0.77800056237E+03  0.10100000352E+00 0.  1.
       -3    1    3    3    0  502  0.62904989821E+03  0.14128241525E+03 -0.22273620022E+03  0.68211136949E+03  0.10100000352E+00 0. -1.
</event>
<event>
 5   0  0.1031295E-03  0.1314677E+04  0.7818609E-02  0.9018006E-01
       -2   -1    0    0    0  501  0.00000000000E+00  0.00000000000E+00  0.67452656922E+03  0.67452656922E+03  0.25500000920E-02 0.  1.
        2   -1    0    0  501    0  0.00000000000E+00  0.00000000000E+00 -0.64058880676E+03  0.64058880676E+03  0.25500000920E-02 0. -1.
    10030    2    1    2    0    0  0.00000000000E+00  0.00000000000E+00  0.33937762457E+02  0.13151153760E+04  0.13146774055E+04 0.  0.
        2    1    3    3  502    0  0.45698076824E+03 -0.12689919758E+02 -0.45552491354E+03  0.64536455083E+03  0.25500000920E-02 0. -1.
       -2    1    3    3    0  502 -0.45698076824E+03  0.12689919758E+02  0.48946267599E+03  0.66975082516E+03  0.25500000920E-02 0.  1.
</event>
<event>
 5   0  0.1046253E-03  0.1306268E+04  0.7818609E-02  0.9024610E-01
       -2   -1    0    0    0  501  0.00000000000E+00  0.00000000000E+00  0.32901913180E+03  0.32901913180E+03  0.25500000920E-02 0. -1.
        2   -1    0    0  501    0  0.00000000000E+00  0.00000000000E+00 -0.12965316804E+04  0.12965316804E+04  0.25500000920E-02 0.  1.
    10030    2    1    2    0    0  0.00000000000E+00  0.00000000000E+00 -0.96751254863E+03  0.16255508122E+04  0.13062675497E+04 0.  0.
        3    1    3    3  502    0 -0.46179471095E+03  0.45637628120E+03 -0.57218968180E+03  0.86541013818E+03  0.10100000352E+00 0. -1.
       -3    1    3    3    0  502  0.46179471095E+03 -0.45637628120E+03 -0.39532286684E+03  0.76014067406E+03  0.10100000352E+00 0.  1.
</event>
<event>
 5   0  0.5710383E-04  0.1294986E+04  0.7818609E-02  0.9033550E-01
       -1   -1    0    0    0  501  0.00000000000E+00  0.00000000000E+00  0.63150027699E+03  0.63150027701E+03  0.50400001928E-02 0.  1.
        1   -1    0    0  501    0  0.00000000000E+00  0.00000000000E+00 -0.66389120205E+03  0.66389120207E+03  0.50400001928E-02 0. -1.
    10030    2    1    2    0    0  0.00000000000E+00  0.00000000000E+00 -0.32390925060E+02  0.12953914791E+04  0.12949864525E+04 0.  0.
        1    1    3    3  502    0 -0.51018754814E+03  0.18241114925E+03  0.33843243644E+03  0.63882836170E+03  0.50400001928E-02 0.  1.
       -1    1    3    3    0  502  0.51018754814E+03 -0.18241114925E+03 -0.37082336150E+03  0.65656311738E+03  0.50400001928E-02 0. -1.
</event>
<event>
 5   0  0.1101619E-03  0.1308975E+04  0.7818609E-02  0.9022478E-01
       -2   -1    0    0    0  501  0.00000000000E+00  0.00000000000E+00  0.30567543454E+03  0.30567543455E+03  0.25500000920E-02 0.  1.
        2   -1    0    0  501    0  0.00000000000E+00  0.00000000000E+00 -0.14013349803E+04  0.14013349803E+04  0.25500000920E-02 0. -1.
    10030    2    1    2    0    0  0.00000000000E+00  0.00000000000E+00 -0.10956595458E+04  0.17070104149E+04  0.13089746813E+04 0.  0.
        1    1    3    3  502    0 -0.44007955481E+03  0.25079460924E+03 -0.10883332161E+04  0.12004320639E+04  0.50400001928E-02 0. -1.
       -1    1    3    3    0  502  0.44007955481E+03 -0.25079460924E+03 -0.73263296548E+01  0.50657835101E+03  0.50400001928E-02 0.  1.
</event>
<event>
 5   0  0.1101619E-03  0.1256053E+04  0.7818609E-02  0.9065160E-01
       -2   -1    0    0    0  501  0.00000000000E+00  0.00000000000E+00  0.28936709899E+03  0.28936709900E+03  0.25500000920E-02 0. -1.
        2   -1    0    0  501    0  0.00000000000E+00  0.00000000000E+00 -0.13630342327E+04  0.13630342327E+04  0.25500000920E-02 0.  1.
    10030    2    1    2    0    0  0.00000000000E+00  0.00000000000E+00 -0.10736671337E+04  0.16524013317E+04  0.12560529634E+04 0.  0.
        1    1    3    3  502    0 -0.12610933746E+03 -0.52565849653E+03 -0.95739197594E+03  0.10994634217E+04  0.50400001928E-02 0.  1.
       -1    1    3    3    0  502  0.12610933746E+03  0.52565849653E+03 -0.11627515773E+03  0.55293790999E+03  0.50400001928E-02 0. -1.
</event>
<event>
 5   0  0.1081574E-03  0.1306271E+04  0.7818609E-02  0.9024607E-01
        2   -1    0    0  501    0  0.00000000000E+00  0.00000000000E+00  0.65822310018E+03  0.65822310018E+03  0.25500000920E-02 0. -1.
       -2   -1    0    0    0  501  0.00000000000E+00  0.00000000000E+00 -0.64808714513E+03  0.64808714513E+03  0.25500000920E-02 0.  1.
    10030    2    1    2    0    0  0.00000000000E+00  0.00000000000E+00  0.10135955052E+02  0.13063102453E+04  0.13062709211E+04 0.  0.
        5    1    3    3  502    0 -0.35592154562E+03  0.34607260313E+03 -0.41934725702E+03  0.64986198938E+03  0.46999998093E+01 0.  1.
       -5    1    3    3    0  502  0.35592154562E+03 -0.34607260313E+03  0.42948321207E+03  0.65644825593E+03  0.46999998093E+01 0. -1.
</event>
<event>
 5   0  0.1046253E-03  0.1310021E+04  0.7818609E-02  0.9021656E-01
       -2   -1    0    0    0  501  0.00000000000E+00  0.00000000000E+00  0.13377812324E+04  0.13377812324E+04  0.25500000920E-02 0.  1.
        2   -1    0    0  501    0  0.00000000000E+00  0.00000000000E+00 -0.32070900161E+03  0.32070900162E+03  0.25500000920E-02 0. -1.
    10030    2    1    2    0    0  0.00000000000E+00  0.00000000000E+00  0.10170722308E+04  0.16584902340E+04  0.13100205852E+04 0.  0.
        3    1    3    3  502    0 -0.49705465868E+03 -0.68427370334E+02 -0.24529156653E+02  0.50234184422E+03  0.10100000352E+00 0. -1.
       -3    1    3    3    0  502  0.49705465868E+03  0.68427370334E+02  0.10416013874E+04  0.11561483898E+04  0.10100000352E+00 0.  1.
</event>
<event>
 5   0  0.5710383E-04  0.1288756E+04  0.7818609E-02  0.9038530E-01
       -1   -1    0    0    0  501  0.00000000000E+00  0.00000000000E+00  0.68326122905E+03  0.68326122907E+03  0.50400001928E-02 0. -1.
        1   -1    0    0  501    0  0.00000000000E+00  0.00000000000E+00 -0.60770709812E+03  0.60770709815E+03  0.50400001928E-02 0.  1.
    10030    2    1    2    0    0  0.00000000000E+00  0.00000000000E+00  0.75554130929E+02  0.12909683272E+04  0.12887555219E+04 0.  0.
        1    1    3    3  502    0 -0.37537907319E+03 -0.27859661230E+03 -0.40648999328E+03  0.61948336187E+03  0.50400001928E-02 0.  1.
       -1    1    3    3    0  502  0.37537907319E+03  0.27859661230E+03  0.48204412421E+03  0.67148496535E+03  0.50400001928E-02 0. -1.
</event>
<event>
 5   0  0.5710383E-04  0.1298343E+04  0.7818609E-02  0.9030881E-01
       -1   -1    0    0    0  501  0.00000000000E+00  0.00000000000E+00  0.34143962423E+03  0.34143962426E+03  0.50400001928E-02 0. -1.
        1   -1    0    0  501    0  0.00000000000E+00  0.00000000000E+00 -0.12342543841E+04  0.12342543841E+04  0.50400001928E-02 0.  1.
    10030    2    1    2    0    0  0.00000000000E+00  0.00000000000E+00 -0.89281475988E+03  0.15756940084E+04  0.12983425637E+04 0.  0.
        1    1    3    3  502    0 -0.10387294689E+03  0.64080242237E+03 -0.44342980021E+03  0.78615985737E+03  0.50400001928E-02 0. -1.
       -1    1    3    3    0  502  0.10387294689E+03 -0.64080242237E+03 -0.44938495967E+03  0.78953415101E+03  0.50400001928E-02 0.  1.
</event>
<event>
 5   0  0.5710383E-04  0.1438776E+04  0.7818609E-02  0.8926219E-01
       -1   -1    0    0    0  501  0.00000000000E+00  0.00000000000E+00  0.25717330200E+03  0.25717330205E+03  0.50400001928E-02 0.  1.
        1   -1    0    0  501    0  0.00000000000E+00  0.00000000000E+00 -0.20123351806E+04  0.20123351806E+04  0.50400001928E-02 0. -1.
    10030    2    1    2    0    0  0.00000000000E+00  0.00000000000E+00 -0.17551618786E+04  0.22695084827E+04  0.14387757062E+04 0.  0.
        1    1    3    3  502    0  0.96860643936E+02 -0.61298280500E+03 -0.30364339975E+03  0.69089016335E+03  0.50400001928E-02 0.  1.
       -1    1    3    3    0  502 -0.96860643936E+02  0.61298280500E+03 -0.14515184789E+04  0.15786183193E+04  0.50400001928E-02 0. -1.
</event>
<event>
 5   0  0.1081574E-03  0.1298578E+04  0.7818609E-02  0.9030693E-01
        2   -1    0    0  501    0  0.00000000000E+00  0.00000000000E+00  0.68958803021E+03  0.68958803022E+03  0.25500000920E-02 0. -1.
       -2   -1    0    0    0  501  0.00000000000E+00  0.00000000000E+00 -0.61134528936E+03  0.61134528936E+03  0.25500000920E-02 0.  1.
    10030    2    1    2    0    0  0.00000000000E+00  0.00000000000E+00  0.78242740853E+02  0.13009333196E+04  0.12985782901E+04 0.  0.
        5    1    3    3  502    0 -0.92952042332E+02  0.55539437156E+03 -0.28465403242E+03  0.63099365948E+03  0.46999998093E+01 0.  1.
       -5    1    3    3    0  502  0.92952042332E+02 -0.55539437156E+03  0.36289677327E+03  0.66993966010E+03  0.46999998093E+01 0. -1.
</event>
<event>
 5   0  0.1101619E-03  0.1308590E+04  0.7818609E-02  0.9022781E-01
       -2   -1    0    0    0  501  0.00000000000E+00  0.00000000000E+00  0.10622551220E+04  0.10622551220E+04  0.25500000920E-02 0.  1.
        2   -1    0    0  501    0  0.00000000000E+00  0.00000000000E+00 -0.40301205916E+03  0.40301205917E+03  0.25500000920E-02 0. -1.
    10030    2    1    2    0    0  0.00000000000E+00  0.00000000000E+00  0.65924306280E+03  0.14652671811E+04  0.13085895064E+04 0.  0.
        1    1    3    3  502    0 -0.64639726279E+03 -0.40223728029E+02  0.22545499641E+03  0.68576769031E+03  0.50400001928E-02 0.  1.
       -1    1    3    3    0  502  0.64639726279E+03  0.40223728029E+02  0.43378806639E+03  0.77949949083E+03  0.50400001928E-02 0. -1.
</event>
<event>
 5   0  0.5812938E-04  0.1302243E+04  0.7818609E-02  0.9027789E-01
        1   -1    0    0  501    0  0.00000000000E+00  0.00000000000E+00  0.10608559028E+04  0.10608559028E+04  0.50400001928E-02 0.  1.
       -1   -1    0    0    0  501  0.00000000000E+00  0.00000000000E+00 -0.39963853314E+03  0.39963853317E+03  0.50400001928E-02 0. -1.
    10030    2    1    2    0    0  0.00000000000E+00  0.00000000000E+00  0.66121736963E+03  0.14604944360E+04  0.13022425226E+04 0.  0.
        5    1    3    3  502    0  0.13757433533E+03 -0.58226206657E+03  0.42525795219E+02  0.59982192788E+03  0.46999998093E+01 0. -1.
       -5    1    3    3    0  502 -0.13757433533E+03  0.58226206657E+03  0.61869157441E+03  0.86067250807E+03  0.46999998093E+01 0.  1.
</event>
<event>
 5   0  0.5766027E-04  0.1328251E+04  0.7818609E-02  0.9007457E-01
       -1   -1    0    0    0  501  0.00000000000E+00  0.00000000000E+00  0.32664966127E+03  0.32664966131E+03  0.50400001928E-02 0.  1.
        1   -1    0    0  501    0  0.00000000000E+00  0.00000000000E+00 -0.13502619139E+04  0.13502619139E+04  0.50400001928E-02 0. -1.
    10030    2    1    2    0    0  0.00000000000E+00  0.00000000000E+00 -0.10236122526E+04  0.16769115752E+04  0.13282508752E+04 0.  0.
        3    1    3    3  502    0 -0.67581889687E+02 -0.31936515066E+02  0.32132206856E+03  0.32990170468E+03  0.10100000352E+00 0.  1.
       -3    1    3    3    0  502  0.67581889687E+02  0.31936515066E+02 -0.13449343212E+04  0.13470098705E+04  0.10100000352E+00 0. -1.
</event>
<event>
 5   0  0.1101619E-03  0.1232054E+04  0.7818609E-02  0.9085254E-01
       -2   -1    0    0    0  501  0.00000000000E+00  0.00000000000E+00  0.29937810781E+03  0.29937810782E+03  0.25500000920E-02 0.  1.
        2   -1    0    0  501    0  0.00000000000E+00  0.00000000000E+00 -0.12675910899E+04  0.12675910899E+04  0.25500000920E-02 0. -1.
    10030    2    1    2    0    0  0.00000000000E+00  0.00000000000E+00 -0.96821298208E+03  0.15669691977E+04  0.12320536060E+04 0.  0.
        1    1    3    3  502    0 -0.34646638376E+03 -0.50923686938E+03 -0.49848879088E+03  0.79237126328E+03  0.50400001928E-02 0.  1.
       -1    1    3    3    0  502  0.34646638376E+03  0.50923686938E+03 -0.46972419120E+03  0.77459793444E+03  0.50400001928E-02 0. -1.
</event>
<event>
 5   0  0.5710383E-04  0.1287697E+04  0.7818609E-02  0.9039379E-01
        1   -1    0    0  501    0  0.00000000000E+00  0.00000000000E+00  0.77277540530E+03  0.77277540532E+03  0.50400001928E-02 0. -1.
       -1   -1    0    0    0  501  0.00000000000E+00  0.00000000000E+00 -0.53643141423E+03  0.53643141425E+03  0.50400001928E-02 0.  1.
    10030    2    1    2    0    0  0.00000000000E+00  0.00000000000E+00  0.23634399107E+03  0.13092068196E+04  0.12876971749E+04 0.  0.
        1    1    3    3  502    0 -0.62867794734E+02  0.16044732939E+03  0.74889345650E+03  0.76846412691E+03  0.50400001928E-02 0. -1.
       -1    1    3    3    0  502  0.62867794734E+02 -0.16044732939E+03 -0.51254946544E+03  0.54074269266E+03  0.50400001928E-02 0.  1.
</event>
<event>
 5   0  0.5563545E-04  0.1306628E+04  0.7818609E-02  0.9024325E-01
       -1   -1    0    0    0  501  0.00000000000E+00  0.00000000000E+00  0.60077397655E+03  0.60077397657E+03  0.50400001928E-02 0.  1.
        1   -1    0    0  501    0  0.00000000000E+00  0.00000000000E+00 -0.71044906828E+03  0.71044906830E+03  0.50400001928E-02 0. -1.
    10030    2    1    2    0    0  0.00000000000E+00  0.00000000000E+00 -0.10967509173E+03  0.13112230449E+04  0.13066281979E+04 0.  0.
        2    1    3    3  502    0  0.18921327599E+03  0.32392756293E+03 -0.59159095278E+03  0.70050737701E+03  0.25500000920E-02 0. -1.
       -2    1    3    3    0  502 -0.18921327599E+03 -0.32392756293E+03  0.48191586104E+03  0.61071566786E+03  0.25500000920E-02 0.  1.
</event>
<event>
 5   0  0.6006119E-04  0.1302857E+04  0.7818609E-02  0.9027303E-01
       -1   -1    0    0    0  501  0.00000000000E+00  0.00000000000E+00  0.73915805259E+03  0.73915805261E+03  0.50400001928E-02 0. -1.
        1   -1    0    0  501    0  0.00000000000E+00  0.00000000000E+00 -0.57411136005E+03  0.57411136007E+03  0.50400001928E-02 0.  1.
    10030    2    1    2    0    0  0.00000000000E+00  0.00000000000E+00  0.16504669255E+03  0.13132694127E+04  0.13028569145E+04 0.  0.
        4    1    3    3  502    0  0.21561157160E+03  0.49591226374E+03  0.44866194040E+03  0.70264960884E+03  0.12699999809E+01 0. -1.
       -4    1    3    3    0  502 -0.21561157160E+03 -0.49591226374E+03 -0.28361524785E+03  0.61061980384E+03  0.12699999809E+01 0.  1.
</event>
<event>
 5   0  0.6006119E-04  0.1315690E+04  0.7818609E-02  0.9017215E-01
       -1   -1    0    0    0  501  0.00000000000E+00  0.00000000000E+00  0.49158105351E+03  0.49158105353E+03  0.50400001928E-02 0. -1.
        1   -1    0    0  501    0  0.00000000000E+00  0.00000000000E+00 -0.88034286530E+03  0.88034286532E+03  0.50400001928E-02 0.  1.
    10030    2    1    2    0    0  0.00000000000E+00  0.00000000000E+00 -0.38876181180E+03  0.13719239189E+04  0.13156897403E+04 0.  0.
        4    1    3    3  502    0 -0.25397861757E+03 -0.58161903379E+03 -0.37490594868E+03  0.73711730539E+03  0.12699999809E+01 0. -1.
       -4    1    3    3    0  502  0.25397861757E+03  0.58161903379E+03 -0.13855863116E+02  0.63480661346E+03  0.12699999809E+01 0.  1.
</event>
<event>
 5   0  0.5710383E-04  0.1310493E+04  0.7818609E-02  0.9021285E-01
       -1   -1    0    0    0  501  0.00000000000E+00  0.00000000000E+00  0.26561636014E+03  0.26561636019E+03  0.50400001928E-02 0. -1.
        1   -1    0    0  501    0  0.00000000000E+00  0.00000000000E+00 -0.16164222892E+04  0.16164222892E+04  0.50400001928E-02 0.  1.
    10030    2    1    2    0    0  0.00000000000E+00  0.00000000000E+00 -0.13508059290E+04  0.18820386494E+04  0.13104933498E+04 0.  0.
        1    1    3    3  502    0  0.43415689468E+03  0.20407180452E+03 -0.13163911739E+04  0.14010793101E+04  0.50400001928E-02 0.  1.
       -1    1    3    3    0  502 -0.43415689468E+03 -0.20407180452E+03 -0.34414755142E+02  0.48095933923E+03  0.50400001928E-02 0. -1.
</event>
<event>
 5   0  0.5766027E-04  0.1294661E+04  0.7818609E-02  0.9033809E-01
       -1   -1    0    0    0  501  0.00000000000E+00  0.00000000000E+00  0.38453920095E+03  0.38453920098E+03  0.50400001928E-02 0. -1.
        1   -1    0    0  501    0  0.00000000000E+00  0.00000000000E+00 -0.10897122678E+04  0.10897122678E+04  0.50400001928E-02 0.  1.
    10030    2    1    2    0    0  0.00000000000E+00  0.00000000000E+00 -0.70517306685E+03  0.14742514688E+04  0.12946614766E+04 0.  0.
        3    1    3    3  502    0 -0.40505006655E+03  0.11824798637E+03  0.20641614913E+03  0.46974011913E+03  0.10100000352E+00 0. -1.
       -3    1    3    3    0  502  0.40505006655E+03 -0.11824798637E+03 -0.91158921598E+03  0.10045113497E+04  0.10100000352E+00 0.  1.
</event>
<event>
 5   0  0.6006119E-04  0.1283966E+04  0.7818609E-02  0.9042378E-01
       -1   -1    0    0    0  501  0.00000000000E+00  0.00000000000E+00  0.40617368217E+03  0.40617368220E+03  0.50400001928E-02 0.  1.
        1   -1    0    0  501    0  0.00000000000E+00  0.00000000000E+00 -0.10146943388E+04  0.10146943388E+04  0.50400001928E-02 0. -1.
    10030    2    1    2    0    0  0.00000000000E+00  0.00000000000E+00 -0.60852065658E+03  0.14208680210E+04  0.12839659433E+04 0.  0.
        4    1    3    3  502    0  0.41253864652E+02  0.36814169183E+03 -0.88448443697E+03  0.95892883925E+03  0.12699999809E+01 0. -1.
       -4    1    3    3    0  502 -0.41253864652E+02 -0.36814169183E+03  0.27596378039E+03  0.46193918171E+03  0.12699999809E+01 0.  1.
</event>
<event>
 5   0  0.1081574E-03  0.1304595E+04  0.7818609E-02  0.9025929E-01
        2   -1    0    0  501    0  0.00000000000E+00  0.00000000000E+00  0.66219696186E+03  0.66219696187E+03  0.25500000920E-02 0.  1.
       -2   -1    0    0    0  501  0.00000000000E+00  0.00000000000E+00 -0.64254569603E+03  0.64254569604E+03  0.25500000920E-02 0. -1.
    10030    2    1    2    0    0  0.00000000000E+00  0.00000000000E+00  0.19651265829E+02  0.13047426579E+04  0.13045946616E+04 0.  0.
        5    1    3    3  502    0 -0.13184611083E+03 -0.37262534035E+03  0.52876470999E+03  0.66018728384E+03  0.46999998093E+01 0.  1.
       -5    1    3    3    0  502  0.13184611083E+03  0.37262534035E+03 -0.50911344416E+03  0.64455537407E+03  0.46999998093E+01 0. -1.
</event>
<event>
 5   0  0.5563545E-04  0.1330059E+04  0.7818609E-02  0.9006062E-01
        1   -1    0    0  501    0  0.00000000000E+00  0.00000000000E+00  0.14668240272E+04  0.14668240272E+04  0.50400001928E-02 0.  1.
       -1   -1    0    0    0  501  0.00000000000E+00  0.00000000000E+00 -0.30151153763E+03  0.30151153767E+03  0.50400001928E-02 0. -1.
    10030    2    1    2    0    0  0.00000000000E+00  0.00000000000E+00  0.11653124896E+04  0.17683355649E+04  0.13300591986E+04 0.  0.
        2    1    3    3  502    0 -0.39470977479E+02 -0.23484852354E+03  0.14081912964E+04  0.14281857422E+04  0.25500000920E-02 0.  1.
       -2    1    3    3    0  502  0.39470977479E+02  0.23484852354E+03 -0.24287880679E+03  0.34014982268E+03  0.25500000920E-02 0. -1.
</event>
<event>
 5   0  0.5766027E-04  0.1305662E+04  0.7818609E-02  0.9025087E-01
        1   -1    0    0  501    0  0.00000000000E+00  0.00000000000E+00  0.60294432159E+03  0.60294432161E+03  0.50400001928E-02 0. -1.
       -1   -1    0    0    0  501  0.00000000000E+00  0.00000000000E+00 -0.70684481941E+03  0.70684481943E+03  0.50400001928E-02 0.  1.
    10030    2    1    2    0    0  0.00000000000E+00  0.00000000000E+00 -0.10390049782E+03  0.13097891410E+04  0.13056616256E+04 0.  0.
        3    1    3    3  502    0 -0.13357591387E+03  0.63820034663E+03 -0.19508368944E+02  0.65232108188E+03  0.10100000352E+00 0.  1.
       -3    1    3    3    0  502  0.13357591387E+03 -0.63820034663E+03 -0.84392128876E+02  0.65746805916E+03  0.10100000352E+00 0. -1.
</event>
<event>
 5   0  0.5563545E-04  0.1292275E+04  0.7818609E-02  0.9035714E-01
       -1   -1    0    0    0  501  0.00000000000E+00  0.00000000000E+00  0.16784808323E+03  0.16784808331E+03  0.50400001928E-02 0. -1.
        1   -1    0    0  501    0  0.00000000000E+00  0.00000000000E+00 -0.24873305128E+04  0.24873305128E+04  0.50400001928E-02 0.  1.
    10030    2    1    2    0    0  0.00000000000E+00  0.00000000000E+00 -0.23194824296E+04  0.26551785961E+04  0.12922749847E+04 0.  0.
        2    1    3    3  502    0 -0.21665766430E+03  0.45342602492E+03 -0.32524295848E+03  0.59859726497E+03  0.25500000920E-02 0. -1.
       -2    1    3    3    0  502  0.21665766430E+03 -0.45342602492E+03 -0.19942394711E+04  0.20565813311E+04  0.25500000920E-02 0.  1.
</event>
<event>
 5   0  0.1101619E-03  0.1230237E+04  0.7818609E-02  0.9086795E-01
        2   -1    0    0  501    0  0.00000000000E+00  0.00000000000E+00  0.15735943760E+04  0.15735943760E+04  0.25500000920E-02 0. -1.
       -2   -1    0    0    0  501  0.00000000000E+00  0.00000000000E+00 -0.24044980739E+03  0.24044980741E+03  0.25500000920E-02 0.  1.
    10030    2    1    2    0    0  0.00000000000E+00  0.00000000000E+00  0.13331445686E+04  0.18140441835E+04  0.12302365051E+04 0.  0.
        1    1    3    3  502    0 -0.90004621898E+02 -0.60847177793E+03  0.67487808433E+03  0.91312604017E+03  0.50400001928E-02 0. -1.
       -1    1    3    3    0  502  0.90004621898E+02  0.60847177793E+03  0.65826648432E+03  0.90091814329E+03  0.50400001928E-02 0.  1.
</event>
<event>
 5   0  0.5710383E-04  0.1299366E+04  0.7818609E-02  0.9030068E-01
        1   -1    0    0  501    0  0.00000000000E+00  0.00000000000E+00  0.15289495757E+04  0.15289495757E+04  0.50400001928E-02 0. -1.
       -1   -1    0    0    0  501  0.00000000000E+00  0.00000000000E+00 -0.27606417857E+03  0.27606417862E+03  0.50400001928E-02 0.  1.
    10030    2    1    2    0    0  0.00000000000E+00  0.00000000000E+00  0.12528853971E+04  0.18050137543E+04  0.12993663206E+04 0.  0.
        1    1    3    3  502    0  0.32178455714E+03 -0.51345924936E+02 -0.15433642607E+03  0.36055712121E+03  0.50400001928E-02 0.  1.
       -1    1    3    3    0  502 -0.32178455714E+03  0.51345924936E+02  0.14072218232E+04  0.14444566331E+04  0.50400001928E-02 0. -1.
</event>
<event>
 5   0  0.1031295E-03  0.1296765E+04  0.7818609E-02  0.9032135E-01
        2   -1    0    0  501    0  0.00000000000E+00  0.00000000000E+00  0.87552992429E+03  0.87552992430E+03  0.25500000920E-02 0. -1.
       -2   -1    0    0    0  501  0.00000000000E+00  0.00000000000E+00 -0.48016597096E+03  0.48016597097E+03  0.25500000920E-02 0.  1.
    10030    2    1    2    0    0  0.00000000000E+00  0.00000000000E+00  0.39536395333E+03  0.13556958953E+04  0.12967647068E+04 0.  0.
        2    1    3    3  502    0  0.26670108867E+03 -0.14014015904E+02 -0.41999261086E+03  0.49771443270E+03  0.25500000920E-02 0.  1.
       -2    1    3    3    0  502 -0.26670108867E+03  0.14014015904E+02  0.81535656419E+03  0.85798146257E+03  0.25500000920E-02 0. -1.
</event>
<event>
 5   0  0.5812938E-04  0.1304614E+04  0.7818609E-02  0.9025914E-01
        1   -1    0    0  501    0  0.00000000000E+00  0.00000000000E+00  0.51845406950E+03  0.51845406953E+03  0.50400001928E-02 0. -1.
       -1   -1    0    0    0  501  0.00000000000E+00  0.00000000000E+00 -0.82071780497E+03  0.82071780498E+03  0.50400001928E-02 0.  1.
    10030    2    1    2    0    0  0.00000000000E+00  0.00000000000E+00 -0.30226373546E+03  0.13391718745E+04  0.13046140976E+04 0.  0.
        5    1    3    3  502    0  0.19973594654E+03 -0.17409811327E+03 -0.76297245702E+03  0.80768413476E+03  0.46999998093E+01 0.  1.
       -5    1    3    3    0  502 -0.19973594654E+03  0.17409811327E+03  0.46070872155E+03  0.53148773974E+03  0.46999998093E+01 0. -1.
</event>
<event>
 5   0  0.6006119E-04  0.1261259E+04  0.7818609E-02  0.9060864E-01
        1   -1    0    0  501    0  0.00000000000E+00  0.00000000000E+00  0.41373689708E+03  0.41373689711E+03  0.50400001928E-02 0. -1.
       -1   -1    0    0    0  501  0.00000000000E+00  0.00000000000E+00 -0.96122353079E+03  0.96122353080E+03  0.50400001928E-02 0.  1.
    10030    2    1    2    0    0  0.00000000000E+00  0.00000000000E+00 -0.54748663371E+03  0.13749604279E+04  0.12612591186E+04 0.  0.
        4    1    3    3  502    0 -0.33014798004E+03  0.17953061868E+03 -0.82581862142E+03  0.90730752238E+03  0.12699999809E+01 0.  1.
       -4    1    3    3    0  502  0.33014798004E+03 -0.17953061868E+03  0.27833198771E+03  0.46765290553E+03  0.12699999809E+01 0. -1.
</event>
<event>
 5   0  0.5766027E-04  0.1254158E+04  0.7818609E-02  0.9066730E-01
        1   -1    0    0  501    0  0.00000000000E+00  0.00000000000E+00  0.10771799819E+04  0.10771799819E+04  0.50400001928E-02 0. -1.
       -1   -1    0    0    0  501  0.00000000000E+00  0.00000000000E+00 -0.36505326442E+03  0.36505326446E+03  0.50400001928E-02 0.  1.
    10030    2    1    2    0    0  0.00000000000E+00  0.00000000000E+00  0.71212671748E+03  0.14422332464E+04  0.12541579945E+04 0.  0.
        3    1    3    3  502    0  0.33507219743E+03  0.16047601816E+03  0.93699549033E+03  0.10079615514E+04  0.10100000352E+00 0. -1.
       -3    1    3    3    0  502 -0.33507219743E+03 -0.16047601816E+03 -0.22486877285E+03  0.43427169503E+03  0.10100000352E+00 0.  1.
</event>
<event>
 5   0  0.4012375E-04  0.1287289E+04  0.7818609E-02  0.9039706E-01
       -3   -1    0    0    0  501  0.00000000000E+00  0.00000000000E+00  0.51780162810E+03  0.51780163795E+03  0.10100000352E+00 0.  1.
        3   -1    0    0  501    0  0.00000000000E+00  0.00000000000E+00 -0.80007188702E+03  0.80007189339E+03  0.10100000352E+00 0. -1.
    10030    2    1    2    0    0  0.00000000000E+00  0.00000000000E+00 -0.28227025892E+03  0.13178735313E+04  0.12872894568E+04 0.  0.
        1    1    3    3  502    0  0.50307223343E+03  0.27331011971E+03 -0.44222882889E+03  0.72342686618E+03  0.50400001928E-02 0. -1.
       -1    1    3    3    0  502 -0.50307223343E+03 -0.27331011971E+03  0.15995856997E+03  0.59444666516E+03  0.50400001928E-02 0.  1.
</event>
<event>
 5   0  0.1046253E-03  0.1299918E+04  0.7818609E-02  0.9029630E-01
       -2   -1    0    0    0  501  0.00000000000E+00  0.00000000000E+00  0.42918213473E+03  0.42918213474E+03  0.25500000920E-02 0.  1.
        2   -1    0    0  501    0  0.00000000000E+00  0.00000000000E+00 -0.98430702865E+03  0.98430702866E+03  0.25500000920E-02 0. -1.
    10030    2    1    2    0    0  0.00000000000E+00  0.00000000000E+00 -0.55512489392E+03  0.14134891634E+04  0.12999184464E+04 0.  0.
        3    1    3    3  502    0 -0.36218795531E+03 -0.26064046597E+03  0.23630751178E+03  0.50493050790E+03  0.10100000352E+00 0.  1.
       -3    1    3    3    0  502  0.36218795531E+03  0.26064046597E+03 -0.79143240571E+03  0.90855865550E+03  0.10100000352E+00 0. -1.
</event>
<event>
 5   0  0.1103241E-03  0.1297944E+04  0.7818609E-02  0.9031198E-01
       -2   -1    0    0    0  501  0.00000000000E+00  0.00000000000E+00  0.79991514568E+03  0.79991514568E+03  0.25500000920E-02 0.  1.
        2   -1    0    0  501    0  0.00000000000E+00  0.00000000000E+00 -0.52651129415E+03  0.52651129416E+03  0.25500000920E-02 0. -1.
    10030    2    1    2    0    0  0.00000000000E+00  0.00000000000E+00  0.27340385153E+03  0.13264264398E+04  0.12979435405E+04 0.  0.
        4    1    3    3  502    0 -0.35481201111E+03  0.34245129524E+03  0.56785877269E+03  0.75208354022E+03  0.12699999809E+01 0.  1.
       -4    1    3    3    0  502  0.35481201111E+03 -0.34245129524E+03 -0.29445492117E+03  0.57434289962E+03  0.12699999809E+01 0. -1.
</event>
<event>
 5   0  0.5710383E-04  0.1297494E+04  0.7818609E-02  0.9031555E-01
        1   -1    0    0  501    0  0.00000000000E+00  0.00000000000E+00  0.15217705460E+04  0.15217705460E+04  0.50400001928E-02 0.  1.
       -1   -1    0    0    0  501  0.00000000000E+00  0.00000000000E+00 -0.27656788143E+03  0.27656788148E+03  0.50400001928E-02 0. -1.
    10030    2    1    2    0    0  0.00000000000E+00  0.00000000000E+00  0.12452026646E+04  0.17983384275E+04  0.12974942867E+04 0.  0.
        1    1    3    3  502    0 -0.62423807226E+02 -0.30662473075E+03  0.14102609667E+04  0.14445592586E+04  0.50400001928E-02 0.  1.
       -1    1    3    3    0  502  0.62423807226E+02  0.30662473075E+03 -0.16505830217E+03  0.35377916891E+03  0.50400001928E-02 0. -1.
</event>
<event>
 5   0  0.5812938E-04  0.1322931E+04  0.7818609E-02  0.9011576E-01
        1   -1    0    0  501    0  0.00000000000E+00  0.00000000000E+00  0.13781009247E+04  0.13781009247E+04  0.50400001928E-02 0.  1.
       -1   -1    0    0    0  501  0.00000000000E+00  0.00000000000E+00 -0.31749244218E+03  0.31749244222E+03  0.50400001928E-02 0. -1.
    10030    2    1    2    0    0  0.00000000000E+00  0.00000000000E+00  0.10606084825E+04  0.16955933669E+04  0.13229310310E+04 0.  0.
        5    1    3    3  502    0  0.24950706440E+03  0.54121181982E+03  0.16249917896E+03  0.61773139977E+03  0.46999998093E+01 0. -1.
       -5    1    3    3    0  502 -0.24950706440E+03 -0.54121181982E+03  0.89810930358E+03  0.10778619672E+04  0.46999998093E+01 0.  1.
</event>
<event>
 5   0  0.1046253E-03  0.1301147E+04  0.7818609E-02  0.9028656E-01
       -2   -1    0    0    0  501  0.00000000000E+00  0.00000000000E+00  0.38129556069E+03  0.38129556070E+03  0.25500000920E-02 0.  1.
        2   -1    0    0  501    0  0.00000000000E+00  0.00000000000E+00 -0.11100200470E+04  0.11100200470E+04  0.25500000920E-02 0. -1.
    10030    2    1    2    0    0  0.00000000000E+00  0.00000000000E+00 -0.72872448629E+03  0.14913156077E+04  0.13011467499E+04 0.  0.
        3    1    3    3  502    0  0.62041421228E+03 -0.19576913366E+03 -0.36725216860E+03  0.74706995257E+03  0.10100000352E+00 0. -1.
       -3    1    3    3    0  502 -0.62041421228E+03  0.19576913366E+03 -0.36147231769E+03  0.74424565511E+03  0.10100000352E+00 0.  1.
</event>
<event>
 5   0  0.6006119E-04  0.1306092E+04  0.7818609E-02  0.9024748E-01
        1   -1    0    0  501    0  0.00000000000E+00  0.00000000000E+00  0.68370544555E+03  0.68370544557E+03  0.50400001928E-02 0. -1.
       -1   -1    0    0    0  501  0.00000000000E+00  0.00000000000E+00 -0.62376157598E+03  0.62376157600E+03  0.50400001928E-02 0.  1.
    10030    2    1    2    0    0  0.00000000000E+00  0.00000000000E+00  0.59943869574E+02  0.13074670216E+04  0.13060921656E+04 0.  0.
        4    1    3    3  502    0  0.24277943841E+03  0.53668028503E+03 -0.25228229188E+03  0.64079290863E+03  0.12699999809E+01 0.  1.
       -4    1    3    3    0  502 -0.24277943841E+03 -0.53668028503E+03  0.31222616145E+03  0.66667411293E+03  0.12699999809E+01 0. -1.
</event>
<event>
 5   0  0.1046253E-03  0.1297934E+04  0.7818609E-02  0.9031205E-01
        2   -1    0    0  501    0  0.00000000000E+00  0.00000000000E+00  0.14654841255E+04  0.14654841255E+04  0.25500000920E-02 0.  1.
       -2   -1    0    0    0  501  0.00000000000E+00  0.00000000000E+00 -0.28738503684E+03  0.28738503685E+03  0.25500000920E-02 0. -1.
    10030    2    1    2    0    0  0.00000000000E+00  0.00000000000E+00  0.11780990887E+04  0.17528691624E+04  0.12979340652E+04 0.  0.
        3    1    3    3  502    0 -0.53049134032E+03  0.17163746538E+03  0.14057194661E+03  0.57501388161E+03  0.10100000352E+00 0. -1.
       -3    1    3    3    0  502  0.53049134032E+03 -0.17163746538E+03  0.10375271420E+04  0.11778552807E+04  0.10100000352E+00 0.  1.
</event>
<event>
 5   0  0.5812938E-04  0.1302853E+04  0.7818609E-02  0.9027305E-01
       -1   -1    0    0    0  501  0.00000000000E+00  0.00000000000E+00  0.44398431476E+03  0.44398431479E+03  0.50400001928E-02 0. -1.
        1   -1    0    0  501    0  0.00000000000E+00  0.00000000000E+00 -0.95579229839E+03  0.95579229840E+03  0.50400001928E-02 0.  1.
    10030    2    1    2    0    0  0.00000000000E+00  0.00000000000E+00 -0.51180798363E+03  0.13997766132E+04  0.13028534663E+04 0.  0.
        5    1    3    3  502    0 -0.30524477140E+03 -0.48462584684E+03  0.77500969015E+02  0.57798362614E+03  0.46999998093E+01 0. -1.
       -5    1    3    3    0  502  0.30524477140E+03  0.48462584684E+03 -0.58930895264E+03  0.82179298705E+03  0.46999998093E+01 0.  1.
</event>
<event>
 5   0  0.5563545E-04  0.1302350E+04  0.7818609E-02  0.9027704E-01
        1   -1    0    0  501    0  0.00000000000E+00  0.00000000000E+00  0.12897050316E+04  0.12897050316E+04  0.50400001928E-02 0. -1.
       -1   -1    0    0    0  501  0.00000000000E+00  0.00000000000E+00 -0.32877975750E+03  0.32877975754E+03  0.50400001928E-02 0.  1.
    10030    2    1    2    0    0  0.00000000000E+00  0.00000000000E+00  0.96092527406E+03  0.16184847891E+04  0.13023500414E+04 0.  0.
        2    1    3    3  502    0  0.39995972690E+03  0.43405548425E+03  0.13863644242E+03  0.60629366624E+03  0.25500000920E-02 0.  1.
       -2    1    3    3    0  502 -0.39995972690E+03 -0.43405548425E+03  0.82228883164E+03  0.10121911229E+04  0.25500000920E-02 0. -1.
</event>
<event>
 5   0  0.1081574E-03  0.1296947E+04  0.7818609E-02  0.9031990E-01
        2   -1    0    0  501    0  0.00000000000E+00  0.00000000000E+00  0.74136141845E+03  0.74136141846E+03  0.25500000920E-02 0.  1.
       -2   -1    0    0    0  501  0.00000000000E+00  0.00000000000E+00 -0.56722358087E+03  0.56722358087E+03  0.25500000920E-02 0. -1.
    10030    2    1    2    0    0  0.00000000000E+00  0.00000000000E+00  0.17413783759E+03  0.13085849993E+04  0.12969466890E+04 0.  0.
        5    1    3    3  502    0 -0.15030931248E+03  0.59560886199E+03 -0.12252767255E+03  0.62640077143E+03  0.46999998093E+01 0.  1.
       -5    1    3    3    0  502  0.15030931248E+03 -0.59560886199E+03  0.29666551013E+03  0.68218422791E+03  0.46999998093E+01 0. -1.
</event>
<event>
 5   0  0.5710383E-04  0.1304183E+04  0.7818609E-02  0.9026254E-01
       -1   -1    0    0    0  501  0.00000000000E+00  0.00000000000E+00  0.58008219015E+03  0.58008219017E+03  0.50400001928E-02 0. -1.
        1   -1    0    0  501    0  0.00000000000E+00  0.00000000000E+00 -0.73303993686E+03  0.73303993688E+03  0.50400001928E-02 0.  1.
    10030    2    1    2    0    0  0.00000000000E+00  0.00000000000E+00 -0.15295774671E+03  0.13131221270E+04  0.13041831345E+04 0.  0.
        1    1    3    3  502    0 -0.53197959856E+03  0.10432864759E+02 -0.45604053083E+03  0.70077393198E+03  0.50400001928E-02 0.  1.
       -1    1    3    3    0  502  0.53197959856E+03 -0.10432864759E+02  0.30308278412E+03  0.61234819507E+03  0.50400001928E-02 0. -1.
</event>
<event>
 5   0  0.5710383E-04  0.1288946E+04  0.7818609E-02  0.9038377E-01
       -1   -1    0    0    0  501  0.00000000000E+00  0.00000000000E+00  0.88360135616E+03  0.88360135617E+03  0.50400001928E-02 0.  1.
        1   -1    0    0  501    0  0.00000000000E+00  0.00000000000E+00 -0.47005968576E+03  0.47005968579E+03  0.50400001928E-02 0. -1.
    10030    2    1    2    0    0  0.00000000000E+00  0.00000000000E+00  0.41354167040E+03  0.13536610420E+04  0.12889458885E+04 0.  0.
        1    1    3    3  502    0 -0.25756549974E+03  0.57368170576E+03  0.58640560275E+02  0.63157691655E+03  0.50400001928E-02 0. -1.
       -1    1    3    3    0  502  0.25756549974E+03 -0.57368170576E+03  0.35490111012E+03  0.72208412541E+03  0.50400001928E-02 0.  1.
</event>
<event>
 5   0  0.1081574E-03  0.1315455E+04  0.7818609E-02  0.9017398E-01
       -2   -1    0    0    0  501  0.00000000000E+00  0.00000000000E+00  0.61890502772E+03  0.61890502773E+03  0.25500000920E-02 0.  1.
        2   -1    0    0  501    0  0.00000000000E+00  0.00000000000E+00 -0.69898509482E+03  0.69898509482E+03  0.25500000920E-02 0. -1.
    10030    2    1    2    0    0  0.00000000000E+00  0.00000000000E+00 -0.80080067094E+02  0.13178901225E+04  0.13154548863E+04 0.  0.
        5    1    3    3  502    0  0.57492749658E+03 -0.21803812954E+03 -0.27392680994E+03  0.67315692039E+03  0.46999998093E+01 0.  1.
       -5    1    3    3    0  502 -0.57492749658E+03  0.21803812954E+03  0.19384674285E+03  0.64473320216E+03  0.46999998093E+01 0. -1.
</event>
<event>
 5   0  0.6006119E-04  0.1296578E+04  0.7818609E-02  0.9032283E-01
       -1   -1    0    0    0  501  0.00000000000E+00  0.00000000000E+00  0.20866374247E+03  0.20866374253E+03  0.50400001928E-02 0. -1.
        1   -1    0    0  501    0  0.00000000000E+00  0.00000000000E+00 -0.20141433505E+04  0.20141433505E+04  0.50400001928E-02 0.  1.
    10030    2    1    2    0    0  0.00000000000E+00  0.00000000000E+00 -0.18054796080E+04  0.22228070930E+04  0.12965780955E+04 0.  0.
        4    1    3    3  502    0  0.16218733254E+03  0.44106633274E+03 -0.13714068326E+03  0.48954409466E+03  0.12699999809E+01 0. -1.
       -4    1    3    3    0  502 -0.16218733254E+03 -0.44106633274E+03 -0.16683389247E+04  0.17332629983E+04  0.12699999809E+01 0.  1.
</event>
<event>
 5   0  0.5710383E-04  0.1272735E+04  0.7818609E-02  0.9051470E-01
       -1   -1    0    0    0  501  0.00000000000E+00  0.00000000000E+00  0.38109794275E+03  0.38109794278E+03  0.50400001928E-02 0.  1.
        1   -1    0    0  501    0  0.00000000000E+00  0.00000000000E+00 -0.10626233209E+04  0.10626233209E+04  0.50400001928E-02 0. -1.
    10030    2    1    2    0    0  0.00000000000E+00  0.00000000000E+00 -0.68152537817E+03  0.14437212637E+04  0.12727349473E+04 0.  0.
        1    1    3    3  502    0 -0.10097695644E+03  0.62364818636E+03 -0.25414921664E+03  0.68097373696E+03  0.50400001928E-02 0.  1.
       -1    1    3    3    0  502  0.10097695644E+03 -0.62364818636E+03 -0.42737616153E+03  0.76274752674E+03  0.50400001928E-02 0. -1.
</event>
<event>
 5   0  0.1081574E-03  0.1321010E+04  0.7818609E-02  0.9013068E-01
        2   -1    0    0  501    0  0.00000000000E+00  0.00000000000E+00  0.61594417487E+03  0.61594417487E+03  0.25500000920E-02 0. -1.
       -2   -1    0    0    0  501  0.00000000000E+00  0.00000000000E+00 -0.70828990781E+03  0.70828990782E+03  0.25500000920E-02 0.  1.
    10030    2    1    2    0    0  0.00000000000E+00  0.00000000000E+00 -0.92345732948E+02  0.13242340827E+04  0.13210102844E+04 0.  0.
        5    1    3    3  502    0 -0.23404901055E+03  0.45386909530E+03 -0.46608515796E+03  0.69139971035E+03  0.46999998093E+01 0.  1.
       -5    1    3    3    0  502  0.23404901055E+03 -0.45386909530E+03  0.37373942502E+03  0.63283437234E+03  0.46999998093E+01 0. -1.
</event>
<event>
 5   0  0.5812938E-04  0.1295469E+04  0.7818609E-02  0.9033166E-01
       -1   -1    0    0    0  501  0.00000000000E+00  0.00000000000E+00  0.65014943951E+03  0.65014943953E+03  0.50400001928E-02 0.  1.
        1   -1    0    0  501    0  0.00000000000E+00  0.00000000000E+00 -0.64532840555E+03  0.64532840557E+03  0.50400001928E-02 0. -1.
    10030    2    1    2    0    0  0.00000000000E+00  0.00000000000E+00  0.48210339619E+01  0.12954778451E+04  0.12954688745E+04 0.  0.
        5    1    3    3  502    0 -0.18725404516E+03 -0.19862080835E+03  0.58980160184E+03  0.64992485910E+03  0.46999998093E+01 0.  1.
       -5    1    3    3    0  502  0.18725404516E+03  0.19862080835E+03 -0.58498056788E+03  0.64555298600E+03  0.46999998093E+01 0. -1.
</event>
<event>
 5   0  0.1046253E-03  0.1294843E+04  0.7818609E-02  0.9033665E-01
        2   -1    0    0  501    0  0.00000000000E+00  0.00000000000E+00  0.10805094949E+04  0.10805094949E+04  0.25500000920E-02 0.  1.
       -2   -1    0    0    0  501  0.00000000000E+00  0.00000000000E+00 -0.38792288131E+03  0.38792288132E+03  0.25500000920E-02 0. -1.
    10030    2    1    2    0    0  0.00000000000E+00  0.00000000000E+00  0.69258661363E+03  0.14684323763E+04  0.12948426261E+04 0.  0.
        3    1    3    3  502    0 -0.38587892772E+02  0.12508742719E+03  0.10653447451E+04  0.10733570357E+04  0.10100000352E+00 0.  1.
       -3    1    3    3    0  502  0.38587892772E+02 -0.12508742719E+03 -0.37275813151E+03  0.39507534055E+03  0.10100000352E+00 0. -1.
</event>
<event>
 5   0  0.5563545E-04  0.1294789E+04  0.7818609E-02  0.9033708E-01
       -1   -1    0    0    0  501  0.00000000000E+00  0.00000000000E+00  0.50640704598E+03  0.50640704601E+03  0.50400001928E-02 0. -1.
        1   -1    0    0  501    0  0.00000000000E+00  0.00000000000E+00 -0.82763347306E+03  0.82763347307E+03  0.50400001928E-02 0.  1.
    10030    2    1    2    0    0  0.00000000000E+00  0.00000000000E+00 -0.32122642708E+03  0.13340405191E+04  0.12947886658E+04 0.  0.
        2    1    3    3  502    0  0.21840883750E+03  0.48913795299E+03  0.21394721768E+03  0.57682906420E+03  0.25500000920E-02 0. -1.
       -2    1    3    3    0  502 -0.21840883750E+03 -0.48913795299E+03 -0.53517364475E+03  0.75721145488E+03  0.25500000920E-02 0.  1.
</event>
<event>
 5   0  0.6006119E-04  0.1290888E+04  0.7818609E-02  0.9036823E-01
       -1   -1    0    0    0  501  0.00000000000E+00  0.00000000000E+00  0.64450246418E+03  0.64450246420E+03  0.50400001928E-02 0.  1.
        1   -1    0    0  501    0  0.00000000000E+00  0.00000000000E+00 -0.64638648741E+03  0.64638648743E+03  0.50400001928E-02 0. -1.
    10030    2    1    2    0    0  0.00000000000E+00  0.00000000000E+00 -0.18840232298E+01  0.12908889516E+04  0.12908875768E+04 0.  0.
        4    1    3    3  502    0  0.41567303072E+03 -0.37689565516E+03  0.31805937474E+03  0.64497890051E+03  0.12699999809E+01 0.  1.
       -4    1    3    3    0  502 -0.41567303072E+03  0.37689565516E+03 -0.31994339797E+03  0.64591005112E+03  0.12699999809E+01 0. -1.
</event>
<event>
 5   0  0.5710383E-04  0.1299038E+04  0.7818609E-02  0.9030329E-01
       -1   -1    0    0    0  501  0.00000000000E+00  0.00000000000E+00  0.15015225152E+04  0.15015225152E+04  0.50400001928E-02 0. -1.
        1   -1    0    0  501    0  0.00000000000E+00  0.00000000000E+00 -0.28096468513E+03  0.28096468518E+03  0.50400001928E-02 0.  1.
    10030    2    1    2    0    0  0.00000000000E+00  0.00000000000E+00  0.12205578301E+04  0.17824872004E+04  0.12990377989E+04 0.  0.
        1    1    3    3  502    0  0.17982551536E+03 -0.39809037877E+03 -0.49302716929E+02  0.43959518147E+03  0.50400001928E-02 0.  1.
       -1    1    3    3    0  502 -0.17982551536E+03  0.39809037877E+03  0.12698605470E+04  0.13428920190E+04  0.50400001928E-02 0. -1.
</event>
<event>
 5   0  0.6006119E-04  0.1339258E+04  0.7818609E-02  0.8998999E-01
        1   -1    0    0  501    0  0.00000000000E+00  0.00000000000E+00  0.18907973300E+04  0.18907973300E+04  0.50400001928E-02 0. -1.
       -1   -1    0    0    0  501  0.00000000000E+00  0.00000000000E+00 -0.23715032475E+03  0.23715032480E+03  0.50400001928E-02 0.  1.
    10030    2    1    2    0    0  0.00000000000E+00  0.00000000000E+00  0.16536470052E+04  0.21279476548E+04  0.13392583035E+04 0.  0.
        4    1    3    3  502    0  0.57855183847E+01  0.11422993706E+03 -0.22151303418E+03  0.24930220206E+03  0.12699999809E+01 0.  1.
       -4    1    3    3    0  502 -0.57855183847E+01 -0.11422993706E+03  0.18751600394E+04  0.18786454527E+04  0.12699999809E+01 0. -1.
</event>
<event>
 5   0  0.1031295E-03  0.1319369E+04  0.7818609E-02  0.9014345E-01
       -2   -1    0    0    0  501  0.00000000000E+00  0.00000000000E+00  0.44922274012E+03  0.44922274013E+03  0.25500000920E-02 0.  1.
        2   -1    0    0  501    0  0.00000000000E+00  0.00000000000E+00 -0.96874863161E+03  0.96874863161E+03  0.25500000920E-02 0. -1.
    10030    2    1    2    0    0  0.00000000000E+00  0.00000000000E+00 -0.51952589148E+03  0.14179713717E+04  0.13193694172E+04 0.  0.
        2    1    3    3  502    0  0.30958231870E+03  0.32255701473E+03  0.26156584927E+03  0.51797773438E+03  0.25500000920E-02 0.  1.
       -2    1    3    3    0  502 -0.30958231870E+03 -0.32255701473E+03 -0.78109174076E+03  0.89999363736E+03  0.25500000920E-02 0. -1.
</event>
<event>
 5   0  0.1101619E-03  0.1305914E+04  0.7818609E-02  0.9024888E-01
       -2   -1    0    0    0  501  0.00000000000E+00  0.00000000000E+00  0.86236922745E+03  0.86236922745E+03  0.25500000920E-02 0. -1.
        2   -1    0    0  501    0  0.00000000000E+00  0.00000000000E+00 -0.49439731722E+03  0.49439731722E+03  0.25500000920E-02 0.  1.
    10030    2    1    2    0    0  0.00000000000E+00  0.00000000000E+00  0.36797191023E+03  0.13567665447E+04  0.13059142889E+04 0.  0.
        1    1    3    3  502    0 -0.12940691317E+03  0.51570540513E+03  0.57776314111E+03  0.78518052785E+03  0.50400001928E-02 0. -1.
       -1    1    3    3    0  502  0.12940691317E+03 -0.51570540513E+03 -0.20979123088E+03  0.57158601683E+03  0.50400001928E-02 0.  1.
</event>
<event>
 5   0  0.1046253E-03  0.1282753E+04  0.7818609E-02  0.9043355E-01
       -2   -1    0    0    0  501  0.00000000000E+00  0.00000000000E+00  0.37713643945E+03  0.37713643945E+03  0.25500000920E-02 0. -1.
        2   -1    0    0  501    0  0.00000000000E+00  0.00000000000E+00 -0.10907558893E+04  0.10907558893E+04  0.25500000920E-02 0.  1.
    10030    2    1    2    0    0  0.00000000000E+00  0.00000000000E+00 -0.71361944986E+03  0.14678923288E+04  0.12827529652E+04 0.  0.
        3    1    3    3  502    0 -0.52588172807E+03 -0.13295321901E+02  0.63075744754E+02  0.52981781518E+03  0.10100000352E+00 0. -1.
       -3    1    3    3    0  502  0.52588172807E+03  0.13295321901E+02 -0.77669519462E+03  0.93807451359E+03  0.10100000352E+00 0.  1.
</event>
<event>
 5   0  0.1101619E-03  0.1293189E+04  0.7818609E-02  0.9034984E-01
        2   -1    0    0  501    0  0.00000000000E+00  0.00000000000E+00  0.91849404059E+03  0.91849404059E+03  0.25500000920E-02 0.  1.
       -2   -1    0    0    0  501  0.00000000000E+00  0.00000000000E+00 -0.45518467282E+03  0.45518467283E+03  0.25500000920E-02 0. -1.
    10030    2    1    2    0    0  0.00000000000E+00  0.00000000000E+00  0.46330936776E+03  0.13736787134E+04  0.12931889411E+04 0.  0.
        1    1    3    3  502    0 -0.38463399511E+02  0.60988150778E+02  0.91421016873E+03  0.91704919185E+03  0.50400001928E-02 0.  1.
       -1    1    3    3    0  502  0.38463399511E+02 -0.60988150778E+02 -0.45090080097E+03  0.45662952158E+03  0.50400001928E-02 0. -1.
</event>
<event>
 5   0  0.1103241E-03  0.1286615E+04  0.7818609E-02  0.9040248E-01
       -2   -1    0    0    0  501  0.00000000000E+00  0.00000000000E+00  0.52623217384E+03  0.52623217385E+03  0.25500000920E-02 0.  1.
        2   -1    0    0  501    0  0.00000000000E+00  0.00000000000E+00 -0.78642903614E+03  0.78642903614E+03  0.25500000920E-02 0. -1.
    10030    2    1    2    0    0  0.00000000000E+00  0.00000000000E+00 -0.26019686230E+03  0.13126612100E+04  0.12866145674E+04 0.  0.
        4    1    3    3  502    0 -0.56772709801E+03  0.30244946851E+03 -0.13751958131E+03  0.65780163192E+03  0.12699999809E+01 0.  1.
       -4    1    3    3    0  502  0.56772709801E+03 -0.30244946851E+03 -0.12267728099E+03  0.65485957807E+03  0.12699999809E+01 0. -1.
</event>
<event>
 5   0  0.5766027E-04  0.1325852E+04  0.7818609E-02  0.9009312E-01
       -1   -1    0    0    0  501  0.00000000000E+00  0.00000000000E+00  0.65094482575E+03  0.65094482577E+03  0.50400001928E-02 0.  1.
        1   -1    0    0  501    0  0.00000000000E+00  0.00000000000E+00 -0.67512748178E+03  0.67512748180E+03  0.50400001928E-02 0. -1.
    10030    2    1    2    0    0  0.00000000000E+00  0.00000000000E+00 -0.24182656031E+02  0.13260723076E+04  0.13258517881E+04 0.  0.
        3    1    3    3  502    0  0.13556957473E+03  0.71294518531E+02 -0.65718597833E+03  0.67480029511E+03  0.10100000352E+00 0. -1.
       -3    1    3    3    0  502 -0.13556957473E+03 -0.71294518531E+02  0.63300332230E+03  0.65127201245E+03  0.10100000352E+00 0.  1.
</event>
<event>
 5   0  0.5710383E-04  0.1300751E+04  0.7818609E-02  0.9028970E-01
       -1   -1    0    0    0  501  0.00000000000E+00  0.00000000000E+00  0.28695560393E+03  0.28695560397E+03  0.50400001928E-02 0.  1.
        1   -1    0    0  501    0  0.00000000000E+00  0.00000000000E+00 -0.14740554852E+04  0.14740554852E+04  0.50400001928E-02 0. -1.
    10030    2    1    2    0    0  0.00000000000E+00  0.00000000000E+00 -0.11870998812E+04  0.17610110891E+04  0.13007512937E+04 0.  0.
        1    1    3    3  502    0 -0.94791942375E+02  0.47511907822E+03 -0.11809749382E+04  0.12764895047E+04  0.50400001928E-02 0. -1.
       -1    1    3    3    0  502  0.94791942375E+02 -0.47511907822E+03 -0.61249429859E+01  0.48452158444E+03  0.50400001928E-02 0.  1.
</event>
<event>
 5   0  0.5812938E-04  0.1305631E+04  0.7818609E-02  0.9025112E-01
       -1   -1    0    0    0  501  0.00000000000E+00  0.00000000000E+00  0.23050670780E+03  0.23050670785E+03  0.50400001928E-02 0.  1.
        1   -1    0    0  501    0  0.00000000000E+00  0.00000000000E+00 -0.18488310230E+04  0.18488310230E+04  0.50400001928E-02 0. -1.
    10030    2    1    2    0    0  0.00000000000E+00  0.00000000000E+00 -0.16183243152E+04  0.20793377309E+04  0.13056308092E+04 0.  0.
        5    1    3    3  502    0  0.25052432518E+03 -0.18034898679E+03  0.10690064079E+03  0.32670786882E+03  0.46999998093E+01 0.  1.
       -5    1    3    3    0  502 -0.25052432518E+03  0.18034898679E+03 -0.17252249560E+04  0.17526298620E+04  0.46999998093E+01 0. -1.
</event>
<event>
 5   0  0.5710383E-04  0.1303370E+04  0.7818609E-02  0.9026897E-01
       -1   -1    0    0    0  501  0.00000000000E+00  0.00000000000E+00  0.24220436721E+03  0.24220436727E+03  0.50400001928E-02 0. -1.
        1   -1    0    0  501    0  0.00000000000E+00  0.00000000000E+00 -0.17534516076E+04  0.17534516076E+04  0.50400001928E-02 0.  1.
    10030    2    1    2    0    0  0.00000000000E+00  0.00000000000E+00 -0.15112472404E+04  0.19956559749E+04  0.13033704571E+04 0.  0.
        1    1    3    3  502    0  0.24305973922E+03  0.47082166518E+02 -0.16786403867E+04  0.16967994328E+04  0.50400001928E-02 0.  1.
       -1    1    3    3    0  502 -0.24305973922E+03 -0.47082166518E+02  0.16739314637E+03  0.29885654202E+03  0.50400001928E-02 0. -1.
</event>
<event>
 5   0  0.6006119E-04  0.1297330E+04  0.7818609E-02  0.9031685E-01
        1   -1    0    0  501    0  0.00000000000E+00  0.00000000000E+00  0.12575322635E+04  0.12575322635E+04  0.50400001928E-02 0.  1.
       -1   -1    0    0    0  501  0.00000000000E+00  0.00000000000E+00 -0.33459689852E+03  0.33459689855E+03  0.50400001928E-02 0. -1.
    10030    2    1    2    0    0  0.00000000000E+00  0.00000000000E+00  0.92293536496E+03  0.15921291620E+04  0.12973301741E+04 0.  0.
        4    1    3    3  502    0  0.86405885407E+02 -0.51629698303E+03 -0.86390350893E+01  0.52355018627E+03  0.12699999809E+01 0. -1.
       -4    1    3    3    0  502 -0.86405885407E+02  0.51629698303E+03  0.93157440005E+03  0.10685789758E+04  0.12699999809E+01 0.  1.
</event>
<event>
 5   0  0.5766027E-04  0.1296921E+04  0.7818609E-02  0.9032010E-01
       -1   -1    0    0    0  501  0.00000000000E+00  0.00000000000E+00  0.21228044849E+03  0.21228044855E+03  0.50400001928E-02 0. -1.
        1   -1    0    0  501    0  0.00000000000E+00  0.00000000000E+00 -0.19808751647E+04  0.19808751647E+04  0.50400001928E-02 0.  1.
    10030    2    1    2    0    0  0.00000000000E+00  0.00000000000E+00 -0.17685947162E+04  0.21931556132E+04  0.12969210746E+04 0.  0.
        3    1    3    3  502    0  0.16940165370E+03 -0.56137432314E+03 -0.13525161348E+04  0.14741566932E+04  0.10100000352E+00 0. -1.
       -3    1    3    3    0  502 -0.16940165370E+03  0.56137432314E+03 -0.41607858141E+03  0.71899892007E+03  0.10100000352E+00 0.  1.
</event>
<event>
 5   0  0.1103241E-03  0.1298255E+04  0.7818609E-02  0.9030950E-01
        2   -1    0    0  501    0  0.00000000000E+00  0.00000000000E+00  0.89347922278E+03  0.89347922278E+03  0.25500000920E-02 0. -1.
       -2   -1    0    0    0  501  0.00000000000E+00  0.00000000000E+00 -0.47160156122E+03  0.47160156123E+03  0.25500000920E-02 0.  1.
    10030    2    1    2    0    0  0.00000000000E+00  0.00000000000E+00  0.42187766156E+03  0.13650807840E+04  0.12982545149E+04 0.  0.
        4    1    3    3  502    0 -0.35530957644E+03  0.54309435160E+03  0.22457615326E+03  0.68675500098E+03  0.12699999809E+01 0.  1.
       -4    1    3    3    0  502  0.35530957644E+03 -0.54309435160E+03  0.19730150830E+03  0.67832578304E+03  0.12699999809E+01 0. -1.
</event>
<event>
 5   0  0.5563545E-04  0.1229169E+04  0.7818609E-02  0.9087701E-01
        1   -1    0    0  501    0  0.00000000000E+00  0.00000000000E+00  0.87829137869E+03  0.87829137871E+03  0.50400001928E-02 0.  1.
       -1   -1    0    0    0  501  0.00000000000E+00  0.00000000000E+00 -0.43005563018E+03  0.43005563021E+03  0.50400001928E-02 0. -1.
    10030    2    1    2    0    0  0.00000000000E+00  0.00000000000E+00  0.44823574852E+03  0.13083470089E+04  0.12291690728E+04 0.  0.
        2    1    3    3  502    0  0.13933296219E+03 -0.59407279865E+03  0.14605918894E+03  0.62743083374E+03  0.25500000920E-02 0. -1.
       -2    1    3    3    0  502 -0.13933296219E+03  0.59407279865E+03  0.30217655957E+03  0.68091617517E+03  0.25500000920E-02 0.  1.
</event>
<event>
 5   0  0.5766027E-04  0.1299211E+04  0.7818609E-02  0.9030191E-01
        1   -1    0    0  501    0  0.00000000000E+00  0.00000000000E+00  0.46054066226E+03  0.46054066229E+03  0.50400001928E-02 0. -1.
       -1   -1    0    0    0  501  0.00000000000E+00  0.00000000000E+00 -0.91628735805E+03  0.91628735806E+03  0.50400001928E-02 0.  1.
    10030    2    1    2    0    0  0.00000000000E+00  0.00000000000E+00 -0.45574669579E+03  0.13768280203E+04  0.12992114327E+04 0.  0.
        3    1    3    3  502    0  0.25822358776E+03 -0.20043644470E+03 -0.82277759693E+03  0.88533449828E+03  0.10100000352E+00 0.  1.
       -3    1    3    3    0  502 -0.25822358776E+03  0.20043644470E+03  0.36703090114E+03  0.49149352207E+03  0.10100000352E+00 0. -1.
</event>
<event>
 5   0  0.1081574E-03  0.1295884E+04  0.7818609E-02  0.9032836E-01
       -2   -1    0    0    0  501  0.00000000000E+00  0.00000000000E+00  0.24886826512E+03  0.24886826513E+03  0.25500000920E-02 0.  1.
        2   -1    0    0  501    0  0.00000000000E+00  0.00000000000E+00 -0.16869522484E+04  0.16869522484E+04  0.25500000920E-02 0. -1.
    10030    2    1    2    0    0  0.00000000000E+00  0.00000000000E+00 -0.14380839832E+04  0.19358205135E+04  0.12958840680E+04 0.  0.
        5    1    3    3  502    0 -0.37181691488E+03 -0.45251572466E+03 -0.30509283573E+03  0.66039535709E+03  0.46999998093E+01 0.  1.
       -5    1    3    3    0  502  0.37181691488E+03  0.45251572466E+03 -0.11329911475E+04  0.12754251564E+04  0.46999998093E+01 0. -1.
</event>
<event>
 5   0  0.5563545E-04  0.1321956E+04  0.7818609E-02  0.9012333E-01
       -1   -1    0    0    0  501  0.00000000000E+00  0.00000000000E+00  0.38183491657E+03  0.38183491661E+03  0.50400001928E-02 0. -1.
        1   -1    0    0  501    0  0.00000000000E+00  0.00000000000E+00 -0.11441897378E+04  0.11441897378E+04  0.50400001928E-02 0.  1.
    10030    2    1    2    0    0  0.00000000000E+00  0.00000000000E+00 -0.76235482119E+03  0.15260246544E+04  0.13219555107E+04 0.  0.
        2    1    3    3  502    0 -0.57074616096E+03  0.30723960485E+03 -0.53055223417E+03  0.83763537904E+03  0.25500000920E-02 0.  1.
       -2    1    3    3    0  502  0.57074616096E+03 -0.30723960485E+03 -0.23180258702E+03  0.68838927534E+03  0.25500000920E-02 0. -1.
</event>
<event>
 5   0  0.5766027E-04  0.1281213E+04  0.7818609E-02  0.9044597E-01
        1   -1    0    0  501    0  0.00000000000E+00  0.00000000000E+00  0.23719937506E+04  0.23719937506E+04  0.50400001928E-02 0. -1.
       -1   -1    0    0    0  501  0.00000000000E+00  0.00000000000E+00 -0.17300926508E+03  0.17300926515E+03  0.50400001928E-02 0.  1.
    10030    2    1    2    0    0  0.00000000000E+00  0.00000000000E+00  0.21989844856E+04  0.25450030158E+04  0.12812133244E+04 0.  0.
        3    1    3    3  502    0 -0.12504968845E+02  0.10621873263E+03 -0.15514913927E+03  0.18844112881E+03  0.10100000352E+00 0.  1.
       -3    1    3    3    0  502  0.12504968845E+02 -0.10621873263E+03  0.23541336248E+04  0.23565618870E+04  0.10100000352E+00 0. -1.
</event>
<event>
 5   0  0.5812938E-04  0.1294470E+04  0.7818609E-02  0.9033962E-01
       -1   -1    0    0    0  501  0.00000000000E+00  0.00000000000E+00  0.64091991119E+03  0.64091991121E+03  0.50400001928E-02 0. -1.
        1   -1    0    0  501    0  0.00000000000E+00  0.00000000000E+00 -0.65361279679E+03  0.65361279681E+03  0.50400001928E-02 0.  1.
    10030    2    1    2    0    0  0.00000000000E+00  0.00000000000E+00 -0.12692885603E+02  0.12945327080E+04  0.12944704797E+04 0.  0.
        5    1    3    3  502    0 -0.11802195187E+03 -0.17833753481E+03  0.60454944549E+03  0.64127652341E+03  0.46999998093E+01 0. -1.
       -5    1    3    3    0  502  0.11802195187E+03  0.17833753481E+03 -0.61724233109E+03  0.65325618461E+03  0.46999998093E+01 0.  1.
</event>
<event>
 5   0  0.1031295E-03  0.1302530E+04  0.7818609E-02  0.9027561E-01
       -2   -1    0    0    0  501  0.00000000000E+00  0.00000000000E+00  0.34479006218E+03  0.34479006219E+03  0.25500000920E-02 0. -1.
        2   -1    0    0  501    0  0.00000000000E+00  0.00000000000E+00 -0.12301570731E+04  0.12301570731E+04  0.25500000920E-02 0.  1.
    10030    2    1    2    0    0  0.00000000000E+00  0.00000000000E+00 -0.88536701097E+03  0.15749471353E+04  0.13025297444E+04 0.  0.
        2    1    3    3  502    0 -0.44036942971E+03 -0.13492635556E+03  0.11406904736E+03  0.47449141575E+03  0.25500000920E-02 0.  1.
       -2    1    3    3    0  502  0.44036942971E+03  0.13492635556E+03 -0.99943605833E+03  0.11004557196E+04  0.25500000920E-02 0. -1.
</event>
<event>
 5   0  0.1031295E-03  0.1304112E+04  0.7818609E-02  0.9026310E-01
        2   -1    0    0  501    0  0.00000000000E+00  0.00000000000E+00  0.15494889782E+04  0.15494889782E+04  0.25500000920E-02 0.  1.
       -2   -1    0    0    0  501  0.00000000000E+00  0.00000000000E+00 -0.27439843595E+03  0.27439843596E+03  0.25500000920E-02 0. -1.
    10030    2    1    2    0    0  0.00000000000E+00  0.00000000000E+00  0.12750905422E+04  0.18238874142E+04  0.13041124984E+04 0.  0.
        2    1    3    3  502    0  0.11653973961E+03 -0.57431056030E+03  0.10374549973E+04  0.11915229759E+04  0.25500000920E-02 0.  1.
       -2    1    3    3    0  502 -0.11653973961E+03  0.57431056030E+03  0.23763554494E+03  0.63236443829E+03  0.25500000920E-02 0. -1.
</event>
<event>
 5   0  0.1081574E-03  0.1262560E+04  0.7818609E-02  0.9059794E-01
       -2   -1    0    0    0  501  0.00000000000E+00  0.00000000000E+00  0.26497940337E+03  0.26497940338E+03  0.25500000920E-02 0.  1.
        2   -1    0    0  501    0  0.00000000000E+00  0.00000000000E+00 -0.15039445274E+04  0.15039445274E+04  0.25500000920E-02 0. -1.
    10030    2    1    2    0    0  0.00000000000E+00  0.00000000000E+00 -0.12389651240E+04  0.17689239308E+04  0.12625598181E+04 0.  0.
        5    1    3    3  502    0 -0.13778324807E+03  0.30016200598E+03  0.13424525901E+03  0.35654639649E+03  0.46999998093E+01 0.  1.
       -5    1    3    3    0  502  0.13778324807E+03 -0.30016200598E+03 -0.13732103830E+04  0.14123775343E+04  0.46999998093E+01 0. -1.
</event>
<event>
 5   0  0.1103241E-03  0.1303081E+04  0.7818609E-02  0.9027125E-01
        2   -1    0    0  501    0  0.00000000000E+00  0.00000000000E+00  0.27847295363E+03  0.27847295364E+03  0.25500000920E-02 0.  1.
       -2   -1    0    0    0  501  0.00000000000E+00  0.00000000000E+00 -0.15244040475E+04  0.15244040475E+04  0.25500000920E-02 0. -1.
    10030    2    1    2    0    0  0.00000000000E+00  0.00000000000E+00 -0.12459310939E+04  0.18028770012E+04  0.13030814213E+04 0.  0.
        4    1    3    3  502    0 -0.16213990592E+03 -0.12545560011E+03 -0.14786156398E+04  0.14927606238E+04  0.12699999809E+01 0. -1.
       -4    1    3    3    0  502  0.16213990592E+03  0.12545560011E+03  0.23268454594E+03  0.31011637737E+03  0.12699999809E+01 0.  1.
</event>
<event>
 5   0  0.5710383E-04  0.1299008E+04  0.7818609E-02  0.9030352E-01
       -1   -1    0    0    0  501  0.00000000000E+00  0.00000000000E+00  0.94863587069E+03  0.94863587070E+03  0.50400001928E-02 0.  1.
        1   -1    0    0  501    0  0.00000000000E+00  0.00000000000E+00 -0.44469723244E+03  0.44469723247E+03  0.50400001928E-02 0. -1.
    10030    2    1    2    0    0  0.00000000000E+00  0.00000000000E+00  0.50393863825E+03  0.13933331032E+04  0.12990084624E+04 0.  0.
        1    1    3    3  502    0  0.22893096855E+02  0.34612363643E+03  0.84095982866E+03  0.90969176044E+03  0.50400001928E-02 0.  1.
       -1    1    3    3    0  502 -0.22893096855E+02 -0.34612363643E+03 -0.33702119041E+03  0.48364134272E+03  0.50400001928E-02 0. -1.
</event>
<event>
 5   0  0.1103241E-03  0.1309031E+04  0.7818609E-02  0.9022434E-01
        2   -1    0    0  501    0  0.00000000000E+00  0.00000000000E+00  0.82752974086E+03  0.82752974086E+03  0.25500000920E-02 0. -1.
       -2   -1    0    0    0  501  0.00000000000E+00  0.00000000000E+00 -0.51767357486E+03  0.51767357486E+03  0.25500000920E-02 0.  1.
    10030    2    1    2    0    0  0.00000000000E+00  0.00000000000E+00  0.30985616600E+03  0.13452033157E+04  0.13090306020E+04 0.  0.
        4    1    3    3  502    0  0.48062501525E+03 -0.30748235398E+03  0.48448103707E+03  0.74851138366E+03  0.12699999809E+01 0. -1.
       -4    1    3    3    0  502 -0.48062501525E+03  0.30748235398E+03 -0.17462487107E+03  0.59669193206E+03  0.12699999809E+01 0.  1.
</event>
<event>
 5   0  0.6006119E-04  0.1252971E+04  0.7818609E-02  0.9067714E-01
        1   -1    0    0  501    0  0.00000000000E+00  0.00000000000E+00  0.10932514521E+04  0.10932514521E+04  0.50400001928E-02 0. -1.
       -1   -1    0    0    0  501  0.00000000000E+00  0.00000000000E+00 -0.35900624418E+03  0.35900624422E+03  0.50400001928E-02 0.  1.
    10030    2    1    2    0    0  0.00000000000E+00  0.00000000000E+00  0.73424520788E+03  0.14522576963E+04  0.12529710257E+04 0.  0.
        4    1    3    3  502    0  0.16746348024E+03  0.38820475765E+03  0.90296987530E+03  0.99704722039E+03  0.12699999809E+01 0.  1.
       -4    1    3    3    0  502 -0.16746348024E+03 -0.38820475765E+03 -0.16872466742E+03  0.45521047590E+03  0.12699999809E+01 0. -1.
</event>
<event>
 5   0  0.1101619E-03  0.1303527E+04  0.7818609E-02  0.9026773E-01
        2   -1    0    0  501    0  0.00000000000E+00  0.00000000000E+00  0.46519923733E+03  0.46519923734E+03  0.25500000920E-02 0.  1.
       -2   -1    0    0    0  501  0.00000000000E+00  0.00000000000E+00 -0.91314745900E+03  0.91314745901E+03  0.25500000920E-02 0. -1.
    10030    2    1    2    0    0  0.00000000000E+00  0.00000000000E+00 -0.44794822167E+03  0.13783466963E+04  0.13035267569E+04 0.  0.
        1    1    3    3  502    0 -0.50519454865E+03 -0.40453785931E+03 -0.14259504861E+03  0.66272600637E+03  0.50400001928E-02 0.  1.
       -1    1    3    3    0  502  0.50519454865E+03  0.40453785931E+03 -0.30535317306E+03  0.71562068998E+03  0.50400001928E-02 0. -1.
</event>
<event>
 5   0  0.5766027E-04  0.1303199E+04  0.7818609E-02  0.9027032E-01
       -1   -1    0    0    0  501  0.00000000000E+00  0.00000000000E+00  0.38636256535E+03  0.38636256538E+03  0.50400001928E-02 0.  1.
        1   -1    0    0  501    0  0.00000000000E+00  0.00000000000E+00 -0.10989211594E+04  0.10989211594E+04  0.50400001928E-02 0. -1.
    10030    2    1    2    0    0  0.00000000000E+00  0.00000000000E+00 -0.71255859401E+03  0.14852837248E+04  0.13031991379E+04 0.  0.
        3    1    3    3  502    0  0.54478062789E+03  0.27169904851E+03 -0.62106693760E+03  0.86967261465E+03  0.10100000352E+00 0. -1.
       -3    1    3    3    0  502 -0.54478062789E+03 -0.27169904851E+03 -0.91491656409E+02  0.61561111010E+03  0.10100000352E+00 0.  1.
</event>
<event>
 5   0  0.1046253E-03  0.1272682E+04  0.7818609E-02  0.9051513E-01
        2   -1    0    0  501    0  0.00000000000E+00  0.00000000000E+00  0.12331122238E+04  0.12331122238E+04  0.25500000920E-02 0. -1.
       -2   -1    0    0    0  501  0.00000000000E+00  0.00000000000E+00 -0.32838042695E+03  0.32838042696E+03  0.25500000920E-02 0.  1.
    10030    2    1    2    0    0  0.00000000000E+00  0.00000000000E+00  0.90473179686E+03  0.15614926508E+04  0.12726820790E+04 0.  0.
        3    1    3    3  502    0  0.60061409944E+03  0.53497807859E+02  0.70180001386E+03  0.92526892390E+03  0.10100000352E+00 0. -1.
       -3    1    3    3    0  502 -0.60061409944E+03 -0.53497807859E+02  0.20293178300E+03  0.63622372688E+03  0.10100000352E+00 0.  1.
</event>
<event>
 5   0  0.5812938E-04  0.1316704E+04  0.7818609E-02  0.9016422E-01
       -1   -1    0    0    0  501  0.00000000000E+00  0.00000000000E+00  0.66166717541E+03  0.66166717543E+03  0.50400001928E-02 0. -1.
        1   -1    0    0  501    0  0.00000000000E+00  0.00000000000E+00 -0.65505375440E+03  0.65505375442E+03  0.50400001928E-02 0.  1.
    10030    2    1    2    0    0  0.00000000000E+00  0.00000000000E+00  0.66134210098E+01  0.13167209299E+04  0.13167043213E+04 0.  0.
        5    1    3    3  502    0 -0.13218232259E+03 -0.54055674375E+03 -0.34845292230E+03  0.65659370137E+03  0.46999998093E+01 0. -1.
       -5    1    3    3    0  502  0.13218232259E+03  0.54055674375E+03  0.35506634331E+03  0.66012722848E+03  0.46999998093E+01 0.  1.
</event>
<event>
 5   0  0.1101619E-03  0.1301225E+04  0.7818609E-02  0.9028594E-01
       -2   -1    0    0    0  501  0.00000000000E+00  0.00000000000E+00  0.85417743931E+03  0.85417743932E+03  0.25500000920E-02 0.  1.
        2   -1    0    0  501    0  0.00000000000E+00  0.00000000000E+00 -0.49556044758E+03  0.49556044759E+03  0.25500000920E-02 0. -1.
    10030    2    1    2    0    0  0.00000000000E+00  0.00000000000E+00  0.35861699173E+03  0.13497378869E+04  0.13012248909E+04 0.  0.
        1    1    3    3  502    0  0.51336179940E+03 -0.29672699939E+03  0.45707817217E+03  0.74867062501E+03  0.50400001928E-02 0.  1.
       -1    1    3    3    0  502 -0.51336179940E+03  0.29672699939E+03 -0.98461180438E+02  0.60106726190E+03  0.50400001928E-02 0. -1.
</event>
<event>
 5   0  0.1046253E-03  0.1299111E+04  0.7818609E-02  0.9030270E-01
        2   -1    0    0  501    0  0.00000000000E+00  0.00000000000E+00  0.96228780595E+03  0.96228780596E+03  0.25500000920E-02 0. -1.
       -2   -1    0    0    0  501  0.00000000000E+00  0.00000000000E+00 -0.43845768457E+03  0.43845768457E+03  0.25500000920E-02 0.  1.
    10030    2    1    2    0    0  0.00000000000E+00  0.00000000000E+00  0.52383012139E+03  0.14007454905E+04  0.12991112089E+04 0.  0.
        3    1    3    3  502    0  0.34949602215E+03 -0.54668123910E+03  0.22930626423E+03  0.68817818892E+03  0.10100000352E+00 0. -1.
       -3    1    3    3    0  502 -0.34949602215E+03  0.54668123910E+03  0.29452385716E+03  0.71256730161E+03  0.10100000352E+00 0.  1.
</event>
<event>
 5   0  0.5812938E-04  0.1291235E+04  0.7818609E-02  0.9036545E-01
        1   -1    0    0  501    0  0.00000000000E+00  0.00000000000E+00  0.18743138590E+04  0.18743138590E+04  0.50400001928E-02 0.  1.
       -1   -1    0    0    0  501  0.00000000000E+00  0.00000000000E+00 -0.22238658809E+03  0.22238658814E+03  0.50400001928E-02 0. -1.
    10030    2    1    2    0    0  0.00000000000E+00  0.00000000000E+00  0.16519272709E+04  0.20967004471E+04  0.12912354769E+04 0.  0.
        5    1    3    3  502    0  0.58837131165E+03  0.74524281247E+02  0.12401600560E+04  0.13746831356E+04  0.46999998093E+01 0.  1.
       -5    1    3    3    0  502 -0.58837131165E+03 -0.74524281247E+02  0.41176721491E+03  0.72201731152E+03  0.46999998093E+01 0. -1.
</event>
<event>
 5   0  0.6006119E-04  0.1307782E+04  0.7818609E-02  0.9023417E-01
       -1   -1    0    0    0  501  0.00000000000E+00  0.00000000000E+00  0.25180795588E+03  0.25180795593E+03  0.50400001928E-02 0. -1.
        1   -1    0    0  501    0  0.00000000000E+00  0.00000000000E+00 -0.16980142320E+04  0.16980142320E+04  0.50400001928E-02 0.  1.
    10030    2    1    2    0    0  0.00000000000E+00  0.00000000000E+00 -0.14462062761E+04  0.19498221880E+04  0.13077820811E+04 0.  0.
        4    1    3    3  502    0  0.28534321604E+03  0.42171353203E+03 -0.11143892616E+03  0.52123248287E+03  0.12699999809E+01 0. -1.
       -4    1    3    3    0  502 -0.28534321604E+03 -0.42171353203E+03 -0.13347673500E+04  0.14285897051E+04  0.12699999809E+01 0.  1.
</event>
<event>
 5   0  0.5563545E-04  0.1299247E+04  0.7818609E-02  0.9030163E-01
       -1   -1    0    0    0  501  0.00000000000E+00  0.00000000000E+00  0.88588685823E+03  0.88588685824E+03  0.50400001928E-02 0. -1.
        1   -1    0    0  501    0  0.00000000000E+00  0.00000000000E+00 -0.47637055985E+03  0.47637055987E+03  0.50400001928E-02 0.  1.
    10030    2    1    2    0    0  0.00000000000E+00  0.00000000000E+00  0.40951629838E+03  0.13622574181E+04  0.12992465796E+04 0.  0.
        2    1    3    3  502    0  0.44070398096E+03  0.96173905267E+02  0.69491385449E+03  0.82847732863E+03  0.25500000920E-02 0. -1.
       -2    1    3    3    0  502 -0.44070398096E+03 -0.96173905267E+02 -0.28539755610E+03  0.53378008948E+03  0.25500000920E-02 0.  1.
</event>
<event>
 5   0  0.1103241E-03  0.1273239E+04  0.7818609E-02  0.9051060E-01
       -2   -1    0    0    0  501  0.00000000000E+00  0.00000000000E+00  0.39347175194E+03  0.39347175195E+03  0.25500000920E-02 0.  1.
        2   -1    0    0  501    0  0.00000000000E+00  0.00000000000E+00 -0.10300212622E+04  0.10300212622E+04  0.25500000920E-02 0. -1.
    10030    2    1    2    0    0  0.00000000000E+00  0.00000000000E+00 -0.63654951026E+03  0.14234930142E+04  0.12732388159E+04 0.  0.
        4    1    3    3  502    0 -0.34404317985E+03  0.47512420265E+03 -0.41753386953E+02  0.58809325431E+03  0.12699999809E+01 0.  1.
       -4    1    3    3    0  502  0.34404317985E+03 -0.47512420265E+03 -0.59479612331E+03  0.83539975985E+03  0.12699999809E+01 0. -1.
</event>
<event>
 5   0  0.1101619E-03  0.1302867E+04  0.7818609E-02  0.9027295E-01
       -2   -1    0    0    0  501  0.00000000000E+00  0.00000000000E+00  0.35837095575E+03  0.35837095576E+03  0.25500000920E-02 0. -1.
        2   -1    0    0  501    0  0.00000000000E+00  0.00000000000E+00 -0.11841513893E+04  0.11841513893E+04  0.25500000920E-02 0.  1.
    10030    2    1    2    0    0  0.00000000000E+00  0.00000000000E+00 -0.82578043352E+03  0.15425223450E+04  0.13028667854E+04 0.  0.
        1    1    3    3  502    0 -0.33965343916E+03  0.11561413819E+03  0.23084744529E+03  0.42663993098E+03  0.50400001928E-02 0. -1.
       -1    1    3    3    0  502  0.33965343916E+03 -0.11561413819E+03 -0.10566278788E+04  0.11158824141E+04  0.50400001928E-02 0.  1.
</event>
<event>
 5   0  0.5710383E-04  0.1299205E+04  0.7818609E-02  0.9030196E-01
        1   -1    0    0  501    0  0.00000000000E+00  0.00000000000E+00  0.80174801380E+03  0.80174801381E+03  0.50400001928E-02 0. -1.
       -1   -1    0    0    0  501  0.00000000000E+00  0.00000000000E+00 -0.52632898389E+03  0.52632898391E+03  0.50400001928E-02 0.  1.
    10030    2    1    2    0    0  0.00000000000E+00  0.00000000000E+00  0.27541902991E+03  0.13280769977E+04  0.12992047067E+04 0.  0.
        1    1    3    3  502    0  0.18247557278E+02 -0.99267798415E+02  0.79368379210E+03  0.80007564081E+03  0.50400001928E-02 0. -1.
       -1    1    3    3    0  502 -0.18247557278E+02  0.99267798415E+02 -0.51826476219E+03  0.52800135692E+03  0.50400001928E-02 0.  1.
</event>
<event>
 5   0  0.1081574E-03  0.1288695E+04  0.7818609E-02  0.9038578E-01
       -2   -1    0    0    0  501  0.00000000000E+00  0.00000000000E+00  0.47011370473E+03  0.47011370473E+03  0.25500000920E-02 0.  1.
        2   -1    0    0  501    0  0.00000000000E+00  0.00000000000E+00 -0.88315620148E+03  0.88315620148E+03  0.25500000920E-02 0. -1.
    10030    2    1    2    0    0  0.00000000000E+00  0.00000000000E+00 -0.41304249675E+03  0.13532699062E+04  0.12886952064E+04 0.  0.
        5    1    3    3  502    0 -0.11382837713E+03 -0.63363985390E+03 -0.23441106994E+03  0.68514743202E+03  0.46999998093E+01 0.  1.
       -5    1    3    3    0  502  0.11382837713E+03  0.63363985390E+03 -0.17863142681E+03  0.66812247420E+03  0.46999998093E+01 0. -1.
</event>
<event>
 5   0  0.6006119E-04  0.1295597E+04  0.7818609E-02  0.9033064E-01
        1   -1    0    0  501    0  0.00000000000E+00  0.00000000000E+00  0.27556543558E+03  0.27556543563E+03  0.50400001928E-02 0.  1.
       -1   -1    0    0    0  501  0.00000000000E+00  0.00000000000E+00 -0.15228439491E+04  0.15228439491E+04  0.50400001928E-02 0. -1.
    10030    2    1    2    0    0  0.00000000000E+00  0.00000000000E+00 -0.12472785135E+04  0.17984093847E+04  0.12955974007E+04 0.  0.
        4    1    3    3  502    0  0.37391326879E+03 -0.25833346349E+03  0.17133943881E+02  0.45479940179E+03  0.12699999809E+01 0.  1.
       -4    1    3    3    0  502 -0.37391326879E+03  0.25833346349E+03 -0.12644124574E+04  0.13436099829E+04  0.12699999809E+01 0. -1.
</event>
<event>
 5   0  0.5766027E-04  0.1313168E+04  0.7818609E-02  0.9019188E-01
       -1   -1    0    0    0  501  0.00000000000E+00  0.00000000000E+00  0.54357159578E+03  0.54357159580E+03  0.50400001928E-02 0.  1.
        1   -1    0    0  501    0  0.00000000000E+00  0.00000000000E+00 -0.79309198463E+03  0.79309198465E+03  0.50400001928E-02 0. -1.
    10030    2    1    2    0    0  0.00000000000E+00  0.00000000000E+00 -0.24952038885E+03  0.13366635804E+04  0.13131675837E+04 0.  0.
        3    1    3    3  502    0 -0.23063328638E+01 -0.62619720585E+03 -0.32571087627E+03  0.70584406557E+03  0.10100000352E+00 0.  1.
       -3    1    3    3    0  502  0.23063328638E+01  0.62619720585E+03  0.76190487413E+02  0.63081951488E+03  0.10100000352E+00 0. -1.
</event>
<event>
 5   0  0.4012375E-04  0.1301576E+04  0.7818609E-02  0.9028316E-01
        3   -1    0    0  501    0  0.00000000000E+00  0.00000000000E+00  0.52602116021E+03  0.52602116991E+03  0.10100000352E+00 0. -1.
       -3   -1    0    0    0  501  0.00000000000E+00  0.00000000000E+00 -0.80514811732E+03  0.80514812366E+03  0.10100000352E+00 0.  1.
    10030    2    1    2    0    0  0.00000000000E+00  0.00000000000E+00 -0.27912695711E+03  0.13311692936E+04  0.13015759025E+04 0.  0.
        3    1    3    3  502    0  0.64911135468E+03 -0.11730467238E+02 -0.18577705816E+03  0.67527496635E+03  0.10100000352E+00 0.  1.
       -3    1    3    3    0  502 -0.64911135468E+03  0.11730467238E+02 -0.93349898947E+02  0.65589432722E+03  0.10100000352E+00 0. -1.
</event>
<event>
 5   0  0.5563545E-04  0.1313200E+04  0.7818609E-02  0.9019162E-01
        1   -1    0    0  501    0  0.00000000000E+00  0.00000000000E+00  0.99879720193E+03  0.99879720194E+03  0.50400001928E-02 0.  1.
       -1   -1    0    0    0  501  0.00000000000E+00  0.00000000000E+00 -0.43164280350E+03  0.43164280353E+03  0.50400001928E-02 0. -1.
    10030    2    1    2    0    0  0.00000000000E+00  0.00000000000E+00  0.56715439843E+03  0.14304400055E+04  0.13132000981E+04 0.  0.
        2    1    3    3  502    0  0.15399954597E+03  0.33111133620E+03  0.87798080298E+03  0.95089477206E+03  0.25500000920E-02 0.  1.
       -2    1    3    3    0  502 -0.15399954597E+03 -0.33111133620E+03 -0.31082640454E+03  0.47954523341E+03  0.25500000920E-02 0. -1.
</event>
<event>
 5   0  0.4012375E-04  0.1307206E+04  0.7818609E-02  0.9023870E-01
        3   -1    0    0  501    0  0.00000000000E+00  0.00000000000E+00  0.32735663852E+03  0.32735665410E+03  0.10100000352E+00 0.  1.
       -3   -1    0    0    0  501  0.00000000000E+00  0.00000000000E+00 -0.13049888690E+04  0.13049888729E+04  0.10100000352E+00 0. -1.
    10030    2    1    2    0    0  0.00000000000E+00  0.00000000000E+00 -0.97763223045E+03  0.16323455270E+04  0.13072058527E+04 0.  0.
        5    1    3    3  502    0  0.23832375750E+03 -0.55590772359E+03 -0.17953677099E+03  0.63094148118E+03  0.46999998093E+01 0.  1.
       -5    1    3    3    0  502 -0.23832375750E+03  0.55590772359E+03 -0.79809545945E+03  0.10014040458E+04  0.46999998093E+01 0. -1.
</event>
<event>
 5   0  0.1103241E-03  0.1299118E+04  0.7818609E-02  0.9030265E-01
       -2   -1    0    0    0  501  0.00000000000E+00  0.00000000000E+00  0.52939601747E+03  0.52939601747E+03  0.25500000920E-02 0.  1.
        2   -1    0    0  501    0  0.00000000000E+00  0.00000000000E+00 -0.79699628411E+03  0.79699628411E+03  0.25500000920E-02 0. -1.
    10030    2    1    2    0    0  0.00000000000E+00  0.00000000000E+00 -0.26760026664E+03  0.13263923016E+04  0.12991176371E+04 0.  0.
        4    1    3    3  502    0 -0.57681471846E+03 -0.68838198573E+02  0.16294093961E+03  0.60332850067E+03  0.12699999809E+01 0.  1.
       -4    1    3    3    0  502  0.57681471846E+03  0.68838198573E+02 -0.43054120625E+03  0.72306380092E+03  0.12699999809E+01 0. -1.
</event>
<event>
 5   0  0.5710383E-04  0.1275041E+04  0.7818609E-02  0.9049596E-01
        1   -1    0    0  501    0  0.00000000000E+00  0.00000000000E+00  0.96254567376E+03  0.96254567378E+03  0.50400001928E-02 0.  1.
       -1   -1    0    0    0  501  0.00000000000E+00  0.00000000000E+00 -0.42224712125E+03  0.42224712128E+03  0.50400001928E-02 0. -1.
    10030    2    1    2    0    0  0.00000000000E+00  0.00000000000E+00  0.54029855252E+03  0.13847927951E+04  0.12750406109E+04 0.  0.
        1    1    3    3  502    0  0.52491566551E+03 -0.14916388656E+03  0.62813630151E+03  0.83207063056E+03  0.50400001928E-02 0.  1.
       -1    1    3    3    0  502 -0.52491566551E+03  0.14916388656E+03 -0.87837748990E+02  0.55272216449E+03  0.50400001928E-02 0. -1.
</event>
<event>
 5   0  0.5766027E-04  0.1304578E+04  0.7818609E-02  0.9025942E-01
       -1   -1    0    0    0  501  0.00000000000E+00  0.00000000000E+00  0.86748142142E+03  0.86748142143E+03  0.50400001928E-02 0.  1.
        1   -1    0    0  501    0  0.00000000000E+00  0.00000000000E+00 -0.49047877988E+03  0.49047877990E+03  0.50400001928E-02 0. -1.
    10030    2    1    2    0    0  0.00000000000E+00  0.00000000000E+00  0.37700264154E+03  0.13579602013E+04  0.13045784441E+04 0.  0.
        3    1    3    3  502    0  0.32681483106E+03 -0.35219071560E+03  0.64772819648E+03  0.80647260379E+03  0.10100000352E+00 0.  1.
       -3    1    3    3    0  502 -0.32681483106E+03  0.35219071560E+03 -0.27072555494E+03  0.55148759755E+03  0.10100000352E+00 0. -1.
</event>
<event>
 5   0  0.1031295E-03  0.1246545E+04  0.7818609E-02  0.9073063E-01
        2   -1    0    0  501    0  0.00000000000E+00  0.00000000000E+00  0.73375277703E+03  0.73375277703E+03  0.25500000920E-02 0.  1.
       -2   -1    0    0    0  501  0.00000000000E+00  0.00000000000E+00 -0.52942738523E+03  0.52942738523E+03  0.25500000920E-02 0. -1.
    10030    2    1    2    0    0  0.00000000000E+00  0.00000000000E+00  0.20432539180E+03  0.12631801623E+04  0.12465453287E+04 0.  0.
        2    1    3    3  502    0  0.23623985582E+02  0.54313104290E+03  0.41105735555E+03  0.68155525969E+03  0.25500000920E-02 0. -1.
       -2    1    3    3    0  502 -0.23623985582E+02 -0.54313104290E+03 -0.20673196375E+03  0.58162490257E+03  0.25500000920E-02 0.  1.
</event>
<event>
 5   0  0.1103241E-03  0.1311252E+04  0.7818609E-02  0.9020689E-01
        2   -1    0    0  501    0  0.00000000000E+00  0.00000000000E+00  0.10523777396E+04  0.10523777396E+04  0.25500000920E-02 0. -1.
       -2   -1    0    0    0  501  0.00000000000E+00  0.00000000000E+00 -0.40845191782E+03  0.40845191783E+03  0.25500000920E-02 0.  1.
    10030    2    1    2    0    0  0.00000000000E+00  0.00000000000E+00  0.64392582178E+03  0.14608296574E+04  0.13112523876E+04 0.  0.
        4    1    3    3  502    0  0.66112164685E+02 -0.36245455922E+03  0.92613515998E+03  0.99673069245E+03  0.12699999809E+01 0. -1.
       -4    1    3    3    0  502 -0.66112164685E+02  0.36245455922E+03 -0.28220933820E+03  0.46409896497E+03  0.12699999809E+01 0.  1.
</event>
<event>
 5   0  0.5812938E-04  0.1367198E+04  0.7818609E-02  0.8977910E-01
        1   -1    0    0  501    0  0.00000000000E+00  0.00000000000E+00  0.73568030750E+03  0.73568030752E+03  0.50400001928E-02 0.  1.
       -1   -1    0    0    0  501  0.00000000000E+00  0.00000000000E+00 -0.63520488579E+03  0.63520488581E+03  0.50400001928E-02 0. -1.
    10030    2    1    2    0    0  0.00000000000E+00  0.00000000000E+00  0.10047542171E+03  0.13708851933E+04  0.13671981944E+04 0.  0.
        5    1    3    3  502    0 -0.44604971822E+03 -0.37516299315E+03  0.40838158465E+03  0.71169180916E+03  0.46999998093E+01 0.  1.
       -5    1    3    3    0  502  0.44604971822E+03  0.37516299315E+03 -0.30790616294E+03  0.65919338416E+03  0.46999998093E+01 0. -1.
</event>
<event>
 5   0  0.1103241E-03  0.1301613E+04  0.7818609E-02  0.9028287E-01
        2   -1    0    0  501    0  0.00000000000E+00  0.00000000000E+00  0.15609099331E+04  0.15609099331E+04  0.25500000920E-02 0.  1.
       -2   -1    0    0    0  501  0.00000000000E+00  0.00000000000E+00 -0.27134752471E+03  0.27134752472E+03  0.25500000920E-02 0. -1.
    10030    2    1    2    0    0  0.00000000000E+00  0.00000000000E+00  0.12895624084E+04  0.18322574578E+04  0.13016129173E+04 0.  0.
        4    1    3    3  502    0  0.58495625975E+03 -0.26127042003E+03  0.48359466284E+03  0.80268391601E+03  0.12699999809E+01 0. -1.
       -4    1    3    3    0  502 -0.58495625975E+03  0.26127042003E+03  0.80596774554E+03  0.10295735418E+04  0.12699999809E+01 0.  1.
</event>
<event>
 5   0  0.5563545E-04  0.1258629E+04  0.7818609E-02  0.9063032E-01
        1   -1    0    0  501    0  0.00000000000E+00  0.00000000000E+00  0.10291143097E+04  0.10291143098E+04  0.50400001928E-02 0. -1.
       -1   -1    0    0    0  501  0.00000000000E+00  0.00000000000E+00 -0.38483273283E+03  0.38483273286E+03  0.50400001928E-02 0.  1.
    10030    2    1    2    0    0  0.00000000000E+00  0.00000000000E+00  0.64428157692E+03  0.14139470426E+04  0.12586292103E+04 0.  0.
        2    1    3    3  502    0 -0.33167963339E+03  0.29185401602E+03  0.82560397006E+03  0.93638243323E+03  0.25500000920E-02 0. -1.
       -2    1    3    3    0  502  0.33167963339E+03 -0.29185401602E+03 -0.18132239315E+03  0.47756460938E+03  0.25500000920E-02 0.  1.
</event>
<event>
 5   0  0.1081574E-03  0.1293322E+04  0.7818609E-02  0.9034878E-01
        2   -1    0    0  501    0  0.00000000000E+00  0.00000000000E+00  0.11912489278E+04  0.11912489278E+04  0.25500000920E-02 0.  1.
       -2   -1    0    0    0  501  0.00000000000E+00  0.00000000000E+00 -0.35103536886E+03  0.35103536887E+03  0.25500000920E-02 0. -1.
    10030    2    1    2    0    0  0.00000000000E+00  0.00000000000E+00  0.84021355898E+03  0.15422842967E+04  0.12933220895E+04 0.  0.
        5    1    3    3  502    0 -0.55998724431E+03 -0.30834357685E+03  0.30395634047E+03  0.70786511574E+03  0.46999998093E+01 0. -1.
       -5    1    3    3    0  502  0.55998724431E+03  0.30834357685E+03  0.53625721850E+03  0.83441918097E+03  0.46999998093E+01 0.  1.
</event>
<event>
 5   0  0.5563545E-04  0.1203282E+04  0.7818609E-02  0.9109989E-01
       -1   -1    0    0    0  501  0.00000000000E+00  0.00000000000E+00  0.40969212918E+03  0.40969212921E+03  0.50400001928E-02 0.  1.
        1   -1    0    0  501    0  0.00000000000E+00  0.00000000000E+00 -0.88352185891E+03  0.88352185893E+03  0.50400001928E-02 0. -1.
    10030    2    1    2    0    0  0.00000000000E+00  0.00000000000E+00 -0.47382972973E+03  0.12932139881E+04  0.12032820976E+04 0.  0.
        2    1    3    3  502    0  0.59064386523E+03  0.11320950846E+03 -0.25538609666E+03  0.65337479804E+03  0.25500000920E-02 0. -1.
       -2    1    3    3    0  502 -0.59064386523E+03 -0.11320950846E+03 -0.21844363307E+03  0.63983919009E+03  0.25500000920E-02 0.  1.
</event>
<event>
 5   0  0.1046253E-03  0.1297212E+04  0.7818609E-02  0.9031779E-01
        2   -1    0    0  501    0  0.00000000000E+00  0.00000000000E+00  0.13205769187E+04  0.13205769187E+04  0.25500000920E-02 0. -1.
       -2   -1    0    0    0  501  0.00000000000E+00  0.00000000000E+00 -0.31856491780E+03  0.31856491781E+03  0.25500000920E-02 0.  1.
    10030    2    1    2    0    0  0.00000000000E+00  0.00000000000E+00  0.10020120009E+04  0.16391418366E+04  0.12972115904E+04 0.  0.
        3    1    3    3  502    0 -0.75221417640E+02 -0.64309628731E+03  0.54926071119E+03  0.84906915825E+03  0.10100000352E+00 0.  1.
       -3    1    3    3    0  502  0.75221417640E+02  0.64309628731E+03  0.45275128975E+03  0.79007267830E+03  0.10100000352E+00 0. -1.
</event>
<event>
 5   0  0.4012375E-04  0.1268693E+04  0.7818609E-02  0.9054767E-01
        4   -1    0    0  501    0  0.00000000000E+00  0.00000000000E+00  0.26105014813E+03  0.26105323736E+03  0.12699999809E+01 0.  1.
       -4   -1    0    0    0  501  0.00000000000E+00  0.00000000000E+00 -0.15414374396E+04  0.15414379628E+04  0.12699999809E+01 0. -1.
    10030    2    1    2    0    0  0.00000000000E+00  0.00000000000E+00 -0.12803872915E+04  0.18024912001E+04  0.12686933871E+04 0.  0.
        5    1    3    3  502    0  0.40107973894E+03 -0.27429387201E+03 -0.60864400467E+02  0.48972303443E+03  0.46999998093E+01 0.  1.
       -5    1    3    3    0  502 -0.40107973894E+03  0.27429387201E+03 -0.12195228910E+04  0.13127681657E+04  0.46999998093E+01 0. -1.
</event>
<event>
 5   0  0.1031295E-03  0.1301675E+04  0.7818609E-02  0.9028238E-01
        2   -1    0    0  501    0  0.00000000000E+00  0.00000000000E+00  0.14245332047E+04  0.14245332047E+04  0.25500000920E-02 0. -1.
       -2   -1    0    0    0  501  0.00000000000E+00  0.00000000000E+00 -0.29735309140E+03  0.29735309141E+03  0.25500000920E-02 0.  1.
    10030    2    1    2    0    0  0.00000000000E+00  0.00000000000E+00  0.11271801133E+04  0.17218862961E+04  0.13016748476E+04 0.  0.
        2    1    3    3  502    0 -0.59394075947E+03  0.12913063964E+03  0.87141031226E+03  0.10624482482E+04  0.25500000920E-02 0. -1.
       -2    1    3    3    0  502  0.59394075947E+03 -0.12913063964E+03  0.25576980104E+03  0.65943804788E+03  0.25500000920E-02 0.  1.
</event>
<event>
 5   0  0.4012375E-04  0.1299492E+04  0.7818609E-02  0.9029968E-01
        3   -1    0    0  501    0  0.00000000000E+00  0.00000000000E+00  0.16776913186E+04  0.16776913216E+04  0.10100000352E+00 0. -1.
       -3   -1    0    0    0  501  0.00000000000E+00  0.00000000000E+00 -0.25163753669E+03  0.25163755695E+03  0.10100000352E+00 0.  1.
    10030    2    1    2    0    0  0.00000000000E+00  0.00000000000E+00  0.14260537819E+04  0.19293288786E+04  0.12994924135E+04 0.  0.
        2    1    3    3  502    0 -0.22212227237E+03  0.50516789444E+03  0.20380753040E+03  0.58827749822E+03  0.25500000920E-02 0.  1.
       -2    1    3    3    0  502  0.22212227237E+03 -0.50516789444E+03  0.12222462515E+04  0.13410513804E+04  0.25500000920E-02 0. -1.
</event>
<event>
 5   0  0.1103241E-03  0.1293221E+04  0.7818609E-02  0.9034959E-01
       -2   -1    0    0    0  501  0.00000000000E+00  0.00000000000E+00  0.97945247947E+03  0.97945247947E+03  0.25500000920E-02 0. -1.
        2   -1    0    0  501    0  0.00000000000E+00  0.00000000000E+00 -0.42687617037E+03  0.42687617037E+03  0.25500000920E-02 0.  1.
    10030    2    1    2    0    0  0.00000000000E+00  0.00000000000E+00  0.55257630910E+03  0.14063286498E+04  0.12932206672E+04 0.  0.
        4    1    3    3  502    0  0.42073080434E+03 -0.20797142139E+03  0.75997882962E+03  0.89321663454E+03  0.12699999809E+01 0. -1.
       -4    1    3    3    0  502 -0.42073080434E+03  0.20797142139E+03 -0.20740252052E+03  0.51311201531E+03  0.12699999809E+01 0.  1.
</event>
<event>
 5   0  0.1081574E-03  0.1306202E+04  0.7818609E-02  0.9024662E-01
       -2   -1    0    0    0  501  0.00000000000E+00  0.00000000000E+00  0.39378897300E+03  0.39378897301E+03  0.25500000920E-02 0.  1.
        2   -1    0    0  501    0  0.00000000000E+00  0.00000000000E+00 -0.10831709182E+04  0.10831709182E+04  0.25500000920E-02 0. -1.
    10030    2    1    2    0    0  0.00000000000E+00  0.00000000000E+00 -0.68938194519E+03  0.14769598912E+04  0.13062017661E+04 0.  0.
        5    1    3    3  502    0  0.35055566302E+03 -0.49612172183E+03 -0.73569102084E+02  0.61193180872E+03  0.46999998093E+01 0.  1.
       -5    1    3    3    0  502 -0.35055566302E+03  0.49612172183E+03 -0.61581284311E+03  0.86502808248E+03  0.46999998093E+01 0. -1.
</event>
<event>
 5   0  0.6006119E-04  0.1285923E+04  0.7818609E-02  0.9040803E-01
       -1   -1    0    0    0  501  0.00000000000E+00  0.00000000000E+00  0.40861202257E+03  0.40861202260E+03  0.50400001928E-02 0.  1.
        1   -1    0    0  501    0  0.00000000000E+00  0.00000000000E+00 -0.10117164185E+04  0.10117164185E+04  0.50400001928E-02 0. -1.
    10030    2    1    2    0    0  0.00000000000E+00  0.00000000000E+00 -0.60310439591E+03  0.14203284411E+04  0.12859230024E+04 0.  0.
        4    1    3    3  502    0  0.55775662129E+01 -0.61962797067E+03 -0.49102802336E+03  0.79062005028E+03  0.12699999809E+01 0. -1.
       -4    1    3    3    0  502 -0.55775662129E+01  0.61962797067E+03 -0.11207637255E+03  0.62970839081E+03  0.12699999809E+01 0.  1.
</event>
<event>
 5   0  0.5563545E-04  0.1294055E+04  0.7818609E-02  0.9034293E-01
        1   -1    0    0  501    0  0.00000000000E+00  0.00000000000E+00  0.11872072380E+04  0.11872072380E+04  0.50400001928E-02 0.  1.
       -1   -1    0    0    0  501  0.00000000000E+00  0.00000000000E+00 -0.35262994764E+03  0.35262994768E+03  0.50400001928E-02 0. -1.
    10030    2    1    2    0    0  0.00000000000E+00  0.00000000000E+00  0.83457729037E+03  0.15398371857E+04  0.12940553716E+04 0.  0.
        2    1    3    3  502    0  0.32108730383E+03 -0.52325916409E+02  0.10828101549E+04  0.11306249996E+04  0.25500000920E-02 0.  1.
       -2    1    3    3    0  502 -0.32108730383E+03  0.52325916409E+02 -0.24823286452E+03  0.40921218609E+03  0.25500000920E-02 0. -1.
</event>
<event>
 5   0  0.1081574E-03  0.1302844E+04  0.7818609E-02  0.9027313E-01
        2   -1    0    0  501    0  0.00000000000E+00  0.00000000000E+00  0.11760667250E+04  0.11760667250E+04  0.25500000920E-02 0. -1.
       -2   -1    0    0    0  501  0.00000000000E+00  0.00000000000E+00 -0.36082191939E+03  0.36082191940E+03  0.25500000920E-02 0.  1.
    10030    2    1    2    0    0  0.00000000000E+00  0.00000000000E+00  0.81524480561E+03  0.15368886444E+04  0.13028440476E+04 0.  0.
        5    1    3    3  502    0 -0.23938427552E+03  0.28696263354E+03 -0.22177584909E+03  0.43457910862E+03  0.46999998093E+01 0.  1.
       -5    1    3    3    0  502  0.23938427552E+03 -0.28696263354E+03  0.10370206547E+04  0.11023095358E+04  0.46999998093E+01 0. -1.
</event>
<event>
 5   0  0.5766027E-04  0.1309294E+04  0.7818609E-02  0.9022227E-01
       -1   -1    0    0    0  501  0.00000000000E+00  0.00000000000E+00  0.51390157669E+03  0.51390157672E+03  0.50400001928E-02 0. -1.
        1   -1    0    0  501    0  0.00000000000E+00  0.00000000000E+00 -0.83393903464E+03  0.83393903465E+03  0.50400001928E-02 0.  1.
    10030    2    1    2    0    0  0.00000000000E+00  0.00000000000E+00 -0.32003745794E+03  0.13478406114E+04  0.13092938323E+04 0.  0.
        3    1    3    3  502    0  0.70090026211E+02 -0.31671557231E+01 -0.83005738770E+03  0.83301735860E+03  0.10100000352E+00 0.  1.
       -3    1    3    3    0  502 -0.70090026211E+02  0.31671557231E+01  0.51001992975E+03  0.51482325277E+03  0.10100000352E+00 0. -1.
</event>
<event>
 5   0  0.1101619E-03  0.1302857E+04  0.7818609E-02  0.9027303E-01
        2   -1    0    0  501    0  0.00000000000E+00  0.00000000000E+00  0.35994506420E+03  0.35994506420E+03  0.25500000920E-02 0.  1.
       -2   -1    0    0    0  501  0.00000000000E+00  0.00000000000E+00 -0.11789552982E+04  0.11789552982E+04  0.25500000920E-02 0. -1.
    10030    2    1    2    0    0  0.00000000000E+00  0.00000000000E+00 -0.81901023401E+03  0.15389003624E+04  0.13028570766E+04 0.  0.
        1    1    3    3  502    0 -0.55934457148E+03 -0.17483945954E+03 -0.73495062106E+02  0.59062400089E+03  0.50400001928E-02 0.  1.
       -1    1    3    3    0  502  0.55934457148E+03  0.17483945954E+03 -0.74551517191E+03  0.94827636152E+03  0.50400001928E-02 0. -1.
</event>
<event>
 5   0  0.5710383E-04  0.1297278E+04  0.7818609E-02  0.9031727E-01
       -1   -1    0    0    0  501  0.00000000000E+00  0.00000000000E+00  0.36859693339E+03  0.36859693343E+03  0.50400001928E-02 0.  1.
        1   -1    0    0  501    0  0.00000000000E+00  0.00000000000E+00 -0.11414432238E+04  0.11414432238E+04  0.50400001928E-02 0. -1.
    10030    2    1    2    0    0  0.00000000000E+00  0.00000000000E+00 -0.77284629039E+03  0.15100401572E+04  0.12972778761E+04 0.  0.
        1    1    3    3  502    0 -0.43484292863E+03 -0.39034143354E+03 -0.58682043506E+02  0.58728050332E+03  0.50400001928E-02 0. -1.
       -1    1    3    3    0  502  0.43484292863E+03  0.39034143354E+03 -0.71416424689E+03  0.92275965391E+03  0.50400001928E-02 0.  1.
</event>
<event>
 5   0  0.1101619E-03  0.1316764E+04  0.7818609E-02  0.9016376E-01
        2   -1    0    0  501    0  0.00000000000E+00  0.00000000000E+00  0.11558116494E+04  0.11558116494E+04  0.25500000920E-02 0.  1.
       -2   -1    0    0    0  501  0.00000000000E+00  0.00000000000E+00 -0.37503240360E+03  0.37503240360E+03  0.25500000920E-02 0. -1.
    10030    2    1    2    0    0  0.00000000000E+00  0.00000000000E+00  0.78077924583E+03  0.15308440530E+04  0.13167639439E+04 0.  0.
        1    1    3    3  502    0  0.11470999570E+03 -0.61240226046E+02  0.11407342947E+04  0.11481217181E+04  0.50400001928E-02 0.  1.
       -1    1    3    3    0  502 -0.11470999570E+03  0.61240226046E+02 -0.35995504890E+03  0.38272233493E+03  0.50400001928E-02 0. -1.
</event>
<event>
 5   0  0.1101619E-03  0.1301828E+04  0.7818609E-02  0.9028117E-01
        2   -1    0    0  501    0  0.00000000000E+00  0.00000000000E+00  0.13629594347E+04  0.13629594347E+04  0.25500000920E-02 0.  1.
       -2   -1    0    0    0  501  0.00000000000E+00  0.00000000000E+00 -0.31085941741E+03  0.31085941742E+03  0.25500000920E-02 0. -1.
    10030    2    1    2    0    0  0.00000000000E+00  0.00000000000E+00  0.10521000173E+04  0.16738188521E+04  0.13018276012E+04 0.  0.
        1    1    3    3  502    0  0.86694519942E+01  0.62010543494E+03  0.27186602522E+03  0.67713886724E+03  0.50400001928E-02 0. -1.
       -1    1    3    3    0  502 -0.86694519942E+01 -0.62010543494E+03  0.78023399206E+03  0.99667998486E+03  0.50400001928E-02 0.  1.
</event>
<event>
 5   0  0.1081574E-03  0.1287197E+04  0.7818609E-02  0.9039780E-01
       -2   -1    0    0    0  501  0.00000000000E+00  0.00000000000E+00  0.49441959956E+03  0.49441959957E+03  0.25500000920E-02 0. -1.
        2   -1    0    0  501    0  0.00000000000E+00  0.00000000000E+00 -0.83778802243E+03  0.83778802244E+03  0.25500000920E-02 0.  1.
    10030    2    1    2    0    0  0.00000000000E+00  0.00000000000E+00 -0.34336842287E+03  0.13322076220E+04  0.12871966727E+04 0.  0.
        5    1    3    3  502    0 -0.36897931786E+03 -0.33479561793E+03 -0.59331517263E+03  0.77477663030E+03  0.46999998093E+01 0.  1.
       -5    1    3    3    0  502  0.36897931786E+03  0.33479561793E+03  0.24994674976E+03  0.55743099170E+03  0.46999998093E+01 0. -1.
</event>
<event>
 5   0  0.1046253E-03  0.1305618E+04  0.7818609E-02  0.9025122E-01
        2   -1    0    0  501    0  0.00000000000E+00  0.00000000000E+00  0.12608993543E+04  0.12608993543E+04  0.25500000920E-02 0.  1.
       -2   -1    0    0    0  501  0.00000000000E+00  0.00000000000E+00 -0.33798041402E+03  0.33798041403E+03  0.25500000920E-02 0. -1.
    10030    2    1    2    0    0  0.00000000000E+00  0.00000000000E+00  0.92291894033E+03  0.15988797684E+04  0.13056175333E+04 0.  0.
        3    1    3    3  502    0 -0.80582191609E+02  0.50892591648E+03  0.95231533212E+03  0.10827758679E+04  0.10100000352E+00 0.  1.
       -3    1    3    3    0  502  0.80582191609E+02 -0.50892591648E+03 -0.29396391791E+02  0.51610390050E+03  0.10100000352E+00 0. -1.
</event>
<event>
 5   0  0.5563545E-04  0.1298184E+04  0.7818609E-02  0.9031006E-01
       -1   -1    0    0    0  501  0.00000000000E+00  0.00000000000E+00  0.37892785631E+03  0.37892785634E+03  0.50400001928E-02 0.  1.
        1   -1    0    0  501    0  0.00000000000E+00  0.00000000000E+00 -0.11118753425E+04  0.11118753425E+04  0.50400001928E-02 0. -1.
    10030    2    1    2    0    0  0.00000000000E+00  0.00000000000E+00 -0.73294748619E+03  0.14908031988E+04  0.12981841781E+04 0.  0.
        2    1    3    3  502    0  0.57031040817E+03  0.16434452133E+03 -0.64694549278E+02  0.59703305442E+03  0.25500000920E-02 0.  1.
       -2    1    3    3    0  502 -0.57031040817E+03 -0.16434452133E+03 -0.66825293691E+03  0.89377014442E+03  0.25500000920E-02 0. -1.
</event>
<event>
 5   0  0.5766027E-04  0.1262391E+04  0.7818609E-02  0.9059933E-01
        1   -1    0    0  501    0  0.00000000000E+00  0.00000000000E+00  0.59589347034E+03  0.59589347036E+03  0.50400001928E-02 0. -1.
       -1   -1    0    0    0  501  0.00000000000E+00  0.00000000000E+00 -0.66858851064E+03  0.66858851066E+03  0.50400001928E-02 0.  1.
    10030    2    1    2    0    0  0.00000000000E+00  0.00000000000E+00 -0.72695040303E+02  0.12644819810E+04  0.12623906335E+04 0.  0.
        3    1    3    3  502    0 -0.71122609978E+02  0.48299466857E+03 -0.43709186217E+03  0.65527977361E+03  0.10100000352E+00 0.  1.
       -3    1    3    3    0  502  0.71122609978E+02 -0.48299466857E+03  0.36439682187E+03  0.60920220741E+03  0.10100000352E+00 0. -1.
</event>
<event>
 5   0  0.4012375E-04  0.1305206E+04  0.7818609E-02  0.9025447E-01
        3   -1    0    0  501    0  0.00000000000E+00  0.00000000000E+00  0.66389761713E+03  0.66389762482E+03  0.10100000352E+00 0.  1.
       -3   -1    0    0    0  501  0.00000000000E+00  0.00000000000E+00 -0.64150039797E+03  0.64150040592E+03  0.10100000352E+00 0. -1.
    10030    2    1    2    0    0  0.00000000000E+00  0.00000000000E+00  0.22397219167E+02  0.13053980307E+04  0.13052058777E+04 0.  0.
        4    1    3    3  502    0  0.11821619193E+03 -0.14646500292E+03 -0.61376290461E+03  0.64197630882E+03  0.12699999809E+01 0. -1.
       -4    1    3    3    0  502 -0.11821619193E+03  0.14646500292E+03  0.63616012378E+03  0.66342172191E+03  0.12699999809E+01 0.  1.
</event>
<event>
 5   0  0.5563545E-04  0.1312119E+04  0.7818609E-02  0.9020009E-01
        1   -1    0    0  501    0  0.00000000000E+00  0.00000000000E+00  0.34449548999E+03  0.34449549003E+03  0.50400001928E-02 0.  1.
       -1   -1    0    0    0  501  0.00000000000E+00  0.00000000000E+00 -0.12494042121E+04  0.12494042121E+04  0.50400001928E-02 0. -1.
    10030    2    1    2    0    0  0.00000000000E+00  0.00000000000E+00 -0.90490872214E+03  0.15938997022E+04  0.13121190743E+04 0.  0.
        2    1    3    3  502    0 -0.94043590319E+02  0.56162821829E+02  0.33330887284E+03  0.35084649657E+03  0.25500000920E-02 0.  1.
       -2    1    3    3    0  502  0.94043590319E+02 -0.56162821829E+02 -0.12382175950E+04  0.12430532056E+04  0.25500000920E-02 0. -1.
</event>
<event>
 5   0  0.5710383E-04  0.1300848E+04  0.7818609E-02  0.9028893E-01
        1   -1    0    0  501    0  0.00000000000E+00  0.00000000000E+00  0.11469598709E+04  0.11469598709E+04  0.50400001928E-02 0.  1.
       -1   -1    0    0    0  501  0.00000000000E+00  0.00000000000E+00 -0.36884584158E+03  0.36884584161E+03  0.50400001928E-02 0. -1.
    10030    2    1    2    0    0  0.00000000000E+00  0.00000000000E+00  0.77811402932E+03  0.15158057125E+04  0.13008479986E+04 0.  0.
        1    1    3    3  502    0  0.24274057975E+03  0.22092408393E+03  0.10433818309E+04  0.10937897810E+04  0.50400001928E-02 0.  1.
       -1    1    3    3    0  502 -0.24274057975E+03 -0.22092408393E+03 -0.26526780156E+03  0.42201593155E+03  0.50400001928E-02 0. -1.
</event>
<event>
 5   0  0.1101619E-03  0.1294661E+04  0.7818609E-02  0.9033810E-01
        2   -1    0    0  501    0  0.00000000000E+00  0.00000000000E+00  0.84485236582E+03  0.84485236583E+03  0.25500000920E-02 0. -1.
       -2   -1    0    0    0  501  0.00000000000E+00  0.00000000000E+00 -0.49598786700E+03  0.49598786700E+03  0.25500000920E-02 0.  1.
    10030    2    1    2    0    0  0.00000000000E+00  0.00000000000E+00  0.34886449883E+03  0.13408402328E+04  0.12946606086E+04 0.  0.
        1    1    3    3  502    0 -0.21289227593E+03  0.18351230879E+03 -0.42949406447E+03  0.51328845698E+03  0.50400001928E-02 0.  1.
       -1    1    3    3    0  502  0.21289227593E+03 -0.18351230879E+03  0.77835856330E+03  0.82755177585E+03  0.50400001928E-02 0. -1.
</event>
<event>
 5   0  0.5766027E-04  0.1292169E+04  0.7818609E-02  0.9035798E-01
       -1   -1    0    0    0  501  0.00000000000E+00  0.00000000000E+00  0.29489369725E+03  0.29489369730E+03  0.50400001928E-02 0. -1.
        1   -1    0    0  501    0  0.00000000000E+00  0.00000000000E+00 -0.14155112901E+04  0.14155112901E+04  0.50400001928E-02 0.  1.
    10030    2    1    2    0    0  0.00000000000E+00  0.00000000000E+00 -0.11206175928E+04  0.17104049874E+04  0.12921692736E+04 0.  0.
        3    1    3    3  502    0 -0.48674880104E+03 -0.36521257636E+03 -0.27297577937E+03  0.66694857940E+03  0.10100000352E+00 0. -1.
       -3    1    3    3    0  502  0.48674880104E+03  0.36521257636E+03 -0.84764181345E+03  0.10434564080E+04  0.10100000352E+00 0.  1.
</event>
<event>
 5   0  0.1031295E-03  0.1297269E+04  0.7818609E-02  0.9031734E-01
       -2   -1    0    0    0  501  0.00000000000E+00  0.00000000000E+00  0.43921632034E+03  0.43921632034E+03  0.25500000920E-02 0. -1.
        2   -1    0    0  501    0  0.00000000000E+00  0.00000000000E+00 -0.95790270135E+03  0.95790270136E+03  0.25500000920E-02 0.  1.
    10030    2    1    2    0    0  0.00000000000E+00  0.00000000000E+00 -0.51868638102E+03  0.13971190217E+04  0.12972686688E+04 0.  0.
        2    1    3    3  502    0  0.22826197702E+03  0.43275259951E+03  0.19928426470E+03  0.52829211682E+03  0.25500000920E-02 0. -1.
       -2    1    3    3    0  502 -0.22826197702E+03 -0.43275259951E+03 -0.71797064571E+03  0.86882690488E+03  0.25500000920E-02 0.  1.
</event>
<event>
 5   0  0.5812938E-04  0.1297503E+04  0.7818609E-02  0.9031548E-01
       -1   -1    0    0    0  501  0.00000000000E+00  0.00000000000E+00  0.59091709075E+03  0.59091709077E+03  0.50400001928E-02 0.  1.
        1   -1    0    0  501    0  0.00000000000E+00  0.00000000000E+00 -0.71224630146E+03  0.71224630148E+03  0.50400001928E-02 0. -1.
    10030    2    1    2    0    0  0.00000000000E+00  0.00000000000E+00 -0.12132921071E+03  0.13031633922E+04  0.12975030056E+04 0.  0.
        5    1    3    3  502    0  0.46193733968E+03 -0.31882390084E+03  0.26605691129E+03  0.62116274484E+03  0.46999998093E+01 0.  1.
       -5    1    3    3    0  502 -0.46193733968E+03  0.31882390084E+03 -0.38738612200E+03  0.68200064740E+03  0.46999998093E+01 0. -1.
</event>
<event>
 5   0  0.1103241E-03  0.1309086E+04  0.7818609E-02  0.9022391E-01
       -2   -1    0    0    0  501  0.00000000000E+00  0.00000000000E+00  0.14537143977E+04  0.14537143977E+04  0.25500000920E-02 0.  1.
        2   -1    0    0  501    0  0.00000000000E+00  0.00000000000E+00 -0.29471152885E+03  0.29471152886E+03  0.25500000920E-02 0. -1.
    10030    2    1    2    0    0  0.00000000000E+00  0.00000000000E+00  0.11590028688E+04  0.17484259265E+04  0.13090857767E+04 0.  0.
        4    1    3    3  502    0  0.50609645624E+03  0.29899879973E+03  0.19496942774E+03  0.61931300318E+03  0.12699999809E+01 0.  1.
       -4    1    3    3    0  502 -0.50609645624E+03 -0.29899879973E+03  0.96403344109E+03  0.11291129234E+04  0.12699999809E+01 0. -1.
</event>
<event>
 5   0  0.1101619E-03  0.1297573E+04  0.7818609E-02  0.9031492E-01
       -2   -1    0    0    0  501  0.00000000000E+00  0.00000000000E+00  0.48473074873E+03  0.48473074874E+03  0.25500000920E-02 0.  1.
        2   -1    0    0  501    0  0.00000000000E+00  0.00000000000E+00 -0.86836647097E+03  0.86836647097E+03  0.25500000920E-02 0. -1.
    10030    2    1    2    0    0  0.00000000000E+00  0.00000000000E+00 -0.38363572224E+03  0.13530972197E+04  0.12975730109E+04 0.  0.
        1    1    3    3  502    0 -0.11176968665E+03 -0.52375468933E+03  0.19006644796E+03  0.56827519048E+03  0.50400001928E-02 0.  1.
       -1    1    3    3    0  502  0.11176968665E+03  0.52375468933E+03 -0.57370217020E+03  0.78482202923E+03  0.50400001928E-02 0. -1.
</event>
<event>
 5   0  0.1046253E-03  0.1263247E+04  0.7818609E-02  0.9059230E-01
       -2   -1    0    0    0  501  0.00000000000E+00  0.00000000000E+00  0.40510288458E+03  0.40510288459E+03  0.25500000920E-02 0.  1.
        2   -1    0    0  501    0  0.00000000000E+00  0.00000000000E+00 -0.98480674007E+03  0.98480674007E+03  0.25500000920E-02 0. -1.
    10030    2    1    2    0    0  0.00000000000E+00  0.00000000000E+00 -0.57970385549E+03  0.13899096247E+04  0.12632466919E+04 0.  0.
        3    1    3    3  502    0 -0.15574108017E+03 -0.33773599281E+03  0.27185298877E+03  0.46067878461E+03  0.10100000352E+00 0.  1.
       -3    1    3    3    0  502  0.15574108017E+03  0.33773599281E+03 -0.85155684426E+03  0.92923084004E+03  0.10100000352E+00 0. -1.
</event>
<event>
 5   0  0.6006119E-04  0.1304347E+04  0.7818609E-02  0.9026125E-01
       -1   -1    0    0    0  501  0.00000000000E+00  0.00000000000E+00  0.71241137837E+03  0.71241137838E+03  0.50400001928E-02 0.  1.
        1   -1    0    0  501    0  0.00000000000E+00  0.00000000000E+00 -0.59702915315E+03  0.59702915317E+03  0.50400001928E-02 0. -1.
    10030    2    1    2    0    0  0.00000000000E+00  0.00000000000E+00  0.11538222522E+03  0.13094405316E+04  0.13043471347E+04 0.  0.
        4    1    3    3  502    0 -0.12849180839E+03  0.28177926050E+03  0.63388274635E+03  0.70549177563E+03  0.12699999809E+01 0.  1.
       -4    1    3    3    0  502  0.12849180839E+03 -0.28177926050E+03 -0.51850052112E+03  0.60394875592E+03  0.12699999809E+01 0. -1.
</event>
<event>
 5   0  0.1103241E-03  0.1294909E+04  0.7818609E-02  0.9033612E-01
        2   -1    0    0  501    0  0.00000000000E+00  0.00000000000E+00  0.10018892522E+04  0.10018892522E+04  0.25500000920E-02 0. -1.
       -2   -1    0    0    0  501  0.00000000000E+00  0.00000000000E+00 -0.41840713603E+03  0.41840713604E+03  0.25500000920E-02 0.  1.
    10030    2    1    2    0    0  0.00000000000E+00  0.00000000000E+00  0.58348211617E+03  0.14202963883E+04  0.12949094372E+04 0.  0.
        4    1    3    3  502    0  0.27786941680E+03  0.58277196707E+03  0.34504095016E+03  0.73204470395E+03  0.12699999809E+01 0. -1.
       -4    1    3    3    0  502 -0.27786941680E+03 -0.58277196707E+03  0.23844116602E+03  0.68825168430E+03  0.12699999809E+01 0.  1.
</event>
<event>
 5   0  0.1103241E-03  0.1309531E+04  0.7818609E-02  0.9022041E-01
       -2   -1    0    0    0  501  0.00000000000E+00  0.00000000000E+00  0.54337149102E+03  0.54337149102E+03  0.25500000920E-02 0.  1.
        2   -1    0    0  501    0  0.00000000000E+00  0.00000000000E+00 -0.78899540769E+03  0.78899540769E+03  0.25500000920E-02 0. -1.
    10030    2    1    2    0    0  0.00000000000E+00  0.00000000000E+00 -0.24562391667E+03  0.13323668987E+04  0.13095306199E+04 0.  0.
        4    1    3    3  502    0  0.80900726961E+02 -0.30896664130E+03 -0.70436568898E+03  0.77339378700E+03  0.12699999809E+01 0. -1.
       -4    1    3    3    0  502 -0.80900726961E+02  0.30896664130E+03  0.45874177231E+03  0.55897311172E+03  0.12699999809E+01 0.  1.
</event>
<event>
 5   0  0.5563545E-04  0.1295401E+04  0.7818609E-02  0.9033220E-01
       -1   -1    0    0    0  501  0.00000000000E+00  0.00000000000E+00  0.40554554735E+03  0.40554554739E+03  0.50400001928E-02 0.  1.
        1   -1    0    0  501    0  0.00000000000E+00  0.00000000000E+00 -0.10344488604E+04  0.10344488604E+04  0.50400001928E-02 0. -1.
    10030    2    1    2    0    0  0.00000000000E+00  0.00000000000E+00 -0.62890331307E+03  0.14399944078E+04  0.12954012959E+04 0.  0.
        2    1    3    3  502    0 -0.52764476005E+03  0.13228505425E+03  0.76370717436E+02  0.54930939813E+03  0.25500000920E-02 0.  1.
       -2    1    3    3    0  502  0.52764476005E+03 -0.13228505425E+03 -0.70527403050E+03  0.89068500969E+03  0.25500000920E-02 0. -1.
</event>
<event>
 5   0  0.1101619E-03  0.1246621E+04  0.7818609E-02  0.9073000E-01
       -2   -1    0    0    0  501  0.00000000000E+00  0.00000000000E+00  0.55626496374E+03  0.55626496375E+03  0.25500000920E-02 0. -1.
        2   -1    0    0  501    0  0.00000000000E+00  0.00000000000E+00 -0.69843731516E+03  0.69843731516E+03  0.25500000920E-02 0.  1.
    10030    2    1    2    0    0  0.00000000000E+00  0.00000000000E+00 -0.14217235142E+03  0.12547022789E+04  0.12466213664E+04 0.  0.
        1    1    3    3  502    0  0.60730691494E+03  0.50563889295E+02 -0.20284624274E+03  0.64228108648E+03  0.50400001928E-02 0.  1.
       -1    1    3    3    0  502 -0.60730691494E+03 -0.50563889295E+02  0.60673891324E+02  0.61242119243E+03  0.50400001928E-02 0. -1.
</event>
<event>
 5   0  0.5766027E-04  0.1297932E+04  0.7818609E-02  0.9031206E-01
       -1   -1    0    0    0  501  0.00000000000E+00  0.00000000000E+00  0.18280619594E+03  0.18280619601E+03  0.50400001928E-02 0.  1.
        1   -1    0    0  501    0  0.00000000000E+00  0.00000000000E+00 -0.23038451541E+04  0.23038451541E+04  0.50400001928E-02 0. -1.
    10030    2    1    2    0    0  0.00000000000E+00  0.00000000000E+00 -0.21210389582E+04  0.24866513502E+04  0.12979324617E+04 0.  0.
        3    1    3    3  502    0 -0.13502025608E+03 -0.22323220184E+03 -0.21989538971E+04  0.22143760604E+04  0.10100000352E+00 0. -1.
       -3    1    3    3    0  502  0.13502025608E+03  0.22323220184E+03  0.77914938862E+02  0.27227528971E+03  0.10100000352E+00 0.  1.
</event>
<event>
 5   0  0.5812938E-04  0.1289480E+04  0.7818609E-02  0.9037950E-01
        1   -1    0    0  501    0  0.00000000000E+00  0.00000000000E+00  0.72375597849E+03  0.72375597850E+03  0.50400001928E-02 0.  1.
       -1   -1    0    0    0  501  0.00000000000E+00  0.00000000000E+00 -0.57435026586E+03  0.57435026588E+03  0.50400001928E-02 0. -1.
    10030    2    1    2    0    0  0.00000000000E+00  0.00000000000E+00  0.14940571263E+03  0.12981062444E+04  0.12894796449E+04 0.  0.
        5    1    3    3  502    0 -0.29689312575E+02 -0.30511292949E+03 -0.49627054103E+03  0.58333686230E+03  0.46999998093E+01 0. -1.
       -5    1    3    3    0  502  0.29689312575E+02  0.30511292949E+03  0.64567625366E+03  0.71476938208E+03  0.46999998093E+01 0.  1.
</event>
<event>
 5   0  0.5812938E-04  0.1283172E+04  0.7818609E-02  0.9043017E-01
       -1   -1    0    0    0  501  0.00000000000E+00  0.00000000000E+00  0.28324419761E+03  0.28324419766E+03  0.50400001928E-02 0.  1.
        1   -1    0    0  501    0  0.00000000000E+00  0.00000000000E+00 -0.14532785191E+04  0.14532785191E+04  0.50400001928E-02 0. -1.
    10030    2    1    2    0    0  0.00000000000E+00  0.00000000000E+00 -0.11700343215E+04  0.17365227168E+04  0.12831721757E+04 0.  0.
        5    1    3    3  502    0  0.25783094097E+03 -0.29280964196E+03  0.10423391912E+03  0.40385774778E+03  0.46999998093E+01 0.  1.
       -5    1    3    3    0  502 -0.25783094097E+03  0.29280964196E+03 -0.12742682406E+04  0.13326649690E+04  0.46999998093E+01 0. -1.
</event>
<event>
 5   0  0.5563545E-04  0.1296243E+04  0.7818609E-02  0.9032549E-01
       -1   -1    0    0    0  501  0.00000000000E+00  0.00000000000E+00  0.38545830755E+03  0.38545830758E+03  0.50400001928E-02 0.  1.
        1   -1    0    0  501    0  0.00000000000E+00  0.00000000000E+00 -0.10897721693E+04  0.10897721693E+04  0.50400001928E-02 0. -1.
    10030    2    1    2    0    0  0.00000000000E+00  0.00000000000E+00 -0.70431386178E+03  0.14752304769E+04  0.12962433969E+04 0.  0.
        2    1    3    3  502    0 -0.87765460102E+02  0.82770586023E+02 -0.10768815702E+04  0.10836178580E+04  0.25500000920E-02 0. -1.
       -2    1    3    3    0  502  0.87765460102E+02 -0.82770586023E+02  0.37256770845E+03  0.39161261890E+03  0.25500000920E-02 0.  1.
</event>
<event>
 5   0  0.1046253E-03  0.1294026E+04  0.7818609E-02  0.9034316E-01
       -2   -1    0    0    0  501  0.00000000000E+00  0.00000000000E+00  0.48664191581E+03  0.48664191582E+03  0.25500000920E-02 0. -1.
        2   -1    0    0  501    0  0.00000000000E+00  0.00000000000E+00 -0.86023346031E+03  0.86023346031E+03  0.25500000920E-02 0.  1.
    10030    2    1    2    0    0  0.00000000000E+00  0.00000000000E+00 -0.37359154450E+03  0.13468753761E+04  0.12940257481E+04 0.  0.
        3    1    3    3  502    0 -0.38488634699E+03  0.48445993901E+03 -0.38369563838E+03  0.72805307892E+03  0.10100000352E+00 0. -1.
       -3    1    3    3    0  502  0.38488634699E+03 -0.48445993901E+03  0.10104093877E+02  0.61882229721E+03  0.10100000352E+00 0.  1.
</event>
<event>
 5   0  0.1081574E-03  0.1312408E+04  0.7818609E-02  0.9019783E-01
        2   -1    0    0  501    0  0.00000000000E+00  0.00000000000E+00  0.16371595206E+04  0.16371595206E+04  0.25500000920E-02 0. -1.
       -2   -1    0    0    0  501  0.00000000000E+00  0.00000000000E+00 -0.26301874484E+03  0.26301874486E+03  0.25500000920E-02 0.  1.
    10030    2    1    2    0    0  0.00000000000E+00  0.00000000000E+00  0.13741407757E+04  0.19001782654E+04  0.13124079278E+04 0.  0.
        5    1    3    3  502    0 -0.71443952432E+02  0.37718231832E+03 -0.83443402896E+02  0.39288119207E+03  0.46999998093E+01 0.  1.
       -5    1    3    3    0  502  0.71443952432E+02 -0.37718231832E+03  0.14575841786E+04  0.15072970734E+04  0.46999998093E+01 0. -1.
</event>
<event>
 5   0  0.1031295E-03  0.1243337E+04  0.7818609E-02  0.9075747E-01
        2   -1    0    0  501    0  0.00000000000E+00  0.00000000000E+00  0.69279213184E+03  0.69279213184E+03  0.25500000920E-02 0. -1.
       -2   -1    0    0    0  501  0.00000000000E+00  0.00000000000E+00 -0.55784692524E+03  0.55784692525E+03  0.25500000920E-02 0.  1.
    10030    2    1    2    0    0  0.00000000000E+00  0.00000000000E+00  0.13494520660E+03  0.12506390571E+04  0.12433373807E+04 0.  0.
        2    1    3    3  502    0  0.22868762346E+03  0.39921893290E+03  0.48801660575E+03  0.67069664753E+03  0.25500000920E-02 0.  1.
       -2    1    3    3    0  502 -0.22868762346E+03 -0.39921893290E+03 -0.35307139915E+03  0.57994240956E+03  0.25500000920E-02 0. -1.
</event>
<event>
 5   0  0.5563545E-04  0.1293767E+04  0.7818609E-02  0.9034523E-01
        1   -1    0    0  501    0  0.00000000000E+00  0.00000000000E+00  0.10199002885E+04  0.10199002885E+04  0.50400001928E-02 0. -1.
       -1   -1    0    0    0  501  0.00000000000E+00  0.00000000000E+00 -0.41029308176E+03  0.41029308179E+03  0.50400001928E-02 0.  1.
    10030    2    1    2    0    0  0.00000000000E+00  0.00000000000E+00  0.60960720670E+03  0.14301933703E+04  0.12937666443E+04 0.  0.
        2    1    3    3  502    0 -0.61083105872E+03 -0.66499887558E+02  0.81182353149E+02  0.61978011569E+03  0.25500000920E-02 0.  1.
       -2    1    3    3    0  502  0.61083105872E+03  0.66499887558E+02  0.52842485355E+03  0.81041325458E+03  0.25500000920E-02 0. -1.
</event>
<event>
 5   0  0.1101619E-03  0.1292536E+04  0.7818609E-02  0.9035505E-01
        2   -1    0    0  501    0  0.00000000000E+00  0.00000000000E+00  0.13402527150E+04  0.13402527150E+04  0.25500000920E-02 0. -1.
       -2   -1    0    0    0  501  0.00000000000E+00  0.00000000000E+00 -0.31162954546E+03  0.31162954547E+03  0.25500000920E-02 0.  1.
    10030    2    1    2    0    0  0.00000000000E+00  0.00000000000E+00  0.10286231695E+04  0.16518822605E+04  0.12925360256E+04 0.  0.
        1    1    3    3  502    0  0.25813979451E+03 -0.57761006724E+01 -0.24284473846E+03  0.35446168181E+03  0.50400001928E-02 0.  1.
       -1    1    3    3    0  502 -0.25813979451E+03  0.57761006724E+01  0.12714679080E+04  0.12974205787E+04  0.50400001928E-02 0. -1.
</event>
<event>
 5   0  0.4012375E-04  0.1288191E+04  0.7818609E-02  0.9038983E-01
       -3   -1    0    0    0  501  0.00000000000E+00  0.00000000000E+00  0.13320751503E+04  0.13320751541E+04  0.10100000352E+00 0. -1.
        3   -1    0    0  501    0  0.00000000000E+00  0.00000000000E+00 -0.31143809872E+03  0.31143811510E+03  0.10100000352E+00 0.  1.
    10030    2    1    2    0    0  0.00000000000E+00  0.00000000000E+00  0.10206370516E+04  0.16435132692E+04  0.12881909311E+04 0.  0.
        4    1    3    3  502    0 -0.18129916657E+03 -0.25381615229E+03  0.12292864542E+04  0.12682424163E+04  0.12699999809E+01 0. -1.
       -4    1    3    3    0  502  0.18129916657E+03  0.25381615229E+03 -0.20864940265E+03  0.37527085296E+03  0.12699999809E+01 0.  1.
</event>
<event>
 5   0  0.5563545E-04  0.1295478E+04  0.7818609E-02  0.9033159E-01
       -1   -1    0    0    0  501  0.00000000000E+00  0.00000000000E+00  0.31395909314E+03  0.31395909318E+03  0.50400001928E-02 0. -1.
        1   -1    0    0  501    0  0.00000000000E+00  0.00000000000E+00 -0.13363714081E+04  0.13363714081E+04  0.50400001928E-02 0.  1.
    10030    2    1    2    0    0  0.00000000000E+00  0.00000000000E+00 -0.10224123150E+04  0.16503305013E+04  0.12954782212E+04 0.  0.
        2    1    3    3  502    0  0.40480683786E+03  0.49784809185E+03 -0.39837532656E+03  0.75526432416E+03  0.25500000920E-02 0. -1.
       -2    1    3    3    0  502 -0.40480683786E+03 -0.49784809185E+03 -0.62403698842E+03  0.89506617714E+03  0.25500000920E-02 0.  1.
</event>
<event>
 5   0  0.5710383E-04  0.1298000E+04  0.7818609E-02  0.9031153E-01
       -1   -1    0    0    0  501  0.00000000000E+00  0.00000000000E+00  0.11278815104E+04  0.11278815104E+04  0.50400001928E-02 0. -1.
        1   -1    0    0  501    0  0.00000000000E+00  0.00000000000E+00 -0.37344439604E+03  0.37344439607E+03  0.50400001928E-02 0.  1.
    10030    2    1    2    0    0  0.00000000000E+00  0.00000000000E+00  0.75443711434E+03  0.15013259065E+04  0.12980000454E+04 0.  0.
        1    1    3    3  502    0 -0.27396787674E+03 -0.70361826079E+02 -0.29839692395E+03  0.41115679285E+03  0.50400001928E-02 0.  1.
       -1    1    3    3    0  502  0.27396787674E+03  0.70361826079E+02  0.10528340383E+04  0.10901691136E+04  0.50400001928E-02 0. -1.
</event>
<event>
 5   0  0.5766027E-04  0.1296543E+04  0.7818609E-02  0.9032311E-01
       -1   -1    0    0    0  501  0.00000000000E+00  0.00000000000E+00  0.96856886602E+03  0.96856886603E+03  0.50400001928E-02 0.  1.
        1   -1    0    0  501    0  0.00000000000E+00  0.00000000000E+00 -0.43389375800E+03  0.43389375803E+03  0.50400001928E-02 0. -1.
    10030    2    1    2    0    0  0.00000000000E+00  0.00000000000E+00  0.53467510802E+03  0.14024626241E+04  0.12965430732E+04 0.  0.
        3    1    3    3  502    0 -0.45146383817E+03  0.44306502991E+03  0.42080759666E+03  0.75974025924E+03  0.10100000352E+00 0. -1.
       -3    1    3    3    0  502  0.45146383817E+03 -0.44306502991E+03  0.11386751136E+03  0.64272236483E+03  0.10100000352E+00 0.  1.
</event>
<event>
 5   0  0.5563545E-04  0.1296901E+04  0.7818609E-02  0.9032026E-01
       -1   -1    0    0    0  501  0.00000000000E+00  0.00000000000E+00  0.41260314117E+03  0.41260314120E+03  0.50400001928E-02 0.  1.
        1   -1    0    0  501    0  0.00000000000E+00  0.00000000000E+00 -0.10191101516E+04  0.10191101516E+04  0.50400001928E-02 0. -1.
    10030    2    1    2    0    0  0.00000000000E+00  0.00000000000E+00 -0.60650701045E+03  0.14317132928E+04  0.12969009982E+04 0.  0.
        2    1    3    3  502    0 -0.68750374889E+02  0.34011173694E+03  0.30149067321E+03  0.45967296384E+03  0.25500000920E-02 0.  1.
       -2    1    3    3    0  502  0.68750374889E+02 -0.34011173694E+03 -0.90799768366E+03  0.97204032899E+03  0.25500000920E-02 0. -1.
</event>
<event>
 5   0  0.5766027E-04  0.1304727E+04  0.7818609E-02  0.9025825E-01
       -1   -1    0    0    0  501  0.00000000000E+00  0.00000000000E+00  0.36285440654E+03  0.36285440658E+03  0.50400001928E-02 0. -1.
        1   -1    0    0  501    0  0.00000000000E+00  0.00000000000E+00 -0.11728616750E+04  0.11728616750E+04  0.50400001928E-02 0.  1.
    10030    2    1    2    0    0  0.00000000000E+00  0.00000000000E+00 -0.81000726847E+03  0.15357160816E+04  0.13047268328E+04 0.  0.
        3    1    3    3  502    0 -0.48966937814E+03 -0.42746213367E+03 -0.47030594604E+03  0.80230148242E+03  0.10100000352E+00 0. -1.
       -3    1    3    3    0  502  0.48966937814E+03  0.42746213367E+03 -0.33970132242E+03  0.73341459917E+03  0.10100000352E+00 0.  1.
</event>
<event>
 5   0  0.6006119E-04  0.1305040E+04  0.7818609E-02  0.9025578E-01
       -1   -1    0    0    0  501  0.00000000000E+00  0.00000000000E+00  0.12322341764E+04  0.12322341764E+04  0.50400001928E-02 0. -1.
        1   -1    0    0  501    0  0.00000000000E+00  0.00000000000E+00 -0.34553692762E+03  0.34553692766E+03  0.50400001928E-02 0.  1.
    10030    2    1    2    0    0  0.00000000000E+00  0.00000000000E+00  0.88669724874E+03  0.15777711040E+04  0.13050400936E+04 0.  0.
        4    1    3    3  502    0  0.53688414535E+03 -0.60090814230E+02  0.91159366138E+00  0.54023877627E+03  0.12699999809E+01 0. -1.
       -4    1    3    3    0  502 -0.53688414535E+03  0.60090814230E+02  0.88578565508E+03  0.10375323277E+04  0.12699999809E+01 0.  1.
</event>
<event>
 5   0  0.5563545E-04  0.1297812E+04  0.7818609E-02  0.9031302E-01
       -1   -1    0    0    0  501  0.00000000000E+00  0.00000000000E+00  0.31478500436E+03  0.31478500440E+03  0.50400001928E-02 0.  1.
        1   -1    0    0  501    0  0.00000000000E+00  0.00000000000E+00 -0.13376711245E+04  0.13376711245E+04  0.50400001928E-02 0. -1.
    10030    2    1    2    0    0  0.00000000000E+00  0.00000000000E+00 -0.10228861202E+04  0.16524561289E+04  0.12978117133E+04 0.  0.
        2    1    3    3  502    0 -0.55573068345E+03  0.31883491872E+03 -0.64245012410E+03  0.90732268785E+03  0.25500000920E-02 0.  1.
       -2    1    3    3    0  502  0.55573068345E+03 -0.31883491872E+03 -0.38043599607E+03  0.74513344109E+03  0.25500000920E-02 0. -1.
</event>
<event>
 5   0  0.1031295E-03  0.1297338E+04  0.7818609E-02  0.9031679E-01
       -2   -1    0    0    0  501  0.00000000000E+00  0.00000000000E+00  0.41194138078E+03  0.41194138078E+03  0.25500000920E-02 0. -1.
        2   -1    0    0  501    0  0.00000000000E+00  0.00000000000E+00 -0.10214350973E+04  0.10214350973E+04  0.25500000920E-02 0.  1.
    10030    2    1    2    0    0  0.00000000000E+00  0.00000000000E+00 -0.60949371651E+03  0.14333764781E+04  0.12973378656E+04 0.  0.
        2    1    3    3  502    0 -0.31430140024E+03  0.13453461975E+03 -0.91381074177E+03  0.97567156661E+03  0.25500000920E-02 0.  1.
       -2    1    3    3    0  502  0.31430140024E+03 -0.13453461975E+03  0.30431702527E+03  0.45770491146E+03  0.25500000920E-02 0. -1.
</event>
<event>
 5   0  0.5563545E-04  0.1308624E+04  0.7818609E-02  0.9022754E-01
        1   -1    0    0  501    0  0.00000000000E+00  0.00000000000E+00  0.67357849437E+03  0.67357849439E+03  0.50400001928E-02 0.  1.
       -1   -1    0    0    0  501  0.00000000000E+00  0.00000000000E+00 -0.63559672401E+03  0.63559672403E+03  0.50400001928E-02 0. -1.
    10030    2    1    2    0    0  0.00000000000E+00  0.00000000000E+00  0.37981770359E+02  0.13091752184E+04  0.13086241392E+04 0.  0.
        2    1    3    3  502    0 -0.32822510082E+03 -0.26563794663E+03 -0.48104861922E+03  0.64008047116E+03  0.25500000920E-02 0. -1.
       -2    1    3    3    0  502  0.32822510082E+03  0.26563794663E+03  0.51903038958E+03  0.66909474726E+03  0.25500000920E-02 0.  1.
</event>
<event>
 5   0  0.5812938E-04  0.1296529E+04  0.7818609E-02  0.9032322E-01
       -1   -1    0    0    0  501  0.00000000000E+00  0.00000000000E+00  0.19930159235E+03  0.19930159242E+03  0.50400001928E-02 0. -1.
        1   -1    0    0  501    0  0.00000000000E+00  0.00000000000E+00 -0.21085966901E+04  0.21085966902E+04  0.50400001928E-02 0.  1.
    10030    2    1    2    0    0  0.00000000000E+00  0.00000000000E+00 -0.19092950978E+04  0.23078982826E+04  0.12965287163E+04 0.  0.
        5    1    3    3  502    0  0.29384589021E+03 -0.57746552677E+03 -0.91848357942E+03  0.11240311461E+04  0.46999998093E+01 0. -1.
       -5    1    3    3    0  502 -0.29384589021E+03  0.57746552677E+03 -0.99081151838E+03  0.11838671364E+04  0.46999998093E+01 0.  1.
</event>
<event>
 5   0  0.4012375E-04  0.1295265E+04  0.7818609E-02  0.9033328E-01
        3   -1    0    0  501    0  0.00000000000E+00  0.00000000000E+00  0.81478912036E+03  0.81478912662E+03  0.10100000352E+00 0.  1.
       -3   -1    0    0    0  501  0.00000000000E+00  0.00000000000E+00 -0.51476870238E+03  0.51476871229E+03  0.10100000352E+00 0. -1.
    10030    2    1    2    0    0  0.00000000000E+00  0.00000000000E+00  0.30002041798E+03  0.13295578389E+04  0.12952651450E+04 0.  0.
        2    1    3    3  502    0 -0.59996477021E+02  0.49146166258E+02  0.81000519186E+03  0.81370961267E+03  0.25500000920E-02 0.  1.
       -2    1    3    3    0  502  0.59996477021E+02 -0.49146166258E+02 -0.50998477388E+03  0.51584822623E+03  0.25500000920E-02 0. -1.
</event>
<event>
 5   0  0.1046253E-03  0.1293275E+04  0.7818609E-02  0.9034915E-01
        2   -1    0    0  501    0  0.00000000000E+00  0.00000000000E+00  0.12091761615E+04  0.12091761615E+04  0.25500000920E-02 0.  1.
       -2   -1    0    0    0  501  0.00000000000E+00  0.00000000000E+00 -0.34580592743E+03  0.34580592744E+03  0.25500000920E-02 0. -1.
    10030    2    1    2    0    0  0.00000000000E+00  0.00000000000E+00  0.86337023408E+03  0.15549820889E+04  0.12932753519E+04 0.  0.
        3    1    3    3  502    0  0.13623645457E+03  0.36648729023E+03  0.10509493219E+04  0.11213241248E+04  0.10100000352E+00 0.  1.
       -3    1    3    3    0  502 -0.13623645457E+03 -0.36648729023E+03 -0.18757908784E+03  0.43365796412E+03  0.10100000352E+00 0. -1.
</event>
<event>
 5   0  0.1046253E-03  0.1297380E+04  0.7818609E-02  0.9031645E-01
       -2   -1    0    0    0  501  0.00000000000E+00  0.00000000000E+00  0.41741432590E+03  0.41741432591E+03  0.25500000920E-02 0. -1.
        2   -1    0    0  501    0  0.00000000000E+00  0.00000000000E+00 -0.10081085513E+04  0.10081085513E+04  0.25500000920E-02 0.  1.
    10030    2    1    2    0    0  0.00000000000E+00  0.00000000000E+00 -0.59069422541E+03  0.14255228772E+04  0.12973803627E+04 0.  0.
        3    1    3    3  502    0  0.58196482288E+03 -0.28598044825E+03 -0.27535464727E+03  0.70447715635E+03  0.10100000352E+00 0. -1.
       -3    1    3    3    0  502 -0.58196482288E+03  0.28598044825E+03 -0.31533957815E+03  0.72104572088E+03  0.10100000352E+00 0.  1.
</event>
<event>
 5   0  0.1103241E-03  0.1299300E+04  0.7818609E-02  0.9030120E-01
        2   -1    0    0  501    0  0.00000000000E+00  0.00000000000E+00  0.49086201789E+03  0.49086201790E+03  0.25500000920E-02 0.  1.
       -2   -1    0    0    0  501  0.00000000000E+00  0.00000000000E+00 -0.85980451756E+03  0.85980451756E+03  0.25500000920E-02 0. -1.
    10030    2    1    2    0    0  0.00000000000E+00  0.00000000000E+00 -0.36894249966E+03  0.13506665355E+04  0.12993003971E+04 0.  0.
        4    1    3    3  502    0 -0.22597514267E+03  0.24671815024E+03  0.39441850522E+03  0.51720613002E+03  0.12699999809E+01 0.  1.
       -4    1    3    3    0  502  0.22597514267E+03 -0.24671815024E+03 -0.76336100488E+03  0.83346040544E+03  0.12699999809E+01 0. -1.
</event>
<event>
 5   0  0.1046253E-03  0.1305494E+04  0.7818609E-02  0.9025220E-01
       -2   -1    0    0    0  501  0.00000000000E+00  0.00000000000E+00  0.19352645389E+03  0.19352645391E+03  0.25500000920E-02 0.  1.
        2   -1    0    0  501    0  0.00000000000E+00  0.00000000000E+00 -0.22016558135E+04  0.22016558135E+04  0.25500000920E-02 0. -1.
    10030    2    1    2    0    0  0.00000000000E+00  0.00000000000E+00 -0.20081293596E+04  0.23951822674E+04  0.13054939943E+04 0.  0.
        3    1    3    3  502    0  0.24165243452E+03 -0.43304315356E+03 -0.17827975182E+04  0.18504835242E+04  0.10100000352E+00 0. -1.
       -3    1    3    3    0  502 -0.24165243452E+03  0.43304315356E+03 -0.22533184136E+03  0.54469874324E+03  0.10100000352E+00 0.  1.
</event>
<event>
 5   0  0.1101619E-03  0.1303186E+04  0.7818609E-02  0.9027043E-01
       -2   -1    0    0    0  501  0.00000000000E+00  0.00000000000E+00  0.28217344134E+03  0.28217344135E+03  0.25500000920E-02 0. -1.
        2   -1    0    0  501    0  0.00000000000E+00  0.00000000000E+00 -0.15046533171E+04  0.15046533171E+04  0.25500000920E-02 0.  1.
    10030    2    1    2    0    0  0.00000000000E+00  0.00000000000E+00 -0.12224798757E+04  0.17868267584E+04  0.13031856422E+04 0.  0.
        1    1    3    3  502    0 -0.41315741925E+03 -0.49163843506E+03 -0.46000695867E+03  0.78994544493E+03  0.50400001928E-02 0.  1.
       -1    1    3    3    0  502  0.41315741925E+03  0.49163843506E+03 -0.76247291705E+03  0.99688131348E+03  0.50400001928E-02 0. -1.
</event>
<event>
 5   0  0.1081574E-03  0.1299479E+04  0.7818609E-02  0.9029979E-01
       -2   -1    0    0    0  501  0.00000000000E+00  0.00000000000E+00  0.23286051242E+03  0.23286051243E+03  0.25500000920E-02 0.  1.
        2   -1    0    0  501    0  0.00000000000E+00  0.00000000000E+00 -0.18129364541E+04  0.18129364541E+04  0.25500000920E-02 0. -1.
    10030    2    1    2    0    0  0.00000000000E+00  0.00000000000E+00 -0.15800759417E+04  0.20457969665E+04  0.12994788366E+04 0.  0.
        5    1    3    3  502    0 -0.32288814052E+03  0.22695001456E+03  0.22495008726E+02  0.39533678783E+03  0.46999998093E+01 0.  1.
       -5    1    3    3    0  502  0.32288814052E+03 -0.22695001456E+03 -0.16025709504E+04  0.16504601787E+04  0.46999998093E+01 0. -1.
</event>
<event>
 5   0  0.1081574E-03  0.1299222E+04  0.7818609E-02  0.9030182E-01
       -2   -1    0    0    0  501  0.00000000000E+00  0.00000000000E+00  0.54723190493E+03  0.54723190494E+03  0.25500000920E-02 0.  1.
        2   -1    0    0  501    0  0.00000000000E+00  0.00000000000E+00 -0.77114416494E+03  0.77114416494E+03  0.25500000920E-02 0. -1.
    10030    2    1    2    0    0  0.00000000000E+00  0.00000000000E+00 -0.22391226001E+03  0.13183760699E+04  0.12992223680E+04 0.  0.
        5    1    3    3  502    0 -0.37725709001E+03  0.42897695942E+03 -0.42575356979E+03  0.71248321795E+03  0.46999998093E+01 0. -1.
       -5    1    3    3    0  502  0.37725709001E+03 -0.42897695942E+03  0.20184130978E+03  0.60589285192E+03  0.46999998093E+01 0.  1.
</event>
<event>
 5   0  0.5766027E-04  0.1309656E+04  0.7818609E-02  0.9021943E-01
       -1   -1    0    0    0  501  0.00000000000E+00  0.00000000000E+00  0.70153692329E+03  0.70153692331E+03  0.50400001928E-02 0.  1.
        1   -1    0    0  501    0  0.00000000000E+00  0.00000000000E+00 -0.61122904778E+03  0.61122904781E+03  0.50400001928E-02 0. -1.
    10030    2    1    2    0    0  0.00000000000E+00  0.00000000000E+00  0.90307875508E+02  0.13127659711E+04  0.13096560551E+04 0.  0.
        3    1    3    3  502    0 -0.18200739204E+03  0.56701111601E+03 -0.22783711155E+03  0.63760336890E+03  0.10100000352E+00 0. -1.
       -3    1    3    3    0  502  0.18200739204E+03 -0.56701111601E+03  0.31814498706E+03  0.67516260221E+03  0.10100000352E+00 0.  1.
</event>
<event>
 5   0  0.5710383E-04  0.1285010E+04  0.7818609E-02  0.9041538E-01
       -1   -1    0    0    0  501  0.00000000000E+00  0.00000000000E+00  0.66438475562E+03  0.66438475564E+03  0.50400001928E-02 0.  1.
        1   -1    0    0  501    0  0.00000000000E+00  0.00000000000E+00 -0.62134561174E+03  0.62134561176E+03  0.50400001928E-02 0. -1.
    10030    2    1    2    0    0  0.00000000000E+00  0.00000000000E+00  0.43039143882E+02  0.12857303674E+04  0.12850098092E+04 0.  0.
        1    1    3    3  502    0  0.20418240460E+03  0.60919326247E+03  0.19137686657E+02  0.64278545135E+03  0.50400001928E-02 0. -1.
       -1    1    3    3    0  502 -0.20418240460E+03 -0.60919326247E+03  0.23901457226E+02  0.64294491605E+03  0.50400001928E-02 0.  1.
</event>
<event>
 5   0  0.5766027E-04  0.1298512E+04  0.7818609E-02  0.9030746E-01
       -1   -1    0    0    0  501  0.00000000000E+00  0.00000000000E+00  0.36071151597E+03  0.36071151600E+03  0.50400001928E-02 0. -1.
        1   -1    0    0  501    0  0.00000000000E+00  0.00000000000E+00 -0.11686161928E+04  0.11686161928E+04  0.50400001928E-02 0.  1.
    10030    2    1    2    0    0  0.00000000000E+00  0.00000000000E+00 -0.80790467685E+03  0.15293277088E+04  0.12985119461E+04 0.  0.
        3    1    3    3  502    0  0.40711444326E+03 -0.30246361513E+03  0.73447764946E+02  0.51246560154E+03  0.10100000352E+00 0. -1.
       -3    1    3    3    0  502 -0.40711444326E+03  0.30246361513E+03 -0.88135244179E+03  0.10168621073E+04  0.10100000352E+00 0.  1.
</event>
<event>
 5   0  0.5710383E-04  0.1313812E+04  0.7818609E-02  0.9018683E-01
       -1   -1    0    0    0  501  0.00000000000E+00  0.00000000000E+00  0.11041031997E+04  0.11041031997E+04  0.50400001928E-02 0.  1.
        1   -1    0    0  501    0  0.00000000000E+00  0.00000000000E+00 -0.39083810362E+03  0.39083810365E+03  0.50400001928E-02 0. -1.
    10030    2    1    2    0    0  0.00000000000E+00  0.00000000000E+00  0.71326509606E+03  0.14949413033E+04  0.13138121643E+04 0.  0.
        1    1    3    3  502    0 -0.28228652762E+03 -0.39745986482E+03 -0.14437147008E+03  0.50843204975E+03  0.50400001928E-02 0. -1.
       -1    1    3    3    0  502  0.28228652762E+03  0.39745986482E+03  0.85763656614E+03  0.98650925359E+03  0.50400001928E-02 0.  1.
</event>
<event>
 5   0  0.6006119E-04  0.1295147E+04  0.7818609E-02  0.9033422E-01
        1   -1    0    0  501    0  0.00000000000E+00  0.00000000000E+00  0.37389886259E+03  0.37389886263E+03  0.50400001928E-02 0. -1.
       -1   -1    0    0    0  501  0.00000000000E+00  0.00000000000E+00 -0.11215645173E+04  0.11215645173E+04  0.50400001928E-02 0.  1.
    10030    2    1    2    0    0  0.00000000000E+00  0.00000000000E+00 -0.74766565473E+03  0.14954633800E+04  0.12951474007E+04 0.  0.
        4    1    3    3  502    0  0.19807336132E+03  0.15082914078E+03  0.31642949966E+03  0.40263100642E+03  0.12699999809E+01 0. -1.
       -4    1    3    3    0  502 -0.19807336132E+03 -0.15082914078E+03 -0.10640951544E+04  0.10928323735E+04  0.12699999809E+01 0.  1.
</event>
<event>
 5   0  0.1103241E-03  0.1317983E+04  0.7818609E-02  0.9015425E-01
       -2   -1    0    0    0  501  0.00000000000E+00  0.00000000000E+00  0.27454656246E+03  0.27454656247E+03  0.25500000920E-02 0. -1.
        2   -1    0    0  501    0  0.00000000000E+00  0.00000000000E+00 -0.15817713800E+04  0.15817713800E+04  0.25500000920E-02 0.  1.
    10030    2    1    2    0    0  0.00000000000E+00  0.00000000000E+00 -0.13072248175E+04  0.18563179425E+04  0.13179831486E+04 0.  0.
        4    1    3    3  502    0  0.41615729038E+03 -0.49860451348E+03 -0.49630050790E+03  0.81737944569E+03  0.12699999809E+01 0.  1.
       -4    1    3    3    0  502 -0.41615729038E+03  0.49860451348E+03 -0.81092430965E+03  0.10389384968E+04  0.12699999809E+01 0. -1.
</event>
<event>
 5   0  0.1081574E-03  0.1300673E+04  0.7818609E-02  0.9029031E-01
        2   -1    0    0  501    0  0.00000000000E+00  0.00000000000E+00  0.23062704316E+04  0.23062704316E+04  0.25500000920E-02 0.  1.
       -2   -1    0    0    0  501  0.00000000000E+00  0.00000000000E+00 -0.18338607662E+03  0.18338607664E+03  0.25500000920E-02 0. -1.
    10030    2    1    2    0    0  0.00000000000E+00  0.00000000000E+00  0.21228843550E+04  0.24896565082E+04  0.13006734965E+04 0.  0.
        5    1    3    3  502    0 -0.15125957212E+03  0.54053394850E+03  0.16900794377E+04  0.17808556942E+04  0.46999998093E+01 0.  1.
       -5    1    3    3    0  502  0.15125957212E+03 -0.54053394850E+03  0.43280491725E+03  0.70880081407E+03  0.46999998093E+01 0. -1.
</event>
<event>
 5   0  0.5710383E-04  0.1297823E+04  0.7818609E-02  0.9031294E-01
       -1   -1    0    0    0  501  0.00000000000E+00  0.00000000000E+00  0.33591704171E+03  0.33591704175E+03  0.50400001928E-02 0.  1.
        1   -1    0    0  501    0  0.00000000000E+00  0.00000000000E+00 -0.12535412348E+04  0.12535412348E+04  0.50400001928E-02 0. -1.
    10030    2    1    2    0    0  0.00000000000E+00  0.00000000000E+00 -0.91762419313E+03  0.15894582766E+04  0.12978225816E+04 0.  0.
        1    1    3    3  502    0  0.39553949502E+03 -0.37984117674E+03 -0.88369178256E+03  0.10400201817E+04  0.50400001928E-02 0. -1.
       -1    1    3    3    0  502 -0.39553949502E+03  0.37984117674E+03 -0.33932410565E+02  0.54943809494E+03  0.50400001928E-02 0.  1.
</event>
<event>
 5   0  0.1046253E-03  0.1306548E+04  0.7818609E-02  0.9024389E-01
        2   -1    0    0  501    0  0.00000000000E+00  0.00000000000E+00  0.74887570127E+03  0.74887570127E+03  0.25500000920E-02 0. -1.
       -2   -1    0    0    0  501  0.00000000000E+00  0.00000000000E+00 -0.56987641519E+03  0.56987641520E+03  0.25500000920E-02 0.  1.
    10030    2    1    2    0    0  0.00000000000E+00  0.00000000000E+00  0.17899928608E+03  0.13187521165E+04  0.13065475117E+04 0.  0.
        3    1    3    3  502    0  0.22019285230E+02 -0.19892666442E+03  0.71716855762E+03  0.74457196898E+03  0.10100000352E+00 0. -1.
       -3    1    3    3    0  502 -0.22019285230E+02  0.19892666442E+03 -0.53816927155E+03  0.57418014749E+03  0.10100000352E+00 0.  1.
</event>
<event>
 5   0  0.1101619E-03  0.1173652E+04  0.7818609E-02  0.9136237E-01
       -2   -1    0    0    0  501  0.00000000000E+00  0.00000000000E+00  0.49878521997E+03  0.49878521998E+03  0.25500000920E-02 0. -1.
        2   -1    0    0  501    0  0.00000000000E+00  0.00000000000E+00 -0.69040635723E+03  0.69040635723E+03  0.25500000920E-02 0.  1.
    10030    2    1    2    0    0  0.00000000000E+00  0.00000000000E+00 -0.19162113726E+03  0.11891915772E+04  0.11736515441E+04 0.  0.
        1    1    3    3  502    0  0.57718306527E+03  0.34554394201E+01  0.11479407713E+02  0.57730755038E+03  0.50400001928E-02 0.  1.
       -1    1    3    3    0  502 -0.57718306527E+03 -0.34554394201E+01 -0.20310054497E+03  0.61188402683E+03  0.50400001928E-02 0. -1.
</event>
<event>
 5   0  0.1031295E-03  0.1298931E+04  0.7818609E-02  0.9030414E-01
        2   -1    0    0  501    0  0.00000000000E+00  0.00000000000E+00  0.10289783097E+04  0.10289783097E+04  0.25500000920E-02 0.  1.
       -2   -1    0    0    0  501  0.00000000000E+00  0.00000000000E+00 -0.40992621332E+03  0.40992621333E+03  0.25500000920E-02 0. -1.
    10030    2    1    2    0    0  0.00000000000E+00  0.00000000000E+00  0.61905209637E+03  0.14389045230E+04  0.12989306095E+04 0.  0.
        2    1    3    3  502    0  0.39645552496E+03 -0.44495570811E+03  0.23555013349E+02  0.59642049270E+03  0.25500000920E-02 0. -1.
       -2    1    3    3    0  502 -0.39645552496E+03  0.44495570811E+03  0.59549708302E+03  0.84248403032E+03  0.25500000920E-02 0.  1.
</event>
<event>
 5   0  0.5563545E-04  0.1320213E+04  0.7818609E-02  0.9013688E-01
       -1   -1    0    0    0  501  0.00000000000E+00  0.00000000000E+00  0.30764356249E+03  0.30764356253E+03  0.50400001928E-02 0. -1.
        1   -1    0    0  501    0  0.00000000000E+00  0.00000000000E+00 -0.14163817310E+04  0.14163817310E+04  0.50400001928E-02 0.  1.
    10030    2    1    2    0    0  0.00000000000E+00  0.00000000000E+00 -0.11087381685E+04  0.17240252935E+04  0.13202131973E+04 0.  0.
        2    1    3    3  502    0  0.63396780050E+03  0.11473762432E+03 -0.36666513298E+03  0.74129833013E+03  0.25500000920E-02 0. -1.
       -2    1    3    3    0  502 -0.63396780050E+03 -0.11473762432E+03 -0.74207303552E+03  0.98272696338E+03  0.25500000920E-02 0.  1.
</event>
<event>
 5   0  0.6006119E-04  0.1313042E+04  0.7818609E-02  0.9019286E-01
       -1   -1    0    0    0  501  0.00000000000E+00  0.00000000000E+00  0.30579701751E+03  0.30579701755E+03  0.50400001928E-02 0.  1.
        1   -1    0    0  501    0  0.00000000000E+00  0.00000000000E+00 -0.14094973132E+04  0.14094973132E+04  0.50400001928E-02 0. -1.
    10030    2    1    2    0    0  0.00000000000E+00  0.00000000000E+00 -0.11037002957E+04  0.17152943307E+04  0.13130423826E+04 0.  0.
        4    1    3    3  502    0 -0.25002274197E+03  0.20747731114E+03  0.19341169875E+03  0.37811096817E+03  0.12699999809E+01 0.  1.
       -4    1    3    3    0  502  0.25002274197E+03 -0.20747731114E+03 -0.12971119944E+04  0.13371833626E+04  0.12699999809E+01 0. -1.
</event>
<event>
 5   0  0.1081574E-03  0.1296551E+04  0.7818609E-02  0.9032305E-01
       -2   -1    0    0    0  501  0.00000000000E+00  0.00000000000E+00  0.20727753337E+03  0.20727753338E+03  0.25500000920E-02 0. -1.
        2   -1    0    0  501    0  0.00000000000E+00  0.00000000000E+00 -0.20275270438E+04  0.20275270438E+04  0.25500000920E-02 0.  1.
    10030    2    1    2    0    0  0.00000000000E+00  0.00000000000E+00 -0.18202495105E+04  0.22348045772E+04  0.12965505073E+04 0.  0.
        5    1    3    3  502    0  0.48109763618E+03  0.19744627664E+03 -0.15772451269E+04  0.16607721843E+04  0.46999998093E+01 0.  1.
       -5    1    3    3    0  502 -0.48109763618E+03 -0.19744627664E+03 -0.24300438351E+03  0.57403239290E+03  0.46999998093E+01 0. -1.
</event>
<event>
 5   0  0.4012375E-04  0.1311919E+04  0.7818609E-02  0.9020167E-01
       -4   -1    0    0    0  501  0.00000000000E+00  0.00000000000E+00  0.63932709676E+03  0.63932835816E+03  0.12699999809E+01 0. -1.
        4   -1    0    0  501    0  0.00000000000E+00  0.00000000000E+00 -0.67302178125E+03  0.67302297950E+03  0.12699999809E+01 0.  1.
    10030    2    1    2    0    0  0.00000000000E+00  0.00000000000E+00 -0.33694684491E+02  0.13123513377E+04  0.13119187100E+04 0.  0.
        5    1    3    3  502    0 -0.18239313836E+02  0.52101437784E+03 -0.41506394893E+03  0.66639989960E+03  0.46999998093E+01 0.  1.
       -5    1    3    3    0  502  0.18239313836E+02 -0.52101437784E+03  0.38136926443E+03  0.64595143807E+03  0.46999998093E+01 0. -1.
</event>
<event>
 5   0  0.5812938E-04  0.1303677E+04  0.7818609E-02  0.9026654E-01
       -1   -1    0    0    0  501  0.00000000000E+00  0.00000000000E+00  0.22922236804E+03  0.22922236810E+03  0.50400001928E-02 0. -1.
        1   -1    0    0  501    0  0.00000000000E+00  0.00000000000E+00 -0.18536304680E+04  0.18536304680E+04  0.50400001928E-02 0.  1.
    10030    2    1    2    0    0  0.00000000000E+00  0.00000000000E+00 -0.16244080999E+04  0.20828528361E+04  0.13036772076E+04 0.  0.
        5    1    3    3  502    0 -0.40035878522E+03  0.12232161307E+03 -0.13970977462E+02  0.41888782763E+03  0.46999998093E+01 0. -1.
       -5    1    3    3    0  502  0.40035878522E+03 -0.12232161307E+03 -0.16104371225E+04  0.16639650084E+04  0.46999998093E+01 0.  1.
</event>
<event>
 5   0  0.6006119E-04  0.1304754E+04  0.7818609E-02  0.9025804E-01
        1   -1    0    0  501    0  0.00000000000E+00  0.00000000000E+00  0.51907080772E+03  0.51907080774E+03  0.50400001928E-02 0. -1.
       -1   -1    0    0    0  501  0.00000000000E+00  0.00000000000E+00 -0.81991833571E+03  0.81991833572E+03  0.50400001928E-02 0.  1.
    10030    2    1    2    0    0  0.00000000000E+00  0.00000000000E+00 -0.30084752799E+03  0.13389891435E+04  0.13047538815E+04 0.  0.
        4    1    3    3  502    0  0.59040296983E+03 -0.21150362216E+03  0.33970003056E+02  0.62806450543E+03  0.12699999809E+01 0. -1.
       -4    1    3    3    0  502 -0.59040296983E+03  0.21150362216E+03 -0.33481753105E+03  0.71092463804E+03  0.12699999809E+01 0.  1.
</event>
<event>
 5   0  0.5766027E-04  0.1282304E+04  0.7818609E-02  0.9043717E-01
        1   -1    0    0  501    0  0.00000000000E+00  0.00000000000E+00  0.74826924729E+03  0.74826924731E+03  0.50400001928E-02 0. -1.
       -1   -1    0    0    0  501  0.00000000000E+00  0.00000000000E+00 -0.54936898606E+03  0.54936898608E+03  0.50400001928E-02 0.  1.
    10030    2    1    2    0    0  0.00000000000E+00  0.00000000000E+00  0.19890026123E+03  0.12976382334E+04  0.12823040477E+04 0.  0.
        3    1    3    3  502    0  0.22032350170E+03 -0.16645801627E+03 -0.48611024735E+03  0.55906520135E+03  0.10100000352E+00 0.  1.
       -3    1    3    3    0  502 -0.22032350170E+03  0.16645801627E+03  0.68501050858E+03  0.73857303204E+03  0.10100000352E+00 0. -1.
</event>
<event>
 5   0  0.4012375E-04  0.1304196E+04  0.7818609E-02  0.9026245E-01
       -3   -1    0    0    0  501  0.00000000000E+00  0.00000000000E+00  0.13337925976E+04  0.13337926014E+04  0.10100000352E+00 0. -1.
        3   -1    0    0  501    0  0.00000000000E+00  0.00000000000E+00 -0.31881383000E+03  0.31881384600E+03  0.10100000352E+00 0.  1.
    10030    2    1    2    0    0  0.00000000000E+00  0.00000000000E+00  0.10149787676E+04  0.16526064474E+04  0.13041956032E+04 0.  0.
        3    1    3    3  502    0 -0.37907576622E+03  0.94934982112E+01 -0.16474684361E+03  0.41343693077E+03  0.10100000352E+00 0.  1.
       -3    1    3    3    0  502  0.37907576622E+03 -0.94934982112E+01  0.11797256112E+04  0.12391695167E+04  0.10100000352E+00 0. -1.
</event>
<event>
 5   0  0.5812938E-04  0.1309006E+04  0.7818609E-02  0.9022454E-01
       -1   -1    0    0    0  501  0.00000000000E+00  0.00000000000E+00  0.23696589810E+03  0.23696589816E+03  0.50400001928E-02 0.  1.
        1   -1    0    0  501    0  0.00000000000E+00  0.00000000000E+00 -0.18077458390E+04  0.18077458390E+04  0.50400001928E-02 0. -1.
    10030    2    1    2    0    0  0.00000000000E+00  0.00000000000E+00 -0.15707799409E+04  0.20447117372E+04  0.13090059073E+04 0.  0.
        5    1    3    3  502    0  0.14588537561E+03 -0.29861874193E+02  0.21012672847E+03  0.25758417335E+03  0.46999998093E+01 0.  1.
       -5    1    3    3    0  502 -0.14588537561E+03  0.29861874193E+02 -0.17809066694E+04  0.17871275639E+04  0.46999998093E+01 0. -1.
</event>
<event>
 5   0  0.5710383E-04  0.1251795E+04  0.7818609E-02  0.9068691E-01
        1   -1    0    0  501    0  0.00000000000E+00  0.00000000000E+00  0.50118391075E+03  0.50118391078E+03  0.50400001928E-02 0. -1.
       -1   -1    0    0    0  501  0.00000000000E+00  0.00000000000E+00 -0.78164439634E+03  0.78164439635E+03  0.50400001928E-02 0.  1.
    10030    2    1    2    0    0  0.00000000000E+00  0.00000000000E+00 -0.28046048558E+03  0.12828283071E+04  0.12517948640E+04 0.  0.
        1    1    3    3  502    0  0.17322437481E+03  0.21972445223E+03 -0.71398707791E+03  0.76685270188E+03  0.50400001928E-02 0.  1.
       -1    1    3    3    0  502 -0.17322437481E+03 -0.21972445223E+03  0.43352659233E+03  0.51597560525E+03  0.50400001928E-02 0. -1.
</event>
<event>
 5   0  0.4012375E-04  0.1271737E+04  0.7818609E-02  0.9052283E-01
        3   -1    0    0  501    0  0.00000000000E+00  0.00000000000E+00  0.46201123895E+03  0.46201124999E+03  0.10100000352E+00 0.  1.
       -3   -1    0    0    0  501  0.00000000000E+00  0.00000000000E+00 -0.87514948483E+03  0.87514949066E+03  0.10100000352E+00 0. -1.
    10030    2    1    2    0    0  0.00000000000E+00  0.00000000000E+00 -0.41313824588E+03  0.13371607406E+04  0.12717372512E+04 0.  0.
        2    1    3    3  502    0 -0.20013962005E+03 -0.25979795658E+03 -0.77936795351E+03  0.84555617952E+03  0.25500000920E-02 0. -1.
       -2    1    3    3    0  502  0.20013962005E+03  0.25979795658E+03  0.36622970763E+03  0.49160456112E+03  0.25500000920E-02 0.  1.
</event>
<event>
 5   0  0.1101619E-03  0.1310021E+04  0.7818609E-02  0.9021656E-01
       -2   -1    0    0    0  501  0.00000000000E+00  0.00000000000E+00  0.70351838021E+03  0.70351838021E+03  0.25500000920E-02 0.  1.
        2   -1    0    0  501    0  0.00000000000E+00  0.00000000000E+00 -0.60984760885E+03  0.60984760885E+03  0.25500000920E-02 0. -1.
    10030    2    1    2    0    0  0.00000000000E+00  0.00000000000E+00  0.93670771362E+02  0.13133659891E+04  0.13100213769E+04 0.  0.
        1    1    3    3  502    0 -0.43150439623E+03 -0.13977608387E+03 -0.42692331011E+03  0.62289398001E+03  0.50400001928E-02 0. -1.
       -1    1    3    3    0  502  0.43150439623E+03  0.13977608387E+03  0.52059408148E+03  0.69047200905E+03  0.50400001928E-02 0.  1.
</event>
<event>
 5   0  0.5710383E-04  0.1313986E+04  0.7818609E-02  0.9018547E-01
        1   -1    0    0  501    0  0.00000000000E+00  0.00000000000E+00  0.42838306232E+03  0.42838306235E+03  0.50400001928E-02 0. -1.
       -1   -1    0    0    0  501  0.00000000000E+00  0.00000000000E+00 -0.10076025350E+04  0.10076025351E+04  0.50400001928E-02 0.  1.
    10030    2    1    2    0    0  0.00000000000E+00  0.00000000000E+00 -0.57921947273E+03  0.14359855974E+04  0.13139860876E+04 0.  0.
        1    1    3    3  502    0  0.83864581083E+02  0.50438180460E+03 -0.74047442464E+03  0.89985368052E+03  0.50400001928E-02 0.  1.
       -1    1    3    3    0  502 -0.83864581083E+02 -0.50438180460E+03  0.16125495191E+03  0.53613191689E+03  0.50400001928E-02 0. -1.
</event>
<event>
 5   0  0.1103241E-03  0.1323943E+04  0.7818609E-02  0.9010791E-01
        2   -1    0    0  501    0  0.00000000000E+00  0.00000000000E+00  0.10730267614E+04  0.10730267615E+04  0.25500000920E-02 0. -1.
       -2   -1    0    0    0  501  0.00000000000E+00  0.00000000000E+00 -0.40838319219E+03  0.40838319220E+03  0.25500000920E-02 0.  1.
    10030    2    1    2    0    0  0.00000000000E+00  0.00000000000E+00  0.66464356926E+03  0.14814099537E+04  0.13239427392E+04 0.  0.
        4    1    3    3  502    0 -0.32404771699E+03  0.71725208815E+02 -0.30856025070E+03  0.45316936092E+03  0.12699999809E+01 0.  1.
       -4    1    3    3    0  502  0.32404771699E+03 -0.71725208815E+02  0.97320381995E+03  0.10282405927E+04  0.12699999809E+01 0. -1.
</event>
<event>
 5   0  0.1081574E-03  0.1301654E+04  0.7818609E-02  0.9028255E-01
        2   -1    0    0  501    0  0.00000000000E+00  0.00000000000E+00  0.98342631601E+03  0.98342631602E+03  0.25500000920E-02 0.  1.
       -2   -1    0    0    0  501  0.00000000000E+00  0.00000000000E+00 -0.43071398921E+03  0.43071398922E+03  0.25500000920E-02 0. -1.
    10030    2    1    2    0    0  0.00000000000E+00  0.00000000000E+00  0.55271232680E+03  0.14141403052E+04  0.13016535202E+04 0.  0.
        5    1    3    3  502    0 -0.10792008374E+03  0.62386403063E+03  0.11266961808E+03  0.64309377701E+03  0.46999998093E+01 0.  1.
       -5    1    3    3    0  502  0.10792008374E+03 -0.62386403063E+03  0.44004270872E+03  0.77104652822E+03  0.46999998093E+01 0. -1.
</event>
<event>
 5   0  0.5563545E-04  0.1278163E+04  0.7818609E-02  0.9047064E-01
        1   -1    0    0  501    0  0.00000000000E+00  0.00000000000E+00  0.63047940164E+03  0.63047940166E+03  0.50400001928E-02 0.  1.
       -1   -1    0    0    0  501  0.00000000000E+00  0.00000000000E+00 -0.64780102986E+03  0.64780102988E+03  0.50400001928E-02 0. -1.
    10030    2    1    2    0    0  0.00000000000E+00  0.00000000000E+00 -0.17321628227E+02  0.12782804315E+04  0.12781630658E+04 0.  0.
        2    1    3    3  502    0  0.31451282668E+03 -0.35875709931E+03 -0.43390596256E+03  0.64490259637E+03  0.25500000920E-02 0. -1.
       -2    1    3    3    0  502 -0.31451282668E+03  0.35875709931E+03  0.41658433434E+03  0.63337783516E+03  0.25500000920E-02 0.  1.
</event>
<event>
 5   0  0.5710383E-04  0.1301578E+04  0.7818609E-02  0.9028315E-01
        1   -1    0    0  501    0  0.00000000000E+00  0.00000000000E+00  0.37449951852E+03  0.37449951855E+03  0.50400001928E-02 0.  1.
       -1   -1    0    0    0  501  0.00000000000E+00  0.00000000000E+00 -0.11309124685E+04  0.11309124686E+04  0.50400001928E-02 0. -1.
    10030    2    1    2    0    0  0.00000000000E+00  0.00000000000E+00 -0.75641295003E+03  0.15054119871E+04  0.13015777733E+04 0.  0.
        1    1    3    3  502    0  0.12527974932E+03  0.21522701483E+03  0.31720923517E+03  0.40328573296E+03  0.50400001928E-02 0.  1.
       -1    1    3    3    0  502 -0.12527974932E+03 -0.21522701483E+03 -0.10736221852E+04  0.11021262541E+04  0.50400001928E-02 0. -1.
</event>
<event>
 5   0  0.1031295E-03  0.1299297E+04  0.7818609E-02  0.9030123E-01
        2   -1    0    0  501    0  0.00000000000E+00  0.00000000000E+00  0.11143756404E+04  0.11143756404E+04  0.25500000920E-02 0. -1.
       -2   -1    0    0    0  501  0.00000000000E+00  0.00000000000E+00 -0.37872611299E+03  0.37872611300E+03  0.25500000920E-02 0.  1.
    10030    2    1    2    0    0  0.00000000000E+00  0.00000000000E+00  0.73564952742E+03  0.14931017534E+04  0.12992969710E+04 0.  0.
        2    1    3    3  502    0 -0.22415266480E+03 -0.41209275494E+03 -0.14863124496E+03  0.49209359150E+03  0.25500000920E-02 0.  1.
       -2    1    3    3    0  502  0.22415266480E+03  0.41209275494E+03  0.88428077237E+03  0.10010081619E+04  0.25500000920E-02 0. -1.
</event>
<event>
 5   0  0.5766027E-04  0.1297638E+04  0.7818609E-02  0.9031440E-01
       -1   -1    0    0    0  501  0.00000000000E+00  0.00000000000E+00  0.42359886312E+03  0.42359886315E+03  0.50400001928E-02 0.  1.
        1   -1    0    0  501    0  0.00000000000E+00  0.00000000000E+00 -0.99378539162E+03  0.99378539163E+03  0.50400001928E-02 0. -1.
    10030    2    1    2    0    0  0.00000000000E+00  0.00000000000E+00 -0.57018652850E+03  0.14173842548E+04  0.12976384120E+04 0.  0.
        3    1    3    3  502    0  0.98390465449E+02 -0.21849901305E+03  0.37349245916E+03  0.44375570942E+03  0.10100000352E+00 0.  1.
       -3    1    3    3    0  502 -0.98390465449E+02  0.21849901305E+03 -0.94367898765E+03  0.97362854536E+03  0.10100000352E+00 0. -1.
</event>
<event>
 5   0  0.5766027E-04  0.1309377E+04  0.7818609E-02  0.9022162E-01
        1   -1    0    0  501    0  0.00000000000E+00  0.00000000000E+00  0.84240243983E+03  0.84240243984E+03  0.50400001928E-02 0.  1.
       -1   -1    0    0    0  501  0.00000000000E+00  0.00000000000E+00 -0.50880350107E+03  0.50880350109E+03  0.50400001928E-02 0. -1.
    10030    2    1    2    0    0  0.00000000000E+00  0.00000000000E+00  0.33359893876E+03  0.13512059409E+04  0.13093774257E+04 0.  0.
        3    1    3    3  502    0  0.29408444722E+03 -0.53075762245E+03 -0.86874410790E+02  0.61297348176E+03  0.10100000352E+00 0. -1.
       -3    1    3    3    0  502 -0.29408444722E+03  0.53075762245E+03  0.42047334955E+03  0.73823245917E+03  0.10100000352E+00 0.  1.
</event>
<event>
 5   0  0.1031295E-03  0.1300350E+04  0.7818609E-02  0.9029287E-01
        2   -1    0    0  501    0  0.00000000000E+00  0.00000000000E+00  0.64274730814E+03  0.64274730815E+03  0.25500000920E-02 0. -1.
       -2   -1    0    0    0  501  0.00000000000E+00  0.00000000000E+00 -0.65768896522E+03  0.65768896523E+03  0.25500000920E-02 0.  1.
    10030    2    1    2    0    0  0.00000000000E+00  0.00000000000E+00 -0.14941657083E+02  0.13004362734E+04  0.13003504328E+04 0.  0.
        2    1    3    3  502    0  0.14408870467E+03 -0.22587475003E+03  0.58497595424E+03  0.64341108520E+03  0.25500000920E-02 0. -1.
       -2    1    3    3    0  502 -0.14408870467E+03  0.22587475003E+03 -0.59991761132E+03  0.65702518817E+03  0.25500000920E-02 0.  1.
</event>
<event>
 5   0  0.5812938E-04  0.1302647E+04  0.7818609E-02  0.9027469E-01
        1   -1    0    0  501    0  0.00000000000E+00  0.00000000000E+00  0.19867328219E+04  0.19867328219E+04  0.50400001928E-02 0.  1.
       -1   -1    0    0    0  501  0.00000000000E+00  0.00000000000E+00 -0.21352760554E+03  0.21352760560E+03  0.50400001928E-02 0. -1.
    10030    2    1    2    0    0  0.00000000000E+00  0.00000000000E+00  0.17732052163E+04  0.22002604275E+04  0.13026470011E+04 0.  0.
        5    1    3    3  502    0 -0.19724340328E+03 -0.61987966706E+03  0.94118986818E+03  0.11441224671E+04  0.46999998093E+01 0. -1.
       -5    1    3    3    0  502  0.19724340328E+03  0.61987966706E+03  0.83201534817E+03  0.10561379604E+04  0.46999998093E+01 0.  1.
</event>
<event>
 5   0  0.1046253E-03  0.1292198E+04  0.7818609E-02  0.9035775E-01
       -2   -1    0    0    0  501  0.00000000000E+00  0.00000000000E+00  0.10548218339E+04  0.10548218339E+04  0.25500000920E-02 0. -1.
        2   -1    0    0  501    0  0.00000000000E+00  0.00000000000E+00 -0.39574837083E+03  0.39574837084E+03  0.25500000920E-02 0.  1.
    10030    2    1    2    0    0  0.00000000000E+00  0.00000000000E+00  0.65907346310E+03  0.14505702048E+04  0.12921981617E+04 0.  0.
        3    1    3    3  502    0 -0.37435534280E+03 -0.37918297766E+03 -0.80654745016E+02  0.53891265650E+03  0.10100000352E+00 0.  1.
       -3    1    3    3    0  502  0.37435534280E+03  0.37918297766E+03  0.73972820811E+03  0.91165754827E+03  0.10100000352E+00 0. -1.
</event>
<event>
 5   0  0.1046253E-03  0.1303105E+04  0.7818609E-02  0.9027106E-01
        2   -1    0    0  501    0  0.00000000000E+00  0.00000000000E+00  0.86055483607E+03  0.86055483608E+03  0.25500000920E-02 0.  1.
       -2   -1    0    0    0  501  0.00000000000E+00  0.00000000000E+00 -0.49331050106E+03  0.49331050106E+03  0.25500000920E-02 0. -1.
    10030    2    1    2    0    0  0.00000000000E+00  0.00000000000E+00  0.36724433501E+03  0.13538653371E+04  0.13031051184E+04 0.  0.
        3    1    3    3  502    0 -0.30182815237E+03 -0.15335287101E+03  0.76199672795E+03  0.83382034049E+03  0.10100000352E+00 0.  1.
       -3    1    3    3    0  502  0.30182815237E+03  0.15335287101E+03 -0.39475239294E+03  0.52004499665E+03  0.10100000352E+00 0. -1.
</event>
<event>
 5   0  0.1031295E-03  0.1300159E+04  0.7818609E-02  0.9029439E-01
       -2   -1    0    0    0  501  0.00000000000E+00  0.00000000000E+00  0.28030679103E+03  0.28030679104E+03  0.25500000920E-02 0. -1.
        2   -1    0    0  501    0  0.00000000000E+00  0.00000000000E+00 -0.15076448199E+04  0.15076448199E+04  0.25500000920E-02 0.  1.
    10030    2    1    2    0    0  0.00000000000E+00  0.00000000000E+00 -0.12273380289E+04  0.17879516110E+04  0.13001585772E+04 0.  0.
        2    1    3    3  502    0  0.45675686020E+03 -0.90126386304E+02  0.10264837373E+02  0.46567688556E+03  0.25500000920E-02 0.  1.
       -2    1    3    3    0  502 -0.45675686020E+03  0.90126386304E+02 -0.12376028663E+04  0.13222747254E+04  0.25500000920E-02 0. -1.
</event>
<event>
 5   0  0.6006119E-04  0.1293055E+04  0.7818609E-02  0.9035090E-01
        1   -1    0    0  501    0  0.00000000000E+00  0.00000000000E+00  0.96625897424E+03  0.96625897425E+03  0.50400001928E-02 0.  1.
       -1   -1    0    0    0  501  0.00000000000E+00  0.00000000000E+00 -0.43259429038E+03  0.43259429041E+03  0.50400001928E-02 0. -1.
    10030    2    1    2    0    0  0.00000000000E+00  0.00000000000E+00  0.53366468385E+03  0.13988532647E+04  0.12930554749E+04 0.  0.
        4    1    3    3  502    0  0.29419349568E+03 -0.37762308049E+03 -0.20328970847E+03  0.52007434304E+03  0.12699999809E+01 0. -1.
       -4    1    3    3    0  502 -0.29419349568E+03  0.37762308049E+03  0.73695439233E+03  0.87877892162E+03  0.12699999809E+01 0.  1.
</event>
<event>
 5   0  0.1101619E-03  0.1301000E+04  0.7818609E-02  0.9028773E-01
       -2   -1    0    0    0  501  0.00000000000E+00  0.00000000000E+00  0.59547038294E+03  0.59547038295E+03  0.25500000920E-02 0. -1.
        2   -1    0    0  501    0  0.00000000000E+00  0.00000000000E+00 -0.71061473213E+03  0.71061473213E+03  0.25500000920E-02 0.  1.
    10030    2    1    2    0    0  0.00000000000E+00  0.00000000000E+00 -0.11514434918E+03  0.13060851151E+04  0.13009996567E+04 0.  0.
        1    1    3    3  502    0 -0.46385620999E+03 -0.41104114900E+03  0.14076683155E+03  0.63555700815E+03  0.50400001928E-02 0.  1.
       -1    1    3    3    0  502  0.46385620999E+03  0.41104114900E+03 -0.25591118074E+03  0.67052810692E+03  0.50400001928E-02 0. -1.
</event>
<event>
 5   0  0.1031295E-03  0.1303165E+04  0.7818609E-02  0.9027059E-01
       -2   -1    0    0    0  501  0.00000000000E+00  0.00000000000E+00  0.36311504275E+03  0.36311504276E+03  0.25500000920E-02 0. -1.
        2   -1    0    0  501    0  0.00000000000E+00  0.00000000000E+00 -0.11692152958E+04  0.11692152958E+04  0.25500000920E-02 0.  1.
    10030    2    1    2    0    0  0.00000000000E+00  0.00000000000E+00 -0.80610025302E+03  0.15323303385E+04  0.13031648585E+04 0.  0.
        2    1    3    3  502    0 -0.55297823320E+03  0.22089345136E+03 -0.91991285093E+02  0.60252903647E+03  0.25500000920E-02 0. -1.
       -2    1    3    3    0  502  0.55297823320E+03 -0.22089345136E+03 -0.71410896792E+03  0.92980130207E+03  0.25500000920E-02 0.  1.
</event>
<event>
 5   0  0.1101619E-03  0.1303616E+04  0.7818609E-02  0.9026703E-01
       -2   -1    0    0    0  501  0.00000000000E+00  0.00000000000E+00  0.93574026293E+03  0.93574026293E+03  0.25500000920E-02 0. -1.
        2   -1    0    0  501    0  0.00000000000E+00  0.00000000000E+00 -0.45402918518E+03  0.45402918519E+03  0.25500000920E-02 0.  1.
    10030    2    1    2    0    0  0.00000000000E+00  0.00000000000E+00  0.48171107775E+03  0.13897694481E+04  0.13036155708E+04 0.  0.
        1    1    3    3  502    0  0.32654873244E+03 -0.35239476070E+03  0.71046384863E+03  0.85765670420E+03  0.50400001928E-02 0. -1.
       -1    1    3    3    0  502 -0.32654873244E+03  0.35239476070E+03 -0.22875277089E+03  0.53211274392E+03  0.50400001928E-02 0.  1.
</event>
<event>
 5   0  0.1046253E-03  0.1297988E+04  0.7818609E-02  0.9031162E-01
       -2   -1    0    0    0  501  0.00000000000E+00  0.00000000000E+00  0.25001693507E+03  0.25001693508E+03  0.25500000920E-02 0.  1.
        2   -1    0    0  501    0  0.00000000000E+00  0.00000000000E+00 -0.16846579336E+04  0.16846579336E+04  0.25500000920E-02 0. -1.
    10030    2    1    2    0    0  0.00000000000E+00  0.00000000000E+00 -0.14346409985E+04  0.19346748686E+04  0.12979876936E+04 0.  0.
        3    1    3    3  502    0  0.25490633315E+03 -0.43542887239E+03 -0.13257323601E+04  0.14184998564E+04  0.10100000352E+00 0. -1.
       -3    1    3    3    0  502 -0.25490633315E+03  0.43542887239E+03 -0.10890863835E+03  0.51617501228E+03  0.10100000352E+00 0.  1.
</event>
<event>
 5   0  0.5563545E-04  0.1315728E+04  0.7818609E-02  0.9017185E-01
        1   -1    0    0  501    0  0.00000000000E+00  0.00000000000E+00  0.79332960883E+03  0.79332960885E+03  0.50400001928E-02 0. -1.
       -1   -1    0    0    0  501  0.00000000000E+00  0.00000000000E+00 -0.54552951447E+03  0.54552951449E+03  0.50400001928E-02 0.  1.
    10030    2    1    2    0    0  0.00000000000E+00  0.00000000000E+00  0.24780009436E+03  0.13388591233E+04  0.13157275042E+04 0.  0.
        2    1    3    3  502    0 -0.31712835241E+03  0.30484001717E+03  0.62166965915E+03  0.76155826638E+03  0.25500000920E-02 0. -1.
       -2    1    3    3    0  502  0.31712835241E+03 -0.30484001717E+03 -0.37386956479E+03  0.57730085696E+03  0.25500000920E-02 0.  1.
</event>
<event>
 5   0  0.1046253E-03  0.1292799E+04  0.7818609E-02  0.9035295E-01
       -2   -1    0    0    0  501  0.00000000000E+00  0.00000000000E+00  0.22661814024E+03  0.22661814026E+03  0.25500000920E-02 0. -1.
        2   -1    0    0  501    0  0.00000000000E+00  0.00000000000E+00 -0.18437730606E+04  0.18437730606E+04  0.25500000920E-02 0.  1.
    10030    2    1    2    0    0  0.00000000000E+00  0.00000000000E+00 -0.16171549204E+04  0.20703912009E+04  0.12927991678E+04 0.  0.
        3    1    3    3  502    0 -0.31662964592E+02 -0.63229076260E+03 -0.10176196618E+04  0.11984756727E+04  0.10100000352E+00 0.  1.
       -3    1    3    3    0  502  0.31662964592E+02  0.63229076260E+03 -0.59953525862E+03  0.87191552821E+03  0.10100000352E+00 0. -1.
</event>
<event>
 5   0  0.1103241E-03  0.1282925E+04  0.7818609E-02  0.9043216E-01
        2   -1    0    0  501    0  0.00000000000E+00  0.00000000000E+00  0.76904258448E+03  0.76904258448E+03  0.25500000920E-02 0. -1.
       -2   -1    0    0    0  501  0.00000000000E+00  0.00000000000E+00 -0.53504763113E+03  0.53504763113E+03  0.25500000920E-02 0.  1.
    10030    2    1    2    0    0  0.00000000000E+00  0.00000000000E+00  0.23399495335E+03  0.13040902156E+04  0.12829254274E+04 0.  0.
        4    1    3    3  502    0  0.19890900053E+03  0.49658978736E+03  0.47682400955E+03  0.71660934713E+03  0.12699999809E+01 0. -1.
       -4    1    3    3    0  502 -0.19890900053E+03 -0.49658978736E+03 -0.24282905620E+03  0.58748086849E+03  0.12699999809E+01 0.  1.
</event>
<event>
 5   0  0.5710383E-04  0.1251222E+04  0.7818609E-02  0.9069167E-01
       -1   -1    0    0    0  501  0.00000000000E+00  0.00000000000E+00  0.77137347087E+03  0.77137347088E+03  0.50400001928E-02 0. -1.
        1   -1    0    0  501    0  0.00000000000E+00  0.00000000000E+00 -0.50739276625E+03  0.50739276628E+03  0.50400001928E-02 0.  1.
    10030    2    1    2    0    0  0.00000000000E+00  0.00000000000E+00  0.26398070461E+03  0.12787662372E+04  0.12512223131E+04 0.  0.
        1    1    3    3  502    0  0.94376301730E+02  0.57701802035E+03  0.35944897529E+03  0.68633828976E+03  0.50400001928E-02 0.  1.
       -1    1    3    3    0  502 -0.94376301730E+02 -0.57701802035E+03 -0.95468270671E+02  0.59242794740E+03  0.50400001928E-02 0. -1.
</event>
<event>
 5   0  0.5563545E-04  0.1303272E+04  0.7818609E-02  0.9026974E-01
       -1   -1    0    0    0  501  0.00000000000E+00  0.00000000000E+00  0.87400440203E+03  0.87400440205E+03  0.50400001928E-02 0.  1.
        1   -1    0    0  501    0  0.00000000000E+00  0.00000000000E+00 -0.48584399682E+03  0.48584399685E+03  0.50400001928E-02 0. -1.
    10030    2    1    2    0    0  0.00000000000E+00  0.00000000000E+00  0.38816040521E+03  0.13598483989E+04  0.13032724841E+04 0.  0.
        2    1    3    3  502    0  0.47992302935E+01 -0.60921548691E+03 -0.47178476294E+02  0.61105838570E+03  0.25500000920E-02 0. -1.
       -2    1    3    3    0  502 -0.47992302935E+01  0.60921548691E+03  0.43533888150E+03  0.74879001319E+03  0.25500000920E-02 0.  1.
</event>
<event>
 5   0  0.5812938E-04  0.1290755E+04  0.7818609E-02  0.9036929E-01
       -1   -1    0    0    0  501  0.00000000000E+00  0.00000000000E+00  0.65110529767E+03  0.65110529769E+03  0.50400001928E-02 0. -1.
        1   -1    0    0  501    0  0.00000000000E+00  0.00000000000E+00 -0.63969971428E+03  0.63969971430E+03  0.50400001928E-02 0.  1.
    10030    2    1    2    0    0  0.00000000000E+00  0.00000000000E+00  0.11405583393E+02  0.12908050120E+04  0.12907546210E+04 0.  0.
        5    1    3    3  502    0 -0.21215133566E+02 -0.24707719773E+02 -0.63886036805E+03  0.63970713078E+03  0.46999998093E+01 0.  1.
       -5    1    3    3    0  502  0.21215133566E+02  0.24707719773E+02  0.65026595144E+03  0.65109788121E+03  0.46999998093E+01 0. -1.
</event>
<event>
 5   0  0.4012375E-04  0.1298129E+04  0.7818609E-02  0.9031050E-01
       -3   -1    0    0    0  501  0.00000000000E+00  0.00000000000E+00  0.33200129968E+03  0.33200131505E+03  0.10100000352E+00 0.  1.
        3   -1    0    0  501    0  0.00000000000E+00  0.00000000000E+00 -0.12689253680E+04  0.12689253720E+04  0.10100000352E+00 0. -1.
    10030    2    1    2    0    0  0.00000000000E+00  0.00000000000E+00 -0.93692406828E+03  0.16009266870E+04  0.12981292492E+04 0.  0.
        2    1    3    3  502    0 -0.16083023455E+03 -0.97976766439E+02  0.29756722284E+03  0.35215346544E+03  0.25500000920E-02 0.  1.
       -2    1    3    3    0  502  0.16083023455E+03  0.97976766439E+02 -0.12344912911E+04  0.12487732216E+04  0.25500000920E-02 0. -1.
</event>
<event>
 5   0  0.5766027E-04  0.1296391E+04  0.7818609E-02  0.9032432E-01
        1   -1    0    0  501    0  0.00000000000E+00  0.00000000000E+00  0.90743982257E+03  0.90743982259E+03  0.50400001928E-02 0.  1.
       -1   -1    0    0    0  501  0.00000000000E+00  0.00000000000E+00 -0.46301410214E+03  0.46301410217E+03  0.50400001928E-02 0. -1.
    10030    2    1    2    0    0  0.00000000000E+00  0.00000000000E+00  0.44442572043E+03  0.13704539248E+04  0.12963910440E+04 0.  0.
        3    1    3    3  502    0 -0.15216062595E+03  0.58129246940E+03  0.47921427084E+03  0.76857017809E+03  0.10100000352E+00 0.  1.
       -3    1    3    3    0  502  0.15216062595E+03 -0.58129246940E+03 -0.34788550405E+02  0.60188374667E+03  0.10100000352E+00 0. -1.
</event>
<event>
 5   0  0.1103241E-03  0.1272399E+04  0.7818609E-02  0.9051744E-01
       -2   -1    0    0    0  501  0.00000000000E+00  0.00000000000E+00  0.20933755461E+03  0.20933755462E+03  0.25500000920E-02 0.  1.
        2   -1    0    0  501    0  0.00000000000E+00  0.00000000000E+00 -0.19334793997E+04  0.19334793997E+04  0.25500000920E-02 0. -1.
    10030    2    1    2    0    0  0.00000000000E+00  0.00000000000E+00 -0.17241418450E+04  0.21428169543E+04  0.12723990717E+04 0.  0.
        4    1    3    3  502    0 -0.36478018372E+03  0.30405735716E+03 -0.15750395957E+04  0.16450734937E+04  0.12699999809E+01 0. -1.
       -4    1    3    3    0  502  0.36478018372E+03 -0.30405735716E+03 -0.14910224939E+03  0.49774346058E+03  0.12699999809E+01 0.  1.
</event>
<event>
 5   0  0.5710383E-04  0.1301960E+04  0.7818609E-02  0.9028013E-01
       -1   -1    0    0    0  501  0.00000000000E+00  0.00000000000E+00  0.53104750348E+03  0.53104750350E+03  0.50400001928E-02 0.  1.
        1   -1    0    0  501    0  0.00000000000E+00  0.00000000000E+00 -0.79799782248E+03  0.79799782250E+03  0.50400001928E-02 0. -1.
    10030    2    1    2    0    0  0.00000000000E+00  0.00000000000E+00 -0.26695031900E+03  0.13290453260E+04  0.13019596790E+04 0.  0.
        1    1    3    3  502    0  0.62147497638E+03 -0.19288110286E+03 -0.11463903976E+03  0.66073926444E+03  0.50400001928E-02 0. -1.
       -1    1    3    3    0  502 -0.62147497638E+03  0.19288110286E+03 -0.15231127925E+03  0.66830606156E+03  0.50400001928E-02 0.  1.
</event>
<event>
 5   0  0.1081574E-03  0.1295861E+04  0.7818609E-02  0.9032854E-01
        2   -1    0    0  501    0  0.00000000000E+00  0.00000000000E+00  0.13215253252E+04  0.13215253252E+04  0.25500000920E-02 0. -1.
       -2   -1    0    0    0  501  0.00000000000E+00  0.00000000000E+00 -0.31767389079E+03  0.31767389080E+03  0.25500000920E-02 0.  1.
    10030    2    1    2    0    0  0.00000000000E+00  0.00000000000E+00  0.10038514344E+04  0.16391992160E+04  0.12958612454E+04 0.  0.
        5    1    3    3  502    0 -0.29133721304E+03  0.16249800649E+02  0.12336863187E+04  0.12677324049E+04  0.46999998093E+01 0. -1.
       -5    1    3    3    0  502  0.29133721304E+03 -0.16249800649E+02 -0.22983488423E+03  0.37146681107E+03  0.46999998093E+01 0.  1.
</event>
<event>
 5   0  0.1081574E-03  0.1281662E+04  0.7818609E-02  0.9044235E-01
       -2   -1    0    0    0  501  0.00000000000E+00  0.00000000000E+00  0.26910312659E+03  0.26910312660E+03  0.25500000920E-02 0.  1.
        2   -1    0    0  501    0  0.00000000000E+00  0.00000000000E+00 -0.15260492855E+04  0.15260492855E+04  0.25500000920E-02 0. -1.
    10030    2    1    2    0    0  0.00000000000E+00  0.00000000000E+00 -0.12569461589E+04  0.17951524121E+04  0.12816624112E+04 0.  0.
        5    1    3    3  502    0 -0.27914066927E+03 -0.82208179329E+01  0.17936626396E+03  0.33193590004E+03  0.46999998093E+01 0.  1.
       -5    1    3    3    0  502  0.27914066927E+03  0.82208179329E+01 -0.14363124228E+04  0.14632165120E+04  0.46999998093E+01 0. -1.
</event>
<event>
 5   0  0.1081574E-03  0.1305514E+04  0.7818609E-02  0.9025204E-01
       -2   -1    0    0    0  501  0.00000000000E+00  0.00000000000E+00  0.64078498756E+03  0.64078498756E+03  0.25500000920E-02 0. -1.
        2   -1    0    0  501    0  0.00000000000E+00  0.00000000000E+00 -0.66495267700E+03  0.66495267700E+03  0.25500000920E-02 0.  1.
    10030    2    1    2    0    0  0.00000000000E+00  0.00000000000E+00 -0.24167689442E+02  0.13057376646E+04  0.13055139875E+04 0.  0.
        5    1    3    3  502    0 -0.35060972636E+03  0.25909315193E+03 -0.49797893802E+03  0.66186218679E+03  0.46999998093E+01 0.  1.
       -5    1    3    3    0  502  0.35060972636E+03 -0.25909315193E+03  0.47381124858E+03  0.64387547777E+03  0.46999998093E+01 0. -1.
</event>
<event>
 5   0  0.1031295E-03  0.1299161E+04  0.7818609E-02  0.9030231E-01
       -2   -1    0    0    0  501  0.00000000000E+00  0.00000000000E+00  0.25961032594E+03  0.25961032596E+03  0.25500000920E-02 0.  1.
        2   -1    0    0  501    0  0.00000000000E+00  0.00000000000E+00 -0.16253396456E+04  0.16253396456E+04  0.25500000920E-02 0. -1.
    10030    2    1    2    0    0  0.00000000000E+00  0.00000000000E+00 -0.13657293197E+04  0.18849499716E+04  0.12991611989E+04 0.  0.
        2    1    3    3  502    0 -0.23171413129E+02  0.59466926202E+03 -0.30511122423E+03  0.66877597500E+03  0.25500000920E-02 0.  1.
       -2    1    3    3    0  502  0.23171413129E+02 -0.59466926202E+03 -0.10606180955E+04  0.12161739966E+04  0.25500000920E-02 0. -1.
</event>
<event>
 5   0  0.6006119E-04  0.1296174E+04  0.7818609E-02  0.9032605E-01
       -1   -1    0    0    0  501  0.00000000000E+00  0.00000000000E+00  0.17671804916E+04  0.17671804916E+04  0.50400001928E-02 0.  1.
        1   -1    0    0  501    0  0.00000000000E+00  0.00000000000E+00 -0.23767622293E+03  0.23767622298E+03  0.50400001928E-02 0. -1.
    10030    2    1    2    0    0  0.00000000000E+00  0.00000000000E+00  0.15295042687E+04  0.20048567146E+04  0.12961740385E+04 0.  0.
        4    1    3    3  502    0  0.29557191623E+03 -0.10963351987E+03 -0.11108643423E+03  0.33425151476E+03  0.12699999809E+01 0. -1.
       -4    1    3    3    0  502 -0.29557191623E+03  0.10963351987E+03  0.16405907029E+04  0.16706051999E+04  0.12699999809E+01 0.  1.
</event>
<event>
 5   0  0.1101619E-03  0.1301176E+04  0.7818609E-02  0.9028633E-01
        2   -1    0    0  501    0  0.00000000000E+00  0.00000000000E+00  0.17196286639E+04  0.17196286639E+04  0.25500000920E-02 0. -1.
       -2   -1    0    0    0  501  0.00000000000E+00  0.00000000000E+00 -0.24613744902E+03  0.24613744903E+03  0.25500000920E-02 0.  1.
    10030    2    1    2    0    0  0.00000000000E+00  0.00000000000E+00  0.14734912149E+04  0.19657661129E+04  0.13011764102E+04 0.  0.
        1    1    3    3  502    0  0.29316574265E+03 -0.57297503279E+03  0.88021595051E+03  0.10904249907E+04  0.50400001928E-02 0. -1.
       -1    1    3    3    0  502 -0.29316574265E+03  0.57297503279E+03  0.59327526437E+03  0.87534112220E+03  0.50400001928E-02 0.  1.
</event>
<event>
 5   0  0.1081574E-03  0.1307782E+04  0.7818609E-02  0.9023417E-01
        2   -1    0    0  501    0  0.00000000000E+00  0.00000000000E+00  0.44848889874E+03  0.44848889874E+03  0.25500000920E-02 0. -1.
       -2   -1    0    0    0  501  0.00000000000E+00  0.00000000000E+00 -0.95336391847E+03  0.95336391847E+03  0.25500000920E-02 0.  1.
    10030    2    1    2    0    0  0.00000000000E+00  0.00000000000E+00 -0.50487501973E+03  0.14018528172E+04  0.13077815321E+04 0.  0.
        5    1    3    3  502    0 -0.30850229899E+03 -0.22292623458E+03  0.31748490111E+03  0.49566977613E+03  0.46999998093E+01 0. -1.
       -5    1    3    3    0  502  0.30850229899E+03  0.22292623458E+03 -0.82235992084E+03  0.90618304108E+03  0.46999998093E+01 0.  1.
</event>
<event>
 5   0  0.1103241E-03  0.1288131E+04  0.7818609E-02  0.9039031E-01
        2   -1    0    0  501    0  0.00000000000E+00  0.00000000000E+00  0.11152233850E+04  0.11152233850E+04  0.25500000920E-02 0.  1.
       -2   -1    0    0    0  501  0.00000000000E+00  0.00000000000E+00 -0.37196180949E+03  0.37196180950E+03  0.25500000920E-02 0. -1.
    10030    2    1    2    0    0  0.00000000000E+00  0.00000000000E+00  0.74326157550E+03  0.14871851945E+04  0.12881312173E+04 0.  0.
        4    1    3    3  502    0 -0.43445714780E+02 -0.38074353630E+03 -0.22601597529E+03  0.44490224157E+03  0.12699999809E+01 0. -1.
       -4    1    3    3    0  502  0.43445714780E+02  0.38074353630E+03  0.96927755079E+03  0.10422829529E+04  0.12699999809E+01 0.  1.
</event>
<event>
 5   0  0.1081574E-03  0.1302635E+04  0.7818609E-02  0.9027478E-01
        2   -1    0    0  501    0  0.00000000000E+00  0.00000000000E+00  0.77420777437E+03  0.77420777437E+03  0.25500000920E-02 0. -1.
       -2   -1    0    0    0  501  0.00000000000E+00  0.00000000000E+00 -0.54793378345E+03  0.54793378346E+03  0.25500000920E-02 0.  1.
    10030    2    1    2    0    0  0.00000000000E+00  0.00000000000E+00  0.22627399092E+03  0.13221415578E+04  0.13026351676E+04 0.  0.
        5    1    3    3  502    0  0.60556649546E+03 -0.23740544316E+03  0.14711030504E+03  0.66688504011E+03  0.46999998093E+01 0.  1.
       -5    1    3    3    0  502 -0.60556649546E+03  0.23740544316E+03  0.79163685871E+02  0.65525651773E+03  0.46999998093E+01 0. -1.
</event>
<event>
 5   0  0.1081574E-03  0.1302091E+04  0.7818609E-02  0.9027909E-01
        2   -1    0    0  501    0  0.00000000000E+00  0.00000000000E+00  0.86406767347E+03  0.86406767348E+03  0.25500000920E-02 0. -1.
       -2   -1    0    0    0  501  0.00000000000E+00  0.00000000000E+00 -0.49054039557E+03  0.49054039558E+03  0.25500000920E-02 0.  1.
    10030    2    1    2    0    0  0.00000000000E+00  0.00000000000E+00  0.37352727790E+03  0.13546080691E+04  0.13020907777E+04 0.  0.
        5    1    3    3  502    0 -0.21875051023E+02  0.11380021449E+03  0.85323399042E+03  0.86108033254E+03  0.46999998093E+01 0. -1.
       -5    1    3    3    0  502  0.21875051023E+02 -0.11380021449E+03 -0.47970671252E+03  0.49352773652E+03  0.46999998093E+01 0.  1.
</event>
<event>
 5   0  0.6006119E-04  0.1299593E+04  0.7818609E-02  0.9029888E-01
       -1   -1    0    0    0  501  0.00000000000E+00  0.00000000000E+00  0.59859164562E+03  0.59859164564E+03  0.50400001928E-02 0. -1.
        1   -1    0    0  501    0  0.00000000000E+00  0.00000000000E+00 -0.70538116624E+03  0.70538116626E+03  0.50400001928E-02 0.  1.
    10030    2    1    2    0    0  0.00000000000E+00  0.00000000000E+00 -0.10678952062E+03  0.13039728119E+04  0.12995926640E+04 0.  0.
        4    1    3    3  502    0  0.46876607991E+03  0.54788993931E+02  0.39475385176E+03  0.61528504606E+03  0.12699999809E+01 0. -1.
       -4    1    3    3    0  502 -0.46876607991E+03 -0.54788993931E+02 -0.50154337238E+03  0.68868776583E+03  0.12699999809E+01 0.  1.
</event>
<event>
 5   0  0.5766027E-04  0.1303401E+04  0.7818609E-02  0.9026873E-01
       -1   -1    0    0    0  501  0.00000000000E+00  0.00000000000E+00  0.44878679412E+03  0.44878679415E+03  0.50400001928E-02 0.  1.
        1   -1    0    0  501    0  0.00000000000E+00  0.00000000000E+00 -0.94635871814E+03  0.94635871815E+03  0.50400001928E-02 0. -1.
    10030    2    1    2    0    0  0.00000000000E+00  0.00000000000E+00 -0.49757192402E+03  0.13951455123E+04  0.13034006218E+04 0.  0.
        3    1    3    3  502    0 -0.13403791975E+02  0.30430814564E+02 -0.94545008959E+03  0.94603466016E+03  0.10100000352E+00 0. -1.
       -3    1    3    3    0  502  0.13403791975E+02 -0.30430814564E+02  0.44787816558E+03  0.44911085215E+03  0.10100000352E+00 0.  1.
</event>
<event>
 5   0  0.5812938E-04  0.1303226E+04  0.7818609E-02  0.9027011E-01
        1   -1    0    0  501    0  0.00000000000E+00  0.00000000000E+00  0.34921812860E+03  0.34921812864E+03  0.50400001928E-02 0. -1.
       -1   -1    0    0    0  501  0.00000000000E+00  0.00000000000E+00 -0.12158580890E+04  0.12158580890E+04  0.50400001928E-02 0.  1.
    10030    2    1    2    0    0  0.00000000000E+00  0.00000000000E+00 -0.86663996043E+03  0.15650762177E+04  0.13032262836E+04 0.  0.
        5    1    3    3  502    0  0.42782236499E+03  0.47927283789E+03 -0.56401215836E+03  0.85490714929E+03  0.46999998093E+01 0.  1.
       -5    1    3    3    0  502 -0.42782236499E+03 -0.47927283789E+03 -0.30262780207E+03  0.71016906839E+03  0.46999998093E+01 0. -1.
</event>
<event>
 5   0  0.1101619E-03  0.1324832E+04  0.7818609E-02  0.9010102E-01
        2   -1    0    0  501    0  0.00000000000E+00  0.00000000000E+00  0.12371681175E+04  0.12371681175E+04  0.25500000920E-02 0. -1.
       -2   -1    0    0    0  501  0.00000000000E+00  0.00000000000E+00 -0.35467682918E+03  0.35467682919E+03  0.25500000920E-02 0.  1.
    10030    2    1    2    0    0  0.00000000000E+00  0.00000000000E+00  0.88249128830E+03  0.15918449467E+04  0.13248318611E+04 0.  0.
        1    1    3    3  502    0  0.26252574457E+03 -0.10694850387E+03 -0.27811468885E+03  0.39712155472E+03  0.50400001928E-02 0.  1.
       -1    1    3    3    0  502 -0.26252574457E+03  0.10694850387E+03  0.11606059771E+04  0.11947233919E+04  0.50400001928E-02 0. -1.
</event>
<event>
 5   0  0.1081574E-03  0.1299483E+04  0.7818609E-02  0.9029975E-01
        2   -1    0    0  501    0  0.00000000000E+00  0.00000000000E+00  0.47900012314E+03  0.47900012314E+03  0.25500000920E-02 0. -1.
       -2   -1    0    0    0  501  0.00000000000E+00  0.00000000000E+00 -0.88134385202E+03  0.88134385203E+03  0.25500000920E-02 0.  1.
    10030    2    1    2    0    0  0.00000000000E+00  0.00000000000E+00 -0.40234372889E+03  0.13603439752E+04  0.12994826873E+04 0.  0.
        5    1    3    3  502    0 -0.24883660442E+02  0.33796341688E+03 -0.78148422424E+03  0.85180875227E+03  0.46999998093E+01 0.  1.
       -5    1    3    3    0  502  0.24883660442E+02 -0.33796341688E+03  0.37914049536E+03  0.50853522290E+03  0.46999998093E+01 0. -1.
</event>
<event>
 5   0  0.5812938E-04  0.1293035E+04  0.7818609E-02  0.9035107E-01
       -1   -1    0    0    0  501  0.00000000000E+00  0.00000000000E+00  0.83084419461E+03  0.83084419463E+03  0.50400001928E-02 0. -1.
        1   -1    0    0  501    0  0.00000000000E+00  0.00000000000E+00 -0.50308424905E+03  0.50308424907E+03  0.50400001928E-02 0.  1.
    10030    2    1    2    0    0  0.00000000000E+00  0.00000000000E+00  0.32775994556E+03  0.13339284437E+04  0.12930346132E+04 0.  0.
        5    1    3    3  502    0 -0.57758333410E+03 -0.11589674114E+03 -0.11086589163E+03  0.59945633566E+03  0.46999998093E+01 0.  1.
       -5    1    3    3    0  502  0.57758333410E+03  0.11589674114E+03  0.43862583719E+03  0.73447210804E+03  0.46999998093E+01 0. -1.
</event>
<event>
 5   0  0.5710383E-04  0.1341420E+04  0.7818609E-02  0.8997349E-01
        1   -1    0    0  501    0  0.00000000000E+00  0.00000000000E+00  0.15980304076E+04  0.15980304076E+04  0.50400001928E-02 0. -1.
       -1   -1    0    0    0  501  0.00000000000E+00  0.00000000000E+00 -0.28150393121E+03  0.28150393125E+03  0.50400001928E-02 0.  1.
    10030    2    1    2    0    0  0.00000000000E+00  0.00000000000E+00  0.13165264764E+04  0.18795343389E+04  0.13414199074E+04 0.  0.
        1    1    3    3  502    0 -0.48191472656E+03  0.34891320219E+03  0.22442681538E+03  0.63588491240E+03  0.50400001928E-02 0.  1.
       -1    1    3    3    0  502  0.48191472656E+03 -0.34891320219E+03  0.10920996610E+04  0.12436494265E+04  0.50400001928E-02 0. -1.
</event>
<event>
 5   0  0.1031295E-03  0.1298955E+04  0.7818609E-02  0.9030394E-01
        2   -1    0    0  501    0  0.00000000000E+00  0.00000000000E+00  0.54593173989E+03  0.54593173990E+03  0.25500000920E-02 0. -1.
       -2   -1    0    0    0  501  0.00000000000E+00  0.00000000000E+00 -0.77266222411E+03  0.77266222411E+03  0.25500000920E-02 0.  1.
    10030    2    1    2    0    0  0.00000000000E+00  0.00000000000E+00 -0.22673048421E+03  0.13185939640E+04  0.12989547065E+04 0.  0.
        2    1    3    3  502    0  0.20117842544E+03  0.80488981874E+02  0.50815773023E+03  0.55242693079E+03  0.25500000920E-02 0. -1.
       -2    1    3    3    0  502 -0.20117842544E+03 -0.80488981874E+02 -0.73488821444E+03  0.76616703322E+03  0.25500000920E-02 0.  1.
</event>
<event>
 5   0  0.5710383E-04  0.1298083E+04  0.7818609E-02  0.9031087E-01
        1   -1    0    0  501    0  0.00000000000E+00  0.00000000000E+00  0.48891992976E+03  0.48891992978E+03  0.50400001928E-02 0.  1.
       -1   -1    0    0    0  501  0.00000000000E+00  0.00000000000E+00 -0.86160313848E+03  0.86160313850E+03  0.50400001928E-02 0. -1.
    10030    2    1    2    0    0  0.00000000000E+00  0.00000000000E+00 -0.37268320873E+03  0.13505230683E+04  0.12980831190E+04 0.  0.
        1    1    3    3  502    0 -0.36998628773E+03  0.41649051167E+03 -0.53281248460E+03  0.77087180723E+03  0.50400001928E-02 0. -1.
       -1    1    3    3    0  502  0.36998628773E+03 -0.41649051167E+03  0.16012927587E+03  0.57965126105E+03  0.50400001928E-02 0.  1.
</event>
<event>
 5   0  0.1103241E-03  0.1302591E+04  0.7818609E-02  0.9027513E-01
       -2   -1    0    0    0  501  0.00000000000E+00  0.00000000000E+00  0.44497920418E+03  0.44497920418E+03  0.25500000920E-02 0. -1.
        2   -1    0    0  501    0  0.00000000000E+00  0.00000000000E+00 -0.95327172533E+03  0.95327172533E+03  0.25500000920E-02 0.  1.
    10030    2    1    2    0    0  0.00000000000E+00  0.00000000000E+00 -0.50829252115E+03  0.13982509295E+04  0.13025914075E+04 0.  0.
        4    1    3    3  502    0  0.62694606159E+03  0.14406498653E+03 -0.14484310447E+03  0.65939155462E+03  0.12699999809E+01 0. -1.
       -4    1    3    3    0  502 -0.62694606159E+03 -0.14406498653E+03 -0.36344941669E+03  0.73885937490E+03  0.12699999809E+01 0.  1.
</event>
<event>
 5   0  0.1101619E-03  0.1321688E+04  0.7818609E-02  0.9012541E-01
       -2   -1    0    0    0  501  0.00000000000E+00  0.00000000000E+00  0.25799676911E+03  0.25799676913E+03  0.25500000920E-02 0. -1.
        2   -1    0    0  501    0  0.00000000000E+00  0.00000000000E+00 -0.16927139207E+04  0.16927139207E+04  0.25500000920E-02 0.  1.
    10030    2    1    2    0    0  0.00000000000E+00  0.00000000000E+00 -0.14347171516E+04  0.19507106898E+04  0.13216878945E+04 0.  0.
        1    1    3    3  502    0  0.40143790008E+03 -0.21994652298E+03 -0.13873963562E+02  0.45795343375E+03  0.50400001928E-02 0. -1.
       -1    1    3    3    0  502 -0.40143790008E+03  0.21994652298E+03 -0.14208431880E+04  0.14927572561E+04  0.50400001928E-02 0.  1.
</event>
<event>
 5   0  0.4012375E-04  0.1273012E+04  0.7818609E-02  0.9051245E-01
       -4   -1    0    0    0  501  0.00000000000E+00  0.00000000000E+00  0.32319268450E+03  0.32319517976E+03  0.12699999809E+01 0.  1.
        4   -1    0    0  501    0  0.00000000000E+00  0.00000000000E+00 -0.12535485666E+04  0.12535492099E+04  0.12699999809E+01 0. -1.
    10030    2    1    2    0    0  0.00000000000E+00  0.00000000000E+00 -0.93035588207E+03  0.15767443897E+04  0.12730124913E+04 0.  0.
        3    1    3    3  502    0  0.58147766669E+03 -0.76020390163E+02 -0.77170109752E+03  0.96923576631E+03  0.10100000352E+00 0. -1.
       -3    1    3    3    0  502 -0.58147766669E+03  0.76020390163E+02 -0.15865478455E+03  0.60750862335E+03  0.10100000352E+00 0.  1.
</event>
<event>
 5   0  0.5710383E-04  0.1331219E+04  0.7818609E-02  0.9005168E-01
       -1   -1    0    0    0  501  0.00000000000E+00  0.00000000000E+00  0.49139291758E+03  0.49139291760E+03  0.50400001928E-02 0. -1.
        1   -1    0    0  501    0  0.00000000000E+00  0.00000000000E+00 -0.90159263811E+03  0.90159263813E+03  0.50400001928E-02 0.  1.
    10030    2    1    2    0    0  0.00000000000E+00  0.00000000000E+00 -0.41019972054E+03  0.13929855557E+04  0.13312193462E+04 0.  0.
        1    1    3    3  502    0 -0.21412357280E+03 -0.35932802515E+03 -0.74687823888E+03  0.85603308220E+03  0.50400001928E-02 0.  1.
       -1    1    3    3    0  502  0.21412357280E+03  0.35932802515E+03  0.33667851834E+03  0.53695247353E+03  0.50400001928E-02 0. -1.
</event>
<event>
 5   0  0.5812938E-04  0.1330614E+04  0.7818609E-02  0.9005634E-01
       -1   -1    0    0    0  501  0.00000000000E+00  0.00000000000E+00  0.32345617888E+03  0.32345617891E+03  0.50400001928E-02 0. -1.
        1   -1    0    0  501    0  0.00000000000E+00  0.00000000000E+00 -0.13684486608E+04  0.13684486608E+04  0.50400001928E-02 0.  1.
    10030    2    1    2    0    0  0.00000000000E+00  0.00000000000E+00 -0.10449924819E+04  0.16919048397E+04  0.13306136552E+04 0.  0.
        5    1    3    3  502    0 -0.22893994139E+03 -0.59313755791E+03 -0.27337707790E+03  0.69208581555E+03  0.46999998093E+01 0. -1.
       -5    1    3    3    0  502  0.22893994139E+03  0.59313755791E+03 -0.77161540400E+03  0.99981902415E+03  0.46999998093E+01 0.  1.
</event>
<event>
 5   0  0.1103241E-03  0.1339192E+04  0.7818609E-02  0.8999050E-01
       -2   -1    0    0    0  501  0.00000000000E+00  0.00000000000E+00  0.40015782569E+03  0.40015782570E+03  0.25500000920E-02 0.  1.
        2   -1    0    0  501    0  0.00000000000E+00  0.00000000000E+00 -0.11204549990E+04  0.11204549990E+04  0.25500000920E-02 0. -1.
    10030    2    1    2    0    0  0.00000000000E+00  0.00000000000E+00 -0.72029717329E+03  0.15206128247E+04  0.13391920492E+04 0.  0.
        4    1    3    3  502    0  0.20084182294E+03  0.24387593093E+03  0.31020631441E+03  0.44276684376E+03  0.12699999809E+01 0.  1.
       -4    1    3    3    0  502 -0.20084182294E+03 -0.24387593093E+03 -0.10305034877E+04  0.10778459809E+04  0.12699999809E+01 0. -1.
</event>
<event>
 5   0  0.6006119E-04  0.1211826E+04  0.7818609E-02  0.9102568E-01
        1   -1    0    0  501    0  0.00000000000E+00  0.00000000000E+00  0.22203348353E+04  0.22203348353E+04  0.50400001928E-02 0. -1.
       -1   -1    0    0    0  501  0.00000000000E+00  0.00000000000E+00 -0.16534919454E+03  0.16534919461E+03  0.50400001928E-02 0.  1.
    10030    2    1    2    0    0  0.00000000000E+00  0.00000000000E+00  0.20549856408E+04  0.23856840299E+04  0.12118260217E+04 0.  0.
        4    1    3    3  502    0  0.29848739636E+03  0.72889916528E+02  0.20555852876E+04  0.20784225156E+04  0.12699999809E+01 0. -1.
       -4    1    3    3    0  502 -0.29848739636E+03 -0.72889916528E+02 -0.59964685678E+00  0.30726151433E+03  0.12699999809E+01 0.  1.
</event>
<event>
 5   0  0.1103241E-03  0.1313942E+04  0.7818609E-02  0.9018582E-01
        2   -1    0    0  501    0  0.00000000000E+00  0.00000000000E+00  0.11230201345E+04  0.11230201345E+04  0.25500000920E-02 0. -1.
       -2   -1    0    0    0  501  0.00000000000E+00  0.00000000000E+00 -0.38433034501E+03  0.38433034502E+03  0.25500000920E-02 0.  1.
    10030    2    1    2    0    0  0.00000000000E+00  0.00000000000E+00  0.73868978947E+03  0.15073504795E+04  0.13139417274E+04 0.  0.
        4    1    3    3  502    0 -0.43965572781E+03  0.33140981676E+03  0.78054670593E+03  0.95518814831E+03  0.12699999809E+01 0. -1.
       -4    1    3    3    0  502  0.43965572781E+03 -0.33140981676E+03 -0.41856916456E+02  0.55216233120E+03  0.12699999809E+01 0.  1.
</event>
<event>
 5   0  0.5563545E-04  0.1300026E+04  0.7818609E-02  0.9029544E-01
        1   -1    0    0  501    0  0.00000000000E+00  0.00000000000E+00  0.42419094606E+03  0.42419094609E+03  0.50400001928E-02 0. -1.
       -1   -1    0    0    0  501  0.00000000000E+00  0.00000000000E+00 -0.99605366757E+03  0.99605366758E+03  0.50400001928E-02 0.  1.
    10030    2    1    2    0    0  0.00000000000E+00  0.00000000000E+00 -0.57186272151E+03  0.14202446137E+04  0.13000260730E+04 0.  0.
        2    1    3    3  502    0 -0.12818523895E+02  0.44666272631E+03  0.22978697961E+03  0.50246787125E+03  0.25500000920E-02 0. -1.
       -2    1    3    3    0  502  0.12818523895E+02 -0.44666272631E+03 -0.80164970111E+03  0.91777674242E+03  0.25500000920E-02 0.  1.
</event>
<event>
 5   0  0.1101619E-03  0.1322984E+04  0.7818609E-02  0.9011535E-01
        2   -1    0    0  501    0  0.00000000000E+00  0.00000000000E+00  0.11398282041E+04  0.11398282041E+04  0.25500000920E-02 0. -1.
       -2   -1    0    0    0  501  0.00000000000E+00  0.00000000000E+00 -0.38389264893E+03  0.38389264894E+03  0.25500000920E-02 0.  1.
    10030    2    1    2    0    0  0.00000000000E+00  0.00000000000E+00  0.75593555516E+03  0.15237208530E+04  0.13229840038E+04 0.  0.
        1    1    3    3  502    0 -0.51236278588E+02 -0.27906362016E+02 -0.38092356266E+03  0.38536564701E+03  0.50400001928E-02 0.  1.
       -1    1    3    3    0  502  0.51236278588E+02  0.27906362016E+02  0.11368591178E+04  0.11383552060E+04  0.50400001928E-02 0. -1.
</event>
<event>
 5   0  0.5710383E-04  0.1293258E+04  0.7818609E-02  0.9034929E-01
        1   -1    0    0  501    0  0.00000000000E+00  0.00000000000E+00  0.20871391094E+04  0.20871391094E+04  0.50400001928E-02 0. -1.
       -1   -1    0    0    0  501  0.00000000000E+00  0.00000000000E+00 -0.20033604253E+03  0.20033604259E+03  0.50400001928E-02 0.  1.
    10030    2    1    2    0    0  0.00000000000E+00  0.00000000000E+00  0.18868030669E+04  0.22874751520E+04  0.12932581946E+04 0.  0.
        1    1    3    3  502    0 -0.67079133753E+02 -0.40919701081E+03  0.65786519474E+02  0.41984481658E+03  0.50400001928E-02 0.  1.
       -1    1    3    3    0  502  0.67079133753E+02  0.40919701081E+03  0.18210165474E+04  0.18676303354E+04  0.50400001928E-02 0. -1.
</event>
<event>
 5   0  0.5710383E-04  0.1298254E+04  0.7818609E-02  0.9030951E-01
        1   -1    0    0  501    0  0.00000000000E+00  0.00000000000E+00  0.42125989688E+03  0.42125989691E+03  0.50400001928E-02 0. -1.
       -1   -1    0    0    0  501  0.00000000000E+00  0.00000000000E+00 -0.10002513929E+04  0.10002513929E+04  0.50400001928E-02 0.  1.
    10030    2    1    2    0    0  0.00000000000E+00  0.00000000000E+00 -0.57899149599E+03  0.14215112898E+04  0.12982539022E+04 0.  0.
        1    1    3    3  502    0  0.42266889046E+03 -0.18545732295E+03  0.21026098087E+03  0.50720123196E+03  0.50400001928E-02 0. -1.
       -1    1    3    3    0  502 -0.42266889046E+03  0.18545732295E+03 -0.78925247686E+03  0.91431005784E+03  0.50400001928E-02 0.  1.
</event>
<event>
 5   0  0.5766027E-04  0.1327159E+04  0.7818609E-02  0.9008300E-01
        1   -1    0    0  501    0  0.00000000000E+00  0.00000000000E+00  0.73314440009E+03  0.73314440011E+03  0.50400001928E-02 0.  1.
       -1   -1    0    0    0  501  0.00000000000E+00  0.00000000000E+00 -0.60061569791E+03  0.60061569794E+03  0.50400001928E-02 0. -1.
    10030    2    1    2    0    0  0.00000000000E+00  0.00000000000E+00  0.13252870217E+03  0.13337600980E+04  0.13271594261E+04 0.  0.
        3    1    3    3  502    0  0.36246399091E+02 -0.65829844549E+03 -0.93920735205E+01  0.65936246938E+03  0.10100000352E+00 0. -1.
       -3    1    3    3    0  502 -0.36246399091E+02  0.65829844549E+03  0.14192077570E+03  0.67439762867E+03  0.10100000352E+00 0.  1.
</event>
<event>
 5   0  0.1046253E-03  0.1295587E+04  0.7818609E-02  0.9033072E-01
        2   -1    0    0  501    0  0.00000000000E+00  0.00000000000E+00  0.26226733617E+04  0.26226733617E+04  0.25500000920E-02 0.  1.
       -2   -1    0    0    0  501  0.00000000000E+00  0.00000000000E+00 -0.16000324610E+03  0.16000324612E+03  0.25500000920E-02 0. -1.
    10030    2    1    2    0    0  0.00000000000E+00  0.00000000000E+00  0.24626701156E+04  0.27826766078E+04  0.12955867418E+04 0.  0.
        3    1    3    3  502    0  0.57713672039E+01 -0.59334550185E+03  0.17895349963E+04  0.18853455138E+04  0.10100000352E+00 0.  1.
       -3    1    3    3    0  502 -0.57713672039E+01  0.59334550185E+03  0.67313511929E+03  0.89733109401E+03  0.10100000352E+00 0. -1.
</event>
<event>
 5   0  0.1031295E-03  0.1280960E+04  0.7818609E-02  0.9044802E-01
        2   -1    0    0  501    0  0.00000000000E+00  0.00000000000E+00  0.34511865067E+03  0.34511865068E+03  0.25500000920E-02 0.  1.
       -2   -1    0    0    0  501  0.00000000000E+00  0.00000000000E+00 -0.11886195898E+04  0.11886195898E+04  0.25500000920E-02 0. -1.
    10030    2    1    2    0    0  0.00000000000E+00  0.00000000000E+00 -0.84350093912E+03  0.15337382405E+04  0.12809602476E+04 0.  0.
        2    1    3    3  502    0  0.57998899968E+03 -0.76673268025E+02 -0.10964142166E+03  0.59522035511E+03  0.25500000920E-02 0.  1.
       -2    1    3    3    0  502 -0.57998899968E+03  0.76673268025E+02 -0.73385951746E+03  0.93851788537E+03  0.25500000920E-02 0. -1.
</event>
<event>
 5   0  0.6006119E-04  0.1294850E+04  0.7818609E-02  0.9033659E-01
        1   -1    0    0  501    0  0.00000000000E+00  0.00000000000E+00  0.52934988454E+03  0.52934988457E+03  0.50400001928E-02 0. -1.
       -1   -1    0    0    0  501  0.00000000000E+00  0.00000000000E+00 -0.79183776237E+03  0.79183776238E+03  0.50400001928E-02 0.  1.
    10030    2    1    2    0    0  0.00000000000E+00  0.00000000000E+00 -0.26248787782E+03  0.13211876469E+04  0.12948501506E+04 0.  0.
        4    1    3    3  502    0 -0.36143617686E+03  0.39718288565E+03  0.23772899177E+03  0.58728786896E+03  0.12699999809E+01 0. -1.
       -4    1    3    3    0  502  0.36143617686E+03 -0.39718288565E+03 -0.50021686959E+03  0.73389977799E+03  0.12699999809E+01 0.  1.
</event>
<event>
 5   0  0.1101619E-03  0.1314859E+04  0.7818609E-02  0.9017864E-01
        2   -1    0    0  501    0  0.00000000000E+00  0.00000000000E+00  0.81212424450E+03  0.81212424450E+03  0.25500000920E-02 0.  1.
       -2   -1    0    0    0  501  0.00000000000E+00  0.00000000000E+00 -0.53220109178E+03  0.53220109178E+03  0.25500000920E-02 0. -1.
    10030    2    1    2    0    0  0.00000000000E+00  0.00000000000E+00  0.27992315272E+03  0.13443253363E+04  0.13148587903E+04 0.  0.
        1    1    3    3  502    0 -0.37119244265E+03  0.52795655135E+03  0.11888764010E+02  0.64549461061E+03  0.50400001928E-02 0. -1.
       -1    1    3    3    0  502  0.37119244265E+03 -0.52795655135E+03  0.26803438871E+03  0.69883072567E+03  0.50400001928E-02 0.  1.
</event>
<event>
 5   0  0.4012375E-04  0.1313173E+04  0.7818609E-02  0.9019183E-01
       -4   -1    0    0    0  501  0.00000000000E+00  0.00000000000E+00  0.66157059346E+03  0.66157181245E+03  0.12699999809E+01 0.  1.
        4   -1    0    0  501    0  0.00000000000E+00  0.00000000000E+00 -0.65163773723E+03  0.65163897480E+03  0.12699999809E+01 0. -1.
    10030    2    1    2    0    0  0.00000000000E+00  0.00000000000E+00  0.99328562358E+01  0.13132107873E+04  0.13131732217E+04 0.  0.
        2    1    3    3  502    0 -0.50625295591E+03 -0.13459116157E+03 -0.39089731967E+03  0.65361116168E+03  0.25500000920E-02 0. -1.
       -2    1    3    3    0  502  0.50625295591E+03  0.13459116157E+03  0.40083017590E+03  0.65959962558E+03  0.25500000920E-02 0.  1.
</event>
<event>
 5   0  0.6006119E-04  0.1295446E+04  0.7818609E-02  0.9033184E-01
       -1   -1    0    0    0  501  0.00000000000E+00  0.00000000000E+00  0.26430835463E+03  0.26430835468E+03  0.50400001928E-02 0. -1.
        1   -1    0    0  501    0  0.00000000000E+00  0.00000000000E+00 -0.15873327287E+04  0.15873327287E+04  0.50400001928E-02 0.  1.
    10030    2    1    2    0    0  0.00000000000E+00  0.00000000000E+00 -0.13230243741E+04  0.18516410834E+04  0.12954463352E+04 0.  0.
        4    1    3    3  502    0 -0.50512497461E+03  0.33861275268E+03 -0.98027190453E+03  0.11535789769E+04  0.12699999809E+01 0.  1.
       -4    1    3    3    0  502  0.50512497461E+03 -0.33861275268E+03 -0.34275246957E+03  0.69806210651E+03  0.12699999809E+01 0. -1.
</event>
<event>
 5   0  0.1101619E-03  0.1296040E+04  0.7818609E-02  0.9032711E-01
       -2   -1    0    0    0  501  0.00000000000E+00  0.00000000000E+00  0.72364036738E+03  0.72364036739E+03  0.25500000920E-02 0. -1.
        2   -1    0    0  501    0  0.00000000000E+00  0.00000000000E+00 -0.58030205520E+03  0.58030205520E+03  0.25500000920E-02 0.  1.
    10030    2    1    2    0    0  0.00000000000E+00  0.00000000000E+00  0.14333831219E+03  0.13039424226E+04  0.12960401111E+04 0.  0.
        1    1    3    3  502    0  0.34942518963E+03  0.39832370427E+03  0.44699907508E+03  0.69323005537E+03  0.50400001928E-02 0. -1.
       -1    1    3    3    0  502 -0.34942518963E+03 -0.39832370427E+03 -0.30366076289E+03  0.61071236722E+03  0.50400001928E-02 0.  1.
</event>
<event>
 5   0  0.5710383E-04  0.1305915E+04  0.7818609E-02  0.9024888E-01
        1   -1    0    0  501    0  0.00000000000E+00  0.00000000000E+00  0.75569889883E+03  0.75569889884E+03  0.50400001928E-02 0. -1.
       -1   -1    0    0    0  501  0.00000000000E+00  0.00000000000E+00 -0.56418448737E+03  0.56418448739E+03  0.50400001928E-02 0.  1.
    10030    2    1    2    0    0  0.00000000000E+00  0.00000000000E+00  0.19151441146E+03  0.13198833862E+04  0.13059151517E+04 0.  0.
        1    1    3    3  502    0 -0.59413407691E+03 -0.74547033699E+02 -0.16741423678E+03  0.62175564998E+03  0.50400001928E-02 0.  1.
       -1    1    3    3    0  502  0.59413407691E+03  0.74547033699E+02  0.35892864824E+03  0.69812773626E+03  0.50400001928E-02 0. -1.
</event>
<event>
 5   0  0.1101619E-03  0.1306948E+04  0.7818609E-02  0.9024074E-01
       -2   -1    0    0    0  501  0.00000000000E+00  0.00000000000E+00  0.38708510020E+03  0.38708510021E+03  0.25500000920E-02 0. -1.
        2   -1    0    0  501    0  0.00000000000E+00  0.00000000000E+00 -0.11031893329E+04  0.11031893329E+04  0.25500000920E-02 0.  1.
    10030    2    1    2    0    0  0.00000000000E+00  0.00000000000E+00 -0.71610423274E+03  0.14902744332E+04  0.13069478237E+04 0.  0.
        1    1    3    3  502    0 -0.26739189543E+03 -0.32436100707E+03 -0.92855190156E+03  0.10192728401E+04  0.50400001928E-02 0.  1.
       -1    1    3    3    0  502  0.26739189543E+03  0.32436100707E+03  0.21244766882E+03  0.47100159306E+03  0.50400001928E-02 0. -1.
</event>
<event>
 5   0  0.6006119E-04  0.1314160E+04  0.7818609E-02  0.9018411E-01
        1   -1    0    0  501    0  0.00000000000E+00  0.00000000000E+00  0.67000070819E+03  0.67000070821E+03  0.50400001928E-02 0. -1.
       -1   -1    0    0    0  501  0.00000000000E+00  0.00000000000E+00 -0.64440808924E+03  0.64440808926E+03  0.50400001928E-02 0.  1.
    10030    2    1    2    0    0  0.00000000000E+00  0.00000000000E+00  0.25592618950E+02  0.13144087975E+04  0.13141596192E+04 0.  0.
        4    1    3    3  502    0 -0.15640258038E+03 -0.14897760403E+03 -0.60788252851E+03  0.64511927193E+03  0.12699999809E+01 0.  1.
       -4    1    3    3    0  502  0.15640258038E+03  0.14897760403E+03  0.63347514746E+03  0.66928952554E+03  0.12699999809E+01 0. -1.
</event>
<event>
 5   0  0.1031295E-03  0.1285410E+04  0.7818609E-02  0.9041216E-01
       -2   -1    0    0    0  501  0.00000000000E+00  0.00000000000E+00  0.32404335440E+03  0.32404335441E+03  0.25500000920E-02 0.  1.
        2   -1    0    0  501    0  0.00000000000E+00  0.00000000000E+00 -0.12747356741E+04  0.12747356741E+04  0.25500000920E-02 0. -1.
    10030    2    1    2    0    0  0.00000000000E+00  0.00000000000E+00 -0.95069231967E+03  0.15987790285E+04  0.12854098550E+04 0.  0.
        2    1    3    3  502    0 -0.56829905308E+03 -0.17558129422E+03 -0.17252236609E+03  0.61931944214E+03  0.25500000920E-02 0.  1.
       -2    1    3    3    0  502  0.56829905308E+03  0.17558129422E+03 -0.77816995358E+03  0.97945958634E+03  0.25500000920E-02 0. -1.
</event>
<event>
 5   0  0.1031295E-03  0.1312344E+04  0.7818609E-02  0.9019833E-01
       -2   -1    0    0    0  501  0.00000000000E+00  0.00000000000E+00  0.22003169966E+03  0.22003169967E+03  0.25500000920E-02 0. -1.
        2   -1    0    0  501    0  0.00000000000E+00  0.00000000000E+00 -0.19568163227E+04  0.19568163227E+04  0.25500000920E-02 0.  1.
    10030    2    1    2    0    0  0.00000000000E+00  0.00000000000E+00 -0.17367846230E+04  0.21768480224E+04  0.13123438900E+04 0.  0.
        2    1    3    3  502    0  0.43071676077E+03 -0.47790653295E+03 -0.65435569067E+03  0.91765622766E+03  0.25500000920E-02 0. -1.
       -2    1    3    3    0  502 -0.43071676077E+03  0.47790653295E+03 -0.10824289324E+04  0.12591917947E+04  0.25500000920E-02 0.  1.
</event>
<event>
 5   0  0.6006119E-04  0.1280396E+04  0.7818609E-02  0.9045257E-01
        1   -1    0    0  501    0  0.00000000000E+00  0.00000000000E+00  0.12886748840E+04  0.12886748840E+04  0.50400001928E-02 0.  1.
       -1   -1    0    0    0  501  0.00000000000E+00  0.00000000000E+00 -0.31804267009E+03  0.31804267013E+03  0.50400001928E-02 0. -1.
    10030    2    1    2    0    0  0.00000000000E+00  0.00000000000E+00  0.97063221390E+03  0.16067175541E+04  0.12803961903E+04 0.  0.
        4    1    3    3  502    0 -0.33835045292E+03 -0.53652198378E+03  0.37653258214E+03  0.73764169241E+03  0.12699999809E+01 0. -1.
       -4    1    3    3    0  502  0.33835045292E+03  0.53652198378E+03  0.59409963176E+03  0.86907586173E+03  0.12699999809E+01 0.  1.
</event>
<event>
 5   0  0.5812938E-04  0.1299789E+04  0.7818609E-02  0.9029733E-01
       -1   -1    0    0    0  501  0.00000000000E+00  0.00000000000E+00  0.51562245050E+03  0.51562245052E+03  0.50400001928E-02 0.  1.
        1   -1    0    0  501    0  0.00000000000E+00  0.00000000000E+00 -0.81913190032E+03  0.81913190034E+03  0.50400001928E-02 0. -1.
    10030    2    1    2    0    0  0.00000000000E+00  0.00000000000E+00 -0.30350944982E+03  0.13347543509E+04  0.12997889025E+04 0.  0.
        5    1    3    3  502    0  0.43631610099E+03  0.48149412852E+03 -0.16356952963E+03  0.67006374085E+03  0.46999998093E+01 0.  1.
       -5    1    3    3    0  502 -0.43631610099E+03 -0.48149412852E+03 -0.13993992019E+03  0.66469061001E+03  0.46999998093E+01 0. -1.
</event>
<event>
 5   0  0.5563545E-04  0.1296313E+04  0.7818609E-02  0.9032494E-01
        1   -1    0    0  501    0  0.00000000000E+00  0.00000000000E+00  0.10469076875E+04  0.10469076875E+04  0.50400001928E-02 0.  1.
       -1   -1    0    0    0  501  0.00000000000E+00  0.00000000000E+00 -0.40128328381E+03  0.40128328384E+03  0.50400001928E-02 0. -1.
    10030    2    1    2    0    0  0.00000000000E+00  0.00000000000E+00  0.64562440372E+03  0.14481909714E+04  0.12963125468E+04 0.  0.
        2    1    3    3  502    0  0.41387584058E+03  0.18742627330E+03 -0.19360756911E+03  0.49386811009E+03  0.25500000920E-02 0.  1.
       -2    1    3    3    0  502 -0.41387584058E+03 -0.18742627330E+03  0.83923197283E+03  0.95432286128E+03  0.25500000920E-02 0. -1.
</event>
<event>
 5   0  0.1046253E-03  0.1292976E+04  0.7818609E-02  0.9035154E-01
        2   -1    0    0  501    0  0.00000000000E+00  0.00000000000E+00  0.16903907449E+04  0.16903907449E+04  0.25500000920E-02 0. -1.
       -2   -1    0    0    0  501  0.00000000000E+00  0.00000000000E+00 -0.24724849147E+03  0.24724849149E+03  0.25500000920E-02 0.  1.
    10030    2    1    2    0    0  0.00000000000E+00  0.00000000000E+00  0.14431422534E+04  0.19376392364E+04  0.12929757333E+04 0.  0.
        3    1    3    3  502    0 -0.82631891682E+02 -0.63969077108E+03  0.65600482796E+03  0.91998622633E+03  0.10100000352E+00 0. -1.
       -3    1    3    3    0  502  0.82631891682E+02  0.63969077108E+03  0.78713742548E+03  0.10176530101E+04  0.10100000352E+00 0.  1.
</event>
<event>
 5   0  0.5563545E-04  0.1313856E+04  0.7818609E-02  0.9018649E-01
       -1   -1    0    0    0  501  0.00000000000E+00  0.00000000000E+00  0.23529433766E+03  0.23529433771E+03  0.50400001928E-02 0.  1.
        1   -1    0    0  501    0  0.00000000000E+00  0.00000000000E+00 -0.18341046155E+04  0.18341046155E+04  0.50400001928E-02 0. -1.
    10030    2    1    2    0    0  0.00000000000E+00  0.00000000000E+00 -0.15988102778E+04  0.20693989532E+04  0.13138560511E+04 0.  0.
        2    1    3    3  502    0  0.46005175258E+03  0.76434078627E+02 -0.70671337304E+02  0.47168233097E+03  0.25500000920E-02 0.  1.
       -2    1    3    3    0  502 -0.46005175258E+03 -0.76434078627E+02 -0.15281389405E+04  0.15977166222E+04  0.25500000920E-02 0. -1.
</event>
<event>
 5   0  0.5710383E-04  0.1298312E+04  0.7818609E-02  0.9030904E-01
        1   -1    0    0  501    0  0.00000000000E+00  0.00000000000E+00  0.54808723012E+03  0.54808723015E+03  0.50400001928E-02 0. -1.
       -1   -1    0    0    0  501  0.00000000000E+00  0.00000000000E+00 -0.76886262157E+03  0.76886262159E+03  0.50400001928E-02 0.  1.
    10030    2    1    2    0    0  0.00000000000E+00  0.00000000000E+00 -0.22077539145E+03  0.13169498517E+04  0.12983124195E+04 0.  0.
        1    1    3    3  502    0  0.35841054305E+03  0.22008482191E+03  0.39118843791E+03  0.57438997222E+03  0.50400001928E-02 0. -1.
       -1    1    3    3    0  502 -0.35841054305E+03 -0.22008482191E+03 -0.61196382936E+03  0.74255987952E+03  0.50400001928E-02 0.  1.
</event>
<event>
 5   0  0.1101619E-03  0.1292938E+04  0.7818609E-02  0.9035184E-01
        2   -1    0    0  501    0  0.00000000000E+00  0.00000000000E+00  0.76037294872E+03  0.76037294872E+03  0.25500000920E-02 0.  1.
       -2   -1    0    0    0  501  0.00000000000E+00  0.00000000000E+00 -0.54962772268E+03  0.54962772268E+03  0.25500000920E-02 0. -1.
    10030    2    1    2    0    0  0.00000000000E+00  0.00000000000E+00  0.21074522604E+03  0.13100006714E+04  0.12929378209E+04 0.  0.
        1    1    3    3  502    0 -0.26658451587E+03 -0.33340883389E+03  0.59726204829E+03  0.73413262356E+03  0.50400001928E-02 0.  1.
       -1    1    3    3    0  502  0.26658451587E+03  0.33340883389E+03 -0.38651682225E+03  0.57586804784E+03  0.50400001928E-02 0. -1.
</event>
<event>
 5   0  0.5812938E-04  0.1299981E+04  0.7818609E-02  0.9029580E-01
       -1   -1    0    0    0  501  0.00000000000E+00  0.00000000000E+00  0.10314970668E+04  0.10314970668E+04  0.50400001928E-02 0.  1.
        1   -1    0    0  501    0  0.00000000000E+00  0.00000000000E+00 -0.40958686020E+03  0.40958686023E+03  0.50400001928E-02 0. -1.
    10030    2    1    2    0    0  0.00000000000E+00  0.00000000000E+00  0.62191020657E+03  0.14410839270E+04  0.12999809920E+04 0.  0.
        5    1    3    3  502    0 -0.28958661056E+03  0.89923161790E+02 -0.32635451172E+03  0.44550638307E+03  0.46999998093E+01 0. -1.
       -5    1    3    3    0  502  0.28958661056E+03 -0.89923161790E+02  0.94826471829E+03  0.99557754394E+03  0.46999998093E+01 0.  1.
</event>
<event>
 5   0  0.5812938E-04  0.1303553E+04  0.7818609E-02  0.9026753E-01
        1   -1    0    0  501    0  0.00000000000E+00  0.00000000000E+00  0.75920061763E+03  0.75920061765E+03  0.50400001928E-02 0.  1.
       -1   -1    0    0    0  501  0.00000000000E+00  0.00000000000E+00 -0.55955230168E+03  0.55955230170E+03  0.50400001928E-02 0. -1.
    10030    2    1    2    0    0  0.00000000000E+00  0.00000000000E+00  0.19964831595E+03  0.13187529193E+04  0.13035527654E+04 0.  0.
        5    1    3    3  502    0  0.62593214277E+03 -0.45232825815E+02 -0.78162868452E+02  0.63243069177E+03  0.46999998093E+01 0. -1.
       -5    1    3    3    0  502 -0.62593214277E+03  0.45232825815E+02  0.27781118440E+03  0.68632222758E+03  0.46999998093E+01 0.  1.
</event>
<event>
 5   0  0.1031295E-03  0.1304846E+04  0.7818609E-02  0.9025731E-01
       -2   -1    0    0    0  501  0.00000000000E+00  0.00000000000E+00  0.16547597281E+03  0.16547597283E+03  0.25500000920E-02 0. -1.
        2   -1    0    0  501    0  0.00000000000E+00  0.00000000000E+00 -0.25723126076E+04  0.25723126076E+04  0.25500000920E-02 0.  1.
    10030    2    1    2    0    0  0.00000000000E+00  0.00000000000E+00 -0.24068366348E+04  0.27377885804E+04  0.13048462456E+04 0.  0.
        2    1    3    3  502    0  0.31297818082E+03  0.48211567755E+03 -0.18510191474E+04  0.19382112249E+04  0.25500000920E-02 0.  1.
       -2    1    3    3    0  502 -0.31297818082E+03 -0.48211567755E+03 -0.55581748740E+03  0.79957735556E+03  0.25500000920E-02 0. -1.
</event>
<event>
 5   0  0.1031295E-03  0.1305368E+04  0.7818609E-02  0.9025319E-01
        2   -1    0    0  501    0  0.00000000000E+00  0.00000000000E+00  0.17318770860E+04  0.17318770860E+04  0.25500000920E-02 0. -1.
       -2   -1    0    0    0  501  0.00000000000E+00  0.00000000000E+00 -0.24597383795E+03  0.24597383796E+03  0.25500000920E-02 0.  1.
    10030    2    1    2    0    0  0.00000000000E+00  0.00000000000E+00  0.14859032481E+04  0.19778509240E+04  0.13053680764E+04 0.  0.
        2    1    3    3  502    0  0.24772712881E+03 -0.45995850955E+03  0.15016310800E+03  0.54358027914E+03  0.25500000920E-02 0.  1.
       -2    1    3    3    0  502 -0.24772712881E+03  0.45995850955E+03  0.13357401401E+04  0.14342706449E+04  0.25500000920E-02 0. -1.
</event>
<event>
 5   0  0.5766027E-04  0.1274967E+04  0.7818609E-02  0.9049656E-01
        1   -1    0    0  501    0  0.00000000000E+00  0.00000000000E+00  0.45106197039E+03  0.45106197042E+03  0.50400001928E-02 0.  1.
       -1   -1    0    0    0  501  0.00000000000E+00  0.00000000000E+00 -0.90095206748E+03  0.90095206749E+03  0.50400001928E-02 0. -1.
    10030    2    1    2    0    0  0.00000000000E+00  0.00000000000E+00 -0.44989009709E+03  0.13520140379E+04  0.12749670032E+04 0.  0.
        3    1    3    3  502    0 -0.19250138157E+03 -0.13670637533E+03  0.40298729647E+03  0.46705908221E+03  0.10100000352E+00 0.  1.
       -3    1    3    3    0  502  0.19250138157E+03  0.13670637533E+03 -0.85287739356E+03  0.88495495569E+03  0.10100000352E+00 0. -1.
</event>
<event>
 5   0  0.1081574E-03  0.1287442E+04  0.7818609E-02  0.9039584E-01
        2   -1    0    0  501    0  0.00000000000E+00  0.00000000000E+00  0.60304825387E+03  0.60304825388E+03  0.25500000920E-02 0. -1.
       -2   -1    0    0    0  501  0.00000000000E+00  0.00000000000E+00 -0.68713669142E+03  0.68713669142E+03  0.25500000920E-02 0.  1.
    10030    2    1    2    0    0  0.00000000000E+00  0.00000000000E+00 -0.84088437545E+02  0.12901849453E+04  0.12874417765E+04 0.  0.
        5    1    3    3  502    0 -0.20299424771E+03 -0.44242028912E+03 -0.46414485740E+03  0.67260308911E+03  0.46999998093E+01 0.  1.
       -5    1    3    3    0  502  0.20299424771E+03  0.44242028912E+03  0.38005641985E+03  0.61758185619E+03  0.46999998093E+01 0. -1.
</event>
<event>
 5   0  0.6006119E-04  0.1301185E+04  0.7818609E-02  0.9028626E-01
        1   -1    0    0  501    0  0.00000000000E+00  0.00000000000E+00  0.11439465932E+04  0.11439465932E+04  0.50400001928E-02 0. -1.
       -1   -1    0    0    0  501  0.00000000000E+00  0.00000000000E+00 -0.37000885467E+03  0.37000885471E+03  0.50400001928E-02 0.  1.
    10030    2    1    2    0    0  0.00000000000E+00  0.00000000000E+00  0.77393773849E+03  0.15139554479E+04  0.13011846430E+04 0.  0.
        4    1    3    3  502    0 -0.11427592684E+03 -0.12558592629E+03 -0.34377218781E+03  0.38342110316E+03  0.12699999809E+01 0.  1.
       -4    1    3    3    0  502  0.11427592684E+03  0.12558592629E+03  0.11177099263E+04  0.11305343447E+04  0.12699999809E+01 0. -1.
</event>
<event>
 5   0  0.1031295E-03  0.1275222E+04  0.7818609E-02  0.9049448E-01
        2   -1    0    0  501    0  0.00000000000E+00  0.00000000000E+00  0.15090351533E+04  0.15090351533E+04  0.25500000920E-02 0. -1.
       -2   -1    0    0    0  501  0.00000000000E+00  0.00000000000E+00 -0.26940911139E+03  0.26940911140E+03  0.25500000920E-02 0.  1.
    10030    2    1    2    0    0  0.00000000000E+00  0.00000000000E+00  0.12396260419E+04  0.17784442647E+04  0.12752220508E+04 0.  0.
        2    1    3    3  502    0 -0.40961284623E+03 -0.27133661145E+03  0.53074591852E+02  0.49418938962E+03  0.25500000920E-02 0.  1.
       -2    1    3    3    0  502  0.40961284623E+03  0.27133661145E+03  0.11865514500E+04  0.12842548751E+04  0.25500000920E-02 0. -1.
</event>
<event>
 5   0  0.5766027E-04  0.1299602E+04  0.7818609E-02  0.9029881E-01
       -1   -1    0    0    0  501  0.00000000000E+00  0.00000000000E+00  0.88426854840E+03  0.88426854842E+03  0.50400001928E-02 0. -1.
        1   -1    0    0  501    0  0.00000000000E+00  0.00000000000E+00 -0.47750374936E+03  0.47750374938E+03  0.50400001928E-02 0.  1.
    10030    2    1    2    0    0  0.00000000000E+00  0.00000000000E+00  0.40676479905E+03  0.13617722978E+04  0.12996023197E+04 0.  0.
        3    1    3    3  502    0 -0.50400589315E+03 -0.54201056964E+02 -0.22261464861E+03  0.55363976273E+03  0.10100000352E+00 0.  1.
       -3    1    3    3    0  502  0.50400589315E+03  0.54201056964E+02  0.62937944766E+03  0.80813253507E+03  0.10100000352E+00 0. -1.
</event>
<event>
 5   0  0.5812938E-04  0.1305574E+04  0.7818609E-02  0.9025157E-01
       -1   -1    0    0    0  501  0.00000000000E+00  0.00000000000E+00  0.48473069490E+03  0.48473069493E+03  0.50400001928E-02 0. -1.
        1   -1    0    0  501    0  0.00000000000E+00  0.00000000000E+00 -0.87910811232E+03  0.87910811233E+03  0.50400001928E-02 0.  1.
    10030    2    1    2    0    0  0.00000000000E+00  0.00000000000E+00 -0.39437741742E+03  0.13638388073E+04  0.13055737225E+04 0.  0.
        5    1    3    3  502    0  0.30164179660E+03 -0.52782450674E+03 -0.44554252468E+03  0.75373517542E+03  0.46999998093E+01 0.  1.
       -5    1    3    3    0  502 -0.30164179660E+03  0.52782450674E+03  0.51165107261E+02  0.61010363183E+03  0.46999998093E+01 0. -1.
</event>
<event>
 5   0  0.5563545E-04  0.1297412E+04  0.7818609E-02  0.9031620E-01
       -1   -1    0    0    0  501  0.00000000000E+00  0.00000000000E+00  0.44232689692E+03  0.44232689695E+03  0.50400001928E-02 0.  1.
        1   -1    0    0  501    0  0.00000000000E+00  0.00000000000E+00 -0.95137695903E+03  0.95137695904E+03  0.50400001928E-02 0. -1.
    10030    2    1    2    0    0  0.00000000000E+00  0.00000000000E+00 -0.50905006211E+03  0.13937038560E+04  0.12974122215E+04 0.  0.
        2    1    3    3  502    0 -0.41800220146E+03  0.45681645053E+03 -0.46230368555E+03  0.77274304110E+03  0.25500000920E-02 0. -1.
       -2    1    3    3    0  502  0.41800220146E+03 -0.45681645053E+03 -0.46746376564E+02  0.62096081489E+03  0.25500000920E-02 0.  1.
</event>
<event>
 5   0  0.5812938E-04  0.1289129E+04  0.7818609E-02  0.9038231E-01
        1   -1    0    0  501    0  0.00000000000E+00  0.00000000000E+00  0.12066290286E+04  0.12066290286E+04  0.50400001928E-02 0. -1.
       -1   -1    0    0    0  501  0.00000000000E+00  0.00000000000E+00 -0.34431747374E+03  0.34431747378E+03  0.50400001928E-02 0.  1.
    10030    2    1    2    0    0  0.00000000000E+00  0.00000000000E+00  0.86231155488E+03  0.15509465024E+04  0.12891290997E+04 0.  0.
        5    1    3    3  502    0 -0.13432024519E+02  0.60415138842E+03  0.70088034325E+03  0.92543755325E+03  0.46999998093E+01 0. -1.
       -5    1    3    3    0  502  0.13432024519E+02 -0.60415138842E+03  0.16143121164E+03  0.62550894918E+03  0.46999998093E+01 0.  1.
</event>
<event>
 5   0  0.1031295E-03  0.1316229E+04  0.7818609E-02  0.9016793E-01
        2   -1    0    0  501    0  0.00000000000E+00  0.00000000000E+00  0.23059069647E+04  0.23059069647E+04  0.25500000920E-02 0. -1.
       -2   -1    0    0    0  501  0.00000000000E+00  0.00000000000E+00 -0.18782845111E+03  0.18782845113E+03  0.25500000920E-02 0.  1.
    10030    2    1    2    0    0  0.00000000000E+00  0.00000000000E+00  0.21180785136E+04  0.24937354158E+04  0.13162293624E+04 0.  0.
        2    1    3    3  502    0 -0.63052770135E+03  0.14287283724E+03  0.82594037345E+03  0.10488828964E+04  0.25500000920E-02 0. -1.
       -2    1    3    3    0  502  0.63052770135E+03 -0.14287283724E+03  0.12921381401E+04  0.14448525194E+04  0.25500000920E-02 0.  1.
</event>
<event>
 5   0  0.1031295E-03  0.1304753E+04  0.7818609E-02  0.9025804E-01
        2   -1    0    0  501    0  0.00000000000E+00  0.00000000000E+00  0.70639416149E+03  0.70639416149E+03  0.25500000920E-02 0. -1.
       -2   -1    0    0    0  501  0.00000000000E+00  0.00000000000E+00 -0.60248981283E+03  0.60248981283E+03  0.25500000920E-02 0.  1.
    10030    2    1    2    0    0  0.00000000000E+00  0.00000000000E+00  0.10390434866E+03  0.13088839743E+04  0.13047532888E+04 0.  0.
        2    1    3    3  502    0  0.24649358658E+03  0.14902614692E+02  0.65769668291E+03  0.70252836445E+03  0.25500000920E-02 0. -1.
       -2    1    3    3    0  502 -0.24649358658E+03 -0.14902614692E+02 -0.55379233424E+03  0.60635560987E+03  0.25500000920E-02 0.  1.
</event>
<event>
 5   0  0.6006119E-04  0.1306338E+04  0.7818609E-02  0.9024554E-01
       -1   -1    0    0    0  501  0.00000000000E+00  0.00000000000E+00  0.95864247313E+03  0.95864247314E+03  0.50400001928E-02 0.  1.
        1   -1    0    0  501    0  0.00000000000E+00  0.00000000000E+00 -0.44503506508E+03  0.44503506511E+03  0.50400001928E-02 0. -1.
    10030    2    1    2    0    0  0.00000000000E+00  0.00000000000E+00  0.51360740804E+03  0.14036775383E+04  0.13063376523E+04 0.  0.
        4    1    3    3  502    0 -0.56151890416E+03 -0.55167581668E+02 -0.96776511335E+02  0.57246331572E+03  0.12699999809E+01 0. -1.
       -4    1    3    3    0  502  0.56151890416E+03  0.55167581668E+02  0.61038391938E+03  0.83121422253E+03  0.12699999809E+01 0.  1.
</event>
<event>
 5   0  0.1103241E-03  0.1295004E+04  0.7818609E-02  0.9033537E-01
       -2   -1    0    0    0  501  0.00000000000E+00  0.00000000000E+00  0.20205979078E+03  0.20205979080E+03  0.25500000920E-02 0.  1.
        2   -1    0    0  501    0  0.00000000000E+00  0.00000000000E+00 -0.20749233483E+04  0.20749233483E+04  0.25500000920E-02 0. -1.
    10030    2    1    2    0    0  0.00000000000E+00  0.00000000000E+00 -0.18728635575E+04  0.22769831391E+04  0.12950035948E+04 0.  0.
        4    1    3    3  502    0  0.55520988762E+02  0.64069116934E+03 -0.80381000657E+03  0.10294075453E+04  0.12699999809E+01 0. -1.
       -4    1    3    3    0  502 -0.55520988762E+02 -0.64069116934E+03 -0.10690535509E+04  0.12475755938E+04  0.12699999809E+01 0.  1.
</event>
<event>
 5   0  0.5812938E-04  0.1278515E+04  0.7818609E-02  0.9046779E-01
       -1   -1    0    0    0  501  0.00000000000E+00  0.00000000000E+00  0.35989078353E+03  0.35989078356E+03  0.50400001928E-02 0. -1.
        1   -1    0    0  501    0  0.00000000000E+00  0.00000000000E+00 -0.11354830129E+04  0.11354830129E+04  0.50400001928E-02 0.  1.
    10030    2    1    2    0    0  0.00000000000E+00  0.00000000000E+00 -0.77559222937E+03  0.14953737965E+04  0.12785145619E+04 0.  0.
        5    1    3    3  502    0 -0.33447432073E+03 -0.45169352746E+03 -0.31633152603E+02  0.56295902188E+03  0.46999998093E+01 0.  1.
       -5    1    3    3    0  502  0.33447432073E+03  0.45169352746E+03 -0.74395907677E+03  0.93241477459E+03  0.46999998093E+01 0. -1.
</event>
<event>
 5   0  0.5812938E-04  0.1302410E+04  0.7818609E-02  0.9027656E-01
       -1   -1    0    0    0  501  0.00000000000E+00  0.00000000000E+00  0.28766608722E+03  0.28766608726E+03  0.50400001928E-02 0. -1.
        1   -1    0    0  501    0  0.00000000000E+00  0.00000000000E+00 -0.14741681547E+04  0.14741681547E+04  0.50400001928E-02 0.  1.
    10030    2    1    2    0    0  0.00000000000E+00  0.00000000000E+00 -0.11865020675E+04  0.17618342420E+04  0.13024103578E+04 0.  0.
        5    1    3    3  502    0  0.53918386292E+03  0.32326343081E+03 -0.36357190414E+03  0.72624038941E+03  0.46999998093E+01 0.  1.
       -5    1    3    3    0  502 -0.53918386292E+03 -0.32326343081E+03 -0.82293016335E+03  0.10355938526E+04  0.46999998093E+01 0. -1.
</event>
<event>
 5   0  0.5766027E-04  0.1360704E+04  0.7818609E-02  0.8982765E-01
       -1   -1    0    0    0  501  0.00000000000E+00  0.00000000000E+00  0.34367569424E+03  0.34367569427E+03  0.50400001928E-02 0.  1.
        1   -1    0    0  501    0  0.00000000000E+00  0.00000000000E+00 -0.13468470409E+04  0.13468470409E+04  0.50400001928E-02 0. -1.
    10030    2    1    2    0    0  0.00000000000E+00  0.00000000000E+00 -0.10031713466E+04  0.16905227351E+04  0.13607036295E+04 0.  0.
        3    1    3    3  502    0 -0.53788594864E+03  0.15909051134E+03 -0.23229748430E+02  0.56140067327E+03  0.10100000352E+00 0.  1.
       -3    1    3    3    0  502  0.53788594864E+03 -0.15909051134E+03 -0.97994159819E+03  0.11291220619E+04  0.10100000352E+00 0. -1.
</event>
<event>
 5   0  0.1031295E-03  0.1287722E+04  0.7818609E-02  0.9039359E-01
        2   -1    0    0  501    0  0.00000000000E+00  0.00000000000E+00  0.89930854158E+03  0.89930854158E+03  0.25500000920E-02 0. -1.
       -2   -1    0    0    0  501  0.00000000000E+00  0.00000000000E+00 -0.46097283159E+03  0.46097283160E+03  0.25500000920E-02 0.  1.
    10030    2    1    2    0    0  0.00000000000E+00  0.00000000000E+00  0.43833570998E+03  0.13602813732E+04  0.12877217167E+04 0.  0.
        2    1    3    3  502    0 -0.43916086485E+03  0.86604669292E+02 -0.26972147081E+03  0.52260147893E+03  0.25500000920E-02 0.  1.
       -2    1    3    3    0  502  0.43916086485E+03 -0.86604669292E+02  0.70805718079E+03  0.83767989425E+03  0.25500000920E-02 0. -1.
</event>
<event>
 5   0  0.5710383E-04  0.1302490E+04  0.7818609E-02  0.9027593E-01
        1   -1    0    0  501    0  0.00000000000E+00  0.00000000000E+00  0.68987351492E+03  0.68987351494E+03  0.50400001928E-02 0. -1.
       -1   -1    0    0    0  501  0.00000000000E+00  0.00000000000E+00 -0.61477903547E+03  0.61477903549E+03  0.50400001928E-02 0.  1.
    10030    2    1    2    0    0  0.00000000000E+00  0.00000000000E+00  0.75094479451E+02  0.13046525504E+04  0.13024895763E+04 0.  0.
        1    1    3    3  502    0  0.61500024175E+03  0.73505123277E+02 -0.16401185648E+03  0.64072473777E+03  0.50400001928E-02 0. -1.
       -1    1    3    3    0  502 -0.61500024175E+03 -0.73505123277E+02  0.23910633593E+03  0.66392781265E+03  0.50400001928E-02 0.  1.
</event>
<event>
 5   0  0.1031295E-03  0.1310650E+04  0.7818609E-02  0.9021162E-01
       -2   -1    0    0    0  501  0.00000000000E+00  0.00000000000E+00  0.10043672657E+04  0.10043672657E+04  0.25500000920E-02 0. -1.
        2   -1    0    0  501    0  0.00000000000E+00  0.00000000000E+00 -0.42758323684E+03  0.42758323684E+03  0.25500000920E-02 0.  1.
    10030    2    1    2    0    0  0.00000000000E+00  0.00000000000E+00  0.57678402890E+03  0.14319505026E+04  0.13106496198E+04 0.  0.
        2    1    3    3  502    0  0.75570438285E+02 -0.20617145681E+03  0.96297699845E+03  0.98769542892E+03  0.25500000920E-02 0. -1.
       -2    1    3    3    0  502 -0.75570438285E+02  0.20617145681E+03 -0.38619296955E+03  0.44425507367E+03  0.25500000920E-02 0.  1.
</event>
<event>
 5   0  0.1031295E-03  0.1304312E+04  0.7818609E-02  0.9026153E-01
        2   -1    0    0  501    0  0.00000000000E+00  0.00000000000E+00  0.17709312587E+04  0.17709312587E+04  0.25500000920E-02 0.  1.
       -2   -1    0    0    0  501  0.00000000000E+00  0.00000000000E+00 -0.24016032084E+03  0.24016032085E+03  0.25500000920E-02 0. -1.
    10030    2    1    2    0    0  0.00000000000E+00  0.00000000000E+00  0.15307709378E+04  0.20110915795E+04  0.13043119554E+04 0.  0.
        2    1    3    3  502    0  0.60028735106E+03  0.18439407020E+03  0.49407892881E+03  0.79903696089E+03  0.25500000920E-02 0. -1.
       -2    1    3    3    0  502 -0.60028735106E+03 -0.18439407020E+03  0.10366920090E+04  0.12120546186E+04  0.25500000920E-02 0.  1.
</event>
<event>
 5   0  0.5766027E-04  0.1289818E+04  0.7818609E-02  0.9037678E-01
       -1   -1    0    0    0  501  0.00000000000E+00  0.00000000000E+00  0.54399313159E+03  0.54399313161E+03  0.50400001928E-02 0.  1.
        1   -1    0    0  501    0  0.00000000000E+00  0.00000000000E+00 -0.76454615577E+03  0.76454615578E+03  0.50400001928E-02 0. -1.
    10030    2    1    2    0    0  0.00000000000E+00  0.00000000000E+00 -0.22055302418E+03  0.13085392874E+04  0.12898183710E+04 0.  0.
        3    1    3    3  502    0 -0.36140500379E+03  0.34701417162E+03  0.30166559452E+03  0.58483720229E+03  0.10100000352E+00 0.  1.
       -3    1    3    3    0  502  0.36140500379E+03 -0.34701417162E+03 -0.52221861870E+03  0.72370208510E+03  0.10100000352E+00 0. -1.
</event>
<event>
 5   0  0.5710383E-04  0.1300562E+04  0.7818609E-02  0.9029120E-01
        1   -1    0    0  501    0  0.00000000000E+00  0.00000000000E+00  0.12743286936E+04  0.12743286937E+04  0.50400001928E-02 0.  1.
       -1   -1    0    0    0  501  0.00000000000E+00  0.00000000000E+00 -0.33183382666E+03  0.33183382670E+03  0.50400001928E-02 0. -1.
    10030    2    1    2    0    0  0.00000000000E+00  0.00000000000E+00  0.94249486698E+03  0.16061625204E+04  0.13005619814E+04 0.  0.
        1    1    3    3  502    0 -0.32528371126E+03  0.56305828568E+03  0.47693918086E+03  0.80642117293E+03  0.50400001928E-02 0. -1.
       -1    1    3    3    0  502  0.32528371126E+03 -0.56305828568E+03  0.46555568612E+03  0.79974134743E+03  0.50400001928E-02 0.  1.
</event>
<event>
 5   0  0.5766027E-04  0.1301676E+04  0.7818609E-02  0.9028237E-01
       -1   -1    0    0    0  501  0.00000000000E+00  0.00000000000E+00  0.95256783364E+03  0.95256783365E+03  0.50400001928E-02 0.  1.
        1   -1    0    0  501    0  0.00000000000E+00  0.00000000000E+00 -0.44468233452E+03  0.44468233455E+03  0.50400001928E-02 0. -1.
    10030    2    1    2    0    0  0.00000000000E+00  0.00000000000E+00  0.50788549911E+03  0.13972501682E+04  0.13016759782E+04 0.  0.
        3    1    3    3  502    0 -0.49418637216E+03 -0.87570415507E+02 -0.19085042027E+03  0.53694752184E+03  0.10100000352E+00 0. -1.
       -3    1    3    3    0  502  0.49418637216E+03  0.87570415507E+02  0.69873591938E+03  0.86030264636E+03  0.10100000352E+00 0.  1.
</event>
<event>
 5   0  0.5812938E-04  0.1291214E+04  0.7818609E-02  0.9036562E-01
       -1   -1    0    0    0  501  0.00000000000E+00  0.00000000000E+00  0.19558765751E+03  0.19558765758E+03  0.50400001928E-02 0. -1.
        1   -1    0    0  501    0  0.00000000000E+00  0.00000000000E+00 -0.21310566209E+04  0.21310566209E+04  0.50400001928E-02 0.  1.
    10030    2    1    2    0    0  0.00000000000E+00  0.00000000000E+00 -0.19354689633E+04  0.23266442784E+04  0.12912139599E+04 0.  0.
        5    1    3    3  502    0  0.10884959513E+03  0.55093612444E+03 -0.39392638101E+03  0.68598755909E+03  0.46999998093E+01 0. -1.
       -5    1    3    3    0  502 -0.10884959513E+03 -0.55093612444E+03 -0.15415425823E+04  0.16406567193E+04  0.46999998093E+01 0.  1.
</event>
<event>
 5   0  0.6006119E-04  0.1300468E+04  0.7818609E-02  0.9029194E-01
        1   -1    0    0  501    0  0.00000000000E+00  0.00000000000E+00  0.78660476600E+03  0.78660476602E+03  0.50400001928E-02 0. -1.
       -1   -1    0    0    0  501  0.00000000000E+00  0.00000000000E+00 -0.53750496716E+03  0.53750496719E+03  0.50400001928E-02 0.  1.
    10030    2    1    2    0    0  0.00000000000E+00  0.00000000000E+00  0.24909979884E+03  0.13241097332E+04  0.13004675605E+04 0.  0.
        4    1    3    3  502    0 -0.46479910813E+03 -0.43830701464E+03  0.24779216131E+03  0.68523997119E+03  0.12699999809E+01 0.  1.
       -4    1    3    3    0  502  0.46479910813E+03  0.43830701464E+03  0.13076375249E+01  0.63886976202E+03  0.12699999809E+01 0. -1.
</event>
<event>
 5   0  0.6006119E-04  0.1304761E+04  0.7818609E-02  0.9025798E-01
        1   -1    0    0  501    0  0.00000000000E+00  0.00000000000E+00  0.46308053598E+03  0.46308053600E+03  0.50400001928E-02 0. -1.
       -1   -1    0    0    0  501  0.00000000000E+00  0.00000000000E+00 -0.91906273922E+03  0.91906273923E+03  0.50400001928E-02 0.  1.
    10030    2    1    2    0    0  0.00000000000E+00  0.00000000000E+00 -0.45598220324E+03  0.13821432752E+04  0.13047606154E+04 0.  0.
        4    1    3    3  502    0  0.34114705378E+03  0.31521477787E+03 -0.71326142532E+03  0.85116692971E+03  0.12699999809E+01 0.  1.
       -4    1    3    3    0  502 -0.34114705378E+03 -0.31521477787E+03  0.25727922208E+03  0.53097634552E+03  0.12699999809E+01 0. -1.
</event>
<event>
 5   0  0.1101619E-03  0.1310901E+04  0.7818609E-02  0.9020965E-01
       -2   -1    0    0    0  501  0.00000000000E+00  0.00000000000E+00  0.17182018577E+03  0.17182018579E+03  0.25500000920E-02 0. -1.
        2   -1    0    0  501    0  0.00000000000E+00  0.00000000000E+00 -0.25003762012E+04  0.25003762012E+04  0.25500000920E-02 0.  1.
    10030    2    1    2    0    0  0.00000000000E+00  0.00000000000E+00 -0.23285560155E+04  0.26721963870E+04  0.13109006117E+04 0.  0.
        1    1    3    3  502    0 -0.32317972414E+03  0.32203643251E+03 -0.20499067263E+03  0.50017374366E+03  0.50400001928E-02 0. -1.
       -1    1    3    3    0  502  0.32317972414E+03 -0.32203643251E+03 -0.21235653428E+04  0.21720226434E+04  0.50400001928E-02 0.  1.
</event>
<event>
 5   0  0.1046253E-03  0.1301608E+04  0.7818609E-02  0.9028291E-01
       -2   -1    0    0    0  501  0.00000000000E+00  0.00000000000E+00  0.16833521806E+03  0.16833521808E+03  0.25500000920E-02 0.  1.
        2   -1    0    0  501    0  0.00000000000E+00  0.00000000000E+00 -0.25160868900E+04  0.25160868900E+04  0.25500000920E-02 0. -1.
    10030    2    1    2    0    0  0.00000000000E+00  0.00000000000E+00 -0.23477516719E+04  0.26844221081E+04  0.13016082903E+04 0.  0.
        3    1    3    3  502    0  0.47465707953E+03  0.44213635088E+03 -0.10654850175E+04  0.12474142169E+04  0.10100000352E+00 0.  1.
       -3    1    3    3    0  502 -0.47465707953E+03 -0.44213635088E+03 -0.12822666545E+04  0.14370078912E+04  0.10100000352E+00 0. -1.
</event>
<event>
 5   0  0.5812938E-04  0.1308519E+04  0.7818609E-02  0.9022837E-01
       -1   -1    0    0    0  501  0.00000000000E+00  0.00000000000E+00  0.58848498451E+03  0.58848498454E+03  0.50400001928E-02 0. -1.
        1   -1    0    0  501    0  0.00000000000E+00  0.00000000000E+00 -0.72738562301E+03  0.72738562302E+03  0.50400001928E-02 0.  1.
    10030    2    1    2    0    0  0.00000000000E+00  0.00000000000E+00 -0.13890063849E+03  0.13158706076E+04  0.13085190363E+04 0.  0.
        5    1    3    3  502    0  0.36961615838E+03 -0.10731263646E+03 -0.60147969815E+03  0.71409524838E+03  0.46999998093E+01 0.  1.
       -5    1    3    3    0  502 -0.36961615838E+03  0.10731263646E+03  0.46257905966E+03  0.60177535918E+03  0.46999998093E+01 0. -1.
</event>
<event>
 5   0  0.1031295E-03  0.1290167E+04  0.7818609E-02  0.9037399E-01
        2   -1    0    0  501    0  0.00000000000E+00  0.00000000000E+00  0.79613106559E+03  0.79613106560E+03  0.25500000920E-02 0.  1.
       -2   -1    0    0    0  501  0.00000000000E+00  0.00000000000E+00 -0.52269380567E+03  0.52269380567E+03  0.25500000920E-02 0. -1.
    10030    2    1    2    0    0  0.00000000000E+00  0.00000000000E+00  0.27343725992E+03  0.13188248713E+04  0.12901670845E+04 0.  0.
        2    1    3    3  502    0 -0.62441051625E+02 -0.54491475965E+03  0.48382230158E+03  0.73137883462E+03  0.25500000920E-02 0.  1.
       -2    1    3    3    0  502  0.62441051625E+02  0.54491475965E+03 -0.21038504166E+03  0.58744603665E+03  0.25500000920E-02 0. -1.
</event>
<event>
 5   0  0.1103241E-03  0.1289839E+04  0.7818609E-02  0.9037662E-01
       -2   -1    0    0    0  501  0.00000000000E+00  0.00000000000E+00  0.18111008933E+03  0.18111008935E+03  0.25500000920E-02 0. -1.
        2   -1    0    0  501    0  0.00000000000E+00  0.00000000000E+00 -0.22965095580E+04  0.22965095580E+04  0.25500000920E-02 0.  1.
    10030    2    1    2    0    0  0.00000000000E+00  0.00000000000E+00 -0.21153994686E+04  0.24776196473E+04  0.12898388290E+04 0.  0.
        4    1    3    3  502    0 -0.60652786895E+03  0.42161253880E+02 -0.14708702099E+04  0.15915760787E+04  0.12699999809E+01 0.  1.
       -4    1    3    3    0  502  0.60652786895E+03 -0.42161253880E+02 -0.64452925873E+03  0.88604356857E+03  0.12699999809E+01 0. -1.
</event>
<event>
 5   0  0.6006119E-04  0.1281814E+04  0.7818609E-02  0.9044112E-01
        1   -1    0    0  501    0  0.00000000000E+00  0.00000000000E+00  0.51691921038E+03  0.51691921041E+03  0.50400001928E-02 0. -1.
       -1   -1    0    0    0  501  0.00000000000E+00  0.00000000000E+00 -0.79463487319E+03  0.79463487320E+03  0.50400001928E-02 0.  1.
    10030    2    1    2    0    0  0.00000000000E+00  0.00000000000E+00 -0.27771566281E+03  0.13115540836E+04  0.12818143878E+04 0.  0.
        4    1    3    3  502    0 -0.54484666284E+03 -0.23307664484E+03 -0.38860658485E+03  0.70866021412E+03  0.12699999809E+01 0.  1.
       -4    1    3    3    0  502  0.54484666284E+03  0.23307664484E+03  0.11089092205E+03  0.60289386949E+03  0.12699999809E+01 0. -1.
</event>
<event>
 5   0  0.1081574E-03  0.1298480E+04  0.7818609E-02  0.9030771E-01
        2   -1    0    0  501    0  0.00000000000E+00  0.00000000000E+00  0.12484846374E+04  0.12484846374E+04  0.25500000920E-02 0.  1.
       -2   -1    0    0    0  501  0.00000000000E+00  0.00000000000E+00 -0.33761929559E+03  0.33761929560E+03  0.25500000920E-02 0. -1.
    10030    2    1    2    0    0  0.00000000000E+00  0.00000000000E+00  0.91086534176E+03  0.15861039330E+04  0.12984798864E+04 0.  0.
        5    1    3    3  502    0 -0.12838201671E+03  0.48171171434E+03 -0.52577182533E+02  0.50131284451E+03  0.46999998093E+01 0. -1.
       -5    1    3    3    0  502  0.12838201671E+03 -0.48171171434E+03  0.96344252430E+03  0.10847910884E+04  0.46999998093E+01 0.  1.
</event>
<event>
 5   0  0.1046253E-03  0.1298042E+04  0.7818609E-02  0.9031119E-01
       -2   -1    0    0    0  501  0.00000000000E+00  0.00000000000E+00  0.30585138210E+03  0.30585138211E+03  0.25500000920E-02 0.  1.
        2   -1    0    0  501    0  0.00000000000E+00  0.00000000000E+00 -0.13772317675E+04  0.13772317675E+04  0.25500000920E-02 0. -1.
    10030    2    1    2    0    0  0.00000000000E+00  0.00000000000E+00 -0.10713803854E+04  0.16830831496E+04  0.12980419709E+04 0.  0.
        3    1    3    3  502    0  0.17135873699E+03 -0.62259950842E+03 -0.62006364900E+03  0.89525019052E+03  0.10100000352E+00 0. -1.
       -3    1    3    3    0  502 -0.17135873699E+03  0.62259950842E+03 -0.45131673636E+03  0.78783295904E+03  0.10100000352E+00 0.  1.
</event>
<event>
 5   0  0.6006119E-04  0.1309065E+04  0.7818609E-02  0.9022407E-01
        1   -1    0    0  501    0  0.00000000000E+00  0.00000000000E+00  0.42330517852E+03  0.42330517855E+03  0.50400001928E-02 0. -1.
       -1   -1    0    0    0  501  0.00000000000E+00  0.00000000000E+00 -0.10120662306E+04  0.10120662306E+04  0.50400001928E-02 0.  1.
    10030    2    1    2    0    0  0.00000000000E+00  0.00000000000E+00 -0.58876105206E+03  0.14353714091E+04  0.13090651266E+04 0.  0.
        4    1    3    3  502    0  0.97801893618E+02 -0.13958825706E+03  0.39854403728E+03  0.43346171049E+03  0.12699999809E+01 0. -1.
       -4    1    3    3    0  502 -0.97801893618E+02  0.13958825706E+03 -0.98730508934E+03  0.10019096986E+04  0.12699999809E+01 0.  1.
</event>
<event>
 5   0  0.4012375E-04  0.1292065E+04  0.7818609E-02  0.9035881E-01
        3   -1    0    0  501    0  0.00000000000E+00  0.00000000000E+00  0.55899763475E+03  0.55899764388E+03  0.10100000352E+00 0. -1.
       -3   -1    0    0    0  501  0.00000000000E+00  0.00000000000E+00 -0.74661859048E+03  0.74661859731E+03  0.10100000352E+00 0.  1.
    10030    2    1    2    0    0  0.00000000000E+00  0.00000000000E+00 -0.18762095572E+03  0.13056162412E+04  0.12920650704E+04 0.  0.
        5    1    3    3  502    0 -0.32280826729E+03  0.20493697924E+03 -0.61997459760E+03  0.72841947705E+03  0.46999998093E+01 0.  1.
       -5    1    3    3    0  502  0.32280826729E+03 -0.20493697924E+03  0.43235364187E+03  0.57719676414E+03  0.46999998093E+01 0. -1.
</event>
<event>
 5   0  0.5710383E-04  0.1305275E+04  0.7818609E-02  0.9025392E-01
       -1   -1    0    0    0  501  0.00000000000E+00  0.00000000000E+00  0.87617754330E+03  0.87617754331E+03  0.50400001928E-02 0. -1.
        1   -1    0    0  501    0  0.00000000000E+00  0.00000000000E+00 -0.48612964478E+03  0.48612964480E+03  0.50400001928E-02 0.  1.
    10030    2    1    2    0    0  0.00000000000E+00  0.00000000000E+00  0.39004789852E+03  0.13623071881E+04  0.13052752628E+04 0.  0.
        1    1    3    3  502    0  0.24215370547E+03 -0.36443814075E+03  0.70041549834E+03  0.82585437327E+03  0.50400001928E-02 0. -1.
       -1    1    3    3    0  502 -0.24215370547E+03  0.36443814075E+03 -0.31036759982E+03  0.53645281484E+03  0.50400001928E-02 0.  1.
</event>
<event>
 5   0  0.1103241E-03  0.1296807E+04  0.7818609E-02  0.9032101E-01
       -2   -1    0    0    0  501  0.00000000000E+00  0.00000000000E+00  0.25951469693E+03  0.25951469694E+03  0.25500000920E-02 0.  1.
        2   -1    0    0  501    0  0.00000000000E+00  0.00000000000E+00 -0.16200523382E+04  0.16200523382E+04  0.25500000920E-02 0. -1.
    10030    2    1    2    0    0  0.00000000000E+00  0.00000000000E+00 -0.13605376413E+04  0.18795670351E+04  0.12968074515E+04 0.  0.
        4    1    3    3  502    0  0.44375329413E+03  0.25897490049E+03 -0.10700131257E+03  0.52481985378E+03  0.12699999809E+01 0.  1.
       -4    1    3    3    0  502 -0.44375329413E+03 -0.25897490049E+03 -0.12535363287E+04  0.13547471813E+04  0.12699999809E+01 0. -1.
</event>
<event>
 5   0  0.1046253E-03  0.1285279E+04  0.7818609E-02  0.9041321E-01
       -2   -1    0    0    0  501  0.00000000000E+00  0.00000000000E+00  0.15511237166E+04  0.15511237166E+04  0.25500000920E-02 0.  1.
        2   -1    0    0  501    0  0.00000000000E+00  0.00000000000E+00 -0.26624938805E+03  0.26624938806E+03  0.25500000920E-02 0. -1.
    10030    2    1    2    0    0  0.00000000000E+00  0.00000000000E+00  0.12848743286E+04  0.18173731047E+04  0.12852793321E+04 0.  0.
        3    1    3    3  502    0  0.11327935202E+03 -0.44925438224E+03  0.12736386616E+02  0.46349103260E+03  0.10100000352E+00 0. -1.
       -3    1    3    3    0  502 -0.11327935202E+03  0.44925438224E+03  0.12721379420E+04  0.13538820721E+04  0.10100000352E+00 0.  1.
</event>
<event>
 5   0  0.1031295E-03  0.1293669E+04  0.7818609E-02  0.9034601E-01
        2   -1    0    0  501    0  0.00000000000E+00  0.00000000000E+00  0.71599974487E+03  0.71599974487E+03  0.25500000920E-02 0. -1.
       -2   -1    0    0    0  501  0.00000000000E+00  0.00000000000E+00 -0.58435082121E+03  0.58435082122E+03  0.25500000920E-02 0.  1.
    10030    2    1    2    0    0  0.00000000000E+00  0.00000000000E+00  0.13164892365E+03  0.13003505661E+04  0.12936692605E+04 0.  0.
        2    1    3    3  502    0 -0.29165421602E+03 -0.51676224272E+03  0.32462193281E+03  0.67637622407E+03  0.25500000920E-02 0. -1.
       -2    1    3    3    0  502  0.29165421602E+03  0.51676224272E+03 -0.19297300916E+03  0.62397434201E+03  0.25500000920E-02 0.  1.
</event>
<event>
 5   0  0.1031295E-03  0.1299624E+04  0.7818609E-02  0.9029864E-01
       -2   -1    0    0    0  501  0.00000000000E+00  0.00000000000E+00  0.27827121336E+03  0.27827121338E+03  0.25500000920E-02 0. -1.
        2   -1    0    0  501    0  0.00000000000E+00  0.00000000000E+00 -0.15174240741E+04  0.15174240741E+04  0.25500000920E-02 0.  1.
    10030    2    1    2    0    0  0.00000000000E+00  0.00000000000E+00 -0.12391528607E+04  0.17956952875E+04  0.12996236968E+04 0.  0.
        2    1    3    3  502    0 -0.41464201933E+03 -0.42408866728E+03 -0.25277047916E+03  0.64472638929E+03  0.25500000920E-02 0. -1.
       -2    1    3    3    0  502  0.41464201933E+03  0.42408866728E+03 -0.98638238157E+03  0.11509688982E+04  0.25500000920E-02 0.  1.
</event>
<event>
 5   0  0.1103241E-03  0.1363511E+04  0.7818609E-02  0.8980663E-01
       -2   -1    0    0    0  501  0.00000000000E+00  0.00000000000E+00  0.29783747747E+03  0.29783747748E+03  0.25500000920E-02 0. -1.
        2   -1    0    0  501    0  0.00000000000E+00  0.00000000000E+00 -0.15605515883E+04  0.15605515883E+04  0.25500000920E-02 0.  1.
    10030    2    1    2    0    0  0.00000000000E+00  0.00000000000E+00 -0.12627141109E+04  0.18583890658E+04  0.13635112739E+04 0.  0.
        4    1    3    3  502    0  0.58735174683E+03 -0.33429216678E+03 -0.75368691344E+03  0.10123136390E+04  0.12699999809E+01 0. -1.
       -4    1    3    3    0  502 -0.58735174683E+03  0.33429216678E+03 -0.50902719742E+03  0.84607542683E+03  0.12699999809E+01 0.  1.
</event>
<event>
 5   0  0.1081574E-03  0.1303442E+04  0.7818609E-02  0.9026840E-01
       -2   -1    0    0    0  501  0.00000000000E+00  0.00000000000E+00  0.31372087119E+03  0.31372087120E+03  0.25500000920E-02 0.  1.
        2   -1    0    0  501    0  0.00000000000E+00  0.00000000000E+00 -0.13538798264E+04  0.13538798264E+04  0.25500000920E-02 0. -1.
    10030    2    1    2    0    0  0.00000000000E+00  0.00000000000E+00 -0.10401589552E+04  0.16676006976E+04  0.13034421485E+04 0.  0.
        5    1    3    3  502    0  0.22024509656E+03 -0.42821411856E+03 -0.10819060636E+04  0.11842373302E+04  0.46999998093E+01 0. -1.
       -5    1    3    3    0  502 -0.22024509656E+03  0.42821411856E+03  0.41747108337E+02  0.48336336740E+03  0.46999998093E+01 0.  1.
</event>
<event>
 5   0  0.1081574E-03  0.1305807E+04  0.7818609E-02  0.9024972E-01
       -2   -1    0    0    0  501  0.00000000000E+00  0.00000000000E+00  0.42375635325E+03  0.42375635326E+03  0.25500000920E-02 0. -1.
        2   -1    0    0  501    0  0.00000000000E+00  0.00000000000E+00 -0.10059630390E+04  0.10059630390E+04  0.25500000920E-02 0.  1.
    10030    2    1    2    0    0  0.00000000000E+00  0.00000000000E+00 -0.58220668575E+03  0.14297193923E+04  0.13058073808E+04 0.  0.
        5    1    3    3  502    0 -0.55413224863E+02  0.63403632962E+03 -0.13172795915E+03  0.64995925871E+03  0.46999998093E+01 0.  1.
       -5    1    3    3    0  502  0.55413224863E+02 -0.63403632962E+03 -0.45047872660E+03  0.77976013355E+03  0.46999998093E+01 0. -1.
</event>
<event>
 5   0  0.1046253E-03  0.1306999E+04  0.7818609E-02  0.9024033E-01
       -2   -1    0    0    0  501  0.00000000000E+00  0.00000000000E+00  0.51023990330E+03  0.51023990331E+03  0.25500000920E-02 0.  1.
        2   -1    0    0  501    0  0.00000000000E+00  0.00000000000E+00 -0.83698238733E+03  0.83698238733E+03  0.25500000920E-02 0. -1.
    10030    2    1    2    0    0  0.00000000000E+00  0.00000000000E+00 -0.32674248402E+03  0.13472222906E+04  0.13069993304E+04 0.  0.
        3    1    3    3  502    0 -0.49878350996E+03 -0.37287876105E+03  0.40811327646E+02  0.62409064639E+03  0.10100000352E+00 0.  1.
       -3    1    3    3    0  502  0.49878350996E+03  0.37287876105E+03 -0.36755381167E+03  0.72313164425E+03  0.10100000352E+00 0. -1.
</event>
<event>
 5   0  0.5710383E-04  0.1290756E+04  0.7818609E-02  0.9036928E-01
       -1   -1    0    0    0  501  0.00000000000E+00  0.00000000000E+00  0.35963979043E+03  0.35963979046E+03  0.50400001928E-02 0. -1.
        1   -1    0    0  501    0  0.00000000000E+00  0.00000000000E+00 -0.11581384296E+04  0.11581384296E+04  0.50400001928E-02 0.  1.
    10030    2    1    2    0    0  0.00000000000E+00  0.00000000000E+00 -0.79849863920E+03  0.15177782201E+04  0.12907558439E+04 0.  0.
        1    1    3    3  502    0  0.42888425140E+02 -0.60810633447E+03 -0.15013980977E+03  0.62783333261E+03  0.50400001928E-02 0. -1.
       -1    1    3    3    0  502 -0.42888425140E+02  0.60810633447E+03 -0.64835882943E+03  0.88994488749E+03  0.50400001928E-02 0.  1.
</event>
<event>
 5   0  0.5710383E-04  0.1289436E+04  0.7818609E-02  0.9037985E-01
        1   -1    0    0  501    0  0.00000000000E+00  0.00000000000E+00  0.65407462812E+03  0.65407462814E+03  0.50400001928E-02 0.  1.
       -1   -1    0    0    0  501  0.00000000000E+00  0.00000000000E+00 -0.63549486381E+03  0.63549486383E+03  0.50400001928E-02 0. -1.
    10030    2    1    2    0    0  0.00000000000E+00  0.00000000000E+00  0.18579764309E+02  0.12895694920E+04  0.12894356389E+04 0.  0.
        1    1    3    3  502    0 -0.11350321163E+03 -0.55236650481E+03 -0.30326349039E+03  0.64028156253E+03  0.50400001928E-02 0.  1.
       -1    1    3    3    0  502  0.11350321163E+03  0.55236650481E+03  0.32184325470E+03  0.64928792943E+03  0.50400001928E-02 0. -1.
</event>
<event>
 5   0  0.1031295E-03  0.1294189E+04  0.7818609E-02  0.9034186E-01
        2   -1    0    0  501    0  0.00000000000E+00  0.00000000000E+00  0.23899832955E+04  0.23899832955E+04  0.25500000920E-02 0.  1.
       -2   -1    0    0    0  501  0.00000000000E+00  0.00000000000E+00 -0.17520257694E+03  0.17520257696E+03  0.25500000920E-02 0. -1.
    10030    2    1    2    0    0  0.00000000000E+00  0.00000000000E+00  0.22147807186E+04  0.25651858725E+04  0.12941889078E+04 0.  0.
        2    1    3    3  502    0  0.48559971753E+03  0.42607016774E+03  0.10335367006E+04  0.12188277093E+04  0.25500000920E-02 0. -1.
       -2    1    3    3    0  502 -0.48559971753E+03 -0.42607016774E+03  0.11812440180E+04  0.13463581632E+04  0.25500000920E-02 0.  1.
</event>
<event>
 5   0  0.1103241E-03  0.1232689E+04  0.7818609E-02  0.9084715E-01
        2   -1    0    0  501    0  0.00000000000E+00  0.00000000000E+00  0.13456707153E+04  0.13456707153E+04  0.25500000920E-02 0.  1.
       -2   -1    0    0    0  501  0.00000000000E+00  0.00000000000E+00 -0.28229832674E+03  0.28229832675E+03  0.25500000920E-02 0. -1.
    10030    2    1    2    0    0  0.00000000000E+00  0.00000000000E+00  0.10633723885E+04  0.16279690420E+04  0.12326890789E+04 0.  0.
        4    1    3    3  502    0  0.98900679147E+02 -0.24592908398E+03 -0.20317388606E+03  0.33398158566E+03  0.12699999809E+01 0. -1.
       -4    1    3    3    0  502 -0.98900679147E+02  0.24592908398E+03  0.12665462746E+04  0.12939874564E+04  0.12699999809E+01 0.  1.
</event>
<event>
 5   0  0.5812938E-04  0.1295510E+04  0.7818609E-02  0.9033133E-01
        1   -1    0    0  501    0  0.00000000000E+00  0.00000000000E+00  0.11232485640E+04  0.11232485640E+04  0.50400001928E-02 0.  1.
       -1   -1    0    0    0  501  0.00000000000E+00  0.00000000000E+00 -0.37354746466E+03  0.37354746469E+03  0.50400001928E-02 0. -1.
    10030    2    1    2    0    0  0.00000000000E+00  0.00000000000E+00  0.74970109930E+03  0.14967960287E+04  0.12955101748E+04 0.  0.
        5    1    3    3  502    0 -0.64523538496E+03  0.35723364762E+02  0.42599716116E+03  0.77401584745E+03  0.46999998093E+01 0.  1.
       -5    1    3    3    0  502  0.64523538496E+03 -0.35723364762E+02  0.32370393814E+03  0.72278018121E+03  0.46999998093E+01 0. -1.
</event>
<event>
 5   0  0.4012375E-04  0.1338064E+04  0.7818609E-02  0.8999913E-01
        3   -1    0    0  501    0  0.00000000000E+00  0.00000000000E+00  0.29212028042E+03  0.29212029788E+03  0.10100000352E+00 0. -1.
       -3   -1    0    0    0  501  0.00000000000E+00  0.00000000000E+00 -0.15322580647E+04  0.15322580680E+04  0.10100000352E+00 0.  1.
    10030    2    1    2    0    0  0.00000000000E+00  0.00000000000E+00 -0.12401377842E+04  0.18243783659E+04  0.13380637870E+04 0.  0.
        1    1    3    3  502    0  0.46095395214E+01  0.65902612813E+03 -0.46302383142E+03  0.80543637483E+03  0.50400001928E-02 0. -1.
       -1    1    3    3    0  502 -0.46095395214E+01 -0.65902612813E+03 -0.77711395283E+03  0.10189419910E+04  0.50400001928E-02 0.  1.
</event>
<event>
 5   0  0.1101619E-03  0.1302787E+04  0.7818609E-02  0.9027358E-01
        2   -1    0    0  501    0  0.00000000000E+00  0.00000000000E+00  0.12446845919E+04  0.12446845919E+04  0.25500000920E-02 0.  1.
       -2   -1    0    0    0  501  0.00000000000E+00  0.00000000000E+00 -0.34090019267E+03  0.34090019268E+03  0.25500000920E-02 0. -1.
    10030    2    1    2    0    0  0.00000000000E+00  0.00000000000E+00  0.90378439918E+03  0.15855847845E+04  0.13027865784E+04 0.  0.
        1    1    3    3  502    0 -0.35642501605E+03  0.32538851821E+02  0.11142919995E+04  0.11703607260E+04  0.50400001928E-02 0.  1.
       -1    1    3    3    0  502  0.35642501605E+03 -0.32538851821E+02 -0.21050760029E+03  0.41522405849E+03  0.50400001928E-02 0. -1.
</event>
<event>
 5   0  0.5812938E-04  0.1304318E+04  0.7818609E-02  0.9026148E-01
        1   -1    0    0  501    0  0.00000000000E+00  0.00000000000E+00  0.47924475602E+03  0.47924475604E+03  0.50400001928E-02 0.  1.
       -1   -1    0    0    0  501  0.00000000000E+00  0.00000000000E+00 -0.88746236783E+03  0.88746236784E+03  0.50400001928E-02 0. -1.
    10030    2    1    2    0    0  0.00000000000E+00  0.00000000000E+00 -0.40821761181E+03  0.13667071239E+04  0.13043184979E+04 0.  0.
        5    1    3    3  502    0  0.42595964815E+03  0.12177918557E+03  0.29733979942E+03  0.53357739664E+03  0.46999998093E+01 0.  1.
       -5    1    3    3    0  502 -0.42595964815E+03 -0.12177918557E+03 -0.70555741122E+03  0.83312972725E+03  0.46999998093E+01 0. -1.
</event>
<event>
 5   0  0.6006119E-04  0.1306351E+04  0.7818609E-02  0.9024544E-01
        1   -1    0    0  501    0  0.00000000000E+00  0.00000000000E+00  0.57578310407E+03  0.57578310409E+03  0.50400001928E-02 0.  1.
       -1   -1    0    0    0  501  0.00000000000E+00  0.00000000000E+00 -0.74097045227E+03  0.74097045228E+03  0.50400001928E-02 0. -1.
    10030    2    1    2    0    0  0.00000000000E+00  0.00000000000E+00 -0.16518734820E+03  0.13167535564E+04  0.13063510509E+04 0.  0.
        4    1    3    3  502    0 -0.40826220859E+03  0.35772375873E+03 -0.44879419519E+03  0.70431680447E+03  0.12699999809E+01 0. -1.
       -4    1    3    3    0  502  0.40826220859E+03 -0.35772375873E+03  0.28360684699E+03  0.61243675191E+03  0.12699999809E+01 0.  1.
</event>
<event>
 5   0  0.5710383E-04  0.1300873E+04  0.7818609E-02  0.9028873E-01
        1   -1    0    0  501    0  0.00000000000E+00  0.00000000000E+00  0.18299340711E+04  0.18299340711E+04  0.50400001928E-02 0.  1.
       -1   -1    0    0    0  501  0.00000000000E+00  0.00000000000E+00 -0.23119281076E+03  0.23119281081E+03  0.50400001928E-02 0. -1.
    10030    2    1    2    0    0  0.00000000000E+00  0.00000000000E+00  0.15987412603E+04  0.20611268819E+04  0.13008729399E+04 0.  0.
        1    1    3    3  502    0  0.13369439274E+03  0.28773232928E+03  0.16990126530E+04  0.17283830823E+04  0.50400001928E-02 0.  1.
       -1    1    3    3    0  502 -0.13369439274E+03 -0.28773232928E+03 -0.10027139270E+03  0.33274379961E+03  0.50400001928E-02 0. -1.
</event>
<event>
 5   0  0.5710383E-04  0.1301565E+04  0.7818609E-02  0.9028325E-01
        1   -1    0    0  501    0  0.00000000000E+00  0.00000000000E+00  0.11916458189E+04  0.11916458189E+04  0.50400001928E-02 0. -1.
       -1   -1    0    0    0  501  0.00000000000E+00  0.00000000000E+00 -0.35540603049E+03  0.35540603052E+03  0.50400001928E-02 0.  1.
    10030    2    1    2    0    0  0.00000000000E+00  0.00000000000E+00  0.83623978840E+03  0.15470518494E+04  0.13015653810E+04 0.  0.
        1    1    3    3  502    0  0.45643209210E+03  0.44619992534E+03  0.26733289717E+03  0.69201987400E+03  0.50400001928E-02 0.  1.
       -1    1    3    3    0  502 -0.45643209210E+03 -0.44619992534E+03  0.56890689123E+03  0.85503197542E+03  0.50400001928E-02 0. -1.
</event>
<event>
 5   0  0.5710383E-04  0.1296062E+04  0.7818609E-02  0.9032694E-01
       -1   -1    0    0    0  501  0.00000000000E+00  0.00000000000E+00  0.39462432807E+03  0.39462432810E+03  0.50400001928E-02 0.  1.
        1   -1    0    0  501    0  0.00000000000E+00  0.00000000000E+00 -0.10641624769E+04  0.10641624769E+04  0.50400001928E-02 0. -1.
    10030    2    1    2    0    0  0.00000000000E+00  0.00000000000E+00 -0.66953814880E+03  0.14587868050E+04  0.12960623479E+04 0.  0.
        1    1    3    3  502    0  0.60245017764E+03 -0.22310082161E+03 -0.23910230881E+03  0.68548530783E+03  0.50400001928E-02 0. -1.
       -1    1    3    3    0  502 -0.60245017764E+03  0.22310082161E+03 -0.43043584000E+03  0.77330149717E+03  0.50400001928E-02 0.  1.
</event>
<event>
 5   0  0.5563545E-04  0.1299543E+04  0.7818609E-02  0.9029928E-01
       -1   -1    0    0    0  501  0.00000000000E+00  0.00000000000E+00  0.53101036524E+03  0.53101036527E+03  0.50400001928E-02 0.  1.
        1   -1    0    0  501    0  0.00000000000E+00  0.00000000000E+00 -0.79509380560E+03  0.79509380561E+03  0.50400001928E-02 0. -1.
    10030    2    1    2    0    0  0.00000000000E+00  0.00000000000E+00 -0.26408344035E+03  0.13261041709E+04  0.12995430768E+04 0.  0.
        2    1    3    3  502    0 -0.36612908231E+03 -0.47768942205E+03  0.11784155849E+03  0.61328975352E+03  0.25500000920E-02 0.  1.
       -2    1    3    3    0  502  0.36612908231E+03  0.47768942205E+03 -0.38192499885E+03  0.71281441737E+03  0.25500000920E-02 0. -1.
</event>
<event>
 5   0  0.5812938E-04  0.1308620E+04  0.7818609E-02  0.9022757E-01
       -1   -1    0    0    0  501  0.00000000000E+00  0.00000000000E+00  0.48097868175E+03  0.48097868178E+03  0.50400001928E-02 0. -1.
        1   -1    0    0  501    0  0.00000000000E+00  0.00000000000E+00 -0.89010512023E+03  0.89010512025E+03  0.50400001928E-02 0.  1.
    10030    2    1    2    0    0  0.00000000000E+00  0.00000000000E+00 -0.40912643848E+03  0.13710838020E+04  0.13086200172E+04 0.  0.
        5    1    3    3  502    0 -0.59795202131E+03 -0.26509006972E+03 -0.22209928685E+03  0.69077460005E+03  0.46999998093E+01 0.  1.
       -5    1    3    3    0  502  0.59795202131E+03  0.26509006972E+03 -0.18702715163E+03  0.68030920198E+03  0.46999998093E+01 0. -1.
</event>
<event>
 5   0  0.1046253E-03  0.1328180E+04  0.7818609E-02  0.9007512E-01
       -2   -1    0    0    0  501  0.00000000000E+00  0.00000000000E+00  0.43799996623E+03  0.43799996624E+03  0.25500000920E-02 0. -1.
        2   -1    0    0  501    0  0.00000000000E+00  0.00000000000E+00 -0.10068850464E+04  0.10068850464E+04  0.25500000920E-02 0.  1.
    10030    2    1    2    0    0  0.00000000000E+00  0.00000000000E+00 -0.56888508020E+03  0.14448850127E+04  0.13281801329E+04 0.  0.
        3    1    3    3  502    0 -0.10903263845E+03 -0.42298594975E+02 -0.99559419518E+03  0.10024395738E+04  0.10100000352E+00 0.  1.
       -3    1    3    3    0  502  0.10903263845E+03  0.42298594975E+02  0.42670911498E+03  0.44244543889E+03  0.10100000352E+00 0. -1.
</event>
<event>
 5   0  0.5766027E-04  0.1303140E+04  0.7818609E-02  0.9027079E-01
       -1   -1    0    0    0  501  0.00000000000E+00  0.00000000000E+00  0.52366031918E+03  0.52366031920E+03  0.50400001928E-02 0.  1.
        1   -1    0    0  501    0  0.00000000000E+00  0.00000000000E+00 -0.81072345332E+03  0.81072345334E+03  0.50400001928E-02 0. -1.
    10030    2    1    2    0    0  0.00000000000E+00  0.00000000000E+00 -0.28706313414E+03  0.13343837725E+04  0.13031403644E+04 0.  0.
        3    1    3    3  502    0 -0.30343831669E+03  0.57442925865E+03 -0.19472938778E+03  0.67820596421E+03  0.10100000352E+00 0. -1.
       -3    1    3    3    0  502  0.30343831669E+03 -0.57442925865E+03 -0.92333746361E+02  0.65617780833E+03  0.10100000352E+00 0.  1.
</event>
<event>
 5   0  0.5563545E-04  0.1302969E+04  0.7818609E-02  0.9027214E-01
       -1   -1    0    0    0  501  0.00000000000E+00  0.00000000000E+00  0.48766817447E+03  0.48766817450E+03  0.50400001928E-02 0. -1.
        1   -1    0    0  501    0  0.00000000000E+00  0.00000000000E+00 -0.87032907863E+03  0.87032907864E+03  0.50400001928E-02 0.  1.
    10030    2    1    2    0    0  0.00000000000E+00  0.00000000000E+00 -0.38266090415E+03  0.13579972531E+04  0.13029685998E+04 0.  0.
        2    1    3    3  502    0 -0.38307802381E+03  0.51564625340E+03 -0.78153504299E+02  0.64710725634E+03  0.25500000920E-02 0.  1.
       -2    1    3    3    0  502  0.38307802381E+03 -0.51564625340E+03 -0.30450739985E+03  0.71088999680E+03  0.25500000920E-02 0. -1.
</event>
<event>
 5   0  0.1081574E-03  0.1304183E+04  0.7818609E-02  0.9026255E-01
       -2   -1    0    0    0  501  0.00000000000E+00  0.00000000000E+00  0.10217789060E+04  0.10217789060E+04  0.25500000920E-02 0.  1.
        2   -1    0    0  501    0  0.00000000000E+00  0.00000000000E+00 -0.41615980733E+03  0.41615980734E+03  0.25500000920E-02 0. -1.
    10030    2    1    2    0    0  0.00000000000E+00  0.00000000000E+00  0.60561909866E+03  0.14379387133E+04  0.13041829820E+04 0.  0.
        5    1    3    3  502    0  0.16394906336E+03 -0.36360256843E+03 -0.26596035215E+03  0.47941956787E+03  0.46999998093E+01 0. -1.
       -5    1    3    3    0  502 -0.16394906336E+03  0.36360256843E+03  0.87157945080E+03  0.95851914546E+03  0.46999998093E+01 0.  1.
</event>
<event>
 5   0  0.1046253E-03  0.1340164E+04  0.7818609E-02  0.8998307E-01
        2   -1    0    0  501    0  0.00000000000E+00  0.00000000000E+00  0.27082628439E+03  0.27082628440E+03  0.25500000920E-02 0. -1.
       -2   -1    0    0    0  501  0.00000000000E+00  0.00000000000E+00 -0.16579260942E+04  0.16579260942E+04  0.25500000920E-02 0.  1.
    10030    2    1    2    0    0  0.00000000000E+00  0.00000000000E+00 -0.13870998098E+04  0.19287523786E+04  0.13401641152E+04 0.  0.
        3    1    3    3  502    0 -0.24037870968E+02 -0.65511853941E+03 -0.49386072136E+03  0.82076582667E+03  0.10100000352E+00 0. -1.
       -3    1    3    3    0  502  0.24037870968E+02  0.65511853941E+03 -0.89323908846E+03  0.11079865519E+04  0.10100000352E+00 0.  1.
</event>
<event>
 5   0  0.5710383E-04  0.1310624E+04  0.7818609E-02  0.9021182E-01
        1   -1    0    0  501    0  0.00000000000E+00  0.00000000000E+00  0.83037146041E+03  0.83037146043E+03  0.50400001928E-02 0.  1.
       -1   -1    0    0    0  501  0.00000000000E+00  0.00000000000E+00 -0.51715866500E+03  0.51715866503E+03  0.50400001928E-02 0. -1.
    10030    2    1    2    0    0  0.00000000000E+00  0.00000000000E+00  0.31321279541E+03  0.13475301255E+04  0.13106239674E+04 0.  0.
        1    1    3    3  502    0  0.61293852009E+03  0.14689989446E+03 -0.27777233870E+02  0.63090790386E+03  0.50400001928E-02 0. -1.
       -1    1    3    3    0  502 -0.61293852009E+03 -0.14689989446E+03  0.34099002928E+03  0.71662222160E+03  0.50400001928E-02 0.  1.
</event>
<event>
 5   0  0.1103241E-03  0.1307910E+04  0.7818609E-02  0.9023316E-01
        2   -1    0    0  501    0  0.00000000000E+00  0.00000000000E+00  0.40142283821E+03  0.40142283822E+03  0.25500000920E-02 0. -1.
       -2   -1    0    0    0  501  0.00000000000E+00  0.00000000000E+00 -0.10653530218E+04  0.10653530218E+04  0.25500000920E-02 0.  1.
    10030    2    1    2    0    0  0.00000000000E+00  0.00000000000E+00 -0.66393018359E+03  0.14667758600E+04  0.13079098344E+04 0.  0.
        4    1    3    3  502    0 -0.43490104340E+03  0.31843777954E+03  0.83301185692E+02  0.54541932256E+03  0.12699999809E+01 0. -1.
       -4    1    3    3    0  502  0.43490104340E+03 -0.31843777954E+03 -0.74723136929E+03  0.92135653747E+03  0.12699999809E+01 0.  1.
</event>
<event>
 5   0  0.1101619E-03  0.1302338E+04  0.7818609E-02  0.9027713E-01
        2   -1    0    0  501    0  0.00000000000E+00  0.00000000000E+00  0.37798116750E+03  0.37798116751E+03  0.25500000920E-02 0.  1.
       -2   -1    0    0    0  501  0.00000000000E+00  0.00000000000E+00 -0.11218055639E+04  0.11218055640E+04  0.25500000920E-02 0. -1.
    10030    2    1    2    0    0  0.00000000000E+00  0.00000000000E+00 -0.74382439645E+03  0.14997867315E+04  0.13023384764E+04 0.  0.
        1    1    3    3  502    0  0.64412727436E+03 -0.18698379966E+02 -0.26405477522E+03  0.69640110521E+03  0.50400001928E-02 0.  1.
       -1    1    3    3    0  502 -0.64412727436E+03  0.18698379966E+02 -0.47976962123E+03  0.80338562625E+03  0.50400001928E-02 0. -1.
</event>
<event>
 5   0  0.1046253E-03  0.1306690E+04  0.7818609E-02  0.9024277E-01
       -2   -1    0    0    0  501  0.00000000000E+00  0.00000000000E+00  0.24686316823E+03  0.24686316824E+03  0.25500000920E-02 0.  1.
        2   -1    0    0  501    0  0.00000000000E+00  0.00000000000E+00 -0.17291339292E+04  0.17291339292E+04  0.25500000920E-02 0. -1.
    10030    2    1    2    0    0  0.00000000000E+00  0.00000000000E+00 -0.14822707610E+04  0.19759970975E+04  0.13066896802E+04 0.  0.
        3    1    3    3  502    0 -0.23771603820E+03  0.28841738595E+03  0.69228966121E+02  0.38011335584E+03  0.10100000352E+00 0.  1.
       -3    1    3    3    0  502  0.23771603820E+03 -0.28841738595E+03 -0.15514997271E+04  0.15958837416E+04  0.10100000352E+00 0. -1.
</event>
<event>
 5   0  0.5812938E-04  0.1300126E+04  0.7818609E-02  0.9029466E-01
        1   -1    0    0  501    0  0.00000000000E+00  0.00000000000E+00  0.14321020130E+04  0.14321020130E+04  0.50400001928E-02 0. -1.
       -1   -1    0    0    0  501  0.00000000000E+00  0.00000000000E+00 -0.29507792580E+03  0.29507792584E+03  0.50400001928E-02 0.  1.
    10030    2    1    2    0    0  0.00000000000E+00  0.00000000000E+00  0.11370240872E+04  0.17271799388E+04  0.13001256732E+04 0.  0.
        5    1    3    3  502    0  0.11862460254E+03  0.39926018190E+03 -0.94499218410E+02  0.42712138961E+03  0.46999998093E+01 0.  1.
       -5    1    3    3    0  502 -0.11862460254E+03 -0.39926018190E+03  0.12315233056E+04  0.13000585492E+04  0.46999998093E+01 0. -1.
</event>
<event>
 5   0  0.5563545E-04  0.1300381E+04  0.7818609E-02  0.9029263E-01
       -1   -1    0    0    0  501  0.00000000000E+00  0.00000000000E+00  0.42537177461E+03  0.42537177464E+03  0.50400001928E-02 0.  1.
        1   -1    0    0  501    0  0.00000000000E+00  0.00000000000E+00 -0.99383087232E+03  0.99383087233E+03  0.50400001928E-02 0. -1.
    10030    2    1    2    0    0  0.00000000000E+00  0.00000000000E+00 -0.56845909771E+03  0.14192026470E+04  0.13003808701E+04 0.  0.
        2    1    3    3  502    0  0.26161792914E+03  0.43126070851E+03 -0.73198300203E+03  0.88894817330E+03  0.25500000920E-02 0. -1.
       -2    1    3    3    0  502 -0.26161792914E+03 -0.43126070851E+03  0.16352390432E+03  0.53025447366E+03  0.25500000920E-02 0.  1.
</event>
<event>
 5   0  0.5710383E-04  0.1288928E+04  0.7818609E-02  0.9038392E-01
       -1   -1    0    0    0  501  0.00000000000E+00  0.00000000000E+00  0.79734408875E+03  0.79734408876E+03  0.50400001928E-02 0. -1.
        1   -1    0    0  501    0  0.00000000000E+00  0.00000000000E+00 -0.52089630155E+03  0.52089630158E+03  0.50400001928E-02 0.  1.
    10030    2    1    2    0    0  0.00000000000E+00  0.00000000000E+00  0.27644778719E+03  0.13182403903E+04  0.12889275960E+04 0.  0.
        1    1    3    3  502    0 -0.45403815506E+03  0.33859023449E+03  0.45268935882E+03  0.72506665125E+03  0.50400001928E-02 0. -1.
       -1    1    3    3    0  502  0.45403815506E+03 -0.33859023449E+03 -0.17624157163E+03  0.59317373909E+03  0.50400001928E-02 0.  1.
</event>
<event>
 5   0  0.1031295E-03  0.1286667E+04  0.7818609E-02  0.9040205E-01
       -2   -1    0    0    0  501  0.00000000000E+00  0.00000000000E+00  0.24728285221E+03  0.24728285222E+03  0.25500000920E-02 0. -1.
        2   -1    0    0  501    0  0.00000000000E+00  0.00000000000E+00 -0.16737035908E+04  0.16737035908E+04  0.25500000920E-02 0.  1.
    10030    2    1    2    0    0  0.00000000000E+00  0.00000000000E+00 -0.14264207386E+04  0.19209864430E+04  0.12866673194E+04 0.  0.
        2    1    3    3  502    0 -0.64134526881E+03 -0.88418545413E+01 -0.63891587514E+03  0.90532614440E+03  0.25500000920E-02 0.  1.
       -2    1    3    3    0  502  0.64134526881E+03  0.88418545413E+01 -0.78750486344E+03  0.10156602986E+04  0.25500000920E-02 0. -1.
</event>
<event>
 5   0  0.1103241E-03  0.1291912E+04  0.7818609E-02  0.9036003E-01
        2   -1    0    0  501    0  0.00000000000E+00  0.00000000000E+00  0.79170593838E+03  0.79170593838E+03  0.25500000920E-02 0.  1.
       -2   -1    0    0    0  501  0.00000000000E+00  0.00000000000E+00 -0.52703842379E+03  0.52703842380E+03  0.25500000920E-02 0. -1.
    10030    2    1    2    0    0  0.00000000000E+00  0.00000000000E+00  0.26466751459E+03  0.13187443622E+04  0.12919124581E+04 0.  0.
        4    1    3    3  502    0  0.63901519840E+02  0.23232085394E+03 -0.47944807020E+03  0.53658964613E+03  0.12699999809E+01 0. -1.
       -4    1    3    3    0  502 -0.63901519840E+02 -0.23232085394E+03  0.74411558479E+03  0.78215471605E+03  0.12699999809E+01 0.  1.
</event>
<event>
 5   0  0.5563545E-04  0.1298839E+04  0.7818609E-02  0.9030487E-01
        1   -1    0    0  501    0  0.00000000000E+00  0.00000000000E+00  0.78240646461E+03  0.78240646463E+03  0.50400001928E-02 0. -1.
       -1   -1    0    0    0  501  0.00000000000E+00  0.00000000000E+00 -0.53903627723E+03  0.53903627725E+03  0.50400001928E-02 0.  1.
    10030    2    1    2    0    0  0.00000000000E+00  0.00000000000E+00  0.24337018738E+03  0.13214427419E+04  0.12988386628E+04 0.  0.
        2    1    3    3  502    0  0.58705857612E+03  0.99845587678E+02  0.38530556752E+03  0.70927236909E+03  0.25500000920E-02 0. -1.
       -2    1    3    3    0  502 -0.58705857612E+03 -0.99845587678E+02 -0.14193538014E+03  0.61217037279E+03  0.25500000920E-02 0.  1.
</event>
<event>
 5   0  0.5812938E-04  0.1300262E+04  0.7818609E-02  0.9029357E-01
       -1   -1    0    0    0  501  0.00000000000E+00  0.00000000000E+00  0.43765377806E+03  0.43765377808E+03  0.50400001928E-02 0. -1.
        1   -1    0    0  501    0  0.00000000000E+00  0.00000000000E+00 -0.96576470540E+03  0.96576470541E+03  0.50400001928E-02 0.  1.
    10030    2    1    2    0    0  0.00000000000E+00  0.00000000000E+00 -0.52811092734E+03  0.14034184835E+04  0.13002623921E+04 0.  0.
        5    1    3    3  502    0 -0.17005779087E+02 -0.59691558392E+03  0.13337936025E+02  0.59732520571E+03  0.46999998093E+01 0. -1.
       -5    1    3    3    0  502  0.17005779087E+02  0.59691558392E+03 -0.54144886337E+03  0.80609327778E+03  0.46999998093E+01 0.  1.
</event>
<event>
 5   0  0.5563545E-04  0.1301145E+04  0.7818609E-02  0.9028657E-01
       -1   -1    0    0    0  501  0.00000000000E+00  0.00000000000E+00  0.76360331638E+03  0.76360331639E+03  0.50400001928E-02 0. -1.
        1   -1    0    0  501    0  0.00000000000E+00  0.00000000000E+00 -0.55427322443E+03  0.55427322446E+03  0.50400001928E-02 0.  1.
    10030    2    1    2    0    0  0.00000000000E+00  0.00000000000E+00  0.20933009194E+03  0.13178765409E+04  0.13011454529E+04 0.  0.
        2    1    3    3  502    0 -0.31941123611E+03 -0.14037861582E+03 -0.45149971618E+03  0.57059765794E+03  0.25500000920E-02 0.  1.
       -2    1    3    3    0  502  0.31941123611E+03  0.14037861582E+03  0.66082980812E+03  0.74727888291E+03  0.25500000920E-02 0. -1.
</event>
<event>
 5   0  0.4012375E-04  0.1269225E+04  0.7818609E-02  0.9054332E-01
       -3   -1    0    0    0  501  0.00000000000E+00  0.00000000000E+00  0.73698956948E+03  0.73698957640E+03  0.10100000352E+00 0.  1.
        3   -1    0    0  501    0  0.00000000000E+00  0.00000000000E+00 -0.54645718080E+03  0.54645719013E+03  0.10100000352E+00 0. -1.
    10030    2    1    2    0    0  0.00000000000E+00  0.00000000000E+00  0.19053238868E+03  0.12834467665E+04  0.12692253588E+04 0.  0.
        4    1    3    3  502    0  0.54397152877E+03 -0.32376423785E+03  0.14052632611E+03  0.64844241614E+03  0.12699999809E+01 0.  1.
       -4    1    3    3    0  502 -0.54397152877E+03  0.32376423785E+03  0.50006062565E+02  0.63500435039E+03  0.12699999809E+01 0. -1.
</event>
<event>
 5   0  0.1031295E-03  0.1299380E+04  0.7818609E-02  0.9030057E-01
        2   -1    0    0  501    0  0.00000000000E+00  0.00000000000E+00  0.15125312919E+04  0.15125312919E+04  0.25500000920E-02 0. -1.
       -2   -1    0    0    0  501  0.00000000000E+00  0.00000000000E+00 -0.27906653344E+03  0.27906653346E+03  0.25500000920E-02 0.  1.
    10030    2    1    2    0    0  0.00000000000E+00  0.00000000000E+00  0.12334647585E+04  0.17915978254E+04  0.12993796433E+04 0.  0.
        2    1    3    3  502    0 -0.24481433115E+03  0.39214687003E+03 -0.12681445776E+02  0.46246518084E+03  0.25500000920E-02 0.  1.
       -2    1    3    3    0  502  0.24481433115E+03 -0.39214687003E+03  0.12461462043E+04  0.13291326445E+04  0.25500000920E-02 0. -1.
</event>
<event>
 5   0  0.1046253E-03  0.1301202E+04  0.7818609E-02  0.9028613E-01
        2   -1    0    0  501    0  0.00000000000E+00  0.00000000000E+00  0.11660857023E+04  0.11660857023E+04  0.25500000920E-02 0. -1.
       -2   -1    0    0    0  501  0.00000000000E+00  0.00000000000E+00 -0.36299343407E+03  0.36299343408E+03  0.25500000920E-02 0.  1.
    10030    2    1    2    0    0  0.00000000000E+00  0.00000000000E+00  0.80309226826E+03  0.15290791364E+04  0.13012016808E+04 0.  0.
        3    1    3    3  502    0  0.41670199053E+03 -0.26876251208E+02 -0.18474589293E+03  0.45661136314E+03  0.10100000352E+00 0.  1.
       -3    1    3    3    0  502 -0.41670199053E+03  0.26876251208E+02  0.98783816120E+03  0.10724677733E+04  0.10100000352E+00 0. -1.
</event>
<event>
 5   0  0.1031295E-03  0.1293699E+04  0.7818609E-02  0.9034577E-01
       -2   -1    0    0    0  501  0.00000000000E+00  0.00000000000E+00  0.19859688369E+03  0.19859688370E+03  0.25500000920E-02 0.  1.
        2   -1    0    0  501    0  0.00000000000E+00  0.00000000000E+00 -0.21068530318E+04  0.21068530319E+04  0.25500000920E-02 0. -1.
    10030    2    1    2    0    0  0.00000000000E+00  0.00000000000E+00 -0.19082561482E+04  0.23054499156E+04  0.12936992642E+04 0.  0.
        2    1    3    3  502    0 -0.23386760724E+03  0.28817644109E+01  0.12060651425E+03  0.26315070505E+03  0.25500000920E-02 0.  1.
       -2    1    3    3    0  502  0.23386760724E+03 -0.28817644109E+01 -0.20288626624E+04  0.20422992105E+04  0.25500000920E-02 0. -1.
</event>
<event>
 5   0  0.5766027E-04  0.1310084E+04  0.7818609E-02  0.9021606E-01
       -1   -1    0    0    0  501  0.00000000000E+00  0.00000000000E+00  0.33621248164E+03  0.33621248168E+03  0.50400001928E-02 0.  1.
        1   -1    0    0  501    0  0.00000000000E+00  0.00000000000E+00 -0.12762176246E+04  0.12762176246E+04  0.50400001928E-02 0. -1.
    10030    2    1    2    0    0  0.00000000000E+00  0.00000000000E+00 -0.94000514293E+03  0.16124301063E+04  0.13100844167E+04 0.  0.
        3    1    3    3  502    0 -0.27638912527E+03 -0.23696535150E+03 -0.11402279757E+04  0.11969391685E+04  0.10100000352E+00 0. -1.
       -3    1    3    3    0  502  0.27638912527E+03  0.23696535150E+03  0.20022283276E+03  0.41549093774E+03  0.10100000352E+00 0.  1.
</event>
<event>
 5   0  0.5812938E-04  0.1278720E+04  0.7818609E-02  0.9046613E-01
        1   -1    0    0  501    0  0.00000000000E+00  0.00000000000E+00  0.11353333869E+04  0.11353333869E+04  0.50400001928E-02 0. -1.
       -1   -1    0    0    0  501  0.00000000000E+00  0.00000000000E+00 -0.36005367062E+03  0.36005367065E+03  0.50400001928E-02 0.  1.
    10030    2    1    2    0    0  0.00000000000E+00  0.00000000000E+00  0.77527971631E+03  0.14953870576E+04  0.12787195993E+04 0.  0.
        5    1    3    3  502    0  0.44983330991E+03  0.10268253223E+03 -0.12991559073E+03  0.47936818818E+03  0.46999998093E+01 0.  1.
       -5    1    3    3    0  502 -0.44983330991E+03 -0.10268253223E+03  0.90519530704E+03  0.10160188694E+04  0.46999998093E+01 0. -1.
</event>
<event>
 5   0  0.1081574E-03  0.1301705E+04  0.7818609E-02  0.9028214E-01
        2   -1    0    0  501    0  0.00000000000E+00  0.00000000000E+00  0.54159411092E+03  0.54159411093E+03  0.25500000920E-02 0.  1.
       -2   -1    0    0    0  501  0.00000000000E+00  0.00000000000E+00 -0.78215173490E+03  0.78215173490E+03  0.25500000920E-02 0. -1.
    10030    2    1    2    0    0  0.00000000000E+00  0.00000000000E+00 -0.24055762398E+03  0.13237458458E+04  0.13017046877E+04 0.  0.
        5    1    3    3  502    0 -0.48942477239E+03 -0.16063681614E+03  0.28425829058E+03  0.58835844541E+03  0.46999998093E+01 0.  1.
       -5    1    3    3    0  502  0.48942477239E+03  0.16063681614E+03 -0.52481591455E+03  0.73538740042E+03  0.46999998093E+01 0. -1.
</event>
<event>
 5   0  0.5812938E-04  0.1215379E+04  0.7818609E-02  0.9099501E-01
        1   -1    0    0  501    0  0.00000000000E+00  0.00000000000E+00  0.11456363996E+04  0.11456363996E+04  0.50400001928E-02 0.  1.
       -1   -1    0    0    0  501  0.00000000000E+00  0.00000000000E+00 -0.32234179174E+03  0.32234179178E+03  0.50400001928E-02 0. -1.
    10030    2    1    2    0    0  0.00000000000E+00  0.00000000000E+00  0.82329460783E+03  0.14679781914E+04  0.12153789364E+04 0.  0.
        5    1    3    3  502    0  0.15430910872E+03 -0.59375237776E+02  0.11179242459E+04  0.11300944339E+04  0.46999998093E+01 0.  1.
       -5    1    3    3    0  502 -0.15430910872E+03  0.59375237776E+02 -0.29462963812E+03  0.33788375745E+03  0.46999998093E+01 0. -1.
</event>
<event>
 5   0  0.5563545E-04  0.1303079E+04  0.7818609E-02  0.9027127E-01
       -1   -1    0    0    0  501  0.00000000000E+00  0.00000000000E+00  0.27185037735E+03  0.27185037740E+03  0.50400001928E-02 0. -1.
        1   -1    0    0  501    0  0.00000000000E+00  0.00000000000E+00 -0.15615336704E+04  0.15615336704E+04  0.50400001928E-02 0.  1.
    10030    2    1    2    0    0  0.00000000000E+00  0.00000000000E+00 -0.12896832931E+04  0.18333840478E+04  0.13030786893E+04 0.  0.
        2    1    3    3  502    0 -0.92028161515E+02 -0.34382580273E+03 -0.14126598223E+04  0.14568092321E+04  0.25500000920E-02 0.  1.
       -2    1    3    3    0  502  0.92028161515E+02  0.34382580273E+03  0.12297652920E+03  0.37657481577E+03  0.25500000920E-02 0. -1.
</event>
<event>
 5   0  0.1081574E-03  0.1184464E+04  0.7818609E-02  0.9126565E-01
        2   -1    0    0  501    0  0.00000000000E+00  0.00000000000E+00  0.64826877652E+03  0.64826877653E+03  0.25500000920E-02 0.  1.
       -2   -1    0    0    0  501  0.00000000000E+00  0.00000000000E+00 -0.54103928979E+03  0.54103928980E+03  0.25500000920E-02 0. -1.
    10030    2    1    2    0    0  0.00000000000E+00  0.00000000000E+00  0.10722948673E+03  0.11893080663E+04  0.11844642307E+04 0.  0.
        5    1    3    3  502    0  0.19212258523E+03 -0.38966479777E+03  0.45771185399E+03  0.63108792863E+03  0.46999998093E+01 0.  1.
       -5    1    3    3    0  502 -0.19212258523E+03  0.38966479777E+03 -0.35048236726E+03  0.55822013770E+03  0.46999998093E+01 0. -1.
</event>
<event>
 5   0  0.5710383E-04  0.1292879E+04  0.7818609E-02  0.9035232E-01
       -1   -1    0    0    0  501  0.00000000000E+00  0.00000000000E+00  0.40190869365E+03  0.40190869369E+03  0.50400001928E-02 0.  1.
        1   -1    0    0  501    0  0.00000000000E+00  0.00000000000E+00 -0.10397482456E+04  0.10397482456E+04  0.50400001928E-02 0. -1.
    10030    2    1    2    0    0  0.00000000000E+00  0.00000000000E+00 -0.63783955192E+03  0.14416569393E+04  0.12928787401E+04 0.  0.
        1    1    3    3  502    0 -0.17845131386E+03  0.60871925572E+03 -0.18009468835E+03  0.65940738583E+03  0.50400001928E-02 0. -1.
       -1    1    3    3    0  502  0.17845131386E+03 -0.60871925572E+03 -0.45774486357E+03  0.78224955344E+03  0.50400001928E-02 0.  1.
</event>
<event>
 5   0  0.1046253E-03  0.1384181E+04  0.7818609E-02  0.8965349E-01
        2   -1    0    0  501    0  0.00000000000E+00  0.00000000000E+00  0.13326957474E+04  0.13326957474E+04  0.25500000920E-02 0. -1.
       -2   -1    0    0    0  501  0.00000000000E+00  0.00000000000E+00 -0.35941381940E+03  0.35941381941E+03  0.25500000920E-02 0.  1.
    10030    2    1    2    0    0  0.00000000000E+00  0.00000000000E+00  0.97328192802E+03  0.16921095668E+04  0.13841810123E+04 0.  0.
        3    1    3    3  502    0 -0.22640943104E+02 -0.52544353363E+03  0.10365939280E+04  0.11623813923E+04  0.10100000352E+00 0. -1.
       -3    1    3    3    0  502  0.22640943104E+02  0.52544353363E+03 -0.63312000016E+02  0.52972817452E+03  0.10100000352E+00 0.  1.
</event>
<event>
 5   0  0.1101619E-03  0.1323666E+04  0.7818609E-02  0.9011005E-01
       -2   -1    0    0    0  501  0.00000000000E+00  0.00000000000E+00  0.34181027450E+03  0.34181027451E+03  0.25500000920E-02 0.  1.
        2   -1    0    0  501    0  0.00000000000E+00  0.00000000000E+00 -0.12814803870E+04  0.12814803870E+04  0.25500000920E-02 0. -1.
    10030    2    1    2    0    0  0.00000000000E+00  0.00000000000E+00 -0.93967011252E+03  0.16232906615E+04  0.13236663671E+04 0.  0.
        1    1    3    3  502    0 -0.77638486963E+02 -0.55829553565E+03 -0.44478316062E+02  0.56542016271E+03  0.50400001928E-02 0.  1.
       -1    1    3    3    0  502  0.77638486963E+02  0.55829553565E+03 -0.89519179645E+03  0.10578704988E+04  0.50400001928E-02 0. -1.
</event>
<event>
 5   0  0.1046253E-03  0.1357508E+04  0.7818609E-02  0.8985164E-01
        2   -1    0    0  501    0  0.00000000000E+00  0.00000000000E+00  0.33433095632E+03  0.33433095633E+03  0.25500000920E-02 0. -1.
       -2   -1    0    0    0  501  0.00000000000E+00  0.00000000000E+00 -0.13779973082E+04  0.13779973082E+04  0.25500000920E-02 0.  1.
    10030    2    1    2    0    0  0.00000000000E+00  0.00000000000E+00 -0.10436663519E+04  0.17123282645E+04  0.13575082436E+04 0.  0.
        3    1    3    3  502    0  0.35599595448E+03 -0.22748567748E+03  0.14827011062E+03  0.44773528895E+03  0.10100000352E+00 0. -1.
       -3    1    3    3    0  502 -0.35599595448E+03  0.22748567748E+03 -0.11919364625E+04  0.12645929756E+04  0.10100000352E+00 0.  1.
</event>
<event>
 5   0  0.5563545E-04  0.1294218E+04  0.7818609E-02  0.9034163E-01
       -1   -1    0    0    0  501  0.00000000000E+00  0.00000000000E+00  0.40467462460E+03  0.40467462463E+03  0.50400001928E-02 0. -1.
        1   -1    0    0  501    0  0.00000000000E+00  0.00000000000E+00 -0.10347821154E+04  0.10347821154E+04  0.50400001928E-02 0.  1.
    10030    2    1    2    0    0  0.00000000000E+00  0.00000000000E+00 -0.63010749082E+03  0.14394567401E+04  0.12942180097E+04 0.  0.
        2    1    3    3  502    0  0.46229122694E+03 -0.29551625319E+03 -0.69663969834E+03  0.88676372486E+03  0.25500000920E-02 0.  1.
       -2    1    3    3    0  502 -0.46229122694E+03  0.29551625319E+03  0.66532207521E+02  0.55269301520E+03  0.25500000920E-02 0. -1.
</event>
<event>
 5   0  0.1103241E-03  0.1300434E+04  0.7818609E-02  0.9029221E-01
       -2   -1    0    0    0  501  0.00000000000E+00  0.00000000000E+00  0.30464659209E+03  0.30464659210E+03  0.25500000920E-02 0. -1.
        2   -1    0    0  501    0  0.00000000000E+00  0.00000000000E+00 -0.13877796441E+04  0.13877796441E+04  0.25500000920E-02 0.  1.
    10030    2    1    2    0    0  0.00000000000E+00  0.00000000000E+00 -0.10831330520E+04  0.16924262362E+04  0.13004342954E+04 0.  0.
        4    1    3    3  502    0 -0.52838998035E+02  0.13920685710E+03 -0.13652917133E+04  0.13733876307E+04  0.12699999809E+01 0.  1.
       -4    1    3    3    0  502  0.52838998035E+02 -0.13920685710E+03  0.28215866129E+03  0.31903860553E+03  0.12699999809E+01 0. -1.
</event>
<event>
 5   0  0.5812938E-04  0.1302089E+04  0.7818609E-02  0.9027910E-01
        1   -1    0    0  501    0  0.00000000000E+00  0.00000000000E+00  0.99269080689E+03  0.99269080690E+03  0.50400001928E-02 0. -1.
       -1   -1    0    0    0  501  0.00000000000E+00  0.00000000000E+00 -0.42697978143E+03  0.42697978146E+03  0.50400001928E-02 0.  1.
    10030    2    1    2    0    0  0.00000000000E+00  0.00000000000E+00  0.56571102546E+03  0.14196705884E+04  0.13020889429E+04 0.  0.
        5    1    3    3  502    0 -0.42774161994E+03 -0.75182629223E+02  0.81164819298E+03  0.92054885819E+03  0.46999998093E+01 0. -1.
       -5    1    3    3    0  502  0.42774161994E+03  0.75182629223E+02 -0.24593716752E+03  0.49912173017E+03  0.46999998093E+01 0.  1.
</event>
<event>
 5   0  0.4012375E-04  0.1304735E+04  0.7818609E-02  0.9025819E-01
       -4   -1    0    0    0  501  0.00000000000E+00  0.00000000000E+00  0.72383524340E+03  0.72383635754E+03  0.12699999809E+01 0. -1.
        4   -1    0    0  501    0  0.00000000000E+00  0.00000000000E+00 -0.58795382860E+03  0.58795520022E+03  0.12699999809E+01 0.  1.
    10030    2    1    2    0    0  0.00000000000E+00  0.00000000000E+00  0.13588141481E+03  0.13117915578E+04  0.13047349662E+04 0.  0.
        5    1    3    3  502    0  0.63332598767E+03  0.10399285581E+03  0.18538395819E+03  0.66806109202E+03  0.46999998093E+01 0. -1.
       -5    1    3    3    0  502 -0.63332598767E+03 -0.10399285581E+03 -0.49502543384E+02  0.64373046574E+03  0.46999998093E+01 0.  1.
</event>
<event>
 5   0  0.4012375E-04  0.1296081E+04  0.7818609E-02  0.9032679E-01
       -3   -1    0    0    0  501  0.00000000000E+00  0.00000000000E+00  0.38482245816E+03  0.38482247142E+03  0.10100000352E+00 0. -1.
        3   -1    0    0  501    0  0.00000000000E+00  0.00000000000E+00 -0.10912988878E+04  0.10912988925E+04  0.10100000352E+00 0.  1.
    10030    2    1    2    0    0  0.00000000000E+00  0.00000000000E+00 -0.70647642963E+03  0.14761213639E+04  0.12960807595E+04 0.  0.
        5    1    3    3  502    0 -0.44584029474E+03 -0.26524827100E+03 -0.79551737498E+03  0.94973690967E+03  0.46999998093E+01 0.  1.
       -5    1    3    3    0  502  0.44584029474E+03  0.26524827100E+03  0.89040945356E+02  0.52638445421E+03  0.46999998093E+01 0. -1.
</event>
<event>
 5   0  0.4012375E-04  0.1284746E+04  0.7818609E-02  0.9041750E-01
        3   -1    0    0  501    0  0.00000000000E+00  0.00000000000E+00  0.15288648646E+04  0.15288648680E+04  0.10100000352E+00 0. -1.
       -3   -1    0    0    0  501  0.00000000000E+00  0.00000000000E+00 -0.26990140442E+03  0.26990142332E+03  0.10100000352E+00 0.  1.
    10030    2    1    2    0    0  0.00000000000E+00  0.00000000000E+00  0.12589634602E+04  0.17987662913E+04  0.12847455688E+04 0.  0.
        2    1    3    3  502    0  0.32549709031E+03  0.25412285722E+03  0.13184026417E+04  0.13815615470E+04  0.25500000920E-02 0. -1.
       -2    1    3    3    0  502 -0.32549709031E+03 -0.25412285722E+03 -0.59439181514E+02  0.41720474431E+03  0.25500000920E-02 0.  1.
</event>
<event>
 5   0  0.5563545E-04  0.1296504E+04  0.7818609E-02  0.9032343E-01
        1   -1    0    0  501    0  0.00000000000E+00  0.00000000000E+00  0.66657596551E+03  0.66657596553E+03  0.50400001928E-02 0. -1.
       -1   -1    0    0    0  501  0.00000000000E+00  0.00000000000E+00 -0.63043127999E+03  0.63043128001E+03  0.50400001928E-02 0.  1.
    10030    2    1    2    0    0  0.00000000000E+00  0.00000000000E+00  0.36144685527E+02  0.12970072455E+04  0.12965035120E+04 0.  0.
        2    1    3    3  502    0 -0.79484177885E+02  0.62458442225E+03 -0.13628246674E+03  0.64420210012E+03  0.25500000920E-02 0.  1.
       -2    1    3    3    0  502  0.79484177885E+02 -0.62458442225E+03  0.17242715226E+03  0.65280514542E+03  0.25500000920E-02 0. -1.
</event>
<event>
 5   0  0.5766027E-04  0.1289466E+04  0.7818609E-02  0.9037961E-01
       -1   -1    0    0    0  501  0.00000000000E+00  0.00000000000E+00  0.96633752148E+03  0.96633752149E+03  0.50400001928E-02 0. -1.
        1   -1    0    0  501    0  0.00000000000E+00  0.00000000000E+00 -0.43016076515E+03  0.43016076518E+03  0.50400001928E-02 0.  1.
    10030    2    1    2    0    0  0.00000000000E+00  0.00000000000E+00  0.53617675633E+03  0.13964982867E+04  0.12894657617E+04 0.  0.
        3    1    3    3  502    0 -0.57364449549E+03  0.54835221557E+02  0.58123533450E+03  0.81847995271E+03  0.10100000352E+00 0.  1.
       -3    1    3    3    0  502  0.57364449549E+03 -0.54835221557E+02 -0.45058578166E+02  0.57801833396E+03  0.10100000352E+00 0. -1.
</event>
<event>
 5   0  0.5812938E-04  0.1363394E+04  0.7818609E-02  0.8980750E-01
        1   -1    0    0  501    0  0.00000000000E+00  0.00000000000E+00  0.88399070128E+03  0.88399070130E+03  0.50400001928E-02 0.  1.
       -1   -1    0    0    0  501  0.00000000000E+00  0.00000000000E+00 -0.52569670353E+03  0.52569670356E+03  0.50400001928E-02 0. -1.
    10030    2    1    2    0    0  0.00000000000E+00  0.00000000000E+00  0.35829399775E+03  0.14096874049E+04  0.13633942902E+04 0.  0.
        5    1    3    3  502    0  0.66751121932E+02 -0.56715457135E+03  0.56403485964E+03  0.80266894357E+03  0.46999998093E+01 0.  1.
       -5    1    3    3    0  502 -0.66751121932E+02  0.56715457135E+03 -0.20574086189E+03  0.60701846128E+03  0.46999998093E+01 0. -1.
</event>
<event>
 5   0  0.1081574E-03  0.1279279E+04  0.7818609E-02  0.9046160E-01
       -2   -1    0    0    0  501  0.00000000000E+00  0.00000000000E+00  0.30073707682E+03  0.30073707683E+03  0.25500000920E-02 0.  1.
        2   -1    0    0  501    0  0.00000000000E+00  0.00000000000E+00 -0.13604532438E+04  0.13604532438E+04  0.25500000920E-02 0. -1.
    10030    2    1    2    0    0  0.00000000000E+00  0.00000000000E+00 -0.10597161670E+04  0.16611903207E+04  0.12792790653E+04 0.  0.
        5    1    3    3  502    0  0.10862070747E+02  0.10484093760E+03  0.28935989212E+03  0.30799487649E+03  0.46999998093E+01 0.  1.
       -5    1    3    3    0  502 -0.10862070747E+02 -0.10484093760E+03 -0.13490760591E+04  0.13531954442E+04  0.46999998093E+01 0. -1.
</event>
<event>
 5   0  0.5710383E-04  0.1349412E+04  0.7818609E-02  0.8991273E-01
        1   -1    0    0  501    0  0.00000000000E+00  0.00000000000E+00  0.60763417876E+03  0.60763417878E+03  0.50400001928E-02 0.  1.
       -1   -1    0    0    0  501  0.00000000000E+00  0.00000000000E+00 -0.74918123168E+03  0.74918123170E+03  0.50400001928E-02 0. -1.
    10030    2    1    2    0    0  0.00000000000E+00  0.00000000000E+00 -0.14154705292E+03  0.13568154105E+04  0.13494119052E+04 0.  0.
        1    1    3    3  502    0  0.32883917585E+03  0.14787113188E+03 -0.64418919820E+03  0.73822814788E+03  0.50400001928E-02 0. -1.
       -1    1    3    3    0  502 -0.32883917585E+03 -0.14787113188E+03  0.50264214528E+03  0.61858726260E+03  0.50400001928E-02 0.  1.
</event>
<event>
 5   0  0.5812938E-04  0.1294395E+04  0.7818609E-02  0.9034022E-01
        1   -1    0    0  501    0  0.00000000000E+00  0.00000000000E+00  0.70497077006E+03  0.70497077008E+03  0.50400001928E-02 0. -1.
       -1   -1    0    0    0  501  0.00000000000E+00  0.00000000000E+00 -0.59415904158E+03  0.59415904160E+03  0.50400001928E-02 0.  1.
    10030    2    1    2    0    0  0.00000000000E+00  0.00000000000E+00  0.11081172848E+03  0.12991298117E+04  0.12943952366E+04 0.  0.
        5    1    3    3  502    0  0.27787082800E+03  0.17056173877E+03 -0.50569103072E+03  0.60170508751E+03  0.46999998093E+01 0.  1.
       -5    1    3    3    0  502 -0.27787082800E+03 -0.17056173877E+03  0.61650275920E+03  0.69742472417E+03  0.46999998093E+01 0. -1.
</event>
<event>
 5   0  0.6006119E-04  0.1284791E+04  0.7818609E-02  0.9041714E-01
        1   -1    0    0  501    0  0.00000000000E+00  0.00000000000E+00  0.13553323783E+04  0.13553323783E+04  0.50400001928E-02 0. -1.
       -1   -1    0    0    0  501  0.00000000000E+00  0.00000000000E+00 -0.30448032940E+03  0.30448032945E+03  0.50400001928E-02 0.  1.
    10030    2    1    2    0    0  0.00000000000E+00  0.00000000000E+00  0.10508520489E+04  0.16598127078E+04  0.12847911099E+04 0.  0.
        4    1    3    3  502    0 -0.37644413346E+02  0.36059511617E+03  0.12105247133E+04  0.12636524974E+04  0.12699999809E+01 0. -1.
       -4    1    3    3    0  502  0.37644413346E+02 -0.36059511617E+03 -0.15967266439E+03  0.39616021041E+03  0.12699999809E+01 0.  1.
</event>
<event>
 5   0  0.5563545E-04  0.1305981E+04  0.7818609E-02  0.9024836E-01
       -1   -1    0    0    0  501  0.00000000000E+00  0.00000000000E+00  0.41632705550E+03  0.41632705553E+03  0.50400001928E-02 0. -1.
        1   -1    0    0  501    0  0.00000000000E+00  0.00000000000E+00 -0.10241858548E+04  0.10241858548E+04  0.50400001928E-02 0.  1.
    10030    2    1    2    0    0  0.00000000000E+00  0.00000000000E+00 -0.60785879932E+03  0.14405129104E+04  0.13059805225E+04 0.  0.
        2    1    3    3  502    0 -0.24156273544E+03 -0.52367984853E+03  0.33893549265E+02  0.57770399999E+03  0.25500000920E-02 0. -1.
       -2    1    3    3    0  502  0.24156273544E+03  0.52367984853E+03 -0.64175234858E+03  0.86280891038E+03  0.25500000920E-02 0.  1.
</event>
<event>
 5   0  0.1031295E-03  0.1215927E+04  0.7818609E-02  0.9099029E-01
        2   -1    0    0  501    0  0.00000000000E+00  0.00000000000E+00  0.12227251670E+04  0.12227251670E+04  0.25500000920E-02 0.  1.
       -2   -1    0    0    0  501  0.00000000000E+00  0.00000000000E+00 -0.30229168417E+03  0.30229168418E+03  0.25500000920E-02 0. -1.
    10030    2    1    2    0    0  0.00000000000E+00  0.00000000000E+00  0.92043348284E+03  0.15250168512E+04  0.12159270538E+04 0.  0.
        2    1    3    3  502    0  0.45245023787E+03 -0.12024022558E+03  0.94669591992E+03  0.10561259841E+04  0.25500000920E-02 0.  1.
       -2    1    3    3    0  502 -0.45245023787E+03  0.12024022558E+03 -0.26262437080E+02  0.46889086705E+03  0.25500000920E-02 0. -1.
</event>
<event>
 5   0  0.1046253E-03  0.1293209E+04  0.7818609E-02  0.9034968E-01
       -2   -1    0    0    0  501  0.00000000000E+00  0.00000000000E+00  0.91099021626E+03  0.91099021626E+03  0.25500000920E-02 0.  1.
        2   -1    0    0  501    0  0.00000000000E+00  0.00000000000E+00 -0.45894838256E+03  0.45894838257E+03  0.25500000920E-02 0. -1.
    10030    2    1    2    0    0  0.00000000000E+00  0.00000000000E+00  0.45204183370E+03  0.13699385988E+04  0.12932091653E+04 0.  0.
        3    1    3    3  502    0 -0.22350521903E+03  0.60433094932E+03  0.28333263858E+03  0.70388058186E+03  0.10100000352E+00 0. -1.
       -3    1    3    3    0  502  0.22350521903E+03 -0.60433094932E+03  0.16870919512E+03  0.66605801696E+03  0.10100000352E+00 0.  1.
</event>
<event>
 5   0  0.1103241E-03  0.1301709E+04  0.7818609E-02  0.9028211E-01
        2   -1    0    0  501    0  0.00000000000E+00  0.00000000000E+00  0.24093001501E+04  0.24093001501E+04  0.25500000920E-02 0. -1.
       -2   -1    0    0    0  501  0.00000000000E+00  0.00000000000E+00 -0.17582362734E+03  0.17582362736E+03  0.25500000920E-02 0.  1.
    10030    2    1    2    0    0  0.00000000000E+00  0.00000000000E+00  0.22334765227E+04  0.25851237774E+04  0.13017094787E+04 0.  0.
        4    1    3    3  502    0 -0.43719708346E+03 -0.88957459994E+02  0.17565254746E+03  0.47948946788E+03  0.12699999809E+01 0.  1.
       -4    1    3    3    0  502  0.43719708346E+03  0.88957459994E+02  0.20578239753E+04  0.21056343095E+04  0.12699999809E+01 0. -1.
</event>
<event>
 5   0  0.5812938E-04  0.1268733E+04  0.7818609E-02  0.9054734E-01
        1   -1    0    0  501    0  0.00000000000E+00  0.00000000000E+00  0.83892513015E+03  0.83892513016E+03  0.50400001928E-02 0. -1.
       -1   -1    0    0    0  501  0.00000000000E+00  0.00000000000E+00 -0.47968628372E+03  0.47968628375E+03  0.50400001928E-02 0.  1.
    10030    2    1    2    0    0  0.00000000000E+00  0.00000000000E+00  0.35923884642E+03  0.13186114139E+04  0.12687330342E+04 0.  0.
        5    1    3    3  502    0  0.26971664332E+03 -0.55613874237E+03  0.32792265311E+03  0.69970902871E+03  0.46999998093E+01 0. -1.
       -5    1    3    3    0  502 -0.26971664332E+03  0.55613874237E+03  0.31316193310E+02  0.61890238520E+03  0.46999998093E+01 0.  1.
</event>
<event>
 5   0  0.1101619E-03  0.1302251E+04  0.7818609E-02  0.9027782E-01
        2   -1    0    0  501    0  0.00000000000E+00  0.00000000000E+00  0.66147021418E+03  0.66147021418E+03  0.25500000920E-02 0. -1.
       -2   -1    0    0    0  501  0.00000000000E+00  0.00000000000E+00 -0.64094250011E+03  0.64094250012E+03  0.25500000920E-02 0.  1.
    10030    2    1    2    0    0  0.00000000000E+00  0.00000000000E+00  0.20527714062E+02  0.13024127143E+04  0.13022509325E+04 0.  0.
        1    1    3    3  502    0 -0.12121456732E+03 -0.32621246563E+03  0.56065651930E+03  0.65988125956E+03  0.50400001928E-02 0. -1.
       -1    1    3    3    0  502  0.12121456732E+03  0.32621246563E+03 -0.54012880523E+03  0.64253145474E+03  0.50400001928E-02 0.  1.
</event>
<event>
 5   0  0.1081574E-03  0.1308962E+04  0.7818609E-02  0.9022488E-01
       -2   -1    0    0    0  501  0.00000000000E+00  0.00000000000E+00  0.44873132195E+03  0.44873132195E+03  0.25500000920E-02 0. -1.
        2   -1    0    0  501    0  0.00000000000E+00  0.00000000000E+00 -0.95456973511E+03  0.95456973511E+03  0.25500000920E-02 0.  1.
    10030    2    1    2    0    0  0.00000000000E+00  0.00000000000E+00 -0.50583841317E+03  0.14033010571E+04  0.13089619385E+04 0.  0.
        5    1    3    3  502    0 -0.75886888898E+02  0.49109225597E+03  0.20367866903E+03  0.53706378951E+03  0.46999998093E+01 0. -1.
       -5    1    3    3    0  502  0.75886888898E+02 -0.49109225597E+03 -0.70951708220E+03  0.86623726756E+03  0.46999998093E+01 0.  1.
</event>
<event>
 5   0  0.6006119E-04  0.1305391E+04  0.7818609E-02  0.9025301E-01
       -1   -1    0    0    0  501  0.00000000000E+00  0.00000000000E+00  0.34120924808E+03  0.34120924812E+03  0.50400001928E-02 0.  1.
        1   -1    0    0  501    0  0.00000000000E+00  0.00000000000E+00 -0.12485348677E+04  0.12485348677E+04  0.50400001928E-02 0. -1.
    10030    2    1    2    0    0  0.00000000000E+00  0.00000000000E+00 -0.90732561958E+03  0.15897441158E+04  0.13053913489E+04 0.  0.
        4    1    3    3  502    0 -0.28790235804E+03  0.21693598743E+03 -0.11163020132E+04  0.11730646990E+04  0.12699999809E+01 0. -1.
       -4    1    3    3    0  502  0.28790235804E+03 -0.21693598743E+03  0.20897639363E+03  0.41667941681E+03  0.12699999809E+01 0.  1.
</event>
<event>
 5   0  0.5563545E-04  0.1225257E+04  0.7818609E-02  0.9091032E-01
        1   -1    0    0  501    0  0.00000000000E+00  0.00000000000E+00  0.17046742032E+04  0.17046742032E+04  0.50400001928E-02 0. -1.
       -1   -1    0    0    0  501  0.00000000000E+00  0.00000000000E+00 -0.22016738802E+03  0.22016738808E+03  0.50400001928E-02 0.  1.
    10030    2    1    2    0    0  0.00000000000E+00  0.00000000000E+00  0.14845068152E+04  0.19248415913E+04  0.12252569801E+04 0.  0.
        2    1    3    3  502    0  0.40728572161E+03 -0.22071890601E+03  0.11246270063E+03  0.47670363281E+03  0.25500000920E-02 0.  1.
       -2    1    3    3    0  502 -0.40728572161E+03  0.22071890601E+03  0.13720441146E+04  0.14481379585E+04  0.25500000920E-02 0. -1.
</event>
<event>
 5   0  0.5563545E-04  0.1247386E+04  0.7818609E-02  0.9072362E-01
       -1   -1    0    0    0  501  0.00000000000E+00  0.00000000000E+00  0.28145053890E+03  0.28145053895E+03  0.50400001928E-02 0. -1.
        1   -1    0    0  501    0  0.00000000000E+00  0.00000000000E+00 -0.13820998402E+04  0.13820998402E+04  0.50400001928E-02 0.  1.
    10030    2    1    2    0    0  0.00000000000E+00  0.00000000000E+00 -0.11006493013E+04  0.16635503791E+04  0.12473856579E+04 0.  0.
        2    1    3    3  502    0  0.11513524468E+03 -0.17865579013E+03 -0.13323124487E+04  0.13491591741E+04  0.25500000920E-02 0.  1.
       -2    1    3    3    0  502 -0.11513524468E+03  0.17865579013E+03  0.23166314747E+03  0.31439120506E+03  0.25500000920E-02 0. -1.
</event>
<event>
 5   0  0.5766027E-04  0.1297361E+04  0.7818609E-02  0.9031660E-01
       -1   -1    0    0    0  501  0.00000000000E+00  0.00000000000E+00  0.71190352884E+03  0.71190352886E+03  0.50400001928E-02 0. -1.
        1   -1    0    0  501    0  0.00000000000E+00  0.00000000000E+00 -0.59107227656E+03  0.59107227659E+03  0.50400001928E-02 0.  1.
    10030    2    1    2    0    0  0.00000000000E+00  0.00000000000E+00  0.12083125228E+03  0.13029758054E+04  0.12973610747E+04 0.  0.
        3    1    3    3  502    0 -0.47793164763E+03  0.32867826319E+02 -0.37884143934E+03  0.61075346923E+03  0.10100000352E+00 0.  1.
       -3    1    3    3    0  502  0.47793164763E+03 -0.32867826319E+02  0.49967269162E+03  0.69222233622E+03  0.10100000352E+00 0. -1.
</event>
<event>
 5   0  0.5563545E-04  0.1306510E+04  0.7818609E-02  0.9024419E-01
       -1   -1    0    0    0  501  0.00000000000E+00  0.00000000000E+00  0.28206497839E+03  0.28206497844E+03  0.50400001928E-02 0. -1.
        1   -1    0    0  501    0  0.00000000000E+00  0.00000000000E+00 -0.15129208028E+04  0.15129208028E+04  0.50400001928E-02 0.  1.
    10030    2    1    2    0    0  0.00000000000E+00  0.00000000000E+00 -0.12308558244E+04  0.17949857812E+04  0.13065098141E+04 0.  0.
        2    1    3    3  502    0 -0.57818091829E+03  0.14426683224E+03 -0.24771097187E+03  0.64534240427E+03  0.25500000920E-02 0. -1.
       -2    1    3    3    0  502  0.57818091829E+03 -0.14426683224E+03 -0.98314485252E+03  0.11496433770E+04  0.25500000920E-02 0.  1.
</event>
<event>
 5   0  0.1031295E-03  0.1304222E+04  0.7818609E-02  0.9026224E-01
        2   -1    0    0  501    0  0.00000000000E+00  0.00000000000E+00  0.88867110128E+03  0.88867110128E+03  0.25500000920E-02 0.  1.
       -2   -1    0    0    0  501  0.00000000000E+00  0.00000000000E+00 -0.47852225180E+03  0.47852225181E+03  0.25500000920E-02 0. -1.
    10030    2    1    2    0    0  0.00000000000E+00  0.00000000000E+00  0.41014884947E+03  0.13671933531E+04  0.13042222150E+04 0.  0.
        2    1    3    3  502    0 -0.61000025764E+03  0.21999550351E+03  0.13282227443E+03  0.66192151535E+03  0.25500000920E-02 0. -1.
       -2    1    3    3    0  502  0.61000025764E+03 -0.21999550351E+03  0.27732657504E+03  0.70527183775E+03  0.25500000920E-02 0.  1.
</event>
<event>
 5   0  0.1031295E-03  0.1291711E+04  0.7818609E-02  0.9036164E-01
        2   -1    0    0  501    0  0.00000000000E+00  0.00000000000E+00  0.22846839599E+04  0.22846839599E+04  0.25500000920E-02 0.  1.
       -2   -1    0    0    0  501  0.00000000000E+00  0.00000000000E+00 -0.18257636426E+03  0.18257636428E+03  0.25500000920E-02 0. -1.
    10030    2    1    2    0    0  0.00000000000E+00  0.00000000000E+00  0.21021075956E+04  0.24672603241E+04  0.12917109443E+04 0.  0.
        2    1    3    3  502    0  0.34017066855E+03  0.51866152478E+03  0.70722272151E+03  0.94068583430E+03  0.25500000920E-02 0. -1.
       -2    1    3    3    0  502 -0.34017066855E+03 -0.51866152478E+03  0.13948848741E+04  0.15265744898E+04  0.25500000920E-02 0.  1.
</event>
<event>
 5   0  0.1046253E-03  0.1307504E+04  0.7818609E-02  0.9023635E-01
        2   -1    0    0  501    0  0.00000000000E+00  0.00000000000E+00  0.13474757363E+04  0.13474757363E+04  0.25500000920E-02 0. -1.
       -2   -1    0    0    0  501  0.00000000000E+00  0.00000000000E+00 -0.31717956701E+03  0.31717956702E+03  0.25500000920E-02 0.  1.
    10030    2    1    2    0    0  0.00000000000E+00  0.00000000000E+00  0.10302961693E+04  0.16646553033E+04  0.13075041424E+04 0.  0.
        3    1    3    3  502    0 -0.60440383819E+03 -0.20072515780E+03  0.32718121061E+03  0.71599032351E+03  0.10100000352E+00 0.  1.
       -3    1    3    3    0  502  0.60440383819E+03  0.20072515780E+03  0.70311495868E+03  0.94866497981E+03  0.10100000352E+00 0. -1.
</event>
<event>
 5   0  0.5710383E-04  0.1290605E+04  0.7818609E-02  0.9037049E-01
       -1   -1    0    0    0  501  0.00000000000E+00  0.00000000000E+00  0.29314512087E+03  0.29314512092E+03  0.50400001928E-02 0. -1.
        1   -1    0    0  501    0  0.00000000000E+00  0.00000000000E+00 -0.14205089041E+04  0.14205089042E+04  0.50400001928E-02 0.  1.
    10030    2    1    2    0    0  0.00000000000E+00  0.00000000000E+00 -0.11273637833E+04  0.17136540251E+04  0.12906049038E+04 0.  0.
        1    1    3    3  502    0  0.16202669760E+03  0.57652786685E+03 -0.88284443899E+03  0.10667948891E+04  0.50400001928E-02 0.  1.
       -1    1    3    3    0  502 -0.16202669760E+03 -0.57652786685E+03 -0.24451934428E+03  0.64685913593E+03  0.50400001928E-02 0. -1.
</event>
<event>
 5   0  0.5563545E-04  0.1300604E+04  0.7818609E-02  0.9029086E-01
        1   -1    0    0  501    0  0.00000000000E+00  0.00000000000E+00  0.52683761913E+03  0.52683761916E+03  0.50400001928E-02 0. -1.
       -1   -1    0    0    0  501  0.00000000000E+00  0.00000000000E+00 -0.80270010029E+03  0.80270010031E+03  0.50400001928E-02 0.  1.
    10030    2    1    2    0    0  0.00000000000E+00  0.00000000000E+00 -0.27586248116E+03  0.13295377195E+04  0.13006038747E+04 0.  0.
        2    1    3    3  502    0 -0.13376806585E+03  0.23269293415E+03 -0.74343666591E+03  0.79040367741E+03  0.25500000920E-02 0.  1.
       -2    1    3    3    0  502  0.13376806585E+03 -0.23269293415E+03  0.46757418475E+03  0.53913404205E+03  0.25500000920E-02 0. -1.
</event>
<event>
 5   0  0.5563545E-04  0.1299532E+04  0.7818609E-02  0.9029936E-01
        1   -1    0    0  501    0  0.00000000000E+00  0.00000000000E+00  0.63611905760E+03  0.63611905762E+03  0.50400001928E-02 0.  1.
       -1   -1    0    0    0  501  0.00000000000E+00  0.00000000000E+00 -0.66370603695E+03  0.66370603697E+03  0.50400001928E-02 0. -1.
    10030    2    1    2    0    0  0.00000000000E+00  0.00000000000E+00 -0.27586979350E+02  0.12998250946E+04  0.12995323140E+04 0.  0.
        2    1    3    3  502    0 -0.27626516123E+03 -0.57191765957E+03  0.12329142911E+03  0.64700311060E+03  0.25500000920E-02 0.  1.
       -2    1    3    3    0  502  0.27626516123E+03  0.57191765957E+03 -0.15087840846E+03  0.65282198399E+03  0.25500000920E-02 0. -1.
</event>
<event>
 5   0  0.1046253E-03  0.1302723E+04  0.7818609E-02  0.9027408E-01
        2   -1    0    0  501    0  0.00000000000E+00  0.00000000000E+00  0.12834556078E+04  0.12834556078E+04  0.25500000920E-02 0. -1.
       -2   -1    0    0    0  501  0.00000000000E+00  0.00000000000E+00 -0.33057009535E+03  0.33057009536E+03  0.25500000920E-02 0.  1.
    10030    2    1    2    0    0  0.00000000000E+00  0.00000000000E+00  0.95288551242E+03  0.16140257031E+04  0.13027233669E+04 0.  0.
        3    1    3    3  502    0  0.41910869844E+03  0.14569653986E+03  0.10672506149E+04  0.11558129036E+04  0.10100000352E+00 0. -1.
       -3    1    3    3    0  502 -0.41910869844E+03 -0.14569653986E+03 -0.11436510248E+03  0.45821279958E+03  0.10100000352E+00 0.  1.
</event>
<event>
 5   0  0.1031295E-03  0.1299350E+04  0.7818609E-02  0.9030081E-01
        2   -1    0    0  501    0  0.00000000000E+00  0.00000000000E+00  0.29138045313E+04  0.29138045313E+04  0.25500000920E-02 0.  1.
       -2   -1    0    0    0  501  0.00000000000E+00  0.00000000000E+00 -0.14485438506E+03  0.14485438508E+03  0.25500000920E-02 0. -1.
    10030    2    1    2    0    0  0.00000000000E+00  0.00000000000E+00  0.27689501463E+04  0.30586589164E+04  0.12993496275E+04 0.  0.
        2    1    3    3  502    0  0.36979878480E+03 -0.53412650966E+03  0.13984201745E+04  0.15419537133E+04  0.25500000920E-02 0.  1.
       -2    1    3    3    0  502 -0.36979878480E+03  0.53412650966E+03  0.13705299718E+04  0.15167052031E+04  0.25500000920E-02 0. -1.
</event>
<event>
 5   0  0.1031295E-03  0.1297140E+04  0.7818609E-02  0.9031836E-01
       -2   -1    0    0    0  501  0.00000000000E+00  0.00000000000E+00  0.32009635181E+03  0.32009635182E+03  0.25500000920E-02 0.  1.
        2   -1    0    0  501    0  0.00000000000E+00  0.00000000000E+00 -0.13141134592E+04  0.13141134592E+04  0.25500000920E-02 0. -1.
    10030    2    1    2    0    0  0.00000000000E+00  0.00000000000E+00 -0.99401710737E+03  0.16342098110E+04  0.12971398138E+04 0.  0.
        2    1    3    3  502    0  0.29210329006E+03 -0.19787248702E+03 -0.11826356024E+04  0.12341413295E+04  0.25500000920E-02 0. -1.
       -2    1    3    3    0  502 -0.29210329006E+03  0.19787248702E+03  0.18861849504E+03  0.40006848147E+03  0.25500000920E-02 0.  1.
</event>
<event>
 5   0  0.6006119E-04  0.1293118E+04  0.7818609E-02  0.9035041E-01
       -1   -1    0    0    0  501  0.00000000000E+00  0.00000000000E+00  0.59714297832E+03  0.59714297834E+03  0.50400001928E-02 0.  1.
        1   -1    0    0  501    0  0.00000000000E+00  0.00000000000E+00 -0.70006389590E+03  0.70006389592E+03  0.50400001928E-02 0. -1.
    10030    2    1    2    0    0  0.00000000000E+00  0.00000000000E+00 -0.10292091758E+03  0.12972068743E+04  0.12931175350E+04 0.  0.
        4    1    3    3  502    0  0.86319671378E+02  0.50080306332E+03  0.34953083194E+03  0.61678862609E+03  0.12699999809E+01 0.  1.
       -4    1    3    3    0  502 -0.86319671378E+02 -0.50080306332E+03 -0.45245174952E+03  0.68041824817E+03  0.12699999809E+01 0. -1.
</event>
<event>
 5   0  0.5812938E-04  0.1318949E+04  0.7818609E-02  0.9014672E-01
       -1   -1    0    0    0  501  0.00000000000E+00  0.00000000000E+00  0.27563428258E+03  0.27563428262E+03  0.50400001928E-02 0. -1.
        1   -1    0    0  501    0  0.00000000000E+00  0.00000000000E+00 -0.15778393957E+04  0.15778393957E+04  0.50400001928E-02 0.  1.
    10030    2    1    2    0    0  0.00000000000E+00  0.00000000000E+00 -0.13022051131E+04  0.18534736783E+04  0.13189490208E+04 0.  0.
        5    1    3    3  502    0 -0.41668148386E+03 -0.25292736329E+03 -0.26922825846E+02  0.48820348077E+03  0.46999998093E+01 0. -1.
       -5    1    3    3    0  502  0.41668148386E+03  0.25292736329E+03 -0.12752822872E+04  0.13652701975E+04  0.46999998093E+01 0.  1.
</event>
<event>
 5   0  0.1101619E-03  0.1302066E+04  0.7818609E-02  0.9027928E-01
        2   -1    0    0  501    0  0.00000000000E+00  0.00000000000E+00  0.16429613769E+04  0.16429613769E+04  0.25500000920E-02 0.  1.
       -2   -1    0    0    0  501  0.00000000000E+00  0.00000000000E+00 -0.25797580764E+03  0.25797580766E+03  0.25500000920E-02 0. -1.
    10030    2    1    2    0    0  0.00000000000E+00  0.00000000000E+00  0.13849855693E+04  0.19009371846E+04  0.13020664932E+04 0.  0.
        1    1    3    3  502    0  0.61493660173E+03  0.21361602392E+03  0.70430460928E+03  0.95907445618E+03  0.50400001928E-02 0. -1.
       -1    1    3    3    0  502 -0.61493660173E+03 -0.21361602392E+03  0.68068096002E+03  0.94186272842E+03  0.50400001928E-02 0.  1.
</event>
<event>
 5   0  0.1046253E-03  0.1321385E+04  0.7818609E-02  0.9012776E-01
       -2   -1    0    0    0  501  0.00000000000E+00  0.00000000000E+00  0.25258549486E+03  0.25258549487E+03  0.25500000920E-02 0.  1.
        2   -1    0    0  501    0  0.00000000000E+00  0.00000000000E+00 -0.17281864897E+04  0.17281864897E+04  0.25500000920E-02 0. -1.
    10030    2    1    2    0    0  0.00000000000E+00  0.00000000000E+00 -0.14756009948E+04  0.19807719845E+04  0.13213853938E+04 0.  0.
        3    1    3    3  502    0 -0.65503969488E+03  0.41036533348E+02 -0.85150653290E+03  0.10750927331E+04  0.10100000352E+00 0. -1.
       -3    1    3    3    0  502  0.65503969488E+03 -0.41036533348E+02 -0.62409446190E+03  0.90567925145E+03  0.10100000352E+00 0.  1.
</event>
<event>
 5   0  0.5563545E-04  0.1298395E+04  0.7818609E-02  0.9030839E-01
        1   -1    0    0  501    0  0.00000000000E+00  0.00000000000E+00  0.76217134631E+03  0.76217134633E+03  0.50400001928E-02 0. -1.
       -1   -1    0    0    0  501  0.00000000000E+00  0.00000000000E+00 -0.55296909875E+03  0.55296909877E+03  0.50400001928E-02 0.  1.
    10030    2    1    2    0    0  0.00000000000E+00  0.00000000000E+00  0.20920224756E+03  0.13151404451E+04  0.12983947050E+04 0.  0.
        2    1    3    3  502    0  0.39533005042E+03  0.24370884055E+02 -0.41640374493E+03  0.57469284627E+03  0.25500000920E-02 0.  1.
       -2    1    3    3    0  502 -0.39533005042E+03 -0.24370884055E+02  0.62560599250E+03  0.74044759883E+03  0.25500000920E-02 0. -1.
</event>
<event>
 5   0  0.1046253E-03  0.1288512E+04  0.7818609E-02  0.9038725E-01
       -2   -1    0    0    0  501  0.00000000000E+00  0.00000000000E+00  0.37821888396E+03  0.37821888397E+03  0.25500000920E-02 0.  1.
        2   -1    0    0  501    0  0.00000000000E+00  0.00000000000E+00 -0.10974218964E+04  0.10974218964E+04  0.25500000920E-02 0. -1.
    10030    2    1    2    0    0  0.00000000000E+00  0.00000000000E+00 -0.71920301245E+03  0.14756407804E+04  0.12885118314E+04 0.  0.
        3    1    3    3  502    0  0.32092461977E+03 -0.25800657168E+03 -0.92704549971E+03  0.10143832468E+04  0.10100000352E+00 0. -1.
       -3    1    3    3    0  502 -0.32092461977E+03  0.25800657168E+03  0.20784248726E+03  0.46125753361E+03  0.10100000352E+00 0.  1.
</event>
<event>
 5   0  0.1031295E-03  0.1296370E+04  0.7818609E-02  0.9032449E-01
       -2   -1    0    0    0  501  0.00000000000E+00  0.00000000000E+00  0.10060563279E+04  0.10060563279E+04  0.25500000920E-02 0. -1.
        2   -1    0    0  501    0  0.00000000000E+00  0.00000000000E+00 -0.41761459966E+03  0.41761459967E+03  0.25500000920E-02 0.  1.
    10030    2    1    2    0    0  0.00000000000E+00  0.00000000000E+00  0.58844172828E+03  0.14236709276E+04  0.12963700253E+04 0.  0.
        2    1    3    3  502    0  0.89255402113E+02  0.61911909910E+03  0.10762793197E+03  0.63471155450E+03  0.25500000920E-02 0.  1.
       -2    1    3    3    0  502 -0.89255402113E+02 -0.61911909910E+03  0.48081379631E+03  0.78895937310E+03  0.25500000920E-02 0. -1.
</event>
<event>
 5   0  0.1081574E-03  0.1295889E+04  0.7818609E-02  0.9032832E-01
       -2   -1    0    0    0  501  0.00000000000E+00  0.00000000000E+00  0.41146931822E+03  0.41146931822E+03  0.25500000920E-02 0.  1.
        2   -1    0    0  501    0  0.00000000000E+00  0.00000000000E+00 -0.10203237881E+04  0.10203237881E+04  0.25500000920E-02 0. -1.
    10030    2    1    2    0    0  0.00000000000E+00  0.00000000000E+00 -0.60885446984E+03  0.14317931063E+04  0.12958887814E+04 0.  0.
        5    1    3    3  502    0 -0.18944775494E+03  0.40356222521E+03 -0.82390216845E+03  0.93679762737E+03  0.46999998093E+01 0. -1.
       -5    1    3    3    0  502  0.18944775494E+03 -0.40356222521E+03  0.21504769861E+03  0.49499547891E+03  0.46999998093E+01 0.  1.
</event>
<event>
 5   0  0.5766027E-04  0.1300250E+04  0.7818609E-02  0.9029367E-01
        1   -1    0    0  501    0  0.00000000000E+00  0.00000000000E+00  0.86220826817E+03  0.86220826819E+03  0.50400001928E-02 0.  1.
       -1   -1    0    0    0  501  0.00000000000E+00  0.00000000000E+00 -0.49020945431E+03  0.49020945434E+03  0.50400001928E-02 0. -1.
    10030    2    1    2    0    0  0.00000000000E+00  0.00000000000E+00  0.37199881386E+03  0.13524177225E+04  0.13002501985E+04 0.  0.
        3    1    3    3  502    0 -0.21290292235E+03  0.59369008226E+03  0.21979635963E+02  0.63109324407E+03  0.10100000352E+00 0.  1.
       -3    1    3    3    0  502  0.21290292235E+03 -0.59369008226E+03  0.35001917790E+03  0.72132447845E+03  0.10100000352E+00 0. -1.
</event>
<event>
 5   0  0.5812938E-04  0.1312413E+04  0.7818609E-02  0.9019779E-01
       -1   -1    0    0    0  501  0.00000000000E+00  0.00000000000E+00  0.82008374592E+03  0.82008374594E+03  0.50400001928E-02 0.  1.
        1   -1    0    0  501    0  0.00000000000E+00  0.00000000000E+00 -0.52507643939E+03  0.52507643941E+03  0.50400001928E-02 0. -1.
    10030    2    1    2    0    0  0.00000000000E+00  0.00000000000E+00  0.29500730653E+03  0.13451601853E+04  0.13124125165E+04 0.  0.
        5    1    3    3  502    0  0.20406464464E+03  0.32241705833E+03 -0.39966097329E+03  0.55258132638E+03  0.46999998093E+01 0. -1.
       -5    1    3    3    0  502 -0.20406464464E+03 -0.32241705833E+03  0.69466827982E+03  0.79257885897E+03  0.46999998093E+01 0.  1.
</event>
<event>
 5   0  0.1101619E-03  0.1300611E+04  0.7818609E-02  0.9029081E-01
        2   -1    0    0  501    0  0.00000000000E+00  0.00000000000E+00  0.80389809352E+03  0.80389809352E+03  0.25500000920E-02 0. -1.
       -2   -1    0    0    0  501  0.00000000000E+00  0.00000000000E+00 -0.52605807690E+03  0.52605807691E+03  0.25500000920E-02 0.  1.
    10030    2    1    2    0    0  0.00000000000E+00  0.00000000000E+00  0.27784001662E+03  0.13299561704E+04  0.13006107567E+04 0.  0.
        1    1    3    3  502    0  0.28805833549E+03 -0.11729068479E+03 -0.44507201896E+03  0.54297680565E+03  0.50400001928E-02 0.  1.
       -1    1    3    3    0  502 -0.28805833549E+03  0.11729068479E+03  0.72291203558E+03  0.78697936478E+03  0.50400001928E-02 0. -1.
</event>
<event>
 5   0  0.5563545E-04  0.1303886E+04  0.7818609E-02  0.9026489E-01
       -1   -1    0    0    0  501  0.00000000000E+00  0.00000000000E+00  0.11808430111E+04  0.11808430111E+04  0.50400001928E-02 0. -1.
        1   -1    0    0  501    0  0.00000000000E+00  0.00000000000E+00 -0.35993749388E+03  0.35993749391E+03  0.50400001928E-02 0.  1.
    10030    2    1    2    0    0  0.00000000000E+00  0.00000000000E+00  0.82090551726E+03  0.15407805051E+04  0.13038859983E+04 0.  0.
        2    1    3    3  502    0 -0.37400319746E+03 -0.47499868244E+03  0.12214249758E+03  0.61678272492E+03  0.25500000920E-02 0.  1.
       -2    1    3    3    0  502  0.37400319746E+03  0.47499868244E+03  0.69876301968E+03  0.92399778014E+03  0.25500000920E-02 0. -1.
</event>
<event>
 5   0  0.1031295E-03  0.1303263E+04  0.7818609E-02  0.9026982E-01
        2   -1    0    0  501    0  0.00000000000E+00  0.00000000000E+00  0.26259799151E+04  0.26259799151E+04  0.25500000920E-02 0.  1.
       -2   -1    0    0    0  501  0.00000000000E+00  0.00000000000E+00 -0.16170094097E+03  0.16170094099E+03  0.25500000920E-02 0. -1.
    10030    2    1    2    0    0  0.00000000000E+00  0.00000000000E+00  0.24642789741E+04  0.27876808561E+04  0.13032627107E+04 0.  0.
        2    1    3    3  502    0  0.28785828579E+03  0.58108569257E+03  0.13691098989E+04  0.15149207537E+04  0.25500000920E-02 0.  1.
       -2    1    3    3    0  502 -0.28785828579E+03 -0.58108569257E+03  0.10951690752E+04  0.12727601023E+04  0.25500000920E-02 0. -1.
</event>
<event>
 5   0  0.5710383E-04  0.1298805E+04  0.7818609E-02  0.9030513E-01
       -1   -1    0    0    0  501  0.00000000000E+00  0.00000000000E+00  0.21907169859E+03  0.21907169865E+03  0.50400001928E-02 0. -1.
        1   -1    0    0  501    0  0.00000000000E+00  0.00000000000E+00 -0.19250482340E+04  0.19250482340E+04  0.50400001928E-02 0.  1.
    10030    2    1    2    0    0  0.00000000000E+00  0.00000000000E+00 -0.17059765354E+04  0.21441199327E+04  0.12988049685E+04 0.  0.
        1    1    3    3  502    0  0.23816216048E+03  0.30391900683E+03 -0.17149667454E+04  0.17578961617E+04  0.50400001928E-02 0.  1.
       -1    1    3    3    0  502 -0.23816216048E+03 -0.30391900683E+03  0.89902099606E+01  0.38622377101E+03  0.50400001928E-02 0. -1.
</event>
<event>
 5   0  0.1103241E-03  0.1294746E+04  0.7818609E-02  0.9033742E-01
       -2   -1    0    0    0  501  0.00000000000E+00  0.00000000000E+00  0.13863334658E+04  0.13863334658E+04  0.25500000920E-02 0.  1.
        2   -1    0    0  501    0  0.00000000000E+00  0.00000000000E+00 -0.30230231050E+03  0.30230231051E+03  0.25500000920E-02 0. -1.
    10030    2    1    2    0    0  0.00000000000E+00  0.00000000000E+00  0.10840311553E+04  0.16886357763E+04  0.12947460135E+04 0.  0.
        4    1    3    3  502    0  0.57543839082E+03  0.57992683796E+02  0.16267378540E+03  0.60079685948E+03  0.12699999809E+01 0. -1.
       -4    1    3    3    0  502 -0.57543839082E+03 -0.57992683796E+02  0.92135736990E+03  0.10878389168E+04  0.12699999809E+01 0.  1.
</event>
<event>
 5   0  0.6006119E-04  0.1295276E+04  0.7818609E-02  0.9033320E-01
       -1   -1    0    0    0  501  0.00000000000E+00  0.00000000000E+00  0.61818032573E+03  0.61818032575E+03  0.50400001928E-02 0.  1.
        1   -1    0    0  501    0  0.00000000000E+00  0.00000000000E+00 -0.67849896029E+03  0.67849896031E+03  0.50400001928E-02 0. -1.
    10030    2    1    2    0    0  0.00000000000E+00  0.00000000000E+00 -0.60318634561E+02  0.12966792861E+04  0.12952755820E+04 0.  0.
        4    1    3    3  502    0 -0.49109203384E+03  0.35231489864E+03 -0.26308273999E+03  0.65917472227E+03  0.12699999809E+01 0. -1.
       -4    1    3    3    0  502  0.49109203384E+03 -0.35231489864E+03  0.20276410543E+03  0.63750456379E+03  0.12699999809E+01 0.  1.
</event>
<event>
 5   0  0.4012375E-04  0.1289465E+04  0.7818609E-02  0.9037962E-01
        4   -1    0    0  501    0  0.00000000000E+00  0.00000000000E+00  0.47461415357E+03  0.47461585273E+03  0.12699999809E+01 0.  1.
       -4   -1    0    0    0  501  0.00000000000E+00  0.00000000000E+00 -0.87582303951E+03  0.87582396030E+03  0.12699999809E+01 0. -1.
    10030    2    1    2    0    0  0.00000000000E+00  0.00000000000E+00 -0.40120888594E+03  0.13504398130E+04  0.12894646635E+04 0.  0.
        4    1    3    3  502    0  0.15203799565E+03 -0.64261639955E+02 -0.85331987214E+03  0.86913838229E+03  0.12699999809E+01 0. -1.
       -4    1    3    3    0  502 -0.15203799565E+03  0.64261639955E+02  0.45211098620E+03  0.48130143074E+03  0.12699999809E+01 0.  1.
</event>
<event>
 5   0  0.5563545E-04  0.1306704E+04  0.7818609E-02  0.9024266E-01
       -1   -1    0    0    0  501  0.00000000000E+00  0.00000000000E+00  0.27888395770E+03  0.27888395775E+03  0.50400001928E-02 0. -1.
        1   -1    0    0  501    0  0.00000000000E+00  0.00000000000E+00 -0.15306322974E+04  0.15306322974E+04  0.50400001928E-02 0.  1.
    10030    2    1    2    0    0  0.00000000000E+00  0.00000000000E+00 -0.12517483397E+04  0.18095162551E+04  0.13067039342E+04 0.  0.
        2    1    3    3  502    0 -0.16676007578E+03  0.53428474672E+03 -0.10926129030E+04  0.12276286366E+04  0.25500000920E-02 0.  1.
       -2    1    3    3    0  502  0.16676007578E+03 -0.53428474672E+03 -0.15913543668E+03  0.58188761859E+03  0.25500000920E-02 0. -1.
</event>
<event>
 5   0  0.5766027E-04  0.1279260E+04  0.7818609E-02  0.9046176E-01
       -1   -1    0    0    0  501  0.00000000000E+00  0.00000000000E+00  0.20138400578E+03  0.20138400585E+03  0.50400001928E-02 0. -1.
        1   -1    0    0  501    0  0.00000000000E+00  0.00000000000E+00 -0.20315727489E+04  0.20315727489E+04  0.50400001928E-02 0.  1.
    10030    2    1    2    0    0  0.00000000000E+00  0.00000000000E+00 -0.18301887431E+04  0.22329567548E+04  0.12792595644E+04 0.  0.
        3    1    3    3  502    0 -0.30216001177E+02 -0.41687796629E+03 -0.69962401704E+02  0.42378649502E+03  0.10100000352E+00 0. -1.
       -3    1    3    3    0  502  0.30216001177E+02  0.41687796629E+03 -0.17602263414E+04  0.18091702598E+04  0.10100000352E+00 0.  1.
</event>
<event>
 5   0  0.1101619E-03  0.1300565E+04  0.7818609E-02  0.9029117E-01
       -2   -1    0    0    0  501  0.00000000000E+00  0.00000000000E+00  0.10559402070E+04  0.10559402070E+04  0.25500000920E-02 0.  1.
        2   -1    0    0  501    0  0.00000000000E+00  0.00000000000E+00 -0.40046522472E+03  0.40046522473E+03  0.25500000920E-02 0. -1.
    10030    2    1    2    0    0  0.00000000000E+00  0.00000000000E+00  0.65547498231E+03  0.14564054318E+04  0.13005650038E+04 0.  0.
        1    1    3    3  502    0 -0.43129336355E+03 -0.22240237941E+03  0.81249446705E+03  0.94637415583E+03  0.50400001928E-02 0.  1.
       -1    1    3    3    0  502  0.43129336355E+03  0.22240237941E+03 -0.15701948474E+03  0.51003127593E+03  0.50400001928E-02 0. -1.
</event>
<event>
 5   0  0.5766027E-04  0.1295155E+04  0.7818609E-02  0.9033416E-01
        1   -1    0    0  501    0  0.00000000000E+00  0.00000000000E+00  0.83439204047E+03  0.83439204049E+03  0.50400001928E-02 0.  1.
       -1   -1    0    0    0  501  0.00000000000E+00  0.00000000000E+00 -0.50258974584E+03  0.50258974587E+03  0.50400001928E-02 0. -1.
    10030    2    1    2    0    0  0.00000000000E+00  0.00000000000E+00  0.33180229463E+03  0.13369817864E+04  0.12951554093E+04 0.  0.
        3    1    3    3  502    0 -0.46231214528E+03  0.42699713384E+03  0.32346662724E+03  0.70759433372E+03  0.10100000352E+00 0.  1.
       -3    1    3    3    0  502  0.46231214528E+03 -0.42699713384E+03  0.83356673876E+01  0.62938745263E+03  0.10100000352E+00 0. -1.
</event>
<event>
 5   0  0.1101619E-03  0.1307361E+04  0.7818609E-02  0.9023748E-01
        2   -1    0    0  501    0  0.00000000000E+00  0.00000000000E+00  0.44992625163E+03  0.44992625164E+03  0.25500000920E-02 0.  1.
       -2   -1    0    0    0  501  0.00000000000E+00  0.00000000000E+00 -0.94970732574E+03  0.94970732575E+03  0.25500000920E-02 0. -1.
    10030    2    1    2    0    0  0.00000000000E+00  0.00000000000E+00 -0.49978107411E+03  0.13996335774E+04  0.13073610935E+04 0.  0.
        1    1    3    3  502    0  0.52719028486E+03 -0.13171043609E+03 -0.63888224273E+03  0.83871792369E+03  0.50400001928E-02 0. -1.
       -1    1    3    3    0  502 -0.52719028486E+03  0.13171043609E+03  0.13910116862E+03  0.56091565369E+03  0.50400001928E-02 0.  1.
</event>
<event>
 5   0  0.5766027E-04  0.1295408E+04  0.7818609E-02  0.9033215E-01
       -1   -1    0    0    0  501  0.00000000000E+00  0.00000000000E+00  0.95367173284E+03  0.95367173286E+03  0.50400001928E-02 0. -1.
        1   -1    0    0  501    0  0.00000000000E+00  0.00000000000E+00 -0.43990024036E+03  0.43990024038E+03  0.50400001928E-02 0.  1.
    10030    2    1    2    0    0  0.00000000000E+00  0.00000000000E+00  0.51377149249E+03  0.13935719732E+04  0.12954079273E+04 0.  0.
        3    1    3    3  502    0 -0.38793454271E+03  0.37371145971E+03  0.64381763408E+03  0.83943708561E+03  0.10100000352E+00 0. -1.
       -3    1    3    3    0  502  0.38793454271E+03 -0.37371145971E+03 -0.13004614160E+03  0.55413488763E+03  0.10100000352E+00 0.  1.
</event>
<event>
 5   0  0.5812938E-04  0.1302145E+04  0.7818609E-02  0.9027866E-01
       -1   -1    0    0    0  501  0.00000000000E+00  0.00000000000E+00  0.61403296974E+03  0.61403296976E+03  0.50400001928E-02 0.  1.
        1   -1    0    0  501    0  0.00000000000E+00  0.00000000000E+00 -0.69034633483E+03  0.69034633485E+03  0.50400001928E-02 0. -1.
    10030    2    1    2    0    0  0.00000000000E+00  0.00000000000E+00 -0.76313365092E+02  0.13043793046E+04  0.13021450152E+04 0.  0.
        5    1    3    3  502    0 -0.50034366543E+03  0.84140403194E+02  0.37052611185E+03  0.62827946055E+03  0.46999998093E+01 0.  1.
       -5    1    3    3    0  502  0.50034366543E+03 -0.84140403194E+02 -0.44683947694E+03  0.67609984406E+03  0.46999998093E+01 0. -1.
</event>
<event>
 5   0  0.1103241E-03  0.1302506E+04  0.7818609E-02  0.9027580E-01
        2   -1    0    0  501    0  0.00000000000E+00  0.00000000000E+00  0.19313821554E+04  0.19313821554E+04  0.25500000920E-02 0. -1.
       -2   -1    0    0    0  501  0.00000000000E+00  0.00000000000E+00 -0.21959950980E+03  0.21959950982E+03  0.25500000920E-02 0.  1.
    10030    2    1    2    0    0  0.00000000000E+00  0.00000000000E+00  0.17117826456E+04  0.21509816652E+04  0.13025061606E+04 0.  0.
        4    1    3    3  502    0 -0.38859979908E+03 -0.51598281356E+03  0.99287832272E+03  0.11845070892E+04  0.12699999809E+01 0.  1.
       -4    1    3    3    0  502  0.38859979908E+03  0.51598281356E+03  0.71890432285E+03  0.96647457600E+03  0.12699999809E+01 0. -1.
</event>
<event>
 5   0  0.1031295E-03  0.1295535E+04  0.7818609E-02  0.9033114E-01
       -2   -1    0    0    0  501  0.00000000000E+00  0.00000000000E+00  0.43083500992E+03  0.43083500993E+03  0.25500000920E-02 0. -1.
        2   -1    0    0  501    0  0.00000000000E+00  0.00000000000E+00 -0.97392871486E+03  0.97392871487E+03  0.25500000920E-02 0.  1.
    10030    2    1    2    0    0  0.00000000000E+00  0.00000000000E+00 -0.54309370494E+03  0.14047637248E+04  0.12955347738E+04 0.  0.
        2    1    3    3  502    0  0.20966607915E+03  0.42295129698E+03  0.20942206760E+03  0.51643515253E+03  0.25500000920E-02 0. -1.
       -2    1    3    3    0  502 -0.20966607915E+03 -0.42295129698E+03 -0.75251577255E+03  0.88832857226E+03  0.25500000920E-02 0.  1.
</event>
<event>
 5   0  0.6006119E-04  0.1290204E+04  0.7818609E-02  0.9037370E-01
        1   -1    0    0  501    0  0.00000000000E+00  0.00000000000E+00  0.15615500782E+04  0.15615500782E+04  0.50400001928E-02 0. -1.
       -1   -1    0    0    0  501  0.00000000000E+00  0.00000000000E+00 -0.26650220830E+03  0.26650220834E+03  0.50400001928E-02 0.  1.
    10030    2    1    2    0    0  0.00000000000E+00  0.00000000000E+00  0.12950478699E+04  0.18280522865E+04  0.12902039285E+04 0.  0.
        4    1    3    3  502    0 -0.64191904160E+03 -0.78156382623E-01  0.73819114962E+03  0.97825755727E+03  0.12699999809E+01 0. -1.
       -4    1    3    3    0  502  0.64191904160E+03  0.78156382623E-01  0.55685672028E+03  0.84979472927E+03  0.12699999809E+01 0.  1.
</event>
<event>
 5   0  0.4012375E-04  0.1302044E+04  0.7818609E-02  0.9027946E-01
        3   -1    0    0  501    0  0.00000000000E+00  0.00000000000E+00  0.32727985891E+03  0.32727987449E+03  0.10100000352E+00 0. -1.
       -3   -1    0    0    0  501  0.00000000000E+00  0.00000000000E+00 -0.12950064382E+04  0.12950064421E+04  0.10100000352E+00 0.  1.
    10030    2    1    2    0    0  0.00000000000E+00  0.00000000000E+00 -0.96772657929E+03  0.16222863166E+04  0.13020438398E+04 0.  0.
        3    1    3    3  502    0 -0.64889386590E+03 -0.23380745114E+02 -0.54256373102E+03  0.84615915811E+03  0.10100000352E+00 0.  1.
       -3    1    3    3    0  502  0.64889386590E+03  0.23380745114E+02 -0.42516284828E+03  0.77612715852E+03  0.10100000352E+00 0. -1.
</event>
<event>
 5   0  0.1081574E-03  0.1302620E+04  0.7818609E-02  0.9027490E-01
       -2   -1    0    0    0  501  0.00000000000E+00  0.00000000000E+00  0.60993737925E+03  0.60993737926E+03  0.25500000920E-02 0.  1.
        2   -1    0    0  501    0  0.00000000000E+00  0.00000000000E+00 -0.69548906824E+03  0.69548906824E+03  0.25500000920E-02 0. -1.
    10030    2    1    2    0    0  0.00000000000E+00  0.00000000000E+00 -0.85551688983E+02  0.13054264475E+04  0.13026200975E+04 0.  0.
        5    1    3    3  502    0 -0.43647907617E+03  0.37572843210E+03 -0.34756401457E+03  0.67268764880E+03  0.46999998093E+01 0. -1.
       -5    1    3    3    0  502  0.43647907617E+03 -0.37572843210E+03  0.26201232559E+03  0.63273879870E+03  0.46999998093E+01 0.  1.
</event>
<event>
 5   0  0.5710383E-04  0.1300608E+04  0.7818609E-02  0.9029083E-01
       -1   -1    0    0    0  501  0.00000000000E+00  0.00000000000E+00  0.23060453448E+03  0.23060453454E+03  0.50400001928E-02 0.  1.
        1   -1    0    0  501    0  0.00000000000E+00  0.00000000000E+00 -0.18338553080E+04  0.18338553080E+04  0.50400001928E-02 0. -1.
    10030    2    1    2    0    0  0.00000000000E+00  0.00000000000E+00 -0.16032507735E+04  0.20644598425E+04  0.13006080880E+04 0.  0.
        1    1    3    3  502    0  0.54510107955E+03  0.11360309861E+03 -0.26838942961E+03  0.61812113448E+03  0.50400001928E-02 0.  1.
       -1    1    3    3    0  502 -0.54510107955E+03 -0.11360309861E+03 -0.13348613439E+04  0.14463387080E+04  0.50400001928E-02 0. -1.
</event>
<event>
 5   0  0.1103241E-03  0.1281712E+04  0.7818609E-02  0.9044195E-01
       -2   -1    0    0    0  501  0.00000000000E+00  0.00000000000E+00  0.24375669059E+03  0.24375669061E+03  0.25500000920E-02 0.  1.
        2   -1    0    0  501    0  0.00000000000E+00  0.00000000000E+00 -0.16848620011E+04  0.16848620011E+04  0.25500000920E-02 0. -1.
    10030    2    1    2    0    0  0.00000000000E+00  0.00000000000E+00 -0.14411053105E+04  0.19286186917E+04  0.12817119575E+04 0.  0.
        4    1    3    3  502    0 -0.29341088757E+02 -0.11748977134E+03 -0.16674872717E+04  0.16718792301E+04  0.12699999809E+01 0. -1.
       -4    1    3    3    0  502  0.29341088757E+02  0.11748977134E+03  0.22638196123E+03  0.25673946157E+03  0.12699999809E+01 0.  1.
</event>
<event>
 5   0  0.5563545E-04  0.1182601E+04  0.7818609E-02  0.9128224E-01
        1   -1    0    0  501    0  0.00000000000E+00  0.00000000000E+00  0.10335314200E+04  0.10335314200E+04  0.50400001928E-02 0.  1.
       -1   -1    0    0    0  501  0.00000000000E+00  0.00000000000E+00 -0.33829283178E+03  0.33829283182E+03  0.50400001928E-02 0. -1.
    10030    2    1    2    0    0  0.00000000000E+00  0.00000000000E+00  0.69523858824E+03  0.13718242519E+04  0.11826009823E+04 0.  0.
        2    1    3    3  502    0  0.45358604973E+03  0.37538528229E+03  0.28427557094E+03  0.65380961672E+03  0.25500000920E-02 0. -1.
       -2    1    3    3    0  502 -0.45358604973E+03 -0.37538528229E+03  0.41096301730E+03  0.71801463514E+03  0.25500000920E-02 0.  1.
</event>
<event>
 5   0  0.5563545E-04  0.1327326E+04  0.7818609E-02  0.9008172E-01
       -1   -1    0    0    0  501  0.00000000000E+00  0.00000000000E+00  0.29872223411E+03  0.29872223415E+03  0.50400001928E-02 0.  1.
        1   -1    0    0  501    0  0.00000000000E+00  0.00000000000E+00 -0.14744410148E+04  0.14744410148E+04  0.50400001928E-02 0. -1.
    10030    2    1    2    0    0  0.00000000000E+00  0.00000000000E+00 -0.11757187807E+04  0.17731632490E+04  0.13273256029E+04 0.  0.
        2    1    3    3  502    0 -0.12822590622E+03 -0.83404135487E+01 -0.14576642776E+04  0.14633169827E+04  0.25500000920E-02 0. -1.
       -2    1    3    3    0  502  0.12822590622E+03  0.83404135487E+01  0.28194549689E+03  0.30984626632E+03  0.25500000920E-02 0.  1.
</event>
<event>
 5   0  0.1031295E-03  0.1246339E+04  0.7818609E-02  0.9073236E-01
       -2   -1    0    0    0  501  0.00000000000E+00  0.00000000000E+00  0.38717897606E+03  0.38717897607E+03  0.25500000920E-02 0. -1.
        2   -1    0    0  501    0  0.00000000000E+00  0.00000000000E+00 -0.10029991711E+04  0.10029991711E+04  0.25500000920E-02 0.  1.
    10030    2    1    2    0    0  0.00000000000E+00  0.00000000000E+00 -0.61582019504E+03  0.13901781472E+04  0.12463389460E+04 0.  0.
        2    1    3    3  502    0 -0.29998596020E+03  0.51839634235E+03 -0.11596292795E+03  0.61006044352E+03  0.25500000920E-02 0. -1.
       -2    1    3    3    0  502  0.29998596020E+03 -0.51839634235E+03 -0.49985726709E+03  0.78011770365E+03  0.25500000920E-02 0.  1.
</event>
<event>
 5   0  0.5812938E-04  0.1296345E+04  0.7818609E-02  0.9032468E-01
       -1   -1    0    0    0  501  0.00000000000E+00  0.00000000000E+00  0.58441425998E+03  0.58441426000E+03  0.50400001928E-02 0.  1.
        1   -1    0    0  501    0  0.00000000000E+00  0.00000000000E+00 -0.71888695689E+03  0.71888695691E+03  0.50400001928E-02 0. -1.
    10030    2    1    2    0    0  0.00000000000E+00  0.00000000000E+00 -0.13447269691E+03  0.13033012169E+04  0.12963453073E+04 0.  0.
        5    1    3    3  502    0 -0.22665041283E+03 -0.67431307609E+02 -0.67395465675E+03  0.71425090846E+03  0.46999998093E+01 0. -1.
       -5    1    3    3    0  502  0.22665041283E+03  0.67431307609E+02  0.53948195985E+03  0.58905030845E+03  0.46999998093E+01 0.  1.
</event>
<event>
 5   0  0.6006119E-04  0.1329701E+04  0.7818609E-02  0.9006338E-01
       -1   -1    0    0    0  501  0.00000000000E+00  0.00000000000E+00  0.60874187519E+03  0.60874187521E+03  0.50400001928E-02 0.  1.
        1   -1    0    0  501    0  0.00000000000E+00  0.00000000000E+00 -0.72613124313E+03  0.72613124315E+03  0.50400001928E-02 0. -1.
    10030    2    1    2    0    0  0.00000000000E+00  0.00000000000E+00 -0.11738936794E+03  0.13348731184E+04  0.13297014621E+04 0.  0.
        4    1    3    3  502    0 -0.20586373362E+03 -0.62088022992E+03 -0.17812269004E+03  0.67793911403E+03  0.12699999809E+01 0. -1.
       -4    1    3    3    0  502  0.20586373362E+03  0.62088022992E+03  0.60733322098E+02  0.65693400433E+03  0.12699999809E+01 0.  1.
</event>
<event>
 5   0  0.5812938E-04  0.1290951E+04  0.7818609E-02  0.9036772E-01
        1   -1    0    0  501    0  0.00000000000E+00  0.00000000000E+00  0.89241951819E+03  0.89241951821E+03  0.50400001928E-02 0. -1.
       -1   -1    0    0    0  501  0.00000000000E+00  0.00000000000E+00 -0.46686426354E+03  0.46686426357E+03  0.50400001928E-02 0.  1.
    10030    2    1    2    0    0  0.00000000000E+00  0.00000000000E+00  0.42555525466E+03  0.13592837818E+04  0.12909512480E+04 0.  0.
        5    1    3    3  502    0 -0.30304980852E+03 -0.29227671162E+03 -0.30235453780E+03  0.51836784153E+03  0.46999998093E+01 0.  1.
       -5    1    3    3    0  502  0.30304980852E+03  0.29227671162E+03  0.72790979246E+03  0.84091594025E+03  0.46999998093E+01 0. -1.
</event>
<event>
 5   0  0.1031295E-03  0.1290743E+04  0.7818609E-02  0.9036938E-01
        2   -1    0    0  501    0  0.00000000000E+00  0.00000000000E+00  0.96640479335E+03  0.96640479335E+03  0.25500000920E-02 0. -1.
       -2   -1    0    0    0  501  0.00000000000E+00  0.00000000000E+00 -0.43098328703E+03  0.43098328704E+03  0.25500000920E-02 0.  1.
    10030    2    1    2    0    0  0.00000000000E+00  0.00000000000E+00  0.53542150632E+03  0.13973880804E+04  0.12907429092E+04 0.  0.
        2    1    3    3  502    0 -0.24455796850E+02  0.63949975986E+03  0.17748020341E+03  0.66412141320E+03  0.25500000920E-02 0. -1.
       -2    1    3    3    0  502  0.24455796850E+02 -0.63949975986E+03  0.35794130290E+03  0.73326666718E+03  0.25500000920E-02 0.  1.
</event>
<event>
 5   0  0.1031295E-03  0.1297409E+04  0.7818609E-02  0.9031622E-01
        2   -1    0    0  501    0  0.00000000000E+00  0.00000000000E+00  0.85593588530E+03  0.85593588530E+03  0.25500000920E-02 0. -1.
       -2   -1    0    0    0  501  0.00000000000E+00  0.00000000000E+00 -0.49164619752E+03  0.49164619753E+03  0.25500000920E-02 0.  1.
    10030    2    1    2    0    0  0.00000000000E+00  0.00000000000E+00  0.36428968778E+03  0.13475820828E+04  0.12974091465E+04 0.  0.
        2    1    3    3  502    0 -0.20182967163E+03  0.61596815012E+03  0.20894267298E+03  0.68103525527E+03  0.25500000920E-02 0.  1.
       -2    1    3    3    0  502  0.20182967163E+03 -0.61596815012E+03  0.15534701479E+03  0.66654682756E+03  0.25500000920E-02 0. -1.
</event>
<event>
 5   0  0.5710383E-04  0.1313304E+04  0.7818609E-02  0.9019081E-01
        1   -1    0    0  501    0  0.00000000000E+00  0.00000000000E+00  0.71438649784E+03  0.71438649786E+03  0.50400001928E-02 0.  1.
       -1   -1    0    0    0  501  0.00000000000E+00  0.00000000000E+00 -0.60358369955E+03  0.60358369957E+03  0.50400001928E-02 0. -1.
    10030    2    1    2    0    0  0.00000000000E+00  0.00000000000E+00  0.11080279830E+03  0.13179701974E+04  0.13133042988E+04 0.  0.
        1    1    3    3  502    0 -0.54174484902E+03 -0.15069705521E+03 -0.28491245530E+03  0.63037464345E+03  0.50400001928E-02 0. -1.
       -1    1    3    3    0  502  0.54174484902E+03  0.15069705521E+03  0.39571525360E+03  0.68759555398E+03  0.50400001928E-02 0.  1.
</event>
<event>
 5   0  0.1046253E-03  0.1292824E+04  0.7818609E-02  0.9035276E-01
        2   -1    0    0  501    0  0.00000000000E+00  0.00000000000E+00  0.19934873586E+04  0.19934873586E+04  0.25500000920E-02 0. -1.
       -2   -1    0    0    0  501  0.00000000000E+00  0.00000000000E+00 -0.20960663040E+03  0.20960663042E+03  0.25500000920E-02 0.  1.
    10030    2    1    2    0    0  0.00000000000E+00  0.00000000000E+00  0.17838807282E+04  0.22030939890E+04  0.12928235270E+04 0.  0.
        3    1    3    3  502    0 -0.27923171385E+03 -0.12356723530E+03 -0.78958562684E+02  0.31539447757E+03  0.10100000352E+00 0.  1.
       -3    1    3    3    0  502  0.27923171385E+03  0.12356723530E+03  0.18628392909E+04  0.18876995114E+04  0.10100000352E+00 0. -1.
</event>
<event>
 5   0  0.1046253E-03  0.1294687E+04  0.7818609E-02  0.9033789E-01
       -2   -1    0    0    0  501  0.00000000000E+00  0.00000000000E+00  0.22123481586E+03  0.22123481587E+03  0.25500000920E-02 0.  1.
        2   -1    0    0  501    0  0.00000000000E+00  0.00000000000E+00 -0.18941566115E+04  0.18941566115E+04  0.25500000920E-02 0. -1.
    10030    2    1    2    0    0  0.00000000000E+00  0.00000000000E+00 -0.16729217957E+04  0.21153914274E+04  0.12946866635E+04 0.  0.
        3    1    3    3  502    0  0.48946778579E+03  0.53182420874E+02 -0.15231787428E+04  0.16007749923E+04  0.10100000352E+00 0. -1.
       -3    1    3    3    0  502 -0.48946778579E+03 -0.53182420874E+02 -0.14974305288E+03  0.51461643513E+03  0.10100000352E+00 0.  1.
</event>
<event>
 5   0  0.1103241E-03  0.1249365E+04  0.7818609E-02  0.9070712E-01
        2   -1    0    0  501    0  0.00000000000E+00  0.00000000000E+00  0.70698484639E+03  0.70698484639E+03  0.25500000920E-02 0.  1.
       -2   -1    0    0    0  501  0.00000000000E+00  0.00000000000E+00 -0.55196085372E+03  0.55196085373E+03  0.25500000920E-02 0. -1.
    10030    2    1    2    0    0  0.00000000000E+00  0.00000000000E+00  0.15502399267E+03  0.12589457001E+04  0.12493645735E+04 0.  0.
        4    1    3    3  502    0  0.12180184825E+03 -0.52604099740E+03  0.39404116172E+03  0.66844960260E+03  0.12699999809E+01 0.  1.
       -4    1    3    3    0  502 -0.12180184825E+03  0.52604099740E+03 -0.23901716906E+03  0.59049609752E+03  0.12699999809E+01 0. -1.
</event>
<event>
 5   0  0.6006119E-04  0.1307042E+04  0.7818609E-02  0.9023999E-01
        1   -1    0    0  501    0  0.00000000000E+00  0.00000000000E+00  0.90959856777E+03  0.90959856779E+03  0.50400001928E-02 0.  1.
       -1   -1    0    0    0  501  0.00000000000E+00  0.00000000000E+00 -0.46953637459E+03  0.46953637462E+03  0.50400001928E-02 0. -1.
    10030    2    1    2    0    0  0.00000000000E+00  0.00000000000E+00  0.44006219318E+03  0.13791349424E+04  0.13070418721E+04 0.  0.
        4    1    3    3  502    0  0.54834138725E+03 -0.14180152011E+03  0.56405457854E+03  0.79934043345E+03  0.12699999809E+01 0.  1.
       -4    1    3    3    0  502 -0.54834138725E+03  0.14180152011E+03 -0.12399238536E+03  0.57979450895E+03  0.12699999809E+01 0. -1.
</event>
<event>
 5   0  0.6006119E-04  0.1300141E+04  0.7818609E-02  0.9029454E-01
        1   -1    0    0  501    0  0.00000000000E+00  0.00000000000E+00  0.80770942581E+03  0.80770942582E+03  0.50400001928E-02 0.  1.
       -1   -1    0    0    0  501  0.00000000000E+00  0.00000000000E+00 -0.52319734058E+03  0.52319734060E+03  0.50400001928E-02 0. -1.
    10030    2    1    2    0    0  0.00000000000E+00  0.00000000000E+00  0.28451208523E+03  0.13309067664E+04  0.13001406440E+04 0.  0.
        4    1    3    3  502    0  0.37657376053E+03  0.49806621798E+03 -0.42888629467E+02  0.62587442994E+03  0.12699999809E+01 0. -1.
       -4    1    3    3    0  502 -0.37657376053E+03 -0.49806621798E+03  0.32740071470E+03  0.70503233649E+03  0.12699999809E+01 0.  1.
</event>
<event>
 5   0  0.1081574E-03  0.1278169E+04  0.7818609E-02  0.9047059E-01
       -2   -1    0    0    0  501  0.00000000000E+00  0.00000000000E+00  0.75980993832E+03  0.75980993832E+03  0.25500000920E-02 0. -1.
        2   -1    0    0  501    0  0.00000000000E+00  0.00000000000E+00 -0.53754104267E+03  0.53754104268E+03  0.25500000920E-02 0.  1.
    10030    2    1    2    0    0  0.00000000000E+00  0.00000000000E+00  0.22226889565E+03  0.12973509810E+04  0.12781690444E+04 0.  0.
        5    1    3    3  502    0  0.40590065654E+03 -0.35867438888E+02 -0.38855968342E+03  0.56306530148E+03  0.46999998093E+01 0.  1.
       -5    1    3    3    0  502 -0.40590065654E+03  0.35867438888E+02  0.61082857906E+03  0.73428567952E+03  0.46999998093E+01 0. -1.
</event>
<event>
 5   0  0.6006119E-04  0.1297847E+04  0.7818609E-02  0.9031275E-01
        1   -1    0    0  501    0  0.00000000000E+00  0.00000000000E+00  0.74435742377E+03  0.74435742378E+03  0.50400001928E-02 0. -1.
       -1   -1    0    0    0  501  0.00000000000E+00  0.00000000000E+00 -0.56572486499E+03  0.56572486502E+03  0.50400001928E-02 0.  1.
    10030    2    1    2    0    0  0.00000000000E+00  0.00000000000E+00  0.17863255877E+03  0.13100822888E+04  0.12978466829E+04 0.  0.
        4    1    3    3  502    0  0.92269536658E+02  0.15341680921E+03  0.71893497852E+03  0.74089101829E+03  0.12699999809E+01 0. -1.
       -4    1    3    3    0  502 -0.92269536658E+02 -0.15341680921E+03 -0.54030241975E+03  0.56919127051E+03  0.12699999809E+01 0.  1.
</event>
<event>
 5   0  0.1046253E-03  0.1297420E+04  0.7818609E-02  0.9031614E-01
        2   -1    0    0  501    0  0.00000000000E+00  0.00000000000E+00  0.11658760992E+04  0.11658760993E+04  0.25500000920E-02 0. -1.
       -2   -1    0    0    0  501  0.00000000000E+00  0.00000000000E+00 -0.36095117784E+03  0.36095117784E+03  0.25500000920E-02 0.  1.
    10030    2    1    2    0    0  0.00000000000E+00  0.00000000000E+00  0.80492492141E+03  0.15268272771E+04  0.12974195177E+04 0.  0.
        3    1    3    3  502    0  0.31877307955E+03 -0.16073621467E+03  0.10398723030E+04  0.10994484179E+04  0.10100000352E+00 0. -1.
       -3    1    3    3    0  502 -0.31877307955E+03  0.16073621467E+03 -0.23494738158E+03  0.42737885917E+03  0.10100000352E+00 0.  1.
</event>
<event>
 5   0  0.1081574E-03  0.1305019E+04  0.7818609E-02  0.9025595E-01
       -2   -1    0    0    0  501  0.00000000000E+00  0.00000000000E+00  0.19114293694E+03  0.19114293695E+03  0.25500000920E-02 0. -1.
        2   -1    0    0  501    0  0.00000000000E+00  0.00000000000E+00 -0.22274880170E+04  0.22274880170E+04  0.25500000920E-02 0.  1.
    10030    2    1    2    0    0  0.00000000000E+00  0.00000000000E+00 -0.20363450801E+04  0.24186309540E+04  0.13050189295E+04 0.  0.
        5    1    3    3  502    0 -0.68666912343E+02  0.11479284869E+03 -0.22017730451E+04  0.22058375223E+04  0.46999998093E+01 0.  1.
       -5    1    3    3    0  502  0.68666912343E+02 -0.11479284869E+03  0.16542796497E+03  0.21279343165E+03  0.46999998093E+01 0. -1.
</event>
<event>
 5   0  0.6006119E-04  0.1316821E+04  0.7818609E-02  0.9016331E-01
       -1   -1    0    0    0  501  0.00000000000E+00  0.00000000000E+00  0.80113268049E+03  0.80113268051E+03  0.50400001928E-02 0.  1.
        1   -1    0    0  501    0  0.00000000000E+00  0.00000000000E+00 -0.54111473745E+03  0.54111473747E+03  0.50400001928E-02 0. -1.
    10030    2    1    2    0    0  0.00000000000E+00  0.00000000000E+00  0.26001794304E+03  0.13422474180E+04  0.13168214763E+04 0.  0.
        4    1    3    3  502    0 -0.57818720338E+03  0.17189130468E+03  0.39902925012E+03  0.72323787106E+03  0.12699999809E+01 0.  1.
       -4    1    3    3    0  502  0.57818720338E+03 -0.17189130468E+03 -0.13901130708E+03  0.61900954692E+03  0.12699999809E+01 0. -1.
</event>
<event>
 5   0  0.5766027E-04  0.1304572E+04  0.7818609E-02  0.9025947E-01
       -1   -1    0    0    0  501  0.00000000000E+00  0.00000000000E+00  0.41009036553E+03  0.41009036556E+03  0.50400001928E-02 0. -1.
        1   -1    0    0  501    0  0.00000000000E+00  0.00000000000E+00 -0.10375200672E+04  0.10375200673E+04  0.50400001928E-02 0.  1.
    10030    2    1    2    0    0  0.00000000000E+00  0.00000000000E+00 -0.62742970171E+03  0.14476104328E+04  0.13045719354E+04 0.  0.
        3    1    3    3  502    0  0.24038652300E+03 -0.51651787744E+03  0.38761914263E+02  0.57103318148E+03  0.10100000352E+00 0. -1.
       -3    1    3    3    0  502 -0.24038652300E+03  0.51651787744E+03 -0.66619161597E+03  0.87657725133E+03  0.10100000352E+00 0.  1.
</event>
<event>
 5   0  0.6006119E-04  0.1322398E+04  0.7818609E-02  0.9011989E-01
        1   -1    0    0  501    0  0.00000000000E+00  0.00000000000E+00  0.11070395359E+04  0.11070395359E+04  0.50400001928E-02 0.  1.
       -1   -1    0    0    0  501  0.00000000000E+00  0.00000000000E+00 -0.39491311659E+03  0.39491311662E+03  0.50400001928E-02 0. -1.
    10030    2    1    2    0    0  0.00000000000E+00  0.00000000000E+00  0.71212641929E+03  0.15019526525E+04  0.13223984775E+04 0.  0.
        4    1    3    3  502    0  0.34518940530E+03  0.55845695432E+03  0.44515439036E+03  0.79321746042E+03  0.12699999809E+01 0.  1.
       -4    1    3    3    0  502 -0.34518940530E+03 -0.55845695432E+03  0.26697202894E+03  0.70873519209E+03  0.12699999809E+01 0. -1.
</event>
<event>
 5   0  0.1081574E-03  0.1302283E+04  0.7818609E-02  0.9027756E-01
       -2   -1    0    0    0  501  0.00000000000E+00  0.00000000000E+00  0.71858818542E+03  0.71858818542E+03  0.25500000920E-02 0. -1.
        2   -1    0    0  501    0  0.00000000000E+00  0.00000000000E+00 -0.59002561380E+03  0.59002561381E+03  0.25500000920E-02 0.  1.
    10030    2    1    2    0    0  0.00000000000E+00  0.00000000000E+00  0.12856257161E+03  0.13086137992E+04  0.13022832798E+04 0.  0.
        5    1    3    3  502    0 -0.11482269375E+03  0.63007719296E+03 -0.53685405293E+02  0.64271745957E+03  0.46999998093E+01 0.  1.
       -5    1    3    3    0  502  0.11482269375E+03 -0.63007719296E+03  0.18224797691E+03  0.66589633966E+03  0.46999998093E+01 0. -1.
</event>
<event>
 5   0  0.6006119E-04  0.1331928E+04  0.7818609E-02  0.9004622E-01
        1   -1    0    0  501    0  0.00000000000E+00  0.00000000000E+00  0.15684045065E+04  0.15684045065E+04  0.50400001928E-02 0. -1.
       -1   -1    0    0    0  501  0.00000000000E+00  0.00000000000E+00 -0.28277674710E+03  0.28277674715E+03  0.50400001928E-02 0.  1.
    10030    2    1    2    0    0  0.00000000000E+00  0.00000000000E+00  0.12856277594E+04  0.18511812537E+04  0.13319284133E+04 0.  0.
        4    1    3    3  502    0  0.42472943522E+03  0.43571436448E+02 -0.67524985233E+02  0.43226704680E+03  0.12699999809E+01 0.  1.
       -4    1    3    3    0  502 -0.42472943522E+03 -0.43571436448E+02  0.13531527447E+04  0.14189142069E+04  0.12699999809E+01 0. -1.
</event>
<event>
 5   0  0.4012375E-04  0.1292880E+04  0.7818609E-02  0.9035230E-01
        3   -1    0    0  501    0  0.00000000000E+00  0.00000000000E+00  0.60588987033E+03  0.60588987875E+03  0.10100000352E+00 0.  1.
       -3   -1    0    0    0  501  0.00000000000E+00  0.00000000000E+00 -0.68970452031E+03  0.68970452771E+03  0.10100000352E+00 0. -1.
    10030    2    1    2    0    0  0.00000000000E+00  0.00000000000E+00 -0.83814649984E+02  0.12955944065E+04  0.12928804935E+04 0.  0.
        1    1    3    3  502    0 -0.39428464150E+03  0.50548208105E+03 -0.12522317307E+03  0.65318707571E+03  0.50400001928E-02 0. -1.
       -1    1    3    3    0  502  0.39428464150E+03 -0.50548208105E+03  0.41408523084E+02  0.64240733074E+03  0.50400001928E-02 0.  1.
</event>
<event>
 5   0  0.5563545E-04  0.1294843E+04  0.7818609E-02  0.9033665E-01
        1   -1    0    0  501    0  0.00000000000E+00  0.00000000000E+00  0.62823297187E+03  0.62823297189E+03  0.50400001928E-02 0.  1.
       -1   -1    0    0    0  501  0.00000000000E+00  0.00000000000E+00 -0.66719581746E+03  0.66719581748E+03  0.50400001928E-02 0. -1.
    10030    2    1    2    0    0  0.00000000000E+00  0.00000000000E+00 -0.38962845586E+02  0.12954287894E+04  0.12948427105E+04 0.  0.
        2    1    3    3  502    0  0.25984505910E+03 -0.50740564922E+02 -0.61056213668E+03  0.66549243604E+03  0.25500000920E-02 0. -1.
       -2    1    3    3    0  502 -0.25984505910E+03  0.50740564922E+02  0.57159929110E+03  0.62993635334E+03  0.25500000920E-02 0.  1.
</event>
<event>
 5   0  0.5812938E-04  0.1292727E+04  0.7818609E-02  0.9035353E-01
       -1   -1    0    0    0  501  0.00000000000E+00  0.00000000000E+00  0.28924477294E+03  0.28924477298E+03  0.50400001928E-02 0. -1.
        1   -1    0    0  501    0  0.00000000000E+00  0.00000000000E+00 -0.14444023549E+04  0.14444023549E+04  0.50400001928E-02 0.  1.
    10030    2    1    2    0    0  0.00000000000E+00  0.00000000000E+00 -0.11551575819E+04  0.17336471279E+04  0.12927270883E+04 0.  0.
        5    1    3    3  502    0 -0.36709838272E+03 -0.53015280015E+03 -0.51850243311E+03  0.82746001549E+03  0.46999998093E+01 0. -1.
       -5    1    3    3    0  502  0.36709838272E+03  0.53015280015E+03 -0.63665514884E+03  0.90618711238E+03  0.46999998093E+01 0.  1.
</event>
<event>
 5   0  0.1031295E-03  0.1299242E+04  0.7818609E-02  0.9030167E-01
       -2   -1    0    0    0  501  0.00000000000E+00  0.00000000000E+00  0.69081881513E+03  0.69081881514E+03  0.25500000920E-02 0.  1.
        2   -1    0    0  501    0  0.00000000000E+00  0.00000000000E+00 -0.61088002368E+03  0.61088002368E+03  0.25500000920E-02 0. -1.
    10030    2    1    2    0    0  0.00000000000E+00  0.00000000000E+00  0.79938791457E+02  0.13016988388E+04  0.12992419546E+04 0.  0.
        2    1    3    3  502    0 -0.22205364826E+03  0.70318200322E+02  0.64754417829E+03  0.68816127096E+03  0.25500000920E-02 0.  1.
       -2    1    3    3    0  502  0.22205364826E+03 -0.70318200322E+02 -0.56760538684E+03  0.61353756786E+03  0.25500000920E-02 0. -1.
</event>
<event>
 5   0  0.1103241E-03  0.1307251E+04  0.7818609E-02  0.9023835E-01
       -2   -1    0    0    0  501  0.00000000000E+00  0.00000000000E+00  0.41141122714E+03  0.41141122715E+03  0.25500000920E-02 0.  1.
        2   -1    0    0  501    0  0.00000000000E+00  0.00000000000E+00 -0.10384409150E+04  0.10384409150E+04  0.25500000920E-02 0. -1.
    10030    2    1    2    0    0  0.00000000000E+00  0.00000000000E+00 -0.62702968782E+03  0.14498521421E+04  0.13072509341E+04 0.  0.
        4    1    3    3  502    0  0.46653669194E+03 -0.32289198820E+03  0.46397985357E+02  0.56927155815E+03  0.12699999809E+01 0.  1.
       -4    1    3    3    0  502 -0.46653669194E+03  0.32289198820E+03 -0.67342767318E+03  0.88058058397E+03  0.12699999809E+01 0. -1.
</event>
<event>
 5   0  0.1046253E-03  0.1280402E+04  0.7818609E-02  0.9045252E-01
        2   -1    0    0  501    0  0.00000000000E+00  0.00000000000E+00  0.35325439545E+03  0.35325439546E+03  0.25500000920E-02 0. -1.
       -2   -1    0    0    0  501  0.00000000000E+00  0.00000000000E+00 -0.11602331277E+04  0.11602331277E+04  0.25500000920E-02 0.  1.
    10030    2    1    2    0    0  0.00000000000E+00  0.00000000000E+00 -0.80697873220E+03  0.15134875231E+04  0.12804022057E+04 0.  0.
        3    1    3    3  502    0  0.45181605063E+03 -0.21634819702E+03 -0.87469704346E+03  0.10079877053E+04  0.10100000352E+00 0.  1.
       -3    1    3    3    0  502 -0.45181605063E+03  0.21634819702E+03  0.67718311256E+02  0.50549981784E+03  0.10100000352E+00 0. -1.
</event>
<event>
 5   0  0.6006119E-04  0.1299331E+04  0.7818609E-02  0.9030096E-01
       -1   -1    0    0    0  501  0.00000000000E+00  0.00000000000E+00  0.31943342415E+03  0.31943342419E+03  0.50400001928E-02 0. -1.
        1   -1    0    0  501    0  0.00000000000E+00  0.00000000000E+00 -0.13212938037E+04  0.13212938037E+04  0.50400001928E-02 0.  1.
    10030    2    1    2    0    0  0.00000000000E+00  0.00000000000E+00 -0.10018603795E+04  0.16407272279E+04  0.12993312188E+04 0.  0.
        4    1    3    3  502    0 -0.27367184863E+03 -0.32516264775E+03  0.11953612966E+03  0.44149465163E+03  0.12699999809E+01 0. -1.
       -4    1    3    3    0  502  0.27367184863E+03  0.32516264775E+03 -0.11213965092E+04  0.11992325762E+04  0.12699999809E+01 0.  1.
</event>
<event>
 5   0  0.5766027E-04  0.1280094E+04  0.7818609E-02  0.9045501E-01
       -1   -1    0    0    0  501  0.00000000000E+00  0.00000000000E+00  0.43854298499E+03  0.43854298501E+03  0.50400001928E-02 0.  1.
        1   -1    0    0  501    0  0.00000000000E+00  0.00000000000E+00 -0.93413910087E+03  0.93413910089E+03  0.50400001928E-02 0. -1.
    10030    2    1    2    0    0  0.00000000000E+00  0.00000000000E+00 -0.49559611589E+03  0.13726820859E+04  0.12800939805E+04 0.  0.
        3    1    3    3  502    0  0.52339527241E+03  0.31424983383E+03 -0.45396590773E+03  0.76077633035E+03  0.10100000352E+00 0. -1.
       -3    1    3    3    0  502 -0.52339527241E+03 -0.31424983383E+03 -0.41630208156E+02  0.61190575555E+03  0.10100000352E+00 0.  1.
</event>
<event>
 5   0  0.5812938E-04  0.1308601E+04  0.7818609E-02  0.9022773E-01
       -1   -1    0    0    0  501  0.00000000000E+00  0.00000000000E+00  0.86146292557E+03  0.86146292559E+03  0.50400001928E-02 0.  1.
        1   -1    0    0  501    0  0.00000000000E+00  0.00000000000E+00 -0.49695563786E+03  0.49695563789E+03  0.50400001928E-02 0. -1.
    10030    2    1    2    0    0  0.00000000000E+00  0.00000000000E+00  0.36450728771E+03  0.13584185635E+04  0.13086005620E+04 0.  0.
        5    1    3    3  502    0  0.33483153137E+03  0.28640197828E+03  0.68434952243E+03  0.81393771654E+03  0.46999998093E+01 0.  1.
       -5    1    3    3    0  502 -0.33483153137E+03 -0.28640197828E+03 -0.31984223472E+03  0.54448084693E+03  0.46999998093E+01 0. -1.
</event>
<event>
 5   0  0.5812938E-04  0.1301891E+04  0.7818609E-02  0.9028067E-01
       -1   -1    0    0    0  501  0.00000000000E+00  0.00000000000E+00  0.52463234609E+03  0.52463234612E+03  0.50400001928E-02 0. -1.
        1   -1    0    0  501    0  0.00000000000E+00  0.00000000000E+00 -0.80766995881E+03  0.80766995882E+03  0.50400001928E-02 0.  1.
    10030    2    1    2    0    0  0.00000000000E+00  0.00000000000E+00 -0.28303761272E+03  0.13323023049E+04  0.13018906028E+04 0.  0.
        5    1    3    3  502    0 -0.49492071012E+03 -0.73859509873E+01 -0.57413086839E+03  0.75805633406E+03  0.46999998093E+01 0.  1.
       -5    1    3    3    0  502  0.49492071012E+03  0.73859509873E+01  0.29109325567E+03  0.57424597088E+03  0.46999998093E+01 0. -1.
</event>
<event>
 5   0  0.1031295E-03  0.1275849E+04  0.7818609E-02  0.9048940E-01
       -2   -1    0    0    0  501  0.00000000000E+00  0.00000000000E+00  0.42297482333E+03  0.42297482334E+03  0.25500000920E-02 0.  1.
        2   -1    0    0  501    0  0.00000000000E+00  0.00000000000E+00 -0.96210789648E+03  0.96210789648E+03  0.25500000920E-02 0. -1.
    10030    2    1    2    0    0  0.00000000000E+00  0.00000000000E+00 -0.53913307315E+03  0.13850827198E+04  0.12758486079E+04 0.  0.
        2    1    3    3  502    0  0.22429775604E+03 -0.49333320059E+03 -0.63492182380E+03  0.83475316862E+03  0.25500000920E-02 0. -1.
       -2    1    3    3    0  502 -0.22429775604E+03  0.49333320059E+03  0.95788750648E+02  0.55032955120E+03  0.25500000920E-02 0.  1.
</event>
<event>
 5   0  0.1031295E-03  0.1289236E+04  0.7818609E-02  0.9038145E-01
       -2   -1    0    0    0  501  0.00000000000E+00  0.00000000000E+00  0.55469792300E+03  0.55469792301E+03  0.25500000920E-02 0. -1.
        2   -1    0    0  501    0  0.00000000000E+00  0.00000000000E+00 -0.74911524261E+03  0.74911524261E+03  0.25500000920E-02 0.  1.
    10030    2    1    2    0    0  0.00000000000E+00  0.00000000000E+00 -0.19441731961E+03  0.13038131656E+04  0.12892364704E+04 0.  0.
        2    1    3    3  502    0  0.48567627212E+03  0.15157060114E+03 -0.49750922944E+03  0.71159716259E+03  0.25500000920E-02 0.  1.
       -2    1    3    3    0  502 -0.48567627212E+03 -0.15157060114E+03  0.30309190983E+03  0.59221600303E+03  0.25500000920E-02 0. -1.
</event>
<event>
 5   0  0.5766027E-04  0.1295257E+04  0.7818609E-02  0.9033335E-01
       -1   -1    0    0    0  501  0.00000000000E+00  0.00000000000E+00  0.26755368285E+03  0.26755368290E+03  0.50400001928E-02 0. -1.
        1   -1    0    0  501    0  0.00000000000E+00  0.00000000000E+00 -0.15676195659E+04  0.15676195659E+04  0.50400001928E-02 0.  1.
    10030    2    1    2    0    0  0.00000000000E+00  0.00000000000E+00 -0.13000658831E+04  0.18351732488E+04  0.12952565587E+04 0.  0.
        3    1    3    3  502    0  0.39978748285E+03  0.10082684240E+03  0.57574493001E+02  0.41630627672E+03  0.10100000352E+00 0. -1.
       -3    1    3    3    0  502 -0.39978748285E+03 -0.10082684240E+03 -0.13576403761E+04  0.14188669721E+04  0.10100000352E+00 0.  1.
</event>
<event>
 5   0  0.5710383E-04  0.1297292E+04  0.7818609E-02  0.9031715E-01
        1   -1    0    0  501    0  0.00000000000E+00  0.00000000000E+00  0.26193013030E+04  0.26193013030E+04  0.50400001928E-02 0. -1.
       -1   -1    0    0    0  501  0.00000000000E+00  0.00000000000E+00 -0.16063132654E+03  0.16063132661E+03  0.50400001928E-02 0.  1.
    10030    2    1    2    0    0  0.00000000000E+00  0.00000000000E+00  0.24586699764E+04  0.27799326296E+04  0.12972923233E+04 0.  0.
        1    1    3    3  502    0  0.22992851122E+03  0.13292774820E+03 -0.38776843883E+02  0.26840370743E+03  0.50400001928E-02 0.  1.
       -1    1    3    3    0  502 -0.22992851122E+03 -0.13292774820E+03  0.24974468203E+04  0.25115289222E+04  0.50400001928E-02 0. -1.
</event>
<event>
 5   0  0.1046253E-03  0.1299020E+04  0.7818609E-02  0.9030343E-01
       -2   -1    0    0    0  501  0.00000000000E+00  0.00000000000E+00  0.40403264587E+03  0.40403264587E+03  0.25500000920E-02 0.  1.
        2   -1    0    0  501    0  0.00000000000E+00  0.00000000000E+00 -0.10441318683E+04  0.10441318683E+04  0.25500000920E-02 0. -1.
    10030    2    1    2    0    0  0.00000000000E+00  0.00000000000E+00 -0.64009922241E+03  0.14481645142E+04  0.12990201867E+04 0.  0.
        3    1    3    3  502    0 -0.12410277198E+03 -0.52946947850E+03  0.75864279424E+02  0.54908544487E+03  0.10100000352E+00 0.  1.
       -3    1    3    3    0  502  0.12410277198E+03  0.52946947850E+03 -0.71596350183E+03  0.89907906929E+03  0.10100000352E+00 0. -1.
</event>
<event>
 5   0  0.1081574E-03  0.1306570E+04  0.7818609E-02  0.9024371E-01
        2   -1    0    0  501    0  0.00000000000E+00  0.00000000000E+00  0.11550694947E+04  0.11550694947E+04  0.25500000920E-02 0.  1.
       -2   -1    0    0    0  501  0.00000000000E+00  0.00000000000E+00 -0.36948556838E+03  0.36948556839E+03  0.25500000920E-02 0. -1.
    10030    2    1    2    0    0  0.00000000000E+00  0.00000000000E+00  0.78558392632E+03  0.15245550631E+04  0.13065703330E+04 0.  0.
        5    1    3    3  502    0 -0.36518185253E+03 -0.33489538075E+02  0.10236184698E+04  0.10873344455E+04  0.46999998093E+01 0.  1.
       -5    1    3    3    0  502  0.36518185253E+03  0.33489538075E+02 -0.23803454350E+03  0.43722061762E+03  0.46999998093E+01 0. -1.
</event>
<event>
 5   0  0.5563545E-04  0.1242308E+04  0.7818609E-02  0.9076609E-01
        1   -1    0    0  501    0  0.00000000000E+00  0.00000000000E+00  0.95628158348E+03  0.95628158349E+03  0.50400001928E-02 0. -1.
       -1   -1    0    0    0  501  0.00000000000E+00  0.00000000000E+00 -0.40347172724E+03  0.40347172727E+03  0.50400001928E-02 0.  1.
    10030    2    1    2    0    0  0.00000000000E+00  0.00000000000E+00  0.55280985623E+03  0.13597533108E+04  0.12423084677E+04 0.  0.
        2    1    3    3  502    0  0.21399573718E+03  0.55217387810E+03  0.48159034043E+03  0.76329510885E+03  0.25500000920E-02 0. -1.
       -2    1    3    3    0  502 -0.21399573718E+03 -0.55217387810E+03  0.71219515800E+02  0.59645820191E+03  0.25500000920E-02 0.  1.
</event>
<event>
 5   0  0.5563545E-04  0.1320335E+04  0.7818609E-02  0.9013593E-01
        1   -1    0    0  501    0  0.00000000000E+00  0.00000000000E+00  0.12963090119E+04  0.12963090120E+04  0.50400001928E-02 0. -1.
       -1   -1    0    0    0  501  0.00000000000E+00  0.00000000000E+00 -0.33620161454E+03  0.33620161458E+03  0.50400001928E-02 0.  1.
    10030    2    1    2    0    0  0.00000000000E+00  0.00000000000E+00  0.96010739740E+03  0.16325106265E+04  0.13203350829E+04 0.  0.
        2    1    3    3  502    0  0.27912504168E+02  0.52077823043E+03  0.98051599645E+03  0.11105857430E+04  0.25500000920E-02 0. -1.
       -2    1    3    3    0  502 -0.27912504168E+02 -0.52077823043E+03 -0.20408599041E+02  0.52192488358E+03  0.25500000920E-02 0.  1.
</event>
<event>
 5   0  0.5766027E-04  0.1298347E+04  0.7818609E-02  0.9030877E-01
        1   -1    0    0  501    0  0.00000000000E+00  0.00000000000E+00  0.62415402042E+03  0.62415402044E+03  0.50400001928E-02 0. -1.
       -1   -1    0    0    0  501  0.00000000000E+00  0.00000000000E+00 -0.67519574111E+03  0.67519574113E+03  0.50400001928E-02 0.  1.
    10030    2    1    2    0    0  0.00000000000E+00  0.00000000000E+00 -0.51041720694E+02  0.12993497616E+04  0.12983468511E+04 0.  0.
        3    1    3    3  502    0  0.26247000264E+03  0.42690092408E+03  0.38746147599E+03  0.63345189781E+03  0.10100000352E+00 0. -1.
       -3    1    3    3    0  502 -0.26247000264E+03 -0.42690092408E+03 -0.43850319668E+03  0.66589786376E+03  0.10100000352E+00 0.  1.
</event>
<event>
 5   0  0.1046253E-03  0.1392996E+04  0.7818609E-02  0.8958904E-01
        2   -1    0    0  501    0  0.00000000000E+00  0.00000000000E+00  0.11583799375E+04  0.11583799375E+04  0.25500000920E-02 0. -1.
       -2   -1    0    0    0  501  0.00000000000E+00  0.00000000000E+00 -0.41878262317E+03  0.41878262318E+03  0.25500000920E-02 0.  1.
    10030    2    1    2    0    0  0.00000000000E+00  0.00000000000E+00  0.73959731436E+03  0.15771625607E+04  0.13929958921E+04 0.  0.
        3    1    3    3  502    0 -0.41127645085E+03 -0.12829461821E+03  0.98941970376E+03  0.10791474359E+04  0.10100000352E+00 0. -1.
       -3    1    3    3    0  502  0.41127645085E+03  0.12829461821E+03 -0.24982238939E+03  0.49801512480E+03  0.10100000352E+00 0.  1.
</event>
<event>
 5   0  0.5812938E-04  0.1292598E+04  0.7818609E-02  0.9035456E-01
       -1   -1    0    0    0  501  0.00000000000E+00  0.00000000000E+00  0.34881713887E+03  0.34881713891E+03  0.50400001928E-02 0.  1.
        1   -1    0    0  501    0  0.00000000000E+00  0.00000000000E+00 -0.11974818187E+04  0.11974818187E+04  0.50400001928E-02 0. -1.
    10030    2    1    2    0    0  0.00000000000E+00  0.00000000000E+00 -0.84866467984E+03  0.15462989576E+04  0.12925976665E+04 0.  0.
        5    1    3    3  502    0  0.32541833351E+03 -0.54941748242E+03 -0.30516396874E+03  0.70774557547E+03  0.46999998093E+01 0.  1.
       -5    1    3    3    0  502 -0.32541833351E+03  0.54941748242E+03 -0.54350071110E+03  0.83855338216E+03  0.46999998093E+01 0. -1.
</event>
<event>
 5   0  0.5563545E-04  0.1273170E+04  0.7818609E-02  0.9051117E-01
        1   -1    0    0  501    0  0.00000000000E+00  0.00000000000E+00  0.14577825999E+04  0.14577825999E+04  0.50400001928E-02 0. -1.
       -1   -1    0    0    0  501  0.00000000000E+00  0.00000000000E+00 -0.27798409264E+03  0.27798409268E+03  0.50400001928E-02 0.  1.
    10030    2    1    2    0    0  0.00000000000E+00  0.00000000000E+00  0.11797985072E+04  0.17357666926E+04  0.12731698604E+04 0.  0.
        2    1    3    3  502    0  0.91106620563E+02  0.13898257699E+03 -0.24788979816E+03  0.29843914799E+03  0.25500000920E-02 0.  1.
       -2    1    3    3    0  502 -0.91106620563E+02 -0.13898257699E+03  0.14276883054E+04  0.14373275446E+04  0.25500000920E-02 0. -1.
</event>
<event>
 5   0  0.1046253E-03  0.1308281E+04  0.7818609E-02  0.9023024E-01
        2   -1    0    0  501    0  0.00000000000E+00  0.00000000000E+00  0.13638452237E+04  0.13638452237E+04  0.25500000920E-02 0. -1.
       -2   -1    0    0    0  501  0.00000000000E+00  0.00000000000E+00 -0.31374491796E+03  0.31374491797E+03  0.25500000920E-02 0.  1.
    10030    2    1    2    0    0  0.00000000000E+00  0.00000000000E+00  0.10501003057E+04  0.16775901417E+04  0.13082805629E+04 0.  0.
        3    1    3    3  502    0 -0.88190234001E+02 -0.50491825648E+03  0.10462005765E+04  0.11650131414E+04  0.10100000352E+00 0. -1.
       -3    1    3    3    0  502  0.88190234001E+02  0.50491825648E+03  0.38997291909E+01  0.51257700026E+03  0.10100000352E+00 0.  1.
</event>
<event>
 5   0  0.1081574E-03  0.1302981E+04  0.7818609E-02  0.9027204E-01
        2   -1    0    0  501    0  0.00000000000E+00  0.00000000000E+00  0.77038851768E+03  0.77038851768E+03  0.25500000920E-02 0.  1.
       -2   -1    0    0    0  501  0.00000000000E+00  0.00000000000E+00 -0.55094298310E+03  0.55094298311E+03  0.25500000920E-02 0. -1.
    10030    2    1    2    0    0  0.00000000000E+00  0.00000000000E+00  0.21944553458E+03  0.13213315008E+04  0.13029814244E+04 0.  0.
        5    1    3    3  502    0 -0.37552319612E+03 -0.53161948229E+03  0.81380761422E+02  0.65595873582E+03  0.46999998093E+01 0. -1.
       -5    1    3    3    0  502  0.37552319612E+03  0.53161948229E+03  0.13806477315E+03  0.66537276497E+03  0.46999998093E+01 0.  1.
</event>
<event>
 5   0  0.1081574E-03  0.1298379E+04  0.7818609E-02  0.9030852E-01
        2   -1    0    0  501    0  0.00000000000E+00  0.00000000000E+00  0.12108916979E+04  0.12108916979E+04  0.25500000920E-02 0. -1.
       -2   -1    0    0    0  501  0.00000000000E+00  0.00000000000E+00 -0.34804682053E+03  0.34804682054E+03  0.25500000920E-02 0.  1.
    10030    2    1    2    0    0  0.00000000000E+00  0.00000000000E+00  0.86284487734E+03  0.15589385184E+04  0.12983789978E+04 0.  0.
        5    1    3    3  502    0  0.15861672804E+03 -0.43994753808E+03 -0.10916635006E+03  0.48026293285E+03  0.46999998093E+01 0.  1.
       -5    1    3    3    0  502 -0.15861672804E+03  0.43994753808E+03  0.97201122741E+03  0.10786755856E+04  0.46999998093E+01 0. -1.
</event>
<event>
 5   0  0.1081574E-03  0.1298943E+04  0.7818609E-02  0.9030404E-01
       -2   -1    0    0    0  501  0.00000000000E+00  0.00000000000E+00  0.41455726519E+03  0.41455726520E+03  0.25500000920E-02 0. -1.
        2   -1    0    0  501    0  0.00000000000E+00  0.00000000000E+00 -0.10175025933E+04  0.10175025933E+04  0.25500000920E-02 0.  1.
    10030    2    1    2    0    0  0.00000000000E+00  0.00000000000E+00 -0.60294532814E+03  0.14320598585E+04  0.12989427892E+04 0.  0.
        5    1    3    3  502    0 -0.87603696610E+01  0.63476783383E+03 -0.45257313893E+03  0.77964830727E+03  0.46999998093E+01 0.  1.
       -5    1    3    3    0  502  0.87603696610E+01 -0.63476783383E+03 -0.15037218921E+03  0.65241155127E+03  0.46999998093E+01 0. -1.
</event>
<event>
 5   0  0.1031295E-03  0.1294657E+04  0.7818609E-02  0.9033813E-01
        2   -1    0    0  501    0  0.00000000000E+00  0.00000000000E+00  0.86766769776E+03  0.86766769776E+03  0.25500000920E-02 0. -1.
       -2   -1    0    0    0  501  0.00000000000E+00  0.00000000000E+00 -0.48294336373E+03  0.48294336374E+03  0.25500000920E-02 0.  1.
    10030    2    1    2    0    0  0.00000000000E+00  0.00000000000E+00  0.38472433402E+03  0.13506110615E+04  0.12946572621E+04 0.  0.
        2    1    3    3  502    0  0.61239354803E+03  0.28226602268E+02  0.40922067088E+03  0.73707812085E+03  0.25500000920E-02 0. -1.
       -2    1    3    3    0  502 -0.61239354803E+03 -0.28226602268E+02 -0.24496336857E+02  0.61353294066E+03  0.25500000920E-02 0.  1.
</event>
<event>
 5   0  0.1103241E-03  0.1288759E+04  0.7818609E-02  0.9038527E-01
        2   -1    0    0  501    0  0.00000000000E+00  0.00000000000E+00  0.11830623830E+04  0.11830623830E+04  0.25500000920E-02 0.  1.
       -2   -1    0    0    0  501  0.00000000000E+00  0.00000000000E+00 -0.35097490796E+03  0.35097490797E+03  0.25500000920E-02 0. -1.
    10030    2    1    2    0    0  0.00000000000E+00  0.00000000000E+00  0.83208747502E+03  0.15340372910E+04  0.12887594205E+04 0.  0.
        4    1    3    3  502    0 -0.55002469406E+03 -0.41411582239E+02  0.19501558806E+02  0.55192753774E+03  0.12699999809E+01 0. -1.
       -4    1    3    3    0  502  0.55002469406E+03  0.41411582239E+02  0.81258591621E+03  0.98210975321E+03  0.12699999809E+01 0.  1.
</event>
<event>
 5   0  0.1081574E-03  0.1296408E+04  0.7818609E-02  0.9032418E-01
        2   -1    0    0  501    0  0.00000000000E+00  0.00000000000E+00  0.47021076584E+03  0.47021076585E+03  0.25500000920E-02 0. -1.
       -2   -1    0    0    0  501  0.00000000000E+00  0.00000000000E+00 -0.89357492279E+03  0.89357492279E+03  0.25500000920E-02 0.  1.
    10030    2    1    2    0    0  0.00000000000E+00  0.00000000000E+00 -0.42336415695E+03  0.13637856886E+04  0.12964081900E+04 0.  0.
        5    1    3    3  502    0  0.28406134849E+03  0.68913592960E+02 -0.82028839109E+03  0.87082436091E+03  0.46999998093E+01 0.  1.
       -5    1    3    3    0  502 -0.28406134849E+03 -0.68913592960E+02  0.39692423414E+03  0.49296132773E+03  0.46999998093E+01 0. -1.
</event>
<event>
 5   0  0.1081574E-03  0.1326468E+04  0.7818609E-02  0.9008836E-01
        2   -1    0    0  501    0  0.00000000000E+00  0.00000000000E+00  0.14664447935E+04  0.14664447935E+04  0.25500000920E-02 0. -1.
       -2   -1    0    0    0  501  0.00000000000E+00  0.00000000000E+00 -0.29996289623E+03  0.29996289624E+03  0.25500000920E-02 0.  1.
    10030    2    1    2    0    0  0.00000000000E+00  0.00000000000E+00  0.11664818972E+04  0.17664076897E+04  0.13264675306E+04 0.  0.
        5    1    3    3  502    0 -0.38482570480E+03  0.29519332145E+03  0.11856282524E+04  0.12810020933E+04  0.46999998093E+01 0. -1.
       -5    1    3    3    0  502  0.38482570480E+03 -0.29519332145E+03 -0.19146355197E+02  0.48540559640E+03  0.46999998093E+01 0.  1.
</event>
<event>
 5   0  0.1101619E-03  0.1277832E+04  0.7818609E-02  0.9047332E-01
       -2   -1    0    0    0  501  0.00000000000E+00  0.00000000000E+00  0.34989583114E+03  0.34989583115E+03  0.25500000920E-02 0.  1.
        2   -1    0    0  501    0  0.00000000000E+00  0.00000000000E+00 -0.11666722783E+04  0.11666722783E+04  0.25500000920E-02 0. -1.
    10030    2    1    2    0    0  0.00000000000E+00  0.00000000000E+00 -0.81677644717E+03  0.15165681095E+04  0.12778321744E+04 0.  0.
        1    1    3    3  502    0 -0.34550248721E+03 -0.10587492087E+03  0.21696169120E+03  0.42149002718E+03  0.50400001928E-02 0.  1.
       -1    1    3    3    0  502  0.34550248721E+03  0.10587492087E+03 -0.10337381384E+04  0.10950780823E+04  0.50400001928E-02 0. -1.
</event>
<event>
 5   0  0.4012375E-04  0.1298680E+04  0.7818609E-02  0.9030613E-01
       -3   -1    0    0    0  501  0.00000000000E+00  0.00000000000E+00  0.47797814230E+03  0.47797815297E+03  0.10100000352E+00 0. -1.
        3   -1    0    0  501    0  0.00000000000E+00  0.00000000000E+00 -0.88213694264E+03  0.88213694842E+03  0.10100000352E+00 0.  1.
    10030    2    1    2    0    0  0.00000000000E+00  0.00000000000E+00 -0.40415880034E+03  0.13601151014E+04  0.12986796191E+04 0.  0.
        2    1    3    3  502    0 -0.59548448522E+03 -0.20126579740E+03 -0.31485820377E+02  0.62936559346E+03  0.25500000920E-02 0. -1.
       -2    1    3    3    0  502  0.59548448522E+03  0.20126579740E+03 -0.37267297996E+03  0.73074950793E+03  0.25500000920E-02 0.  1.
</event>
<event>
 5   0  0.1101619E-03  0.1305031E+04  0.7818609E-02  0.9025585E-01
        2   -1    0    0  501    0  0.00000000000E+00  0.00000000000E+00  0.21080923760E+04  0.21080923760E+04  0.25500000920E-02 0. -1.
       -2   -1    0    0    0  501  0.00000000000E+00  0.00000000000E+00 -0.20197241461E+03  0.20197241463E+03  0.25500000920E-02 0.  1.
    10030    2    1    2    0    0  0.00000000000E+00  0.00000000000E+00  0.19061199614E+04  0.23100647906E+04  0.13050310455E+04 0.  0.
        1    1    3    3  502    0 -0.40874855590E+03 -0.23449481301E+03  0.15412209083E+03  0.49579917122E+03  0.50400001928E-02 0.  1.
       -1    1    3    3    0  502  0.40874855590E+03  0.23449481301E+03  0.17519978706E+04  0.18142656194E+04  0.50400001928E-02 0. -1.
</event>
<event>
 5   0  0.5563545E-04  0.1297231E+04  0.7818609E-02  0.9031764E-01
        1   -1    0    0  501    0  0.00000000000E+00  0.00000000000E+00  0.89693447763E+03  0.89693447764E+03  0.50400001928E-02 0. -1.
       -1   -1    0    0    0  501  0.00000000000E+00  0.00000000000E+00 -0.46904409298E+03  0.46904409300E+03  0.50400001928E-02 0.  1.
    10030    2    1    2    0    0  0.00000000000E+00  0.00000000000E+00  0.42789038465E+03  0.13659785706E+04  0.12972306172E+04 0.  0.
        2    1    3    3  502    0 -0.34149085092E+03  0.43056147475E+03  0.57673650037E+03  0.79663302446E+03  0.25500000920E-02 0. -1.
       -2    1    3    3    0  502  0.34149085092E+03 -0.43056147475E+03 -0.14884611572E+03  0.56934554619E+03  0.25500000920E-02 0.  1.
</event>
<event>
 5   0  0.1046253E-03  0.1301523E+04  0.7818609E-02  0.9028359E-01
       -2   -1    0    0    0  501  0.00000000000E+00  0.00000000000E+00  0.17279845851E+03  0.17279845853E+03  0.25500000920E-02 0. -1.
        2   -1    0    0  501    0  0.00000000000E+00  0.00000000000E+00 -0.24507758774E+04  0.24507758774E+04  0.25500000920E-02 0.  1.
    10030    2    1    2    0    0  0.00000000000E+00  0.00000000000E+00 -0.22779774188E+04  0.26235743359E+04  0.13015226372E+04 0.  0.
        3    1    3    3  502    0  0.45995073504E+02  0.28557217930E+03  0.36093370582E+02  0.29149572549E+03  0.10100000352E+00 0. -1.
       -3    1    3    3    0  502 -0.45995073504E+02 -0.28557217930E+03 -0.23140707894E+04  0.23320786104E+04  0.10100000352E+00 0.  1.
</event>
<event>
 5   0  0.6006119E-04  0.1302188E+04  0.7818609E-02  0.9027831E-01
       -1   -1    0    0    0  501  0.00000000000E+00  0.00000000000E+00  0.46357899100E+03  0.46357899103E+03  0.50400001928E-02 0.  1.
        1   -1    0    0  501    0  0.00000000000E+00  0.00000000000E+00 -0.91445841655E+03  0.91445841656E+03  0.50400001928E-02 0. -1.
    10030    2    1    2    0    0  0.00000000000E+00  0.00000000000E+00 -0.45087942554E+03  0.13780374076E+04  0.13021884811E+04 0.  0.
        4    1    3    3  502    0 -0.52613282933E+03 -0.13706668720E+03 -0.60452135472E+03  0.81305025186E+03  0.12699999809E+01 0. -1.
       -4    1    3    3    0  502  0.52613282933E+03  0.13706668720E+03  0.15364192917E+03  0.56498715573E+03  0.12699999809E+01 0.  1.
</event>
<event>
 5   0  0.5710383E-04  0.1273520E+04  0.7818609E-02  0.9050831E-01
       -1   -1    0    0    0  501  0.00000000000E+00  0.00000000000E+00  0.20414683702E+03  0.20414683708E+03  0.50400001928E-02 0.  1.
        1   -1    0    0  501    0  0.00000000000E+00  0.00000000000E+00 -0.19861367020E+04  0.19861367020E+04  0.50400001928E-02 0. -1.
    10030    2    1    2    0    0  0.00000000000E+00  0.00000000000E+00 -0.17819898649E+04  0.21902835391E+04  0.12735203582E+04 0.  0.
        1    1    3    3  502    0  0.27742850246E+03  0.36683640052E+02 -0.18747086953E+04  0.18954801385E+04  0.50400001928E-02 0. -1.
       -1    1    3    3    0  502 -0.27742850246E+03 -0.36683640052E+02  0.92718830341E+02  0.29480340050E+03  0.50400001928E-02 0.  1.
</event>
<event>
 5   0  0.5812938E-04  0.1298272E+04  0.7818609E-02  0.9030937E-01
        1   -1    0    0  501    0  0.00000000000E+00  0.00000000000E+00  0.71617088720E+03  0.71617088721E+03  0.50400001928E-02 0. -1.
       -1   -1    0    0    0  501  0.00000000000E+00  0.00000000000E+00 -0.58837547540E+03  0.58837547542E+03  0.50400001928E-02 0.  1.
    10030    2    1    2    0    0  0.00000000000E+00  0.00000000000E+00  0.12779541180E+03  0.13045463626E+04  0.12982717531E+04 0.  0.
        5    1    3    3  502    0  0.34483300002E+03  0.18009166775E+03 -0.45824093772E+03  0.60112365924E+03  0.46999998093E+01 0.  1.
       -5    1    3    3    0  502 -0.34483300002E+03 -0.18009166775E+03  0.58603634952E+03  0.70342270340E+03  0.46999998093E+01 0. -1.
</event>
<event>
 5   0  0.1103241E-03  0.1290472E+04  0.7818609E-02  0.9037156E-01
        2   -1    0    0  501    0  0.00000000000E+00  0.00000000000E+00  0.62887681511E+03  0.62887681512E+03  0.25500000920E-02 0.  1.
       -2   -1    0    0    0  501  0.00000000000E+00  0.00000000000E+00 -0.66202037602E+03  0.66202037602E+03  0.25500000920E-02 0. -1.
    10030    2    1    2    0    0  0.00000000000E+00  0.00000000000E+00 -0.33143560906E+02  0.12908971911E+04  0.12904716434E+04 0.  0.
        4    1    3    3  502    0  0.69942429616E+02  0.47016993859E+03  0.41989301317E+03  0.63424243789E+03  0.12699999809E+01 0.  1.
       -4    1    3    3    0  502 -0.69942429616E+02 -0.47016993859E+03 -0.45303657408E+03  0.65665475325E+03  0.12699999809E+01 0. -1.
</event>
<event>
 5   0  0.5563545E-04  0.1171329E+04  0.7818609E-02  0.9138329E-01
       -1   -1    0    0    0  501  0.00000000000E+00  0.00000000000E+00  0.19757961999E+03  0.19757962005E+03  0.50400001928E-02 0. -1.
        1   -1    0    0  501    0  0.00000000000E+00  0.00000000000E+00 -0.17360245342E+04  0.17360245342E+04  0.50400001928E-02 0.  1.
    10030    2    1    2    0    0  0.00000000000E+00  0.00000000000E+00 -0.15384449142E+04  0.19336041543E+04  0.11713292754E+04 0.  0.
        2    1    3    3  502    0 -0.95576091180E+02 -0.57750629370E+03 -0.73812996741E+03  0.94206377558E+03  0.25500000920E-02 0.  1.
       -2    1    3    3    0  502  0.95576091180E+02  0.57750629370E+03 -0.80031494682E+03  0.99154037869E+03  0.25500000920E-02 0. -1.
</event>
<event>
 5   0  0.1031295E-03  0.1301600E+04  0.7818609E-02  0.9028297E-01
        2   -1    0    0  501    0  0.00000000000E+00  0.00000000000E+00  0.94163719271E+03  0.94163719271E+03  0.25500000920E-02 0. -1.
       -2   -1    0    0    0  501  0.00000000000E+00  0.00000000000E+00 -0.44979206043E+03  0.44979206043E+03  0.25500000920E-02 0.  1.
    10030    2    1    2    0    0  0.00000000000E+00  0.00000000000E+00  0.49184513228E+03  0.13914292531E+04  0.13016004504E+04 0.  0.
        2    1    3    3  502    0  0.87530289406E+02  0.28237749908E+03  0.86571324738E+03  0.91479944811E+03  0.25500000920E-02 0. -1.
       -2    1    3    3    0  502 -0.87530289406E+02 -0.28237749908E+03 -0.37386811511E+03  0.47662980504E+03  0.25500000920E-02 0.  1.
</event>
<event>
 5   0  0.1101619E-03  0.1297228E+04  0.7818609E-02  0.9031766E-01
       -2   -1    0    0    0  501  0.00000000000E+00  0.00000000000E+00  0.31415763419E+03  0.31415763420E+03  0.25500000920E-02 0.  1.
        2   -1    0    0  501    0  0.00000000000E+00  0.00000000000E+00 -0.13391367394E+04  0.13391367394E+04  0.25500000920E-02 0. -1.
    10030    2    1    2    0    0  0.00000000000E+00  0.00000000000E+00 -0.10249791052E+04  0.16532943736E+04  0.12972278596E+04 0.  0.
        1    1    3    3  502    0 -0.33054641746E+03 -0.19581355458E+03  0.15353725153E+03  0.41373611141E+03  0.50400001928E-02 0.  1.
       -1    1    3    3    0  502  0.33054641746E+03  0.19581355458E+03 -0.11785163567E+04  0.12395582622E+04  0.50400001928E-02 0. -1.
</event>
<event>
 5   0  0.1081574E-03  0.1296764E+04  0.7818609E-02  0.9032135E-01
       -2   -1    0    0    0  501  0.00000000000E+00  0.00000000000E+00  0.70143508467E+03  0.70143508468E+03  0.25500000920E-02 0.  1.
        2   -1    0    0  501    0  0.00000000000E+00  0.00000000000E+00 -0.59934174392E+03  0.59934174392E+03  0.25500000920E-02 0. -1.
    10030    2    1    2    0    0  0.00000000000E+00  0.00000000000E+00  0.10209334076E+03  0.13007768286E+04  0.12967641681E+04 0.  0.
        5    1    3    3  502    0  0.64426750224E+03 -0.68280340253E+02  0.76312257753E+02  0.65237142027E+03  0.46999998093E+01 0.  1.
       -5    1    3    3    0  502 -0.64426750224E+03  0.68280340253E+02  0.25781083002E+02  0.64840540833E+03  0.46999998093E+01 0. -1.
</event>
<event>
 5   0  0.5563545E-04  0.1301569E+04  0.7818609E-02  0.9028322E-01
       -1   -1    0    0    0  501  0.00000000000E+00  0.00000000000E+00  0.41669602409E+03  0.41669602412E+03  0.50400001928E-02 0. -1.
        1   -1    0    0  501    0  0.00000000000E+00  0.00000000000E+00 -0.10163768557E+04  0.10163768557E+04  0.50400001928E-02 0.  1.
    10030    2    1    2    0    0  0.00000000000E+00  0.00000000000E+00 -0.59968083161E+03  0.14330728798E+04  0.13015685841E+04 0.  0.
        2    1    3    3  502    0  0.24077067488E+03 -0.17254351314E+03 -0.93785059216E+03  0.98351691140E+03  0.25500000920E-02 0.  1.
       -2    1    3    3    0  502 -0.24077067488E+03  0.17254351314E+03  0.33816976054E+03  0.44955596844E+03  0.25500000920E-02 0. -1.
</event>
<event>
 5   0  0.6006119E-04  0.1314537E+04  0.7818609E-02  0.9018116E-01
        1   -1    0    0  501    0  0.00000000000E+00  0.00000000000E+00  0.14072832819E+04  0.14072832819E+04  0.50400001928E-02 0.  1.
       -1   -1    0    0    0  501  0.00000000000E+00  0.00000000000E+00 -0.30697560427E+03  0.30697560431E+03  0.50400001928E-02 0. -1.
    10030    2    1    2    0    0  0.00000000000E+00  0.00000000000E+00  0.11003076776E+04  0.17142588862E+04  0.13145366269E+04 0.  0.
        4    1    3    3  502    0  0.55790607333E+02 -0.24400856268E+03  0.13426937728E+04  0.13658261057E+04  0.12699999809E+01 0.  1.
       -4    1    3    3    0  502 -0.55790607333E+02  0.24400856268E+03 -0.24238609517E+03  0.34843278054E+03  0.12699999809E+01 0. -1.
</event>
<event>
 5   0  0.1103241E-03  0.1266904E+04  0.7818609E-02  0.9056231E-01
       -2   -1    0    0    0  501  0.00000000000E+00  0.00000000000E+00  0.17913778043E+03  0.17913778045E+03  0.25500000920E-02 0. -1.
        2   -1    0    0  501    0  0.00000000000E+00  0.00000000000E+00 -0.22399584860E+04  0.22399584860E+04  0.25500000920E-02 0.  1.
    10030    2    1    2    0    0  0.00000000000E+00  0.00000000000E+00 -0.20608207055E+04  0.24190962664E+04  0.12669036135E+04 0.  0.
        4    1    3    3  502    0  0.15926311445E+03 -0.16920911338E+03  0.94813434443E+02  0.25097343271E+03  0.12699999809E+01 0. -1.
       -4    1    3    3    0  502 -0.15926311445E+03  0.16920911338E+03 -0.21556341400E+04  0.21681228337E+04  0.12699999809E+01 0.  1.
</event>
<event>
 5   0  0.1046253E-03  0.1322714E+04  0.7818609E-02  0.9011744E-01
        2   -1    0    0  501    0  0.00000000000E+00  0.00000000000E+00  0.39704447476E+03  0.39704447477E+03  0.25500000920E-02 0.  1.
       -2   -1    0    0    0  501  0.00000000000E+00  0.00000000000E+00 -0.11016221986E+04  0.11016221986E+04  0.25500000920E-02 0. -1.
    10030    2    1    2    0    0  0.00000000000E+00  0.00000000000E+00 -0.70457772381E+03  0.14986666733E+04  0.13227138878E+04 0.  0.
        3    1    3    3  502    0 -0.25688855631E+03 -0.66371932880E+02  0.33409935803E+03  0.42663726405E+03  0.10100000352E+00 0.  1.
       -3    1    3    3    0  502  0.25688855631E+03  0.66371932880E+02 -0.10386770818E+04  0.10720294093E+04  0.10100000352E+00 0. -1.
</event>
<event>
 5   0  0.5710383E-04  0.1308272E+04  0.7818609E-02  0.9023031E-01
       -1   -1    0    0    0  501  0.00000000000E+00  0.00000000000E+00  0.80159526718E+03  0.80159526719E+03  0.50400001928E-02 0.  1.
        1   -1    0    0  501    0  0.00000000000E+00  0.00000000000E+00 -0.53380279596E+03  0.53380279598E+03  0.50400001928E-02 0. -1.
    10030    2    1    2    0    0  0.00000000000E+00  0.00000000000E+00  0.26779247122E+03  0.13353980632E+04  0.13082718294E+04 0.  0.
        1    1    3    3  502    0 -0.25055679586E+03  0.40560336651E+03 -0.32327541787E+03  0.57602065476E+03  0.50400001928E-02 0. -1.
       -1    1    3    3    0  502  0.25055679586E+03 -0.40560336651E+03  0.59106788909E+03  0.75937740842E+03  0.50400001928E-02 0.  1.
</event>
<event>
 5   0  0.5710383E-04  0.1290749E+04  0.7818609E-02  0.9036934E-01
       -1   -1    0    0    0  501  0.00000000000E+00  0.00000000000E+00  0.76018374607E+03  0.76018374609E+03  0.50400001928E-02 0.  1.
        1   -1    0    0  501    0  0.00000000000E+00  0.00000000000E+00 -0.54790435890E+03  0.54790435892E+03  0.50400001928E-02 0. -1.
    10030    2    1    2    0    0  0.00000000000E+00  0.00000000000E+00  0.21227938718E+03  0.13080881050E+04  0.12907486015E+04 0.  0.
        1    1    3    3  502    0 -0.37446875203E+02 -0.44268415223E+03 -0.36826901761E+03  0.57705597341E+03  0.50400001928E-02 0. -1.
       -1    1    3    3    0  502  0.37446875203E+02  0.44268415223E+03  0.58054840479E+03  0.73103213159E+03  0.50400001928E-02 0.  1.
</event>
<event>
 5   0  0.5563545E-04  0.1322937E+04  0.7818609E-02  0.9011571E-01
       -1   -1    0    0    0  501  0.00000000000E+00  0.00000000000E+00  0.25269145130E+03  0.25269145135E+03  0.50400001928E-02 0.  1.
        1   -1    0    0  501    0  0.00000000000E+00  0.00000000000E+00 -0.17315197828E+04  0.17315197828E+04  0.50400001928E-02 0. -1.
    10030    2    1    2    0    0  0.00000000000E+00  0.00000000000E+00 -0.14788283315E+04  0.19842112342E+04  0.13229365018E+04 0.  0.
        2    1    3    3  502    0  0.11907362294E+03 -0.23038327108E+03 -0.16520911978E+04  0.16723218306E+04  0.25500000920E-02 0. -1.
       -2    1    3    3    0  502 -0.11907362294E+03  0.23038327108E+03  0.17326286623E+03  0.31188940362E+03  0.25500000920E-02 0.  1.
</event>
<event>
 5   0  0.5563545E-04  0.1299805E+04  0.7818609E-02  0.9029720E-01
        1   -1    0    0  501    0  0.00000000000E+00  0.00000000000E+00  0.31913927074E+03  0.31913927078E+03  0.50400001928E-02 0. -1.
       -1   -1    0    0    0  501  0.00000000000E+00  0.00000000000E+00 -0.13234761021E+04  0.13234761021E+04  0.50400001928E-02 0.  1.
    10030    2    1    2    0    0  0.00000000000E+00  0.00000000000E+00 -0.10043368313E+04  0.16426153729E+04  0.12998049055E+04 0.  0.
        2    1    3    3  502    0 -0.28154437829E+03 -0.28055751865E+03 -0.11519734159E+04  0.12186149963E+04  0.25500000920E-02 0.  1.
       -2    1    3    3    0  502  0.28154437829E+03  0.28055751865E+03  0.14763658458E+03  0.42400037657E+03  0.25500000920E-02 0. -1.
</event>
<event>
 5   0  0.1081574E-03  0.1293280E+04  0.7818609E-02  0.9034911E-01
        2   -1    0    0  501    0  0.00000000000E+00  0.00000000000E+00  0.74483902249E+03  0.74483902249E+03  0.25500000920E-02 0. -1.
       -2   -1    0    0    0  501  0.00000000000E+00  0.00000000000E+00 -0.56138740129E+03  0.56138740130E+03  0.25500000920E-02 0.  1.
    10030    2    1    2    0    0  0.00000000000E+00  0.00000000000E+00  0.18345162120E+03  0.13062264238E+04  0.12932799283E+04 0.  0.
        5    1    3    3  502    0 -0.23960939456E+03 -0.32196572450E+03 -0.42034713178E+03  0.58119565630E+03  0.46999998093E+01 0.  1.
       -5    1    3    3    0  502  0.23960939456E+03  0.32196572450E+03  0.60379875298E+03  0.72503076749E+03  0.46999998093E+01 0. -1.
</event>
<event>
 5   0  0.5812938E-04  0.1178840E+04  0.7818609E-02  0.9131582E-01
        1   -1    0    0  501    0  0.00000000000E+00  0.00000000000E+00  0.12568710699E+04  0.12568710699E+04  0.50400001928E-02 0.  1.
       -1   -1    0    0    0  501  0.00000000000E+00  0.00000000000E+00 -0.27641319312E+03  0.27641319317E+03  0.50400001928E-02 0. -1.
    10030    2    1    2    0    0  0.00000000000E+00  0.00000000000E+00  0.98045787677E+03  0.15332842631E+04  0.11788396767E+04 0.  0.
        5    1    3    3  502    0  0.29502221743E+03 -0.44301141195E+03  0.81952373960E+03  0.97720953212E+03  0.46999998093E+01 0.  1.
       -5    1    3    3    0  502 -0.29502221743E+03  0.44301141195E+03  0.16093413717E+03  0.55607473095E+03  0.46999998093E+01 0. -1.
</event>
<event>
 5   0  0.5766027E-04  0.1301750E+04  0.7818609E-02  0.9028179E-01
        1   -1    0    0  501    0  0.00000000000E+00  0.00000000000E+00  0.88241704717E+03  0.88241704719E+03  0.50400001928E-02 0. -1.
       -1   -1    0    0    0  501  0.00000000000E+00  0.00000000000E+00 -0.48008812458E+03  0.48008812461E+03  0.50400001928E-02 0.  1.
    10030    2    1    2    0    0  0.00000000000E+00  0.00000000000E+00  0.40232892259E+03  0.13625051718E+04  0.13017495079E+04 0.  0.
        3    1    3    3  502    0 -0.11085763954E+03  0.20358746140E+03 -0.43541598299E+03  0.49327918984E+03  0.10100000352E+00 0.  1.
       -3    1    3    3    0  502  0.11085763954E+03 -0.20358746140E+03  0.83774490558E+03  0.86922598196E+03  0.10100000352E+00 0. -1.
</event>
<event>
 5   0  0.5812938E-04  0.1297833E+04  0.7818609E-02  0.9031285E-01
       -1   -1    0    0    0  501  0.00000000000E+00  0.00000000000E+00  0.52207120573E+03  0.52207120575E+03  0.50400001928E-02 0. -1.
        1   -1    0    0  501    0  0.00000000000E+00  0.00000000000E+00 -0.80658136980E+03  0.80658136981E+03  0.50400001928E-02 0.  1.
    10030    2    1    2    0    0  0.00000000000E+00  0.00000000000E+00 -0.28451016407E+03  0.13286525756E+04  0.12978334381E+04 0.  0.
        5    1    3    3  502    0  0.38660957390E+03  0.48607259031E+03 -0.33470118037E+03  0.70553560918E+03  0.46999998093E+01 0.  1.
       -5    1    3    3    0  502 -0.38660957390E+03 -0.48607259031E+03  0.50191016305E+02  0.62311696638E+03  0.46999998093E+01 0. -1.
</event>
<event>
 5   0  0.6006119E-04  0.1301821E+04  0.7818609E-02  0.9028122E-01
       -1   -1    0    0    0  501  0.00000000000E+00  0.00000000000E+00  0.61465436465E+03  0.61465436467E+03  0.50400001928E-02 0. -1.
        1   -1    0    0  501    0  0.00000000000E+00  0.00000000000E+00 -0.68930560953E+03  0.68930560955E+03  0.50400001928E-02 0.  1.
    10030    2    1    2    0    0  0.00000000000E+00  0.00000000000E+00 -0.74651244885E+02  0.13039599742E+04  0.13018213418E+04 0.  0.
        4    1    3    3  502    0 -0.19446619566E+03 -0.29174448216E+03 -0.58663437373E+03  0.68342771781E+03  0.12699999809E+01 0.  1.
       -4    1    3    3    0  502  0.19446619566E+03  0.29174448216E+03  0.51198312884E+03  0.62053225641E+03  0.12699999809E+01 0. -1.
</event>
<event>
 5   0  0.1031295E-03  0.1296625E+04  0.7818609E-02  0.9032246E-01
        2   -1    0    0  501    0  0.00000000000E+00  0.00000000000E+00  0.73155122053E+03  0.73155122053E+03  0.25500000920E-02 0. -1.
       -2   -1    0    0    0  501  0.00000000000E+00  0.00000000000E+00 -0.57454479211E+03  0.57454479212E+03  0.25500000920E-02 0.  1.
    10030    2    1    2    0    0  0.00000000000E+00  0.00000000000E+00  0.15700642841E+03  0.13060960127E+04  0.12966247629E+04 0.  0.
        2    1    3    3  502    0 -0.20519484307E+03 -0.41773768620E+03  0.53313050527E+03  0.70769897114E+03  0.25500000920E-02 0. -1.
       -2    1    3    3    0  502  0.20519484307E+03  0.41773768620E+03 -0.37612407686E+03  0.59839704151E+03  0.25500000920E-02 0.  1.
</event>
<event>
 5   0  0.1101619E-03  0.1277904E+04  0.7818609E-02  0.9047273E-01
        2   -1    0    0  501    0  0.00000000000E+00  0.00000000000E+00  0.83138105666E+03  0.83138105667E+03  0.25500000920E-02 0.  1.
       -2   -1    0    0    0  501  0.00000000000E+00  0.00000000000E+00 -0.49106220017E+03  0.49106220018E+03  0.25500000920E-02 0. -1.
    10030    2    1    2    0    0  0.00000000000E+00  0.00000000000E+00  0.34031885649E+03  0.13224432568E+04  0.12779042388E+04 0.  0.
        1    1    3    3  502    0  0.35611386129E+02 -0.63151483350E+03  0.26375876626E+03  0.68530857470E+03  0.50400001928E-02 0.  1.
       -1    1    3    3    0  502 -0.35611386129E+02  0.63151483350E+03  0.76560090238E+02  0.63713468215E+03  0.50400001928E-02 0. -1.
</event>
<event>
 5   0  0.5812938E-04  0.1306739E+04  0.7818609E-02  0.9024238E-01
       -1   -1    0    0    0  501  0.00000000000E+00  0.00000000000E+00  0.30793261106E+03  0.30793261110E+03  0.50400001928E-02 0. -1.
        1   -1    0    0  501    0  0.00000000000E+00  0.00000000000E+00 -0.13863143826E+04  0.13863143826E+04  0.50400001928E-02 0.  1.
    10030    2    1    2    0    0  0.00000000000E+00  0.00000000000E+00 -0.10783817716E+04  0.16942469937E+04  0.13067385471E+04 0.  0.
        5    1    3    3  502    0 -0.45991845570E+03 -0.41418325601E+03 -0.26785450229E+03  0.67441892014E+03  0.46999998093E+01 0. -1.
       -5    1    3    3    0  502  0.45991845570E+03  0.41418325601E+03 -0.81052726927E+03  0.10198280736E+04  0.46999998093E+01 0.  1.
</event>
<event>
 5   0  0.5563545E-04  0.1301169E+04  0.7818609E-02  0.9028639E-01
       -1   -1    0    0    0  501  0.00000000000E+00  0.00000000000E+00  0.57765332207E+03  0.57765332209E+03  0.50400001928E-02 0.  1.
        1   -1    0    0  501    0  0.00000000000E+00  0.00000000000E+00 -0.73272328472E+03  0.73272328474E+03  0.50400001928E-02 0. -1.
    10030    2    1    2    0    0  0.00000000000E+00  0.00000000000E+00 -0.15506996265E+03  0.13103766068E+04  0.13011687663E+04 0.  0.
        2    1    3    3  502    0 -0.62898064610E+03 -0.16123613814E+03 -0.11839666180E+03  0.66002387453E+03  0.25500000920E-02 0.  1.
       -2    1    3    3    0  502  0.62898064610E+03  0.16123613814E+03 -0.36673300853E+02  0.65035273230E+03  0.25500000920E-02 0. -1.
</event>
<event>
 5   0  0.5766027E-04  0.1290524E+04  0.7818609E-02  0.9037114E-01
       -1   -1    0    0    0  501  0.00000000000E+00  0.00000000000E+00  0.23449465547E+03  0.23449465553E+03  0.50400001928E-02 0.  1.
        1   -1    0    0  501    0  0.00000000000E+00  0.00000000000E+00 -0.17755758008E+04  0.17755758008E+04  0.50400001928E-02 0. -1.
    10030    2    1    2    0    0  0.00000000000E+00  0.00000000000E+00 -0.15410811454E+04  0.20100704564E+04  0.12905239800E+04 0.  0.
        3    1    3    3  502    0 -0.10123942985E+03 -0.44650863696E+03 -0.62331833947E+02  0.46206563685E+03  0.10100000352E+00 0.  1.
       -3    1    3    3    0  502  0.10123942985E+03  0.44650863696E+03 -0.14787493114E+04  0.15480048195E+04  0.10100000352E+00 0. -1.
</event>
<event>
 5   0  0.1031295E-03  0.1280804E+04  0.7818609E-02  0.9044928E-01
       -2   -1    0    0    0  501  0.00000000000E+00  0.00000000000E+00  0.48901570513E+03  0.48901570514E+03  0.25500000920E-02 0.  1.
        2   -1    0    0  501    0  0.00000000000E+00  0.00000000000E+00 -0.83865319829E+03  0.83865319829E+03  0.25500000920E-02 0. -1.
    10030    2    1    2    0    0  0.00000000000E+00  0.00000000000E+00 -0.34963749316E+03  0.13276689034E+04  0.12808037869E+04 0.  0.
        2    1    3    3  502    0 -0.57797068705E+03  0.22066628107E+03 -0.34631373028E+03  0.70899712445E+03  0.25500000920E-02 0. -1.
       -2    1    3    3    0  502  0.57797068705E+03 -0.22066628107E+03 -0.33237628798E+01  0.61867177898E+03  0.25500000920E-02 0.  1.
</event>
<event>
 5   0  0.1046253E-03  0.1317588E+04  0.7818609E-02  0.9015733E-01
       -2   -1    0    0    0  501  0.00000000000E+00  0.00000000000E+00  0.23451681941E+03  0.23451681942E+03  0.25500000920E-02 0.  1.
        2   -1    0    0  501    0  0.00000000000E+00  0.00000000000E+00 -0.18506536155E+04  0.18506536155E+04  0.25500000920E-02 0. -1.
    10030    2    1    2    0    0  0.00000000000E+00  0.00000000000E+00 -0.16161367960E+04  0.20851704349E+04  0.13175877955E+04 0.  0.
        3    1    3    3  502    0  0.68247496637E+02  0.66929807457E+01 -0.18449899846E+04  0.18462639492E+04  0.10100000352E+00 0. -1.
       -3    1    3    3    0  502 -0.68247496637E+02 -0.66929807457E+01  0.22885318853E+03  0.23890648566E+03  0.10100000352E+00 0.  1.
</event>
<event>
 5   0  0.5710383E-04  0.1303595E+04  0.7818609E-02  0.9026719E-01
       -1   -1    0    0    0  501  0.00000000000E+00  0.00000000000E+00  0.40805900105E+03  0.40805900108E+03  0.50400001928E-02 0. -1.
        1   -1    0    0  501    0  0.00000000000E+00  0.00000000000E+00 -0.10411240063E+04  0.10411240064E+04  0.50400001928E-02 0.  1.
    10030    2    1    2    0    0  0.00000000000E+00  0.00000000000E+00 -0.63306500529E+03  0.14491830074E+04  0.13035950629E+04 0.  0.
        1    1    3    3  502    0 -0.39592640601E+03 -0.20341787015E+03  0.21277690483E+03  0.49336655757E+03  0.50400001928E-02 0. -1.
       -1    1    3    3    0  502  0.39592640601E+03  0.20341787015E+03 -0.84584191012E+03  0.95581644986E+03  0.50400001928E-02 0.  1.
</event>
<event>
 5   0  0.1031295E-03  0.1300715E+04  0.7818609E-02  0.9028999E-01
       -2   -1    0    0    0  501  0.00000000000E+00  0.00000000000E+00  0.95764697807E+03  0.95764697807E+03  0.25500000920E-02 0. -1.
        2   -1    0    0  501    0  0.00000000000E+00  0.00000000000E+00 -0.44167084922E+03  0.44167084922E+03  0.25500000920E-02 0.  1.
    10030    2    1    2    0    0  0.00000000000E+00  0.00000000000E+00  0.51597612885E+03  0.13993178273E+04  0.13007148097E+04 0.  0.
        2    1    3    3  502    0 -0.15953960064E+03 -0.12678881057E+03  0.92241218125E+03  0.94465470876E+03  0.25500000920E-02 0. -1.
       -2    1    3    3    0  502  0.15953960064E+03  0.12678881057E+03 -0.40643605240E+03  0.45466311853E+03  0.25500000920E-02 0.  1.
</event>
<event>
 5   0  0.6006119E-04  0.1277780E+04  0.7818609E-02  0.9047374E-01
        1   -1    0    0  501    0  0.00000000000E+00  0.00000000000E+00  0.82753038590E+03  0.82753038592E+03  0.50400001928E-02 0. -1.
       -1   -1    0    0    0  501  0.00000000000E+00  0.00000000000E+00 -0.49325136909E+03  0.49325136912E+03  0.50400001928E-02 0.  1.
    10030    2    1    2    0    0  0.00000000000E+00  0.00000000000E+00  0.33427901681E+03  0.13207817550E+04  0.12777800998E+04 0.  0.
        4    1    3    3  502    0  0.97325858437E+02  0.26002576606E+03 -0.42763184934E+03  0.50985913074E+03  0.12699999809E+01 0.  1.
       -4    1    3    3    0  502 -0.97325858437E+02 -0.26002576606E+03  0.76191086615E+03  0.81092262429E+03  0.12699999809E+01 0. -1.
</event>
<event>
 5   0  0.4012375E-04  0.1293053E+04  0.7818609E-02  0.9035092E-01
       -3   -1    0    0    0  501  0.00000000000E+00  0.00000000000E+00  0.10063830299E+04  0.10063830350E+04  0.10100000352E+00 0. -1.
        3   -1    0    0  501    0  0.00000000000E+00  0.00000000000E+00 -0.41534542662E+03  0.41534543890E+03  0.10100000352E+00 0.  1.
    10030    2    1    2    0    0  0.00000000000E+00  0.00000000000E+00  0.59103760327E+03  0.14217284739E+04  0.12930531331E+04 0.  0.
        1    1    3    3  502    0  0.13171490487E+03  0.46922625939E+03  0.76261702688E+03  0.90504520792E+03  0.50400001928E-02 0. -1.
       -1    1    3    3    0  502 -0.13171490487E+03 -0.46922625939E+03 -0.17157942362E+03  0.51668326594E+03  0.50400001928E-02 0.  1.
</event>
<event>
 5   0  0.5766027E-04  0.1305216E+04  0.7818609E-02  0.9025439E-01
        1   -1    0    0  501    0  0.00000000000E+00  0.00000000000E+00  0.36874250218E+03  0.36874250221E+03  0.50400001928E-02 0. -1.
       -1   -1    0    0    0  501  0.00000000000E+00  0.00000000000E+00 -0.11549994918E+04  0.11549994918E+04  0.50400001928E-02 0.  1.
    10030    2    1    2    0    0  0.00000000000E+00  0.00000000000E+00 -0.78625698965E+03  0.15237419941E+04  0.13052163080E+04 0.  0.
        3    1    3    3  502    0  0.24178643403E+03  0.17512868510E+02 -0.11004858761E+04  0.11268702471E+04  0.10100000352E+00 0.  1.
       -3    1    3    3    0  502 -0.24178643403E+03 -0.17512868510E+02  0.31422888642E+03  0.39687174692E+03  0.10100000352E+00 0. -1.
</event>
<event>
 5   0  0.1081574E-03  0.1280505E+04  0.7818609E-02  0.9045169E-01
       -2   -1    0    0    0  501  0.00000000000E+00  0.00000000000E+00  0.25321799493E+03  0.25321799494E+03  0.25500000920E-02 0.  1.
        2   -1    0    0  501    0  0.00000000000E+00  0.00000000000E+00 -0.16188556555E+04  0.16188556555E+04  0.25500000920E-02 0. -1.
    10030    2    1    2    0    0  0.00000000000E+00  0.00000000000E+00 -0.13656376606E+04  0.18720736505E+04  0.12805051865E+04 0.  0.
        5    1    3    3  502    0 -0.33066528870E+02 -0.60309425551E+03 -0.37239241484E+03  0.70958739912E+03  0.46999998093E+01 0.  1.
       -5    1    3    3    0  502  0.33066528870E+02  0.60309425551E+03 -0.99324524575E+03  0.11624862513E+04  0.46999998093E+01 0. -1.
</event>
<event>
 5   0  0.1031295E-03  0.1288702E+04  0.7818609E-02  0.9038573E-01
       -2   -1    0    0    0  501  0.00000000000E+00  0.00000000000E+00  0.40818395089E+03  0.40818395090E+03  0.25500000920E-02 0.  1.
        2   -1    0    0  501    0  0.00000000000E+00  0.00000000000E+00 -0.10171599884E+04  0.10171599884E+04  0.25500000920E-02 0. -1.
    10030    2    1    2    0    0  0.00000000000E+00  0.00000000000E+00 -0.60897603753E+03  0.14253439393E+04  0.12887022663E+04 0.  0.
        2    1    3    3  502    0  0.19307175964E+02  0.58360958757E+03 -0.31775038515E+01  0.58393750889E+03  0.25500000920E-02 0.  1.
       -2    1    3    3    0  502 -0.19307175964E+02 -0.58360958757E+03 -0.60579853368E+03  0.84140643043E+03  0.25500000920E-02 0. -1.
</event>
<event>
 5   0  0.5812938E-04  0.1297026E+04  0.7818609E-02  0.9031927E-01
        1   -1    0    0  501    0  0.00000000000E+00  0.00000000000E+00  0.24828001922E+03  0.24828001927E+03  0.50400001928E-02 0.  1.
       -1   -1    0    0    0  501  0.00000000000E+00  0.00000000000E+00 -0.16939309041E+04  0.16939309041E+04  0.50400001928E-02 0. -1.
    10030    2    1    2    0    0  0.00000000000E+00  0.00000000000E+00 -0.14456508849E+04  0.19422109234E+04  0.12970261331E+04 0.  0.
        5    1    3    3  502    0  0.42419156487E+03  0.29863969862E+03 -0.14012744814E+03  0.53738435502E+03  0.46999998093E+01 0. -1.
       -5    1    3    3    0  502 -0.42419156487E+03 -0.29863969862E+03 -0.13055234368E+04  0.14048265684E+04  0.46999998093E+01 0.  1.
</event>
<event>
 5   0  0.5812938E-04  0.1298373E+04  0.7818609E-02  0.9030856E-01
       -1   -1    0    0    0  501  0.00000000000E+00  0.00000000000E+00  0.45465265549E+03  0.45465265552E+03  0.50400001928E-02 0. -1.
        1   -1    0    0  501    0  0.00000000000E+00  0.00000000000E+00 -0.92695643525E+03  0.92695643527E+03  0.50400001928E-02 0.  1.
    10030    2    1    2    0    0  0.00000000000E+00  0.00000000000E+00 -0.47230377976E+03  0.13816090908E+04  0.12983731433E+04 0.  0.
        5    1    3    3  502    0  0.13640702360E+03  0.51941776849E+02  0.43694684689E+03  0.46070539531E+03  0.46999998093E+01 0. -1.
       -5    1    3    3    0  502 -0.13640702360E+03 -0.51941776849E+02 -0.90925062665E+03  0.92090369547E+03  0.46999998093E+01 0.  1.
</event>
<event>
 5   0  0.5563545E-04  0.1272384E+04  0.7818609E-02  0.9051756E-01
       -1   -1    0    0    0  501  0.00000000000E+00  0.00000000000E+00  0.60507087123E+03  0.60507087126E+03  0.50400001928E-02 0.  1.
        1   -1    0    0  501    0  0.00000000000E+00  0.00000000000E+00 -0.66891433334E+03  0.66891433336E+03  0.50400001928E-02 0. -1.
    10030    2    1    2    0    0  0.00000000000E+00  0.00000000000E+00 -0.63843462110E+02  0.12739852046E+04  0.12723844993E+04 0.  0.
        2    1    3    3  502    0 -0.63153531988E+02 -0.11590156597E+02  0.60181835409E+03  0.60523386526E+03  0.25500000920E-02 0.  1.
       -2    1    3    3    0  502  0.63153531988E+02  0.11590156597E+02 -0.66566181620E+03  0.66875133936E+03  0.25500000920E-02 0. -1.
</event>
<event>
 5   0  0.5710383E-04  0.1288319E+04  0.7818609E-02  0.9038880E-01
        1   -1    0    0  501    0  0.00000000000E+00  0.00000000000E+00  0.98831805024E+03  0.98831805026E+03  0.50400001928E-02 0. -1.
       -1   -1    0    0    0  501  0.00000000000E+00  0.00000000000E+00 -0.41984632598E+03  0.41984632601E+03  0.50400001928E-02 0.  1.
    10030    2    1    2    0    0  0.00000000000E+00  0.00000000000E+00  0.56847172426E+03  0.14081643763E+04  0.12883193740E+04 0.  0.
        1    1    3    3  502    0 -0.29738660831E+03 -0.27217901401E+03  0.83338838112E+03  0.92577340871E+03  0.50400001928E-02 0. -1.
       -1    1    3    3    0  502  0.29738660831E+03  0.27217901401E+03 -0.26491665686E+03  0.48239096756E+03  0.50400001928E-02 0.  1.
</event>
<event>
 5   0  0.1031295E-03  0.1319512E+04  0.7818609E-02  0.9014234E-01
       -2   -1    0    0    0  501  0.00000000000E+00  0.00000000000E+00  0.84194174258E+03  0.84194174259E+03  0.25500000920E-02 0. -1.
        2   -1    0    0  501    0  0.00000000000E+00  0.00000000000E+00 -0.51699281837E+03  0.51699281838E+03  0.25500000920E-02 0.  1.
    10030    2    1    2    0    0  0.00000000000E+00  0.00000000000E+00  0.32494892421E+03  0.13589345610E+04  0.13195117800E+04 0.  0.
        2    1    3    3  502    0 -0.90038058949E+02  0.65273909043E+03  0.12827600519E+03  0.67128973308E+03  0.25500000920E-02 0.  1.
       -2    1    3    3    0  502  0.90038058949E+02 -0.65273909043E+03  0.19667291902E+03  0.68764482788E+03  0.25500000920E-02 0. -1.
</event>
<event>
 5   0  0.5710383E-04  0.1295179E+04  0.7818609E-02  0.9033397E-01
       -1   -1    0    0    0  501  0.00000000000E+00  0.00000000000E+00  0.41622047383E+03  0.41622047386E+03  0.50400001928E-02 0. -1.
        1   -1    0    0  501    0  0.00000000000E+00  0.00000000000E+00 -0.10075724382E+04  0.10075724382E+04  0.50400001928E-02 0.  1.
    10030    2    1    2    0    0  0.00000000000E+00  0.00000000000E+00 -0.59135196438E+03  0.14237929121E+04  0.12951791809E+04 0.  0.
        1    1    3    3  502    0 -0.21517864155E+03  0.25244724781E+03  0.31573830920E+03  0.45795429972E+03  0.50400001928E-02 0. -1.
       -1    1    3    3    0  502  0.21517864155E+03 -0.25244724781E+03 -0.90709027358E+03  0.96583861237E+03  0.50400001928E-02 0.  1.
</event>
<event>
 5   0  0.4012375E-04  0.1306484E+04  0.7818609E-02  0.9024439E-01
       -4   -1    0    0    0  501  0.00000000000E+00  0.00000000000E+00  0.76902543291E+03  0.76902648157E+03  0.12699999809E+01 0.  1.
        4   -1    0    0  501    0  0.00000000000E+00  0.00000000000E+00 -0.55488868608E+03  0.55489013943E+03  0.12699999809E+01 0. -1.
    10030    2    1    2    0    0  0.00000000000E+00  0.00000000000E+00  0.21413674683E+03  0.13239166210E+04  0.13064840883E+04 0.  0.
        2    1    3    3  502    0  0.20585263212E+03 -0.10392403267E+02 -0.52107509421E+03  0.56035931509E+03  0.25500000920E-02 0. -1.
       -2    1    3    3    0  502 -0.20585263212E+03  0.10392403267E+02  0.73521184104E+03  0.76355730591E+03  0.25500000920E-02 0.  1.
</event>
<event>
 5   0  0.5766027E-04  0.1298315E+04  0.7818609E-02  0.9030902E-01
       -1   -1    0    0    0  501  0.00000000000E+00  0.00000000000E+00  0.48230560186E+03  0.48230560189E+03  0.50400001928E-02 0.  1.
        1   -1    0    0  501    0  0.00000000000E+00  0.00000000000E+00 -0.87373172984E+03  0.87373172986E+03  0.50400001928E-02 0. -1.
    10030    2    1    2    0    0  0.00000000000E+00  0.00000000000E+00 -0.39142612798E+03  0.13560373317E+04  0.12983153821E+04 0.  0.
        3    1    3    3  502    0  0.23448447008E+03  0.56947456417E+03 -0.41007274823E+03  0.73989452964E+03  0.10100000352E+00 0. -1.
       -3    1    3    3    0  502 -0.23448447008E+03 -0.56947456417E+03  0.18646620248E+02  0.61614280211E+03  0.10100000352E+00 0.  1.
</event>
<event>
 5   0  0.5812938E-04  0.1338509E+04  0.7818609E-02  0.8999572E-01
        1   -1    0    0  501    0  0.00000000000E+00  0.00000000000E+00  0.85718396176E+03  0.85718396177E+03  0.50400001928E-02 0.  1.
       -1   -1    0    0    0  501  0.00000000000E+00  0.00000000000E+00 -0.52252699569E+03  0.52252699571E+03  0.50400001928E-02 0. -1.
    10030    2    1    2    0    0  0.00000000000E+00  0.00000000000E+00  0.33465696606E+03  0.13797109575E+04  0.13385092608E+04 0.  0.
        5    1    3    3  502    0  0.24890868264E+02  0.53940551035E+03 -0.24019133838E+03  0.59100916147E+03  0.46999998093E+01 0. -1.
       -5    1    3    3    0  502 -0.24890868264E+02 -0.53940551035E+03  0.57484830444E+03  0.78870179601E+03  0.46999998093E+01 0.  1.
</event>
<event>
 5   0  0.5812938E-04  0.1315575E+04  0.7818609E-02  0.9017304E-01
        1   -1    0    0  501    0  0.00000000000E+00  0.00000000000E+00  0.48273728847E+03  0.48273728850E+03  0.50400001928E-02 0.  1.
       -1   -1    0    0    0  501  0.00000000000E+00  0.00000000000E+00 -0.89631499536E+03  0.89631499537E+03  0.50400001928E-02 0. -1.
    10030    2    1    2    0    0  0.00000000000E+00  0.00000000000E+00 -0.41357770688E+03  0.13790522839E+04  0.13155754186E+04 0.  0.
        5    1    3    3  502    0 -0.38859074923E+03  0.31340868752E+03  0.24216928910E+03  0.55488361877E+03  0.46999998093E+01 0.  1.
       -5    1    3    3    0  502  0.38859074923E+03 -0.31340868752E+03 -0.65574699598E+03  0.82416866510E+03  0.46999998093E+01 0. -1.
</event>
<event>
 5   0  0.1031295E-03  0.1310568E+04  0.7818609E-02  0.9021226E-01
       -2   -1    0    0    0  501  0.00000000000E+00  0.00000000000E+00  0.25512076771E+03  0.25512076772E+03  0.25500000920E-02 0.  1.
        2   -1    0    0  501    0  0.00000000000E+00  0.00000000000E+00 -0.16831138017E+04  0.16831138017E+04  0.25500000920E-02 0. -1.
    10030    2    1    2    0    0  0.00000000000E+00  0.00000000000E+00 -0.14279930340E+04  0.19382345695E+04  0.13105682512E+04 0.  0.
        2    1    3    3  502    0 -0.17925570229E+03  0.62941043745E+03 -0.76320678669E+03  0.10053729183E+04  0.25500000920E-02 0. -1.
       -2    1    3    3    0  502  0.17925570229E+03 -0.62941043745E+03 -0.66478624734E+03  0.93286165117E+03  0.25500000920E-02 0.  1.
</event>
<event>
 5   0  0.5812938E-04  0.1308198E+04  0.7818609E-02  0.9023089E-01
        1   -1    0    0  501    0  0.00000000000E+00  0.00000000000E+00  0.29827442504E+03  0.29827442508E+03  0.50400001928E-02 0. -1.
       -1   -1    0    0    0  501  0.00000000000E+00  0.00000000000E+00 -0.14344019112E+04  0.14344019112E+04  0.50400001928E-02 0.  1.
    10030    2    1    2    0    0  0.00000000000E+00  0.00000000000E+00 -0.11361274862E+04  0.17326763363E+04  0.13081978526E+04 0.  0.
        5    1    3    3  502    0  0.26448010639E+03 -0.58479651848E+03 -0.40112398671E+03  0.75687465106E+03  0.46999998093E+01 0.  1.
       -5    1    3    3    0  502 -0.26448010639E+03  0.58479651848E+03 -0.73500349949E+03  0.97580168526E+03  0.46999998093E+01 0. -1.
</event>
<event>
 5   0  0.5710383E-04  0.1243869E+04  0.7818609E-02  0.9075301E-01
       -1   -1    0    0    0  501  0.00000000000E+00  0.00000000000E+00  0.11736324240E+04  0.11736324240E+04  0.50400001928E-02 0. -1.
        1   -1    0    0  501    0  0.00000000000E+00  0.00000000000E+00 -0.32957728228E+03  0.32957728231E+03  0.50400001928E-02 0.  1.
    10030    2    1    2    0    0  0.00000000000E+00  0.00000000000E+00  0.84405514174E+03  0.15032097063E+04  0.12438691004E+04 0.  0.
        1    1    3    3  502    0 -0.58735317023E+03  0.62323995044E+02  0.65740369368E+03  0.88376899891E+03  0.50400001928E-02 0. -1.
       -1    1    3    3    0  502  0.58735317023E+03 -0.62323995044E+02  0.18665144806E+03  0.61944070743E+03  0.50400001928E-02 0.  1.
</event>
<event>
 5   0  0.1031295E-03  0.1359932E+04  0.7818609E-02  0.8983344E-01
       -2   -1    0    0    0  501  0.00000000000E+00  0.00000000000E+00  0.64369430796E+03  0.64369430797E+03  0.25500000920E-02 0.  1.
        2   -1    0    0  501    0  0.00000000000E+00  0.00000000000E+00 -0.71828163180E+03  0.71828163180E+03  0.25500000920E-02 0. -1.
    10030    2    1    2    0    0  0.00000000000E+00  0.00000000000E+00 -0.74587323833E+02  0.13619759398E+04  0.13599320541E+04 0.  0.
        2    1    3    3  502    0 -0.40303049552E+03  0.72446079047E+02 -0.58094630126E+03  0.71076059235E+03  0.25500000920E-02 0. -1.
       -2    1    3    3    0  502  0.40303049552E+03 -0.72446079047E+02  0.50635897743E+03  0.65121534742E+03  0.25500000920E-02 0.  1.
</event>
<event>
 5   0  0.5563545E-04  0.1284694E+04  0.7818609E-02  0.9041792E-01
        1   -1    0    0  501    0  0.00000000000E+00  0.00000000000E+00  0.25050500373E+03  0.25050500378E+03  0.50400001928E-02 0. -1.
       -1   -1    0    0    0  501  0.00000000000E+00  0.00000000000E+00 -0.16471112743E+04  0.16471112743E+04  0.50400001928E-02 0.  1.
    10030    2    1    2    0    0  0.00000000000E+00  0.00000000000E+00 -0.13966062705E+04  0.18976162781E+04  0.12846939183E+04 0.  0.
        2    1    3    3  502    0  0.10786685712E+03  0.63322431214E+03 -0.69660120188E+03  0.94755555131E+03  0.25500000920E-02 0.  1.
       -2    1    3    3    0  502 -0.10786685712E+03 -0.63322431214E+03 -0.70000506867E+03  0.95006072675E+03  0.25500000920E-02 0. -1.
</event>
<event>
 5   0  0.5563545E-04  0.1299103E+04  0.7818609E-02  0.9030277E-01
        1   -1    0    0  501    0  0.00000000000E+00  0.00000000000E+00  0.77581562310E+03  0.77581562312E+03  0.50400001928E-02 0.  1.
       -1   -1    0    0    0  501  0.00000000000E+00  0.00000000000E+00 -0.54383697836E+03  0.54383697838E+03  0.50400001928E-02 0. -1.
    10030    2    1    2    0    0  0.00000000000E+00  0.00000000000E+00  0.23197864474E+03  0.13196526015E+04  0.12991031125E+04 0.  0.
        2    1    3    3  502    0 -0.12092413686E+03 -0.61072650480E+03  0.30414264136E+03  0.69290133269E+03  0.25500000920E-02 0.  1.
       -2    1    3    3    0  502  0.12092413686E+03  0.61072650480E+03 -0.72163996621E+02  0.62675126881E+03  0.25500000920E-02 0. -1.
</event>
<event>
 5   0  0.6006119E-04  0.1285870E+04  0.7818609E-02  0.9040846E-01
       -1   -1    0    0    0  501  0.00000000000E+00  0.00000000000E+00  0.76814466164E+03  0.76814466166E+03  0.50400001928E-02 0.  1.
        1   -1    0    0  501    0  0.00000000000E+00  0.00000000000E+00 -0.53813469779E+03  0.53813469781E+03  0.50400001928E-02 0. -1.
    10030    2    1    2    0    0  0.00000000000E+00  0.00000000000E+00  0.23000996385E+03  0.13062793595E+04  0.12858698152E+04 0.  0.
        4    1    3    3  502    0  0.24876333231E+03  0.18333020896E+03  0.68775378477E+03  0.75398941795E+03  0.12699999809E+01 0.  1.
       -4    1    3    3    0  502 -0.24876333231E+03 -0.18333020896E+03 -0.45774382092E+03  0.55228994152E+03  0.12699999809E+01 0. -1.
</event>
<event>
 5   0  0.6006119E-04  0.1278395E+04  0.7818609E-02  0.9046876E-01
       -1   -1    0    0    0  501  0.00000000000E+00  0.00000000000E+00  0.25235948337E+03  0.25235948342E+03  0.50400001928E-02 0.  1.
        1   -1    0    0  501    0  0.00000000000E+00  0.00000000000E+00 -0.16190136857E+04  0.16190136857E+04  0.50400001928E-02 0. -1.
    10030    2    1    2    0    0  0.00000000000E+00  0.00000000000E+00 -0.13666542023E+04  0.18713731691E+04  0.12783950209E+04 0.  0.
        4    1    3    3  502    0 -0.42724485798E+03 -0.25758277587E+03 -0.98365844292E+02  0.50849238669E+03  0.12699999809E+01 0.  1.
       -4    1    3    3    0  502  0.42724485798E+03  0.25758277587E+03 -0.12682883581E+04  0.13628807824E+04  0.12699999809E+01 0. -1.
</event>
<event>
 5   0  0.5812938E-04  0.1236675E+04  0.7818609E-02  0.9081347E-01
        1   -1    0    0  501    0  0.00000000000E+00  0.00000000000E+00  0.18313795899E+04  0.18313795899E+04  0.50400001928E-02 0.  1.
       -1   -1    0    0    0  501  0.00000000000E+00  0.00000000000E+00 -0.20877227346E+03  0.20877227352E+03  0.50400001928E-02 0. -1.
    10030    2    1    2    0    0  0.00000000000E+00  0.00000000000E+00  0.16226073164E+04  0.20401518634E+04  0.12366750270E+04 0.  0.
        5    1    3    3  502    0 -0.34218607872E+03  0.34451885630E+03  0.17979828505E+03  0.51781663561E+03  0.46999998093E+01 0. -1.
       -5    1    3    3    0  502  0.34218607872E+03 -0.34451885630E+03  0.14428090313E+04  0.15223352278E+04  0.46999998093E+01 0.  1.
</event>
<event>
 5   0  0.5766027E-04  0.1299030E+04  0.7818609E-02  0.9030335E-01
       -1   -1    0    0    0  501  0.00000000000E+00  0.00000000000E+00  0.31561730095E+03  0.31561730099E+03  0.50400001928E-02 0.  1.
        1   -1    0    0  501    0  0.00000000000E+00  0.00000000000E+00 -0.13366490837E+04  0.13366490837E+04  0.50400001928E-02 0. -1.
    10030    2    1    2    0    0  0.00000000000E+00  0.00000000000E+00 -0.10210317827E+04  0.16522663847E+04  0.12990297551E+04 0.  0.
        3    1    3    3  502    0  0.29064353210E+03  0.74050584710E+01  0.22823084665E+03  0.36961848872E+03  0.10100000352E+00 0.  1.
       -3    1    3    3    0  502 -0.29064353210E+03 -0.74050584710E+01 -0.12492626294E+04  0.12826478959E+04  0.10100000352E+00 0. -1.
</event>
<event>
 5   0  0.1081574E-03  0.1296097E+04  0.7818609E-02  0.9032666E-01
        2   -1    0    0  501    0  0.00000000000E+00  0.00000000000E+00  0.23111135857E+04  0.23111135857E+04  0.25500000920E-02 0. -1.
       -2   -1    0    0    0  501  0.00000000000E+00  0.00000000000E+00 -0.18171634320E+03  0.18171634322E+03  0.25500000920E-02 0.  1.
    10030    2    1    2    0    0  0.00000000000E+00  0.00000000000E+00  0.21293972424E+04  0.24928299289E+04  0.12960973876E+04 0.  0.
        5    1    3    3  502    0  0.62030974603E+02 -0.19462423915E+03  0.22475398306E+04  0.22568083252E+04  0.46999998093E+01 0. -1.
       -5    1    3    3    0  502 -0.62030974603E+02  0.19462423915E+03 -0.11814258818E+03  0.23602160370E+03  0.46999998093E+01 0.  1.
</event>
<event>
 5   0  0.5812938E-04  0.1294907E+04  0.7818609E-02  0.9033614E-01
        1   -1    0    0  501    0  0.00000000000E+00  0.00000000000E+00  0.36537611500E+03  0.36537611503E+03  0.50400001928E-02 0.  1.
       -1   -1    0    0    0  501  0.00000000000E+00  0.00000000000E+00 -0.11473002897E+04  0.11473002897E+04  0.50400001928E-02 0. -1.
    10030    2    1    2    0    0  0.00000000000E+00  0.00000000000E+00 -0.78192417469E+03  0.15126764047E+04  0.12949071358E+04 0.  0.
        5    1    3    3  502    0  0.21970583438E+03  0.59145505010E+03 -0.22133819313E+03  0.66865717351E+03  0.46999998093E+01 0.  1.
       -5    1    3    3    0  502 -0.21970583438E+03 -0.59145505010E+03 -0.56058598156E+03  0.84401923122E+03  0.46999998093E+01 0. -1.
</event>
<event>
 5   0  0.1101619E-03  0.1294435E+04  0.7818609E-02  0.9033990E-01
       -2   -1    0    0    0  501  0.00000000000E+00  0.00000000000E+00  0.24670268169E+03  0.24670268170E+03  0.25500000920E-02 0.  1.
        2   -1    0    0  501    0  0.00000000000E+00  0.00000000000E+00 -0.16979565015E+04  0.16979565015E+04  0.25500000920E-02 0. -1.
    10030    2    1    2    0    0  0.00000000000E+00  0.00000000000E+00 -0.14512538198E+04  0.19446591832E+04  0.12944348919E+04 0.  0.
        1    1    3    3  502    0  0.61995393518E+03  0.15089528405E+03 -0.56258400722E+03  0.85065447374E+03  0.50400001928E-02 0.  1.
       -1    1    3    3    0  502 -0.61995393518E+03 -0.15089528405E+03 -0.88866981261E+03  0.10940047095E+04  0.50400001928E-02 0. -1.
</event>
<event>
 5   0  0.5766027E-04  0.1298482E+04  0.7818609E-02  0.9030770E-01
        1   -1    0    0  501    0  0.00000000000E+00  0.00000000000E+00  0.35542375709E+03  0.35542375712E+03  0.50400001928E-02 0. -1.
       -1   -1    0    0    0  501  0.00000000000E+00  0.00000000000E+00 -0.11859479864E+04  0.11859479864E+04  0.50400001928E-02 0.  1.
    10030    2    1    2    0    0  0.00000000000E+00  0.00000000000E+00 -0.83052422931E+03  0.15413717435E+04  0.12984823281E+04 0.  0.
        3    1    3    3  502    0  0.42372182944E+03  0.22714816761E+03 -0.93320190149E+03  0.10497629627E+04  0.10100000352E+00 0.  1.
       -3    1    3    3    0  502 -0.42372182944E+03 -0.22714816761E+03  0.10267767218E+03  0.49160878079E+03  0.10100000352E+00 0. -1.
</event>
<event>
 5   0  0.5563545E-04  0.1309498E+04  0.7818609E-02  0.9022067E-01
       -1   -1    0    0    0  501  0.00000000000E+00  0.00000000000E+00  0.21694516311E+03  0.21694516317E+03  0.50400001928E-02 0.  1.
        1   -1    0    0  501    0  0.00000000000E+00  0.00000000000E+00 -0.19760574212E+04  0.19760574212E+04  0.50400001928E-02 0. -1.
    10030    2    1    2    0    0  0.00000000000E+00  0.00000000000E+00 -0.17591122581E+04  0.21930025844E+04  0.13094977658E+04 0.  0.
        2    1    3    3  502    0  0.26101909983E+03 -0.34126005941E+03 -0.52139523764E+02  0.43279086008E+03  0.25500000920E-02 0.  1.
       -2    1    3    3    0  502 -0.26101909983E+03  0.34126005941E+03 -0.17069727343E+04  0.17602117243E+04  0.25500000920E-02 0. -1.
</event>
<event>
 5   0  0.4012375E-04  0.1299745E+04  0.7818609E-02  0.9029767E-01
        3   -1    0    0  501    0  0.00000000000E+00  0.00000000000E+00  0.23650712100E+03  0.23650714257E+03  0.10100000352E+00 0.  1.
       -3   -1    0    0    0  501  0.00000000000E+00  0.00000000000E+00 -0.17857160206E+04  0.17857160235E+04  0.10100000352E+00 0. -1.
    10030    2    1    2    0    0  0.00000000000E+00  0.00000000000E+00 -0.15492088996E+04  0.20222231661E+04  0.12997454823E+04 0.  0.
        3    1    3    3  502    0  0.20695004725E+03 -0.74296273098E+02  0.17687325838E+03  0.28219216500E+03  0.10100000352E+00 0.  1.
       -3    1    3    3    0  502 -0.20695004725E+03  0.74296273098E+02 -0.17260821580E+04  0.17400310011E+04  0.10100000352E+00 0. -1.
</event>
<event>
 5   0  0.1101619E-03  0.1300554E+04  0.7818609E-02  0.9029126E-01
        2   -1    0    0  501    0  0.00000000000E+00  0.00000000000E+00  0.15029533097E+04  0.15029533097E+04  0.25500000920E-02 0. -1.
       -2   -1    0    0    0  501  0.00000000000E+00  0.00000000000E+00 -0.28135292474E+03  0.28135292475E+03  0.25500000920E-02 0.  1.
    10030    2    1    2    0    0  0.00000000000E+00  0.00000000000E+00  0.12216003850E+04  0.17843062345E+04  0.13005542041E+04 0.  0.
        1    1    3    3  502    0 -0.10253154461E+03  0.58318855722E+03  0.24205540314E+03  0.63969713860E+03  0.50400001928E-02 0.  1.
       -1    1    3    3    0  502  0.10253154461E+03 -0.58318855722E+03  0.97954498183E+03  0.11446090959E+04  0.50400001928E-02 0. -1.
</event>
<event>
 5   0  0.1046253E-03  0.1292393E+04  0.7818609E-02  0.9035620E-01
        2   -1    0    0  501    0  0.00000000000E+00  0.00000000000E+00  0.11437147784E+04  0.11437147784E+04  0.25500000920E-02 0.  1.
       -2   -1    0    0    0  501  0.00000000000E+00  0.00000000000E+00 -0.36509962798E+03  0.36509962799E+03  0.25500000920E-02 0. -1.
    10030    2    1    2    0    0  0.00000000000E+00  0.00000000000E+00  0.77861515040E+03  0.15088144064E+04  0.12923928816E+04 0.  0.
        3    1    3    3  502    0 -0.26896064178E+03 -0.53840403431E+03  0.11464190041E+03  0.61266753343E+03  0.10100000352E+00 0. -1.
       -3    1    3    3    0  502  0.26896064178E+03  0.53840403431E+03  0.66397324999E+03  0.89614687295E+03  0.10100000352E+00 0.  1.
</event>
<event>
 5   0  0.1101619E-03  0.1302419E+04  0.7818609E-02  0.9027649E-01
        2   -1    0    0  501    0  0.00000000000E+00  0.00000000000E+00  0.39661462281E+03  0.39661462282E+03  0.25500000920E-02 0. -1.
       -2   -1    0    0    0  501  0.00000000000E+00  0.00000000000E+00 -0.10692346023E+04  0.10692346023E+04  0.25500000920E-02 0.  1.
    10030    2    1    2    0    0  0.00000000000E+00  0.00000000000E+00 -0.67261997953E+03  0.14658492252E+04  0.13024194079E+04 0.  0.
        1    1    3    3  502    0  0.35863646387E+03 -0.49994782771E+02 -0.94548000705E+03  0.10124485346E+04  0.50400001928E-02 0.  1.
       -1    1    3    3    0  502 -0.35863646387E+03  0.49994782771E+02  0.27286002752E+03  0.45340069053E+03  0.50400001928E-02 0. -1.
</event>
<event>
 5   0  0.1046253E-03  0.1310916E+04  0.7818609E-02  0.9020953E-01
       -2   -1    0    0    0  501  0.00000000000E+00  0.00000000000E+00  0.39226639663E+03  0.39226639664E+03  0.25500000920E-02 0.  1.
        2   -1    0    0  501    0  0.00000000000E+00  0.00000000000E+00 -0.10952388233E+04  0.10952388233E+04  0.25500000920E-02 0. -1.
    10030    2    1    2    0    0  0.00000000000E+00  0.00000000000E+00 -0.70297242663E+03  0.14875052199E+04  0.13109163004E+04 0.  0.
        3    1    3    3  502    0 -0.63066094014E+03 -0.71721295232E+02 -0.53706609936E+03  0.83145485199E+03  0.10100000352E+00 0. -1.
       -3    1    3    3    0  502  0.63066094014E+03  0.71721295232E+02 -0.16590632727E+03  0.65605036791E+03  0.10100000352E+00 0.  1.
</event>
<event>
 5   0  0.1031295E-03  0.1303865E+04  0.7818609E-02  0.9026506E-01
       -2   -1    0    0    0  501  0.00000000000E+00  0.00000000000E+00  0.51806478089E+03  0.51806478090E+03  0.25500000920E-02 0.  1.
        2   -1    0    0  501    0  0.00000000000E+00  0.00000000000E+00 -0.82039117690E+03  0.82039117690E+03  0.25500000920E-02 0. -1.
    10030    2    1    2    0    0  0.00000000000E+00  0.00000000000E+00 -0.30232639601E+03  0.13384559578E+04  0.13038646790E+04 0.  0.
        2    1    3    3  502    0 -0.89957098803E+02 -0.23138808355E+03  0.46764192097E+03  0.52945414446E+03  0.25500000920E-02 0.  1.
       -2    1    3    3    0  502  0.89957098803E+02  0.23138808355E+03 -0.76996831697E+03  0.80900181334E+03  0.25500000920E-02 0. -1.
</event>
<event>
 5   0  0.1101619E-03  0.1291794E+04  0.7818609E-02  0.9036098E-01
       -2   -1    0    0    0  501  0.00000000000E+00  0.00000000000E+00  0.34568349315E+03  0.34568349316E+03  0.25500000920E-02 0. -1.
        2   -1    0    0  501    0  0.00000000000E+00  0.00000000000E+00 -0.12068356269E+04  0.12068356269E+04  0.25500000920E-02 0.  1.
    10030    2    1    2    0    0  0.00000000000E+00  0.00000000000E+00 -0.86115213370E+03  0.15525191200E+04  0.12917943415E+04 0.  0.
        1    1    3    3  502    0 -0.45239266597E+03 -0.43654800639E+03 -0.25251886421E+03  0.67749469586E+03  0.50400001928E-02 0. -1.
       -1    1    3    3    0  502  0.45239266597E+03  0.43654800639E+03 -0.60863326949E+03  0.87502442415E+03  0.50400001928E-02 0.  1.
</event>
<event>
 5   0  0.5812938E-04  0.1279719E+04  0.7818609E-02  0.9045805E-01
       -1   -1    0    0    0  501  0.00000000000E+00  0.00000000000E+00  0.27907644427E+03  0.27907644432E+03  0.50400001928E-02 0. -1.
        1   -1    0    0  501    0  0.00000000000E+00  0.00000000000E+00 -0.14670537707E+04  0.14670537707E+04  0.50400001928E-02 0.  1.
    10030    2    1    2    0    0  0.00000000000E+00  0.00000000000E+00 -0.11879773265E+04  0.17461302151E+04  0.12797189534E+04 0.  0.
        5    1    3    3  502    0  0.28205269622E+03  0.16906791746E+03 -0.13429045304E+04  0.13825890033E+04  0.46999998093E+01 0.  1.
       -5    1    3    3    0  502 -0.28205269622E+03 -0.16906791746E+03  0.15492720394E+03  0.36354121180E+03  0.46999998093E+01 0. -1.
</event>
<event>
 5   0  0.5812938E-04  0.1297542E+04  0.7818609E-02  0.9031517E-01
        1   -1    0    0  501    0  0.00000000000E+00  0.00000000000E+00  0.93445687263E+03  0.93445687264E+03  0.50400001928E-02 0.  1.
       -1   -1    0    0    0  501  0.00000000000E+00  0.00000000000E+00 -0.45042623372E+03  0.45042623375E+03  0.50400001928E-02 0. -1.
    10030    2    1    2    0    0  0.00000000000E+00  0.00000000000E+00  0.48403063890E+03  0.13848831064E+04  0.12975421222E+04 0.  0.
        5    1    3    3  502    0  0.58521461580E+03  0.21826534915E+03  0.54806459905E+02  0.62701016518E+03  0.46999998093E+01 0. -1.
       -5    1    3    3    0  502 -0.58521461580E+03 -0.21826534915E+03  0.42922417900E+03  0.75787294121E+03  0.46999998093E+01 0.  1.
</event>
<event>
 5   0  0.1031295E-03  0.1298740E+04  0.7818609E-02  0.9030565E-01
        2   -1    0    0  501    0  0.00000000000E+00  0.00000000000E+00  0.45798622191E+03  0.45798622192E+03  0.25500000920E-02 0.  1.
       -2   -1    0    0    0  501  0.00000000000E+00  0.00000000000E+00 -0.92072888228E+03  0.92072888228E+03  0.25500000920E-02 0. -1.
    10030    2    1    2    0    0  0.00000000000E+00  0.00000000000E+00 -0.46274266036E+03  0.13787151042E+04  0.12987396078E+04 0.  0.
        2    1    3    3  502    0 -0.30488829271E+03  0.56128859002E+03 -0.10721015572E+03  0.64768493097E+03  0.25500000920E-02 0.  1.
       -2    1    3    3    0  502  0.30488829271E+03 -0.56128859002E+03 -0.35553250465E+03  0.73103017323E+03  0.25500000920E-02 0. -1.
</event>
<event>
 5   0  0.5766027E-04  0.1233761E+04  0.7818609E-02  0.9083808E-01
        1   -1    0    0  501    0  0.00000000000E+00  0.00000000000E+00  0.14586260129E+04  0.14586260129E+04  0.50400001928E-02 0.  1.
       -1   -1    0    0    0  501  0.00000000000E+00  0.00000000000E+00 -0.26089035401E+03  0.26089035406E+03  0.50400001928E-02 0. -1.
    10030    2    1    2    0    0  0.00000000000E+00  0.00000000000E+00  0.11977356589E+04  0.17195163670E+04  0.12337608471E+04 0.  0.
        3    1    3    3  502    0  0.28643583397E+03 -0.39401331092E+03  0.11263670749E+04  0.12271897872E+04  0.10100000352E+00 0.  1.
       -3    1    3    3    0  502 -0.28643583397E+03  0.39401331092E+03  0.71368583971E+02  0.49232657977E+03  0.10100000352E+00 0. -1.
</event>
<event>
 5   0  0.5812938E-04  0.1291216E+04  0.7818609E-02  0.9036560E-01
        1   -1    0    0  501    0  0.00000000000E+00  0.00000000000E+00  0.12262433561E+04  0.12262433561E+04  0.50400001928E-02 0. -1.
       -1   -1    0    0    0  501  0.00000000000E+00  0.00000000000E+00 -0.33990789986E+03  0.33990789990E+03  0.50400001928E-02 0.  1.
    10030    2    1    2    0    0  0.00000000000E+00  0.00000000000E+00  0.88633545620E+03  0.15661512560E+04  0.12912161770E+04 0.  0.
        5    1    3    3  502    0 -0.62241759361E+03  0.10225360695E+03  0.61004224066E+03  0.87751529124E+03  0.46999998093E+01 0.  1.
       -5    1    3    3    0  502  0.62241759361E+03 -0.10225360695E+03  0.27629321554E+03  0.68863596473E+03  0.46999998093E+01 0. -1.
</event>
<event>
 5   0  0.4012375E-04  0.1301714E+04  0.7818609E-02  0.9028207E-01
       -4   -1    0    0    0  501  0.00000000000E+00  0.00000000000E+00  0.93797814176E+03  0.93797900153E+03  0.12699999809E+01 0. -1.
        4   -1    0    0  501    0  0.00000000000E+00  0.00000000000E+00 -0.45162341377E+03  0.45162519944E+03  0.12699999809E+01 0.  1.
    10030    2    1    2    0    0  0.00000000000E+00  0.00000000000E+00  0.48635472799E+03  0.13896042010E+04  0.13017138372E+04 0.  0.
        4    1    3    3  502    0  0.46896853143E+03  0.41338149741E+03  0.43650551826E+03  0.76246601645E+03  0.12699999809E+01 0. -1.
       -4    1    3    3    0  502 -0.46896853143E+03 -0.41338149741E+03  0.49849209731E+02  0.62713818452E+03  0.12699999809E+01 0.  1.
</event>
<event>
 5   0  0.1046253E-03  0.1304493E+04  0.7818609E-02  0.9026010E-01
        2   -1    0    0  501    0  0.00000000000E+00  0.00000000000E+00  0.45436331104E+03  0.45436331105E+03  0.25500000920E-02 0.  1.
       -2   -1    0    0    0  501  0.00000000000E+00  0.00000000000E+00 -0.93631165132E+03  0.93631165132E+03  0.25500000920E-02 0. -1.
    10030    2    1    2    0    0  0.00000000000E+00  0.00000000000E+00 -0.48194834028E+03  0.13906749624E+04  0.13044932534E+04 0.  0.
        3    1    3    3  502    0 -0.24855713486E+03  0.59668005002E+03 -0.14792724717E+03  0.66309140550E+03  0.10100000352E+00 0.  1.
       -3    1    3    3    0  502  0.24855713486E+03 -0.59668005002E+03 -0.33402109311E+03  0.72758355687E+03  0.10100000352E+00 0. -1.
</event>
<event>
 5   0  0.5812938E-04  0.1305395E+04  0.7818609E-02  0.9025297E-01
        1   -1    0    0  501    0  0.00000000000E+00  0.00000000000E+00  0.10558375355E+04  0.10558375355E+04  0.50400001928E-02 0. -1.
       -1   -1    0    0    0  501  0.00000000000E+00  0.00000000000E+00 -0.40348469223E+03  0.40348469226E+03  0.50400001928E-02 0.  1.
    10030    2    1    2    0    0  0.00000000000E+00  0.00000000000E+00  0.65235284327E+03  0.14593222278E+04  0.13053953931E+04 0.  0.
        5    1    3    3  502    0 -0.66349735794E+02 -0.62630535626E+03  0.13471719268E+03  0.64407414071E+03  0.46999998093E+01 0. -1.
       -5    1    3    3    0  502  0.66349735794E+02  0.62630535626E+03  0.51763565059E+03  0.81524808708E+03  0.46999998093E+01 0.  1.
</event>
<event>
 5   0  0.1031295E-03  0.1305133E+04  0.7818609E-02  0.9025504E-01
       -2   -1    0    0    0  501  0.00000000000E+00  0.00000000000E+00  0.93255929981E+03  0.93255929982E+03  0.25500000920E-02 0.  1.
        2   -1    0    0  501    0  0.00000000000E+00  0.00000000000E+00 -0.45663934836E+03  0.45663934837E+03  0.25500000920E-02 0. -1.
    10030    2    1    2    0    0  0.00000000000E+00  0.00000000000E+00  0.47591995145E+03  0.13891986482E+04  0.13051333587E+04 0.  0.
        2    1    3    3  502    0  0.24355372583E+03  0.14012345669E+02  0.88219572455E+03  0.91530544608E+03  0.25500000920E-02 0.  1.
       -2    1    3    3    0  502 -0.24355372583E+03 -0.14012345669E+02 -0.40627577310E+03  0.47389320211E+03  0.25500000920E-02 0. -1.
</event>
<event>
 5   0  0.5710383E-04  0.1376395E+04  0.7818609E-02  0.8971085E-01
        1   -1    0    0  501    0  0.00000000000E+00  0.00000000000E+00  0.37903213639E+03  0.37903213642E+03  0.50400001928E-02 0.  1.
       -1   -1    0    0    0  501  0.00000000000E+00  0.00000000000E+00 -0.12495395712E+04  0.12495395712E+04  0.50400001928E-02 0. -1.
    10030    2    1    2    0    0  0.00000000000E+00  0.00000000000E+00 -0.87050743476E+03  0.16285717076E+04  0.13763947881E+04 0.  0.
        1    1    3    3  502    0  0.11752771611E+03  0.64893240824E+03 -0.66798839100E+03  0.93868766107E+03  0.50400001928E-02 0. -1.
       -1    1    3    3    0  502 -0.11752771611E+03 -0.64893240824E+03 -0.20251904377E+03  0.68988404652E+03  0.50400001928E-02 0.  1.
</event>
<event>
 5   0  0.4012375E-04  0.1300187E+04  0.7818609E-02  0.9029417E-01
        3   -1    0    0  501    0  0.00000000000E+00  0.00000000000E+00  0.79291657241E+03  0.79291657884E+03  0.10100000352E+00 0.  1.
       -3   -1    0    0    0  501  0.00000000000E+00  0.00000000000E+00 -0.53299659136E+03  0.53299660093E+03  0.10100000352E+00 0. -1.
    10030    2    1    2    0    0  0.00000000000E+00  0.00000000000E+00  0.25991998105E+03  0.13259131798E+04  0.13001874341E+04 0.  0.
        4    1    3    3  502    0 -0.63302760524E+03  0.14786813890E+03  0.13566464753E+03  0.66407487905E+03  0.12699999809E+01 0. -1.
       -4    1    3    3    0  502  0.63302760524E+03 -0.14786813890E+03  0.12425533352E+03  0.66183830072E+03  0.12699999809E+01 0.  1.
</event>
<event>
 5   0  0.1046253E-03  0.1316567E+04  0.7818609E-02  0.9016529E-01
       -2   -1    0    0    0  501  0.00000000000E+00  0.00000000000E+00  0.58744951707E+03  0.58744951707E+03  0.25500000920E-02 0.  1.
        2   -1    0    0  501    0  0.00000000000E+00  0.00000000000E+00 -0.73765904384E+03  0.73765904384E+03  0.25500000920E-02 0. -1.
    10030    2    1    2    0    0  0.00000000000E+00  0.00000000000E+00 -0.15020952677E+03  0.13251085609E+04  0.13165674294E+04 0.  0.
        3    1    3    3  502    0 -0.34086728722E+03 -0.28638392997E+03  0.41294427442E+03  0.60723080193E+03  0.10100000352E+00 0.  1.
       -3    1    3    3    0  502  0.34086728722E+03  0.28638392997E+03 -0.56315380119E+03  0.71787775898E+03  0.10100000352E+00 0. -1.
</event>
<event>
 5   0  0.5563545E-04  0.1317731E+04  0.7818609E-02  0.9015621E-01
        1   -1    0    0  501    0  0.00000000000E+00  0.00000000000E+00  0.71660421298E+03  0.71660421300E+03  0.50400001928E-02 0.  1.
       -1   -1    0    0    0  501  0.00000000000E+00  0.00000000000E+00 -0.60577937713E+03  0.60577937715E+03  0.50400001928E-02 0. -1.
    10030    2    1    2    0    0  0.00000000000E+00  0.00000000000E+00  0.11082483586E+03  0.13223835902E+04  0.13177314655E+04 0.  0.
        2    1    3    3  502    0 -0.63740218018E+03 -0.16371364888E+03  0.87468196365E+02  0.66387828968E+03  0.25500000920E-02 0. -1.
       -2    1    3    3    0  502  0.63740218018E+03  0.16371364888E+03  0.23356639490E+02  0.65850530047E+03  0.25500000920E-02 0.  1.
</event>
<event>
 5   0  0.5766027E-04  0.1296775E+04  0.7818609E-02  0.9032126E-01
       -1   -1    0    0    0  501  0.00000000000E+00  0.00000000000E+00  0.43861366237E+03  0.43861366240E+03  0.50400001928E-02 0. -1.
        1   -1    0    0  501    0  0.00000000000E+00  0.00000000000E+00 -0.95848928243E+03  0.95848928245E+03  0.50400001928E-02 0.  1.
    10030    2    1    2    0    0  0.00000000000E+00  0.00000000000E+00 -0.51987562006E+03  0.13971029448E+04  0.12967752227E+04 0.  0.
        3    1    3    3  502    0 -0.64931249431E+02 -0.71332891657E+02 -0.95071584218E+03  0.95559670958E+03  0.10100000352E+00 0.  1.
       -3    1    3    3    0  502  0.64931249431E+02  0.71332891657E+02  0.43084022212E+03  0.44150623527E+03  0.10100000352E+00 0. -1.
</event>
<event>
 5   0  0.5812938E-04  0.1288754E+04  0.7818609E-02  0.9038531E-01
        1   -1    0    0  501    0  0.00000000000E+00  0.00000000000E+00  0.62839225016E+03  0.62839225018E+03  0.50400001928E-02 0.  1.
       -1   -1    0    0    0  501  0.00000000000E+00  0.00000000000E+00 -0.66076873273E+03  0.66076873275E+03  0.50400001928E-02 0. -1.
    10030    2    1    2    0    0  0.00000000000E+00  0.00000000000E+00 -0.32376482571E+02  0.12891609829E+04  0.12887543611E+04 0.  0.
        5    1    3    3  502    0 -0.22373708729E+03  0.49503446285E+03  0.33045025176E+03  0.63587487961E+03  0.46999998093E+01 0.  1.
       -5    1    3    3    0  502  0.22373708729E+03 -0.49503446285E+03 -0.36282673433E+03  0.65328610331E+03  0.46999998093E+01 0. -1.
</event>
<event>
 5   0  0.5563545E-04  0.1315623E+04  0.7818609E-02  0.9017267E-01
       -1   -1    0    0    0  501  0.00000000000E+00  0.00000000000E+00  0.40504065945E+03  0.40504065948E+03  0.50400001928E-02 0.  1.
        1   -1    0    0  501    0  0.00000000000E+00  0.00000000000E+00 -0.10683274767E+04  0.10683274767E+04  0.50400001928E-02 0. -1.
    10030    2    1    2    0    0  0.00000000000E+00  0.00000000000E+00 -0.66328681725E+03  0.14733681362E+04  0.13156231462E+04 0.  0.
        2    1    3    3  502    0 -0.62971237236E+03 -0.18997683903E+03 -0.32118599890E+03  0.73197630915E+03  0.25500000920E-02 0.  1.
       -2    1    3    3    0  502  0.62971237236E+03  0.18997683903E+03 -0.34210081835E+03  0.74139182703E+03  0.25500000920E-02 0. -1.
</event>
<event>
 5   0  0.1103241E-03  0.1293800E+04  0.7818609E-02  0.9034496E-01
       -2   -1    0    0    0  501  0.00000000000E+00  0.00000000000E+00  0.21175118922E+03  0.21175118923E+03  0.25500000920E-02 0. -1.
        2   -1    0    0  501    0  0.00000000000E+00  0.00000000000E+00 -0.19762793180E+04  0.19762793180E+04  0.25500000920E-02 0.  1.
    10030    2    1    2    0    0  0.00000000000E+00  0.00000000000E+00 -0.17645281288E+04  0.21880305072E+04  0.12937998235E+04 0.  0.
        4    1    3    3  502    0 -0.30282640340E+03  0.55332119571E+03 -0.63947887430E+03  0.89822214390E+03  0.12699999809E+01 0. -1.
       -4    1    3    3    0  502  0.30282640340E+03 -0.55332119571E+03 -0.11250492545E+04  0.12898083633E+04  0.12699999809E+01 0.  1.
</event>
<event>
 5   0  0.6006119E-04  0.1302563E+04  0.7818609E-02  0.9027535E-01
        1   -1    0    0  501    0  0.00000000000E+00  0.00000000000E+00  0.86417268395E+03  0.86417268397E+03  0.50400001928E-02 0. -1.
       -1   -1    0    0    0  501  0.00000000000E+00  0.00000000000E+00 -0.49083645755E+03  0.49083645757E+03  0.50400001928E-02 0.  1.
    10030    2    1    2    0    0  0.00000000000E+00  0.00000000000E+00  0.37333622640E+03  0.13550091415E+04  0.13025627953E+04 0.  0.
        4    1    3    3  502    0  0.65081443544E+03 -0.24566610359E+02  0.18843910234E+03  0.67799251907E+03  0.12699999809E+01 0. -1.
       -4    1    3    3    0  502 -0.65081443544E+03  0.24566610359E+02  0.18489712406E+03  0.67701662247E+03  0.12699999809E+01 0.  1.
</event>
<event>
 5   0  0.5766027E-04  0.1229903E+04  0.7818609E-02  0.9087078E-01
       -1   -1    0    0    0  501  0.00000000000E+00  0.00000000000E+00  0.83619245359E+03  0.83619245361E+03  0.50400001928E-02 0. -1.
        1   -1    0    0  501    0  0.00000000000E+00  0.00000000000E+00 -0.45224669224E+03  0.45224669227E+03  0.50400001928E-02 0.  1.
    10030    2    1    2    0    0  0.00000000000E+00  0.00000000000E+00  0.38394576135E+03  0.12884391459E+04  0.12299028762E+04 0.  0.
        3    1    3    3  502    0 -0.34895810757E+03  0.43201596783E+03  0.46865618674E+03  0.72666924310E+03  0.10100000352E+00 0. -1.
       -3    1    3    3    0  502  0.34895810757E+03 -0.43201596783E+03 -0.84710425384E+02  0.56176990278E+03  0.10100000352E+00 0.  1.
</event>
<event>
 5   0  0.4012375E-04  0.1299499E+04  0.7818609E-02  0.9029963E-01
       -4   -1    0    0    0  501  0.00000000000E+00  0.00000000000E+00  0.11095466655E+04  0.11095473924E+04  0.12699999809E+01 0.  1.
        4   -1    0    0  501    0  0.00000000000E+00  0.00000000000E+00 -0.38049052646E+03  0.38049264595E+03  0.12699999809E+01 0. -1.
    10030    2    1    2    0    0  0.00000000000E+00  0.00000000000E+00  0.72905613907E+03  0.14900400383E+04  0.12994985425E+04 0.  0.
        5    1    3    3  502    0  0.47659709329E+01  0.11453963265E+03 -0.36878444400E+03  0.38622027143E+03  0.46999998093E+01 0. -1.
       -5    1    3    3    0  502 -0.47659709329E+01 -0.11453963265E+03  0.10978405831E+04  0.11038197669E+04  0.46999998093E+01 0.  1.
</event>
<event>
 5   0  0.1101619E-03  0.1304297E+04  0.7818609E-02  0.9026165E-01
        2   -1    0    0  501    0  0.00000000000E+00  0.00000000000E+00  0.68515096635E+03  0.68515096635E+03  0.25500000920E-02 0. -1.
       -2   -1    0    0    0  501  0.00000000000E+00  0.00000000000E+00 -0.62073523042E+03  0.62073523042E+03  0.25500000920E-02 0.  1.
    10030    2    1    2    0    0  0.00000000000E+00  0.00000000000E+00  0.64415735930E+02  0.13058861968E+04  0.13042965046E+04 0.  0.
        1    1    3    3  502    0  0.32677300156E+03  0.51430932285E+03  0.26487584438E+03  0.66441996288E+03  0.50400001928E-02 0. -1.
       -1    1    3    3    0  502 -0.32677300156E+03 -0.51430932285E+03 -0.20046010845E+03  0.64146623389E+03  0.50400001928E-02 0.  1.
</event>
<event>
 5   0  0.1046253E-03  0.1284745E+04  0.7818609E-02  0.9041751E-01
       -2   -1    0    0    0  501  0.00000000000E+00  0.00000000000E+00  0.21585172377E+03  0.21585172379E+03  0.25500000920E-02 0.  1.
        2   -1    0    0  501    0  0.00000000000E+00  0.00000000000E+00 -0.19116946237E+04  0.19116946237E+04  0.25500000920E-02 0. -1.
    10030    2    1    2    0    0  0.00000000000E+00  0.00000000000E+00 -0.16958429000E+04  0.21275463475E+04  0.12847452353E+04 0.  0.
        3    1    3    3  502    0  0.34178513979E+02  0.28722227160E+03  0.10190724835E+03  0.30667556406E+03  0.10100000352E+00 0.  1.
       -3    1    3    3    0  502 -0.34178513979E+02 -0.28722227160E+03 -0.17977501483E+04  0.18208707835E+04  0.10100000352E+00 0. -1.
</event>
<event>
 5   0  0.1046253E-03  0.1298758E+04  0.7818609E-02  0.9030551E-01
       -2   -1    0    0    0  501  0.00000000000E+00  0.00000000000E+00  0.50453031404E+03  0.50453031405E+03  0.25500000920E-02 0.  1.
        2   -1    0    0  501    0  0.00000000000E+00  0.00000000000E+00 -0.83581339915E+03  0.83581339916E+03  0.25500000920E-02 0. -1.
    10030    2    1    2    0    0  0.00000000000E+00  0.00000000000E+00 -0.33128308511E+03  0.13403437132E+04  0.12987581711E+04 0.  0.
        3    1    3    3  502    0 -0.37441622120E+03  0.32254061682E+02 -0.71218852386E+03  0.80525793068E+03  0.10100000352E+00 0. -1.
       -3    1    3    3    0  502  0.37441622120E+03 -0.32254061682E+02  0.38090543875E+03  0.53508578253E+03  0.10100000352E+00 0.  1.
</event>
<event>
 5   0  0.6006119E-04  0.1323730E+04  0.7818609E-02  0.9010956E-01
       -1   -1    0    0    0  501  0.00000000000E+00  0.00000000000E+00  0.39800153791E+03  0.39800153795E+03  0.50400001928E-02 0.  1.
        1   -1    0    0  501    0  0.00000000000E+00  0.00000000000E+00 -0.11006621639E+04  0.11006621639E+04  0.50400001928E-02 0. -1.
    10030    2    1    2    0    0  0.00000000000E+00  0.00000000000E+00 -0.70266062602E+03  0.14986637019E+04  0.13237299332E+04 0.  0.
        4    1    3    3  502    0 -0.11899598628E+03 -0.41077104330E+03 -0.92323048090E+03  0.10174718810E+04  0.12699999809E+01 0. -1.
       -4    1    3    3    0  502  0.11899598628E+03  0.41077104330E+03  0.22056985488E+03  0.48119182094E+03  0.12699999809E+01 0.  1.
</event>
<event>
 5   0  0.1101619E-03  0.1301015E+04  0.7818609E-02  0.9028761E-01
       -2   -1    0    0    0  501  0.00000000000E+00  0.00000000000E+00  0.75452428384E+03  0.75452428384E+03  0.25500000920E-02 0.  1.
        2   -1    0    0  501    0  0.00000000000E+00  0.00000000000E+00 -0.56083013967E+03  0.56083013968E+03  0.25500000920E-02 0. -1.
    10030    2    1    2    0    0  0.00000000000E+00  0.00000000000E+00  0.19369414417E+03  0.13153544235E+04  0.13010149261E+04 0.  0.
        1    1    3    3  502    0 -0.82362581981E+01 -0.62777988179E+03 -0.75277844647E+02  0.63233074404E+03  0.50400001928E-02 0.  1.
       -1    1    3    3    0  502  0.82362581981E+01  0.62777988179E+03  0.26897198881E+03  0.68302367948E+03  0.50400001928E-02 0. -1.
</event>
<event>
 5   0  0.5563545E-04  0.1296230E+04  0.7818609E-02  0.9032560E-01
        1   -1    0    0  501    0  0.00000000000E+00  0.00000000000E+00  0.79513260199E+03  0.79513260201E+03  0.50400001928E-02 0.  1.
       -1   -1    0    0    0  501  0.00000000000E+00  0.00000000000E+00 -0.52828032410E+03  0.52828032413E+03  0.50400001928E-02 0. -1.
    10030    2    1    2    0    0  0.00000000000E+00  0.00000000000E+00  0.26685227789E+03  0.13234129261E+04  0.12962297770E+04 0.  0.
        2    1    3    3  502    0  0.55390583457E+03  0.32268582757E+03  0.23090128675E+03  0.68136129998E+03  0.25500000920E-02 0.  1.
       -2    1    3    3    0  502 -0.55390583457E+03 -0.32268582757E+03  0.35950991137E+02  0.64205162616E+03  0.25500000920E-02 0. -1.
</event>
<event>
 5   0  0.5710383E-04  0.1298751E+04  0.7818609E-02  0.9030556E-01
        1   -1    0    0  501    0  0.00000000000E+00  0.00000000000E+00  0.89180616890E+03  0.89180616891E+03  0.50400001928E-02 0. -1.
       -1   -1    0    0    0  501  0.00000000000E+00  0.00000000000E+00 -0.47284764742E+03  0.47284764744E+03  0.50400001928E-02 0.  1.
    10030    2    1    2    0    0  0.00000000000E+00  0.00000000000E+00  0.41895852148E+03  0.13646538164E+04  0.12987508598E+04 0.  0.
        1    1    3    3  502    0  0.45119984261E+03  0.14444518726E+03  0.67613558744E+03  0.82559375163E+03  0.50400001928E-02 0. -1.
       -1    1    3    3    0  502 -0.45119984261E+03 -0.14444518726E+03 -0.25717706596E+03  0.53906006472E+03  0.50400001928E-02 0.  1.
</event>
<event>
 5   0  0.5812938E-04  0.1318419E+04  0.7818609E-02  0.9015085E-01
       -1   -1    0    0    0  501  0.00000000000E+00  0.00000000000E+00  0.41653157045E+03  0.41653157048E+03  0.50400001928E-02 0.  1.
        1   -1    0    0  501    0  0.00000000000E+00  0.00000000000E+00 -0.10432757152E+04  0.10432757153E+04  0.50400001928E-02 0. -1.
    10030    2    1    2    0    0  0.00000000000E+00  0.00000000000E+00 -0.62674414480E+03  0.14598072857E+04  0.13184191627E+04 0.  0.
        5    1    3    3  502    0 -0.20159104048E+03 -0.98002566321E+02  0.37302044466E+03  0.43521235362E+03  0.46999998093E+01 0.  1.
       -5    1    3    3    0  502  0.20159104048E+03  0.98002566321E+02 -0.99976458946E+03  0.10245949321E+04  0.46999998093E+01 0. -1.
</event>
<event>
 5   0  0.1031295E-03  0.1296274E+04  0.7818609E-02  0.9032525E-01
       -2   -1    0    0    0  501  0.00000000000E+00  0.00000000000E+00  0.27563678472E+03  0.27563678473E+03  0.25500000920E-02 0.  1.
        2   -1    0    0  501    0  0.00000000000E+00  0.00000000000E+00 -0.15240408384E+04  0.15240408384E+04  0.25500000920E-02 0. -1.
    10030    2    1    2    0    0  0.00000000000E+00  0.00000000000E+00 -0.12484040537E+04  0.17996776232E+04  0.12962742248E+04 0.  0.
        2    1    3    3  502    0  0.20359976092E+03  0.56771642593E+02  0.22644294682E+03  0.30976166680E+03  0.25500000920E-02 0.  1.
       -2    1    3    3    0  502 -0.20359976092E+03 -0.56771642593E+02 -0.14748470005E+04  0.14899159563E+04  0.25500000920E-02 0. -1.
</event>
<event>
 5   0  0.1101619E-03  0.1289411E+04  0.7818609E-02  0.9038005E-01
        2   -1    0    0  501    0  0.00000000000E+00  0.00000000000E+00  0.10295549039E+04  0.10295549039E+04  0.25500000920E-02 0.  1.
       -2   -1    0    0    0  501  0.00000000000E+00  0.00000000000E+00 -0.40371331507E+03  0.40371331508E+03  0.25500000920E-02 0. -1.
    10030    2    1    2    0    0  0.00000000000E+00  0.00000000000E+00  0.62584158886E+03  0.14332682190E+04  0.12894107543E+04 0.  0.
        1    1    3    3  502    0 -0.38365493663E+03  0.35036386611E+03 -0.11137094744E+03  0.53136563404E+03  0.50400001928E-02 0. -1.
       -1    1    3    3    0  502  0.38365493663E+03 -0.35036386611E+03  0.73721253630E+03  0.90190258497E+03  0.50400001928E-02 0.  1.
</event>
<event>
 5   0  0.1081574E-03  0.1242695E+04  0.7818609E-02  0.9076285E-01
        2   -1    0    0  501    0  0.00000000000E+00  0.00000000000E+00  0.61473313345E+03  0.61473313346E+03  0.25500000920E-02 0. -1.
       -2   -1    0    0    0  501  0.00000000000E+00  0.00000000000E+00 -0.62803327868E+03  0.62803327868E+03  0.25500000920E-02 0.  1.
    10030    2    1    2    0    0  0.00000000000E+00  0.00000000000E+00 -0.13300145221E+02  0.12427664121E+04  0.12426952407E+04 0.  0.
        5    1    3    3  502    0 -0.53566016611E+03 -0.31428120867E+03  0.11959691083E+02  0.62118404349E+03  0.46999998093E+01 0. -1.
       -5    1    3    3    0  502  0.53566016611E+03  0.31428120867E+03 -0.25259836304E+02  0.62158236865E+03  0.46999998093E+01 0.  1.
</event>
<event>
 5   0  0.4012375E-04  0.1287306E+04  0.7818609E-02  0.9039693E-01
        3   -1    0    0  501    0  0.00000000000E+00  0.00000000000E+00  0.43012098849E+03  0.43012100034E+03  0.10100000352E+00 0.  1.
       -3   -1    0    0    0  501  0.00000000000E+00  0.00000000000E+00 -0.96319184267E+03  0.96319184797E+03  0.10100000352E+00 0. -1.
    10030    2    1    2    0    0  0.00000000000E+00  0.00000000000E+00 -0.53307085419E+03  0.13933128483E+04  0.12873057747E+04 0.  0.
        2    1    3    3  502    0 -0.55630260969E+03 -0.66692697225E+02 -0.60943402257E+03  0.82784680786E+03  0.25500000920E-02 0. -1.
       -2    1    3    3    0  502  0.55630260969E+03  0.66692697225E+02  0.76363168384E+02  0.56546604045E+03  0.25500000920E-02 0.  1.
</event>
<event>
 5   0  0.4012375E-04  0.1308762E+04  0.7818609E-02  0.9022645E-01
        4   -1    0    0  501    0  0.00000000000E+00  0.00000000000E+00  0.10390212137E+04  0.10390219899E+04  0.12699999809E+01 0.  1.
       -4   -1    0    0    0  501  0.00000000000E+00  0.00000000000E+00 -0.41213091528E+03  0.41213287206E+03  0.12699999809E+01 0. -1.
    10030    2    1    2    0    0  0.00000000000E+00  0.00000000000E+00  0.62689029845E+03  0.14511548620E+04  0.13087623876E+04 0.  0.
        5    1    3    3  502    0 -0.34790384004E+02 -0.12925837008E+03  0.10236608188E+04  0.10323863903E+04  0.46999998093E+01 0.  1.
       -5    1    3    3    0  502  0.34790384004E+02  0.12925837008E+03 -0.39677052031E+03  0.41876847164E+03  0.46999998093E+01 0. -1.
</event>
<event>
 5   0  0.1103241E-03  0.1301988E+04  0.7818609E-02  0.9027990E-01
        2   -1    0    0  501    0  0.00000000000E+00  0.00000000000E+00  0.83027744941E+03  0.83027744942E+03  0.25500000920E-02 0. -1.
       -2   -1    0    0    0  501  0.00000000000E+00  0.00000000000E+00 -0.51042375204E+03  0.51042375204E+03  0.25500000920E-02 0.  1.
    10030    2    1    2    0    0  0.00000000000E+00  0.00000000000E+00  0.31985369737E+03  0.13407012015E+04  0.13019882196E+04 0.  0.
        4    1    3    3  502    0 -0.17042972972E+03  0.22870818256E+03 -0.44265481904E+03  0.52659151841E+03  0.12699999809E+01 0.  1.
       -4    1    3    3    0  502  0.17042972972E+03 -0.22870818256E+03  0.76250851641E+03  0.81410968305E+03  0.12699999809E+01 0. -1.
</event>
<event>
 5   0  0.1101619E-03  0.1298542E+04  0.7818609E-02  0.9030722E-01
        2   -1    0    0  501    0  0.00000000000E+00  0.00000000000E+00  0.60160052663E+03  0.60160052663E+03  0.25500000920E-02 0.  1.
       -2   -1    0    0    0  501  0.00000000000E+00  0.00000000000E+00 -0.70071918522E+03  0.70071918522E+03  0.25500000920E-02 0. -1.
    10030    2    1    2    0    0  0.00000000000E+00  0.00000000000E+00 -0.99118658589E+02  0.13023197119E+04  0.12985423071E+04 0.  0.
        1    1    3    3  502    0  0.46728332865E+03 -0.30720872380E+03 -0.38040092338E+03  0.67633998237E+03  0.50400001928E-02 0. -1.
       -1    1    3    3    0  502 -0.46728332865E+03  0.30720872380E+03  0.28128226479E+03  0.62597972949E+03  0.50400001928E-02 0.  1.
</event>
<event>
 5   0  0.5710383E-04  0.1298663E+04  0.7818609E-02  0.9030626E-01
        1   -1    0    0  501    0  0.00000000000E+00  0.00000000000E+00  0.85835256248E+03  0.85835256249E+03  0.50400001928E-02 0.  1.
       -1   -1    0    0    0  501  0.00000000000E+00  0.00000000000E+00 -0.49121005533E+03  0.49121005536E+03  0.50400001928E-02 0. -1.
    10030    2    1    2    0    0  0.00000000000E+00  0.00000000000E+00  0.36714250715E+03  0.13495626178E+04  0.12986630198E+04 0.  0.
        1    1    3    3  502    0  0.44306746775E+03  0.28306757362E+03  0.57955098907E+03  0.78250583459E+03  0.50400001928E-02 0.  1.
       -1    1    3    3    0  502 -0.44306746775E+03 -0.28306757362E+03 -0.21240848192E+03  0.56705678326E+03  0.50400001928E-02 0. -1.
</event>
<event>
 5   0  0.5812938E-04  0.1316126E+04  0.7818609E-02  0.9016874E-01
       -1   -1    0    0    0  501  0.00000000000E+00  0.00000000000E+00  0.56633857952E+03  0.56633857954E+03  0.50400001928E-02 0.  1.
        1   -1    0    0  501    0  0.00000000000E+00  0.00000000000E+00 -0.76464338030E+03  0.76464338032E+03  0.50400001928E-02 0. -1.
    10030    2    1    2    0    0  0.00000000000E+00  0.00000000000E+00 -0.19830480078E+03  0.13309819599E+04  0.13161262035E+04 0.  0.
        5    1    3    3  502    0 -0.54926203796E+03 -0.32828396289E+03  0.56091952773E+02  0.64236091397E+03  0.46999998093E+01 0. -1.
       -5    1    3    3    0  502  0.54926203796E+03  0.32828396289E+03 -0.25439675355E+03  0.68862104589E+03  0.46999998093E+01 0.  1.
</event>
<event>
 5   0  0.1081574E-03  0.1302297E+04  0.7818609E-02  0.9027746E-01
        2   -1    0    0  501    0  0.00000000000E+00  0.00000000000E+00  0.27856096890E+04  0.27856096890E+04  0.25500000920E-02 0.  1.
       -2   -1    0    0    0  501  0.00000000000E+00  0.00000000000E+00 -0.15220874941E+03  0.15220874944E+03  0.25500000920E-02 0. -1.
    10030    2    1    2    0    0  0.00000000000E+00  0.00000000000E+00  0.26334009396E+04  0.29378184384E+04  0.13022966899E+04 0.  0.
        5    1    3    3  502    0  0.62424594845E+03 -0.10645249145E+03  0.16585004362E+04  0.17752917856E+04  0.46999998093E+01 0.  1.
       -5    1    3    3    0  502 -0.62424594845E+03  0.10645249145E+03  0.97490050336E+03  0.11625266528E+04  0.46999998093E+01 0. -1.
</event>
<event>
 5   0  0.1081574E-03  0.1324362E+04  0.7818609E-02  0.9010466E-01
       -2   -1    0    0    0  501  0.00000000000E+00  0.00000000000E+00  0.10107819283E+04  0.10107819284E+04  0.25500000920E-02 0. -1.
        2   -1    0    0  501    0  0.00000000000E+00  0.00000000000E+00 -0.43380619071E+03  0.43380619071E+03  0.25500000920E-02 0.  1.
    10030    2    1    2    0    0  0.00000000000E+00  0.00000000000E+00  0.57697573764E+03  0.14445881191E+04  0.13243616696E+04 0.  0.
        5    1    3    3  502    0 -0.93080006917E+02  0.82091602611E+02  0.99796372781E+03  0.10056622748E+04  0.46999998093E+01 0. -1.
       -5    1    3    3    0  502  0.93080006917E+02 -0.82091602611E+02 -0.42098799017E+03  0.43892584428E+03  0.46999998093E+01 0.  1.
</event>
<event>
 5   0  0.1081574E-03  0.1307636E+04  0.7818609E-02  0.9023531E-01
        2   -1    0    0  501    0  0.00000000000E+00  0.00000000000E+00  0.25020437519E+03  0.25020437520E+03  0.25500000920E-02 0.  1.
       -2   -1    0    0    0  501  0.00000000000E+00  0.00000000000E+00 -0.17085155338E+04  0.17085155338E+04  0.25500000920E-02 0. -1.
    10030    2    1    2    0    0  0.00000000000E+00  0.00000000000E+00 -0.14583111586E+04  0.19587199090E+04  0.13076361293E+04 0.  0.
        5    1    3    3  502    0 -0.46372372715E+03  0.45931405435E+03 -0.67217838186E+03  0.93693914567E+03  0.46999998093E+01 0.  1.
       -5    1    3    3    0  502  0.46372372715E+03 -0.45931405435E+03 -0.78613277676E+03  0.10217807633E+04  0.46999998093E+01 0. -1.
</event>
<event>
 5   0  0.1103241E-03  0.1305261E+04  0.7818609E-02  0.9025403E-01
        2   -1    0    0  501    0  0.00000000000E+00  0.00000000000E+00  0.70000740132E+03  0.70000740133E+03  0.25500000920E-02 0.  1.
       -2   -1    0    0    0  501  0.00000000000E+00  0.00000000000E+00 -0.60846047639E+03  0.60846047640E+03  0.25500000920E-02 0. -1.
    10030    2    1    2    0    0  0.00000000000E+00  0.00000000000E+00  0.91546924929E+02  0.13084678777E+04  0.13052614097E+04 0.  0.
        4    1    3    3  502    0  0.96817711232E+02  0.37034056514E+03  0.57565442649E+03  0.69130704830E+03  0.12699999809E+01 0.  1.
       -4    1    3    3    0  502 -0.96817711232E+02 -0.37034056514E+03 -0.48410750156E+03  0.61716082942E+03  0.12699999809E+01 0. -1.
</event>
<event>
 5   0  0.1103241E-03  0.1266457E+04  0.7818609E-02  0.9056596E-01
        2   -1    0    0  501    0  0.00000000000E+00  0.00000000000E+00  0.12378953192E+04  0.12378953192E+04  0.25500000920E-02 0. -1.
       -2   -1    0    0    0  501  0.00000000000E+00  0.00000000000E+00 -0.32391950028E+03  0.32391950029E+03  0.25500000920E-02 0.  1.
    10030    2    1    2    0    0  0.00000000000E+00  0.00000000000E+00  0.91397581893E+03  0.15618148195E+04  0.12664571579E+04 0.  0.
        4    1    3    3  502    0 -0.28370124134E+03 -0.51438656903E+03  0.16542462488E+03  0.61028424210E+03  0.12699999809E+01 0.  1.
       -4    1    3    3    0  502  0.28370124134E+03  0.51438656903E+03  0.74855119405E+03  0.95153057742E+03  0.12699999809E+01 0. -1.
</event>
<event>
 5   0  0.5812938E-04  0.1314589E+04  0.7818609E-02  0.9018075E-01
       -1   -1    0    0    0  501  0.00000000000E+00  0.00000000000E+00  0.45017841578E+03  0.45017841580E+03  0.50400001928E-02 0. -1.
        1   -1    0    0  501    0  0.00000000000E+00  0.00000000000E+00 -0.95969992265E+03  0.95969992267E+03  0.50400001928E-02 0.  1.
    10030    2    1    2    0    0  0.00000000000E+00  0.00000000000E+00 -0.50952150688E+03  0.14098783385E+04  0.13145891995E+04 0.  0.
        5    1    3    3  502    0 -0.21702544903E+03 -0.19060414055E+03 -0.88796726985E+03  0.93377617566E+03  0.46999998093E+01 0.  1.
       -5    1    3    3    0  502  0.21702544903E+03  0.19060414055E+03  0.37844576297E+03  0.47610216281E+03  0.46999998093E+01 0. -1.
</event>
<event>
 5   0  0.1046253E-03  0.1288821E+04  0.7818609E-02  0.9038477E-01
       -2   -1    0    0    0  501  0.00000000000E+00  0.00000000000E+00  0.98529403986E+03  0.98529403986E+03  0.25500000920E-02 0.  1.
        2   -1    0    0  501    0  0.00000000000E+00  0.00000000000E+00 -0.42146297108E+03  0.42146297109E+03  0.25500000920E-02 0. -1.
    10030    2    1    2    0    0  0.00000000000E+00  0.00000000000E+00  0.56383106877E+03  0.14067570110E+04  0.12888210945E+04 0.  0.
        3    1    3    3  502    0  0.63375967473E+03 -0.10327331991E+02  0.40876987315E+03  0.75422198224E+03  0.10100000352E+00 0. -1.
       -3    1    3    3    0  502 -0.63375967473E+03  0.10327331991E+02  0.15506119563E+03  0.65253502871E+03  0.10100000352E+00 0.  1.
</event>
<event>
 5   0  0.1031295E-03  0.1292240E+04  0.7818609E-02  0.9035742E-01
        2   -1    0    0  501    0  0.00000000000E+00  0.00000000000E+00  0.25721927154E+04  0.25721927154E+04  0.25500000920E-02 0.  1.
       -2   -1    0    0    0  501  0.00000000000E+00  0.00000000000E+00 -0.16230159168E+03  0.16230159170E+03  0.25500000920E-02 0. -1.
    10030    2    1    2    0    0  0.00000000000E+00  0.00000000000E+00  0.24098911237E+04  0.27344943071E+04  0.12922398722E+04 0.  0.
        2    1    3    3  502    0  0.45232667087E+03 -0.96546181981E+02  0.25023911507E+03  0.52587089400E+03  0.25500000920E-02 0. -1.
       -2    1    3    3    0  502 -0.45232667087E+03  0.96546181981E+02  0.21596520086E+04  0.22086234131E+04  0.25500000920E-02 0.  1.
</event>
<event>
 5   0  0.5710383E-04  0.1301056E+04  0.7818609E-02  0.9028728E-01
       -1   -1    0    0    0  501  0.00000000000E+00  0.00000000000E+00  0.74905008842E+03  0.74905008844E+03  0.50400001928E-02 0. -1.
        1   -1    0    0  501    0  0.00000000000E+00  0.00000000000E+00 -0.56496414392E+03  0.56496414395E+03  0.50400001928E-02 0.  1.
    10030    2    1    2    0    0  0.00000000000E+00  0.00000000000E+00  0.18408594450E+03  0.13140142324E+04  0.13010556360E+04 0.  0.
        1    1    3    3  502    0  0.41712650272E+03  0.87200408619E+02 -0.40436859227E+03  0.58746267028E+03  0.50400001928E-02 0.  1.
       -1    1    3    3    0  502 -0.41712650272E+03 -0.87200408619E+02  0.58845453677E+03  0.72655156211E+03  0.50400001928E-02 0. -1.
</event>
<event>
 5   0  0.1081574E-03  0.1302795E+04  0.7818609E-02  0.9027352E-01
        2   -1    0    0  501    0  0.00000000000E+00  0.00000000000E+00  0.61913359615E+03  0.61913359616E+03  0.25500000920E-02 0. -1.
       -2   -1    0    0    0  501  0.00000000000E+00  0.00000000000E+00 -0.68534234571E+03  0.68534234572E+03  0.25500000920E-02 0.  1.
    10030    2    1    2    0    0  0.00000000000E+00  0.00000000000E+00 -0.66208749558E+02  0.13044759419E+04  0.13027946440E+04 0.  0.
        5    1    3    3  502    0 -0.13428239619E+03  0.10769279672E+03  0.59593155291E+03  0.62031121717E+03  0.46999998093E+01 0. -1.
       -5    1    3    3    0  502  0.13428239619E+03 -0.10769279672E+03 -0.66214030247E+03  0.68416472471E+03  0.46999998093E+01 0.  1.
</event>
<event>
 5   0  0.1031295E-03  0.1305175E+04  0.7818609E-02  0.9025471E-01
        2   -1    0    0  501    0  0.00000000000E+00  0.00000000000E+00  0.92496547460E+03  0.92496547460E+03  0.25500000920E-02 0.  1.
       -2   -1    0    0    0  501  0.00000000000E+00  0.00000000000E+00 -0.46041765675E+03  0.46041765676E+03  0.25500000920E-02 0. -1.
    10030    2    1    2    0    0  0.00000000000E+00  0.00000000000E+00  0.46454781785E+03  0.13853831314E+04  0.13051749866E+04 0.  0.
        2    1    3    3  502    0 -0.56954494156E+03  0.31548283641E+03  0.27926139329E+03  0.70844744781E+03  0.25500000920E-02 0. -1.
       -2    1    3    3    0  502  0.56954494156E+03 -0.31548283641E+03  0.18528642456E+03  0.67693568354E+03  0.25500000920E-02 0.  1.
</event>
<event>
 5   0  0.5710383E-04  0.1301857E+04  0.7818609E-02  0.9028094E-01
        1   -1    0    0  501    0  0.00000000000E+00  0.00000000000E+00  0.11920823932E+04  0.11920823932E+04  0.50400001928E-02 0.  1.
       -1   -1    0    0    0  501  0.00000000000E+00  0.00000000000E+00 -0.35543503487E+03  0.35543503491E+03  0.50400001928E-02 0. -1.
    10030    2    1    2    0    0  0.00000000000E+00  0.00000000000E+00  0.83664735830E+03  0.15475174281E+04  0.13018569000E+04 0.  0.
        1    1    3    3  502    0 -0.43418942464E+03  0.47547401974E+03  0.53179223067E+03  0.83510417107E+03  0.50400001928E-02 0.  1.
       -1    1    3    3    0  502  0.43418942464E+03 -0.47547401974E+03  0.30485512764E+03  0.71241325703E+03  0.50400001928E-02 0. -1.
</event>
<event>
 5   0  0.1081574E-03  0.1340676E+04  0.7818609E-02  0.8997917E-01
        2   -1    0    0  501    0  0.00000000000E+00  0.00000000000E+00  0.95397965566E+03  0.95397965567E+03  0.25500000920E-02 0.  1.
       -2   -1    0    0    0  501  0.00000000000E+00  0.00000000000E+00 -0.47102985984E+03  0.47102985985E+03  0.25500000920E-02 0. -1.
    10030    2    1    2    0    0  0.00000000000E+00  0.00000000000E+00  0.48294979582E+03  0.14250095155E+04  0.13406758050E+04 0.  0.
        5    1    3    3  502    0 -0.15904231035E+03  0.64360502121E+03  0.13620483264E+03  0.67682769317E+03  0.46999998093E+01 0. -1.
       -5    1    3    3    0  502  0.15904231035E+03 -0.64360502121E+03  0.34674496318E+03  0.74818182235E+03  0.46999998093E+01 0.  1.
</event>
<event>
 5   0  0.4012375E-04  0.1300400E+04  0.7818609E-02  0.9029248E-01
       -4   -1    0    0    0  501  0.00000000000E+00  0.00000000000E+00  0.53081332236E+03  0.53081484163E+03  0.12699999809E+01 0.  1.
        4   -1    0    0  501    0  0.00000000000E+00  0.00000000000E+00 -0.79643481082E+03  0.79643582340E+03  0.12699999809E+01 0. -1.
    10030    2    1    2    0    0  0.00000000000E+00  0.00000000000E+00 -0.26562148846E+03  0.13272506650E+04  0.13003997665E+04 0.  0.
        4    1    3    3  502    0  0.13072116729E+03  0.51466292505E+02  0.51513726739E+03  0.53395207650E+03  0.12699999809E+01 0.  1.
       -4    1    3    3    0  502 -0.13072116729E+03 -0.51466292505E+02 -0.78075875585E+03  0.79329858853E+03  0.12699999809E+01 0. -1.
</event>
<event>
 5   0  0.1046253E-03  0.1292933E+04  0.7818609E-02  0.9035188E-01
       -2   -1    0    0    0  501  0.00000000000E+00  0.00000000000E+00  0.25386086451E+03  0.25386086452E+03  0.25500000920E-02 0. -1.
        2   -1    0    0  501    0  0.00000000000E+00  0.00000000000E+00 -0.16462514569E+04  0.16462514569E+04  0.25500000920E-02 0.  1.
    10030    2    1    2    0    0  0.00000000000E+00  0.00000000000E+00 -0.13923905924E+04  0.19001123214E+04  0.12929328181E+04 0.  0.
        3    1    3    3  502    0 -0.60604862214E+03 -0.13793132759E+03 -0.95743475610E+03  0.11414908260E+04  0.10100000352E+00 0.  1.
       -3    1    3    3    0  502  0.60604862214E+03  0.13793132759E+03 -0.43495583628E+03  0.75862149538E+03  0.10100000352E+00 0. -1.
</event>
<event>
 5   0  0.5563545E-04  0.1312919E+04  0.7818609E-02  0.9019383E-01
       -1   -1    0    0    0  501  0.00000000000E+00  0.00000000000E+00  0.52135753713E+03  0.52135753716E+03  0.50400001928E-02 0. -1.
        1   -1    0    0  501    0  0.00000000000E+00  0.00000000000E+00 -0.82657085641E+03  0.82657085642E+03  0.50400001928E-02 0.  1.
    10030    2    1    2    0    0  0.00000000000E+00  0.00000000000E+00 -0.30521331927E+03  0.13479283936E+04  0.13129188033E+04 0.  0.
        2    1    3    3  502    0  0.46886892114E+03  0.41972452831E+03  0.39278739266E+02  0.63051531642E+03  0.25500000920E-02 0. -1.
       -2    1    3    3    0  502 -0.46886892114E+03 -0.41972452831E+03 -0.34449205854E+03  0.71741307716E+03  0.25500000920E-02 0.  1.
</event>
<event>
 5   0  0.5812938E-04  0.1299483E+04  0.7818609E-02  0.9029976E-01
       -1   -1    0    0    0  501  0.00000000000E+00  0.00000000000E+00  0.91264858350E+03  0.91264858351E+03  0.50400001928E-02 0.  1.
        1   -1    0    0  501    0  0.00000000000E+00  0.00000000000E+00 -0.46256993538E+03  0.46256993541E+03  0.50400001928E-02 0. -1.
    10030    2    1    2    0    0  0.00000000000E+00  0.00000000000E+00  0.45007864812E+03  0.13752185189E+04  0.12994826606E+04 0.  0.
        5    1    3    3  502    0  0.31327689988E+03 -0.27946833069E+03  0.74981972953E+03  0.85935829585E+03  0.46999998093E+01 0.  1.
       -5    1    3    3    0  502 -0.31327689988E+03  0.27946833069E+03 -0.29974108141E+03  0.51586022307E+03  0.46999998093E+01 0. -1.
</event>
<event>
 5   0  0.1031295E-03  0.1305405E+04  0.7818609E-02  0.9025290E-01
        2   -1    0    0  501    0  0.00000000000E+00  0.00000000000E+00  0.13754153886E+04  0.13754153886E+04  0.25500000920E-02 0. -1.
       -2   -1    0    0    0  501  0.00000000000E+00  0.00000000000E+00 -0.30973932026E+03  0.30973932027E+03  0.25500000920E-02 0.  1.
    10030    2    1    2    0    0  0.00000000000E+00  0.00000000000E+00  0.10656760683E+04  0.16851547089E+04  0.13054045006E+04 0.  0.
        2    1    3    3  502    0  0.20095907083E+03 -0.43748863370E+03 -0.36097826039E+02  0.48278764050E+03  0.25500000920E-02 0.  1.
       -2    1    3    3    0  502 -0.20095907083E+03  0.43748863370E+03  0.11017738944E+04  0.12023670684E+04  0.25500000920E-02 0. -1.
</event>
<event>
 5   0  0.1101619E-03  0.1300226E+04  0.7818609E-02  0.9029386E-01
       -2   -1    0    0    0  501  0.00000000000E+00  0.00000000000E+00  0.38096443499E+03  0.38096443500E+03  0.25500000920E-02 0. -1.
        2   -1    0    0  501    0  0.00000000000E+00  0.00000000000E+00 -0.11094130164E+04  0.11094130164E+04  0.25500000920E-02 0.  1.
    10030    2    1    2    0    0  0.00000000000E+00  0.00000000000E+00 -0.72844858144E+03  0.14903774514E+04  0.13002259850E+04 0.  0.
        1    1    3    3  502    0 -0.49802259154E+02  0.63448715914E+03 -0.51625925162E+03  0.81949852656E+03  0.50400001928E-02 0.  1.
       -1    1    3    3    0  502  0.49802259154E+02 -0.63448715914E+03 -0.21218932981E+03  0.67087892487E+03  0.50400001928E-02 0. -1.
</event>
<event>
 5   0  0.5563545E-04  0.1297342E+04  0.7818609E-02  0.9031676E-01
        1   -1    0    0  501    0  0.00000000000E+00  0.00000000000E+00  0.90778640781E+03  0.90778640783E+03  0.50400001928E-02 0.  1.
       -1   -1    0    0    0  501  0.00000000000E+00  0.00000000000E+00 -0.46351636309E+03  0.46351636312E+03  0.50400001928E-02 0. -1.
    10030    2    1    2    0    0  0.00000000000E+00  0.00000000000E+00  0.44427004472E+03  0.13713027709E+04  0.12973416732E+04 0.  0.
        2    1    3    3  502    0  0.51243923894E+03 -0.85203198093E+02 -0.18849699485E+03  0.55261621008E+03  0.25500000920E-02 0. -1.
       -2    1    3    3    0  502 -0.51243923894E+03  0.85203198093E+02  0.63276703958E+03  0.81868656087E+03  0.25500000920E-02 0.  1.
</event>
<event>
 5   0  0.5766027E-04  0.1295409E+04  0.7818609E-02  0.9033214E-01
       -1   -1    0    0    0  501  0.00000000000E+00  0.00000000000E+00  0.32622217601E+03  0.32622217605E+03  0.50400001928E-02 0.  1.
        1   -1    0    0  501    0  0.00000000000E+00  0.00000000000E+00 -0.12859975849E+04  0.12859975849E+04  0.50400001928E-02 0. -1.
    10030    2    1    2    0    0  0.00000000000E+00  0.00000000000E+00 -0.95977540888E+03  0.16122197610E+04  0.12954087085E+04 0.  0.
        3    1    3    3  502    0 -0.16315830361E+03  0.29642376807E+03 -0.11672583954E+04  0.12153105998E+04  0.10100000352E+00 0. -1.
       -3    1    3    3    0  502  0.16315830361E+03 -0.29642376807E+03  0.20748298647E+03  0.39690916113E+03  0.10100000352E+00 0.  1.
</event>
<event>
 5   0  0.1031295E-03  0.1296532E+04  0.7818609E-02  0.9032320E-01
       -2   -1    0    0    0  501  0.00000000000E+00  0.00000000000E+00  0.37870763767E+03  0.37870763768E+03  0.25500000920E-02 0. -1.
        2   -1    0    0  501    0  0.00000000000E+00  0.00000000000E+00 -0.11096926246E+04  0.11096926246E+04  0.25500000920E-02 0.  1.
    10030    2    1    2    0    0  0.00000000000E+00  0.00000000000E+00 -0.73098498692E+03  0.14884002623E+04  0.12965324098E+04 0.  0.
        2    1    3    3  502    0  0.37896625916E+03 -0.39203208022E+03  0.37030694816E+02  0.54651244256E+03  0.25500000920E-02 0. -1.
       -2    1    3    3    0  502 -0.37896625916E+03  0.39203208022E+03 -0.76801568173E+03  0.94188781970E+03  0.25500000920E-02 0.  1.
</event>
<event>
 5   0  0.5710383E-04  0.1303779E+04  0.7818609E-02  0.9026574E-01
        1   -1    0    0  501    0  0.00000000000E+00  0.00000000000E+00  0.21263877967E+04  0.21263877967E+04  0.50400001928E-02 0.  1.
       -1   -1    0    0    0  501  0.00000000000E+00  0.00000000000E+00 -0.19985066624E+03  0.19985066630E+03  0.50400001928E-02 0. -1.
    10030    2    1    2    0    0  0.00000000000E+00  0.00000000000E+00  0.19265371305E+04  0.23262384630E+04  0.13037791499E+04 0.  0.
        1    1    3    3  502    0 -0.21084991442E+03 -0.40287889046E+03  0.17966974510E+04  0.18533458439E+04  0.50400001928E-02 0.  1.
       -1    1    3    3    0  502  0.21084991442E+03  0.40287889046E+03  0.12983967947E+03  0.47289261908E+03  0.50400001928E-02 0. -1.
</event>
<event>
 5   0  0.5710383E-04  0.1305184E+04  0.7818609E-02  0.9025464E-01
       -1   -1    0    0    0  501  0.00000000000E+00  0.00000000000E+00  0.46417126607E+03  0.46417126610E+03  0.50400001928E-02 0.  1.
        1   -1    0    0  501    0  0.00000000000E+00  0.00000000000E+00 -0.91749799672E+03  0.91749799674E+03  0.50400001928E-02 0. -1.
    10030    2    1    2    0    0  0.00000000000E+00  0.00000000000E+00 -0.45332673065E+03  0.13816692628E+04  0.13051838289E+04 0.  0.
        1    1    3    3  502    0 -0.12409354654E+03 -0.30968355574E+02 -0.90410032649E+03  0.91310221100E+03  0.50400001928E-02 0. -1.
       -1    1    3    3    0  502  0.12409354654E+03  0.30968355574E+02  0.45077359584E+03  0.46856705184E+03  0.50400001928E-02 0.  1.
</event>
<event>
 5   0  0.5563545E-04  0.1266422E+04  0.7818609E-02  0.9056625E-01
        1   -1    0    0  501    0  0.00000000000E+00  0.00000000000E+00  0.90579607339E+03  0.90579607340E+03  0.50400001928E-02 0.  1.
       -1   -1    0    0    0  501  0.00000000000E+00  0.00000000000E+00 -0.44265617878E+03  0.44265617881E+03  0.50400001928E-02 0. -1.
    10030    2    1    2    0    0  0.00000000000E+00  0.00000000000E+00  0.46313989461E+03  0.13484522522E+04  0.12664220918E+04 0.  0.
        2    1    3    3  502    0 -0.23122472088E+03  0.10822572602E+03  0.84856768176E+03  0.88614038947E+03  0.25500000920E-02 0.  1.
       -2    1    3    3    0  502  0.23122472088E+03 -0.10822572602E+03 -0.38542778715E+03  0.46231186274E+03  0.25500000920E-02 0. -1.
</event>
<event>
 5   0  0.1103241E-03  0.1299712E+04  0.7818609E-02  0.9029793E-01
        2   -1    0    0  501    0  0.00000000000E+00  0.00000000000E+00  0.67754544992E+03  0.67754544993E+03  0.25500000920E-02 0.  1.
       -2   -1    0    0    0  501  0.00000000000E+00  0.00000000000E+00 -0.62329848612E+03  0.62329848612E+03  0.25500000920E-02 0. -1.
    10030    2    1    2    0    0  0.00000000000E+00  0.00000000000E+00  0.54246963807E+02  0.13008439361E+04  0.12997123577E+04 0.  0.
        4    1    3    3  502    0  0.51547414741E+03 -0.37299921539E+03  0.15941052324E+03  0.65593851782E+03  0.12699999809E+01 0.  1.
       -4    1    3    3    0  502 -0.51547414741E+03  0.37299921539E+03 -0.10516355943E+03  0.64490541823E+03  0.12699999809E+01 0. -1.
</event>
<event>
 5   0  0.4012375E-04  0.1300097E+04  0.7818609E-02  0.9029488E-01
       -4   -1    0    0    0  501  0.00000000000E+00  0.00000000000E+00  0.29764291249E+03  0.29764562194E+03  0.12699999809E+01 0.  1.
        4   -1    0    0  501    0  0.00000000000E+00  0.00000000000E+00 -0.14196887079E+04  0.14196892759E+04  0.12699999809E+01 0. -1.
    10030    2    1    2    0    0  0.00000000000E+00  0.00000000000E+00 -0.11220457954E+04  0.17173348978E+04  0.13000970673E+04 0.  0.
        1    1    3    3  502    0 -0.64928729637E+03 -0.30105419108E+02 -0.54900560087E+03  0.85081577283E+03  0.50400001928E-02 0.  1.
       -1    1    3    3    0  502  0.64928729637E+03  0.30105419108E+02 -0.57304019450E+03  0.86651912502E+03  0.50400001928E-02 0. -1.
</event>
<event>
 5   0  0.1103241E-03  0.1307502E+04  0.7818609E-02  0.9023637E-01
       -2   -1    0    0    0  501  0.00000000000E+00  0.00000000000E+00  0.77470016319E+03  0.77470016319E+03  0.25500000920E-02 0. -1.
        2   -1    0    0  501    0  0.00000000000E+00  0.00000000000E+00 -0.55168507247E+03  0.55168507248E+03  0.25500000920E-02 0.  1.
    10030    2    1    2    0    0  0.00000000000E+00  0.00000000000E+00  0.22301509071E+03  0.13263852357E+04  0.13075022228E+04 0.  0.
        4    1    3    3  502    0  0.51715923034E+03  0.11777557393E+03 -0.27619536148E+03  0.59800522234E+03  0.12699999809E+01 0.  1.
       -4    1    3    3    0  502 -0.51715923034E+03 -0.11777557393E+03  0.49921045219E+03  0.72838001333E+03  0.12699999809E+01 0. -1.
</event>
<event>
 5   0  0.1101619E-03  0.1303714E+04  0.7818609E-02  0.9026625E-01
       -2   -1    0    0    0  501  0.00000000000E+00  0.00000000000E+00  0.51618981362E+03  0.51618981362E+03  0.25500000920E-02 0.  1.
        2   -1    0    0  501    0  0.00000000000E+00  0.00000000000E+00 -0.82318101676E+03  0.82318101676E+03  0.25500000920E-02 0. -1.
    10030    2    1    2    0    0  0.00000000000E+00  0.00000000000E+00 -0.30699120314E+03  0.13393708304E+04  0.13037141644E+04 0.  0.
        1    1    3    3  502    0 -0.50558190296E+03 -0.11052849367E+03  0.25368775926E+03  0.57635673653E+03  0.50400001928E-02 0. -1.
       -1    1    3    3    0  502  0.50558190296E+03  0.11052849367E+03 -0.56067896240E+03  0.76301409386E+03  0.50400001928E-02 0.  1.
</event>
<event>
 5   0  0.4012375E-04  0.1298944E+04  0.7818609E-02  0.9030403E-01
        4   -1    0    0  501    0  0.00000000000E+00  0.00000000000E+00  0.54627695913E+03  0.54627843539E+03  0.12699999809E+01 0. -1.
       -4   -1    0    0    0  501  0.00000000000E+00  0.00000000000E+00 -0.77215807346E+03  0.77215911787E+03  0.12699999809E+01 0.  1.
    10030    2    1    2    0    0  0.00000000000E+00  0.00000000000E+00 -0.22588111433E+03  0.13184375533E+04  0.12989439187E+04 0.  0.
        4    1    3    3  502    0  0.30386536614E+03 -0.95075832013E+02  0.46162766481E+03  0.56078096294E+03  0.12699999809E+01 0. -1.
       -4    1    3    3    0  502 -0.30386536614E+03  0.95075832013E+02 -0.68750877914E+03  0.75765659033E+03  0.12699999809E+01 0.  1.
</event>
<event>
 5   0  0.1046253E-03  0.1294148E+04  0.7818609E-02  0.9034219E-01
       -2   -1    0    0    0  501  0.00000000000E+00  0.00000000000E+00  0.35040559138E+03  0.35040559139E+03  0.25500000920E-02 0. -1.
        2   -1    0    0  501    0  0.00000000000E+00  0.00000000000E+00 -0.11949138585E+04  0.11949138585E+04  0.25500000920E-02 0.  1.
    10030    2    1    2    0    0  0.00000000000E+00  0.00000000000E+00 -0.84450826712E+03  0.15453194499E+04  0.12941475917E+04 0.  0.
        3    1    3    3  502    0  0.20464819079E+03 -0.13027744722E+03  0.29404768823E+03  0.38120486408E+03  0.10100000352E+00 0. -1.
       -3    1    3    3    0  502 -0.20464819079E+03  0.13027744722E+03 -0.11385559554E+04  0.11641145858E+04  0.10100000352E+00 0.  1.
</event>
<event>
 5   0  0.1103241E-03  0.1290490E+04  0.7818609E-02  0.9037141E-01
        2   -1    0    0  501    0  0.00000000000E+00  0.00000000000E+00  0.46339561158E+03  0.46339561158E+03  0.25500000920E-02 0.  1.
       -2   -1    0    0    0  501  0.00000000000E+00  0.00000000000E+00 -0.89845724231E+03  0.89845724232E+03  0.25500000920E-02 0. -1.
    10030    2    1    2    0    0  0.00000000000E+00  0.00000000000E+00 -0.43506163074E+03  0.13618528539E+04  0.12904900515E+04 0.  0.
        4    1    3    3  502    0 -0.37441484770E+03  0.30314682297E+03 -0.67051728610E+03  0.82563885465E+03  0.12699999809E+01 0. -1.
       -4    1    3    3    0  502  0.37441484770E+03 -0.30314682297E+03  0.23545565536E+03  0.53621399925E+03  0.12699999809E+01 0.  1.
</event>
<event>
 5   0  0.5766027E-04  0.1320999E+04  0.7818609E-02  0.9013076E-01
        1   -1    0    0  501    0  0.00000000000E+00  0.00000000000E+00  0.50907064354E+03  0.50907064357E+03  0.50400001928E-02 0.  1.
       -1   -1    0    0    0  501  0.00000000000E+00  0.00000000000E+00 -0.85697283005E+03  0.85697283006E+03  0.50400001928E-02 0. -1.
    10030    2    1    2    0    0  0.00000000000E+00  0.00000000000E+00 -0.34790218651E+03  0.13660434736E+04  0.13209991826E+04 0.  0.
        3    1    3    3  502    0 -0.33766393493E+03 -0.51269382395E+03 -0.42595694559E+03  0.74720226162E+03  0.10100000352E+00 0. -1.
       -3    1    3    3    0  502  0.33766393493E+03  0.51269382395E+03  0.78054759082E+02  0.61884121201E+03  0.10100000352E+00 0.  1.
</event>
<event>
 5   0  0.5563545E-04  0.1297935E+04  0.7818609E-02  0.9031204E-01
       -1   -1    0    0    0  501  0.00000000000E+00  0.00000000000E+00  0.15883018167E+04  0.15883018167E+04  0.50400001928E-02 0.  1.
        1   -1    0    0  501    0  0.00000000000E+00  0.00000000000E+00 -0.26516299570E+03  0.26516299575E+03  0.50400001928E-02 0. -1.
    10030    2    1    2    0    0  0.00000000000E+00  0.00000000000E+00  0.13231388210E+04  0.18534648125E+04  0.12979350798E+04 0.  0.
        2    1    3    3  502    0 -0.32205549925E+02 -0.51767789420E+03  0.12185507149E+04  0.13243464216E+04  0.25500000920E-02 0.  1.
       -2    1    3    3    0  502  0.32205549925E+02  0.51767789420E+03  0.10458810608E+03  0.52911839085E+03  0.25500000920E-02 0. -1.
</event>
<event>
 5   0  0.5766027E-04  0.1302065E+04  0.7818609E-02  0.9027929E-01
       -1   -1    0    0    0  501  0.00000000000E+00  0.00000000000E+00  0.39297716319E+03  0.39297716322E+03  0.50400001928E-02 0.  1.
        1   -1    0    0  501    0  0.00000000000E+00  0.00000000000E+00 -0.10785439597E+04  0.10785439597E+04  0.50400001928E-02 0. -1.
    10030    2    1    2    0    0  0.00000000000E+00  0.00000000000E+00 -0.68556679649E+03  0.14715211229E+04  0.13020647383E+04 0.  0.
        3    1    3    3  502    0  0.48171479036E+03 -0.33196740818E+03 -0.66560065585E+03  0.88615785423E+03  0.10100000352E+00 0. -1.
       -3    1    3    3    0  502 -0.48171479036E+03  0.33196740818E+03 -0.19966140636E+02  0.58536326868E+03  0.10100000352E+00 0.  1.
</event>
<event>
 5   0  0.1103241E-03  0.1304847E+04  0.7818609E-02  0.9025731E-01
        2   -1    0    0  501    0  0.00000000000E+00  0.00000000000E+00  0.13239800843E+04  0.13239800844E+04  0.25500000920E-02 0. -1.
       -2   -1    0    0    0  501  0.00000000000E+00  0.00000000000E+00 -0.32149739576E+03  0.32149739577E+03  0.25500000920E-02 0.  1.
    10030    2    1    2    0    0  0.00000000000E+00  0.00000000000E+00  0.10024826886E+04  0.16454774801E+04  0.13048465798E+04 0.  0.
        4    1    3    3  502    0  0.23986003871E+03 -0.10168150781E+03 -0.25305513481E+03  0.36319482561E+03  0.12699999809E+01 0.  1.
       -4    1    3    3    0  502 -0.23986003871E+03  0.10168150781E+03  0.12555378234E+04  0.12822826545E+04  0.12699999809E+01 0. -1.
</event>
<event>
 5   0  0.5710383E-04  0.1303226E+04  0.7818609E-02  0.9027011E-01
        1   -1    0    0  501    0  0.00000000000E+00  0.00000000000E+00  0.50588955636E+03  0.50588955638E+03  0.50400001928E-02 0. -1.
       -1   -1    0    0    0  501  0.00000000000E+00  0.00000000000E+00 -0.83931216342E+03  0.83931216343E+03  0.50400001928E-02 0.  1.
    10030    2    1    2    0    0  0.00000000000E+00  0.00000000000E+00 -0.33342260706E+03  0.13452017198E+04  0.13032256259E+04 0.  0.
        1    1    3    3  502    0  0.56659707637E+03  0.17061228889E+03  0.11494846725E+03  0.60278847884E+03  0.50400001928E-02 0.  1.
       -1    1    3    3    0  502 -0.56659707637E+03 -0.17061228889E+03 -0.44837107431E+03  0.74241324097E+03  0.50400001928E-02 0. -1.
</event>
<event>
 5   0  0.5812938E-04  0.1295621E+04  0.7818609E-02  0.9033045E-01
        1   -1    0    0  501    0  0.00000000000E+00  0.00000000000E+00  0.44509182555E+03  0.44509182558E+03  0.50400001928E-02 0.  1.
       -1   -1    0    0    0  501  0.00000000000E+00  0.00000000000E+00 -0.94285784602E+03  0.94285784603E+03  0.50400001928E-02 0. -1.
    10030    2    1    2    0    0  0.00000000000E+00  0.00000000000E+00 -0.49776602047E+03  0.13879496716E+04  0.12956208086E+04 0.  0.
        5    1    3    3  502    0 -0.10576957107E+02  0.55873061380E+03  0.10209961662E+03  0.56810051270E+03  0.46999998093E+01 0.  1.
       -5    1    3    3    0  502  0.10576957107E+02 -0.55873061380E+03 -0.59986563709E+03  0.81984915892E+03  0.46999998093E+01 0. -1.
</event>
<event>
 5   0  0.5710383E-04  0.1282691E+04  0.7818609E-02  0.9043405E-01
       -1   -1    0    0    0  501  0.00000000000E+00  0.00000000000E+00  0.62315189665E+03  0.62315189667E+03  0.50400001928E-02 0.  1.
        1   -1    0    0  501    0  0.00000000000E+00  0.00000000000E+00 -0.66007073459E+03  0.66007073461E+03  0.50400001928E-02 0. -1.
    10030    2    1    2    0    0  0.00000000000E+00  0.00000000000E+00 -0.36918837937E+02  0.12832226313E+04  0.12826914363E+04 0.  0.
        1    1    3    3  502    0  0.14354685384E+03  0.59927361136E+03  0.15934929658E+03  0.63649568645E+03  0.50400001928E-02 0. -1.
       -1    1    3    3    0  502 -0.14354685384E+03 -0.59927361136E+03 -0.19626813452E+03  0.64672694483E+03  0.50400001928E-02 0.  1.
</event>
<event>
 5   0  0.5563545E-04  0.1267739E+04  0.7818609E-02  0.9055547E-01
       -1   -1    0    0    0  501  0.00000000000E+00  0.00000000000E+00  0.28026471243E+03  0.28026471248E+03  0.50400001928E-02 0. -1.
        1   -1    0    0  501    0  0.00000000000E+00  0.00000000000E+00 -0.14336119029E+04  0.14336119029E+04  0.50400001928E-02 0.  1.
    10030    2    1    2    0    0  0.00000000000E+00  0.00000000000E+00 -0.11533471905E+04  0.17138766154E+04  0.12677394492E+04 0.  0.
        2    1    3    3  502    0  0.32780375415E+03 -0.49171688538E+03 -0.88658391439E+03  0.10654913579E+04  0.25500000920E-02 0. -1.
       -2    1    3    3    0  502 -0.32780375415E+03  0.49171688538E+03 -0.26676327608E+03  0.64838525745E+03  0.25500000920E-02 0.  1.
</event>
<event>
 5   0  0.1081574E-03  0.1297027E+04  0.7818609E-02  0.9031926E-01
        2   -1    0    0  501    0  0.00000000000E+00  0.00000000000E+00  0.22187369561E+04  0.22187369561E+04  0.25500000920E-02 0. -1.
       -2   -1    0    0    0  501  0.00000000000E+00  0.00000000000E+00 -0.18955358828E+03  0.18955358830E+03  0.25500000920E-02 0.  1.
    10030    2    1    2    0    0  0.00000000000E+00  0.00000000000E+00  0.20291833678E+04  0.24082905444E+04  0.12970266790E+04 0.  0.
        5    1    3    3  502    0  0.48703409760E+03 -0.36060448788E+03  0.58588239120E+03  0.84292234234E+03  0.46999998093E+01 0.  1.
       -5    1    3    3    0  502 -0.48703409760E+03  0.36060448788E+03  0.14433009766E+04  0.15653682021E+04  0.46999998093E+01 0. -1.
</event>
<event>
 5   0  0.1103241E-03  0.1270727E+04  0.7818609E-02  0.9053106E-01
        2   -1    0    0  501    0  0.00000000000E+00  0.00000000000E+00  0.60376009801E+03  0.60376009802E+03  0.25500000920E-02 0.  1.
       -2   -1    0    0    0  501  0.00000000000E+00  0.00000000000E+00 -0.66862144768E+03  0.66862144769E+03  0.25500000920E-02 0. -1.
    10030    2    1    2    0    0  0.00000000000E+00  0.00000000000E+00 -0.64861349670E+02  0.12723815457E+04  0.12707272733E+04 0.  0.
        4    1    3    3  502    0 -0.17355255639E+02  0.49197285237E+03 -0.43463362320E+03  0.65669360564E+03  0.12699999809E+01 0. -1.
       -4    1    3    3    0  502  0.17355255639E+02 -0.49197285237E+03  0.36977227353E+03  0.61568794006E+03  0.12699999809E+01 0.  1.
</event>
<event>
 5   0  0.5766027E-04  0.1292415E+04  0.7818609E-02  0.9035602E-01
        1   -1    0    0  501    0  0.00000000000E+00  0.00000000000E+00  0.44063930456E+03  0.44063930459E+03  0.50400001928E-02 0.  1.
       -1   -1    0    0    0  501  0.00000000000E+00  0.00000000000E+00 -0.94767780291E+03  0.94767780292E+03  0.50400001928E-02 0. -1.
    10030    2    1    2    0    0  0.00000000000E+00  0.00000000000E+00 -0.50703849835E+03  0.13883171075E+04  0.12924149303E+04 0.  0.
        3    1    3    3  502    0  0.32177299914E+03 -0.26761687707E+02  0.34777592292E+03  0.47455468986E+03  0.10100000352E+00 0.  1.
       -3    1    3    3    0  502 -0.32177299914E+03  0.26761687707E+02 -0.85481442127E+03  0.91376241765E+03  0.10100000352E+00 0. -1.
</event>
<event>
 5   0  0.5563545E-04  0.1301340E+04  0.7818609E-02  0.9028503E-01
        1   -1    0    0  501    0  0.00000000000E+00  0.00000000000E+00  0.60129633393E+03  0.60129633395E+03  0.50400001928E-02 0. -1.
       -1   -1    0    0    0  501  0.00000000000E+00  0.00000000000E+00 -0.70409812160E+03  0.70409812162E+03  0.50400001928E-02 0.  1.
    10030    2    1    2    0    0  0.00000000000E+00  0.00000000000E+00 -0.10280178767E+03  0.13053944556E+04  0.13013402618E+04 0.  0.
        2    1    3    3  502    0 -0.26680480355E+03  0.16219622317E+03  0.52123585962E+03  0.60760121739E+03  0.25500000920E-02 0. -1.
       -2    1    3    3    0  502  0.26680480355E+03 -0.16219622317E+03 -0.62403764729E+03  0.69779323818E+03  0.25500000920E-02 0.  1.
</event>
<event>
 5   0  0.1103241E-03  0.1382178E+04  0.7818609E-02  0.8966821E-01
       -2   -1    0    0    0  501  0.00000000000E+00  0.00000000000E+00  0.14017417569E+04  0.14017417569E+04  0.25500000920E-02 0. -1.
        2   -1    0    0  501    0  0.00000000000E+00  0.00000000000E+00 -0.34072206640E+03  0.34072206641E+03  0.25500000920E-02 0.  1.
    10030    2    1    2    0    0  0.00000000000E+00  0.00000000000E+00  0.10610196905E+04  0.17424638233E+04  0.13821784950E+04 0.  0.
        4    1    3    3  502    0  0.16490307610E+03 -0.60060948128E+03  0.90803205168E+03  0.11011124344E+04  0.12699999809E+01 0. -1.
       -4    1    3    3    0  502 -0.16490307610E+03  0.60060948128E+03  0.15298763885E+03  0.64135138890E+03  0.12699999809E+01 0.  1.
</event>
<event>
 5   0  0.5710383E-04  0.1305498E+04  0.7818609E-02  0.9025217E-01
        1   -1    0    0  501    0  0.00000000000E+00  0.00000000000E+00  0.20413225150E+04  0.20413225150E+04  0.50400001928E-02 0.  1.
       -1   -1    0    0    0  501  0.00000000000E+00  0.00000000000E+00 -0.20872791765E+03  0.20872791771E+03  0.50400001928E-02 0. -1.
    10030    2    1    2    0    0  0.00000000000E+00  0.00000000000E+00  0.18325945973E+04  0.22500504327E+04  0.13054976030E+04 0.  0.
        1    1    3    3  502    0 -0.62871081498E+03  0.15280320981E+03  0.76748571566E+03  0.10038229095E+04  0.50400001928E-02 0.  1.
       -1    1    3    3    0  502  0.62871081498E+03 -0.15280320981E+03  0.10651088817E+04  0.12462275232E+04  0.50400001928E-02 0. -1.
</event>
<event>
 5   0  0.1101619E-03  0.1203243E+04  0.7818609E-02  0.9110022E-01
       -2   -1    0    0    0  501  0.00000000000E+00  0.00000000000E+00  0.44616710717E+03  0.44616710718E+03  0.25500000920E-02 0.  1.
        2   -1    0    0  501    0  0.00000000000E+00  0.00000000000E+00 -0.81123995434E+03  0.81123995435E+03  0.25500000920E-02 0. -1.
    10030    2    1    2    0    0  0.00000000000E+00  0.00000000000E+00 -0.36507284717E+03  0.12574070615E+04  0.12032432566E+04 0.  0.
        1    1    3    3  502    0 -0.58387057728E+03 -0.14468253902E+03 -0.17154161951E+03  0.62551132312E+03  0.50400001928E-02 0. -1.
       -1    1    3    3    0  502  0.58387057728E+03  0.14468253902E+03 -0.19353122766E+03  0.63189573840E+03  0.50400001928E-02 0.  1.
</event>
<event>
 5   0  0.5710383E-04  0.1307902E+04  0.7818609E-02  0.9023322E-01
        1   -1    0    0  501    0  0.00000000000E+00  0.00000000000E+00  0.17998131685E+04  0.17998131686E+04  0.50400001928E-02 0. -1.
       -1   -1    0    0    0  501  0.00000000000E+00  0.00000000000E+00 -0.23760912421E+03  0.23760912426E+03  0.50400001928E-02 0.  1.
    10030    2    1    2    0    0  0.00000000000E+00  0.00000000000E+00  0.15622040443E+04  0.20374222928E+04  0.13079021841E+04 0.  0.
        1    1    3    3  502    0  0.37235710310E+03 -0.52783421567E+03  0.62229062376E+03  0.89694168813E+03  0.50400001928E-02 0.  1.
       -1    1    3    3    0  502 -0.37235710310E+03  0.52783421567E+03  0.93991342057E+03  0.11404806047E+04  0.50400001928E-02 0. -1.
</event>
<event>
 5   0  0.5710383E-04  0.1277488E+04  0.7818609E-02  0.9047610E-01
        1   -1    0    0  501    0  0.00000000000E+00  0.00000000000E+00  0.83554182989E+03  0.83554182990E+03  0.50400001928E-02 0.  1.
       -1   -1    0    0    0  501  0.00000000000E+00  0.00000000000E+00 -0.48829895447E+03  0.48829895449E+03  0.50400001928E-02 0. -1.
    10030    2    1    2    0    0  0.00000000000E+00  0.00000000000E+00  0.34724287542E+03  0.13238407844E+04  0.12774884766E+04 0.  0.
        1    1    3    3  502    0 -0.15898717870E+02  0.61494535817E+03  0.35186118745E+03  0.70867260284E+03  0.50400001928E-02 0.  1.
       -1    1    3    3    0  502  0.15898717870E+02 -0.61494535817E+03 -0.46183120271E+01  0.61516818155E+03  0.50400001928E-02 0. -1.
</event>
<event>
 5   0  0.1081574E-03  0.1306819E+04  0.7818609E-02  0.9024175E-01
        2   -1    0    0  501    0  0.00000000000E+00  0.00000000000E+00  0.11539846885E+04  0.11539846885E+04  0.25500000920E-02 0.  1.
       -2   -1    0    0    0  501  0.00000000000E+00  0.00000000000E+00 -0.36997395998E+03  0.36997395999E+03  0.25500000920E-02 0. -1.
    10030    2    1    2    0    0  0.00000000000E+00  0.00000000000E+00  0.78401072848E+03  0.15239586484E+04  0.13068194748E+04 0.  0.
        5    1    3    3  502    0  0.39918404933E+03 -0.50920617851E+03  0.28586983562E+03  0.70737719102E+03  0.46999998093E+01 0. -1.
       -5    1    3    3    0  502 -0.39918404933E+03  0.50920617851E+03  0.49814089286E+03  0.81658145742E+03  0.46999998093E+01 0.  1.
</event>
<event>
 5   0  0.5812938E-04  0.1308689E+04  0.7818609E-02  0.9022703E-01
       -1   -1    0    0    0  501  0.00000000000E+00  0.00000000000E+00  0.49114366825E+03  0.49114366828E+03  0.50400001928E-02 0. -1.
        1   -1    0    0  501    0  0.00000000000E+00  0.00000000000E+00 -0.87177514391E+03  0.87177514393E+03  0.50400001928E-02 0.  1.
    10030    2    1    2    0    0  0.00000000000E+00  0.00000000000E+00 -0.38063147566E+03  0.13629188122E+04  0.13086891794E+04 0.  0.
        5    1    3    3  502    0 -0.26633538176E+03 -0.48261716815E+03  0.17684236375E+03  0.57892070112E+03  0.46999998093E+01 0. -1.
       -5    1    3    3    0  502  0.26633538176E+03  0.48261716815E+03 -0.55747383941E+03  0.78399811109E+03  0.46999998093E+01 0.  1.
</event>
<event>
 5   0  0.1046253E-03  0.1313082E+04  0.7818609E-02  0.9019255E-01
       -2   -1    0    0    0  501  0.00000000000E+00  0.00000000000E+00  0.24201689915E+03  0.24201689917E+03  0.25500000920E-02 0.  1.
        2   -1    0    0  501    0  0.00000000000E+00  0.00000000000E+00 -0.17810571867E+04  0.17810571867E+04  0.25500000920E-02 0. -1.
    10030    2    1    2    0    0  0.00000000000E+00  0.00000000000E+00 -0.15390402875E+04  0.20230740859E+04  0.13130817759E+04 0.  0.
        3    1    3    3  502    0 -0.53593955467E+03  0.11363142287E+03 -0.13269550804E+04  0.14356019999E+04  0.10100000352E+00 0. -1.
       -3    1    3    3    0  502  0.53593955467E+03 -0.11363142287E+03 -0.21208520719E+03  0.58747208600E+03  0.10100000352E+00 0.  1.
</event>
<event>
 5   0  0.1103241E-03  0.1294619E+04  0.7818609E-02  0.9033843E-01
        2   -1    0    0  501    0  0.00000000000E+00  0.00000000000E+00  0.48077558176E+03  0.48077558177E+03  0.25500000920E-02 0. -1.
       -2   -1    0    0    0  501  0.00000000000E+00  0.00000000000E+00 -0.87152887576E+03  0.87152887577E+03  0.25500000920E-02 0.  1.
    10030    2    1    2    0    0  0.00000000000E+00  0.00000000000E+00 -0.39075329400E+03  0.13523044575E+04  0.12946193298E+04 0.  0.
        4    1    3    3  502    0  0.63037543152E+03 -0.33659372209E+02 -0.45811276503E+02  0.63293477070E+03  0.12699999809E+01 0.  1.
       -4    1    3    3    0  502 -0.63037543152E+03  0.33659372209E+02 -0.34494201750E+03  0.71936968684E+03  0.12699999809E+01 0. -1.
</event>
<event>
 5   0  0.1046253E-03  0.1285246E+04  0.7818609E-02  0.9041348E-01
       -2   -1    0    0    0  501  0.00000000000E+00  0.00000000000E+00  0.36165185758E+03  0.36165185759E+03  0.25500000920E-02 0.  1.
        2   -1    0    0  501    0  0.00000000000E+00  0.00000000000E+00 -0.11418832679E+04  0.11418832679E+04  0.25500000920E-02 0. -1.
    10030    2    1    2    0    0  0.00000000000E+00  0.00000000000E+00 -0.78023141029E+03  0.15035351255E+04  0.12852458208E+04 0.  0.
        3    1    3    3  502    0  0.50303786303E+03  0.18583533870E+03  0.24118107615E+02  0.53680867920E+03  0.10100000352E+00 0. -1.
       -3    1    3    3    0  502 -0.50303786303E+03 -0.18583533870E+03 -0.80434951790E+03  0.96672644626E+03  0.10100000352E+00 0.  1.
</event>
<event>
 5   0  0.1101619E-03  0.1302388E+04  0.7818609E-02  0.9027673E-01
        2   -1    0    0  501    0  0.00000000000E+00  0.00000000000E+00  0.63729036345E+03  0.63729036345E+03  0.25500000920E-02 0. -1.
       -2   -1    0    0    0  501  0.00000000000E+00  0.00000000000E+00 -0.66540146162E+03  0.66540146162E+03  0.25500000920E-02 0.  1.
    10030    2    1    2    0    0  0.00000000000E+00  0.00000000000E+00 -0.28111098172E+02  0.13026918251E+04  0.13023884817E+04 0.  0.
        1    1    3    3  502    0 -0.63960241255E+02  0.11714691062E+03 -0.65157330357E+03  0.66510306050E+03  0.50400001928E-02 0.  1.
       -1    1    3    3    0  502  0.63960241255E+02 -0.11714691062E+03  0.62346220540E+03  0.63758876458E+03  0.50400001928E-02 0. -1.
</event>
<event>
 5   0  0.5563545E-04  0.1308782E+04  0.7818609E-02  0.9022630E-01
       -1   -1    0    0    0  501  0.00000000000E+00  0.00000000000E+00  0.28074406406E+03  0.28074406410E+03  0.50400001928E-02 0. -1.
        1   -1    0    0  501    0  0.00000000000E+00  0.00000000000E+00 -0.15253297997E+04  0.15253297997E+04  0.50400001928E-02 0.  1.
    10030    2    1    2    0    0  0.00000000000E+00  0.00000000000E+00 -0.12445857356E+04  0.18060738638E+04  0.13087815510E+04 0.  0.
        2    1    3    3  502    0 -0.54008164057E+03  0.50384411192E+02 -0.11274442955E+04  0.12511424407E+04  0.25500000920E-02 0.  1.
       -2    1    3    3    0  502  0.54008164057E+03 -0.50384411192E+02 -0.11714144011E+03  0.55493142312E+03  0.25500000920E-02 0. -1.
</event>
<event>
 5   0  0.6006119E-04  0.1295694E+04  0.7818609E-02  0.9032987E-01
       -1   -1    0    0    0  501  0.00000000000E+00  0.00000000000E+00  0.43598483796E+03  0.43598483799E+03  0.50400001928E-02 0.  1.
        1   -1    0    0  501    0  0.00000000000E+00  0.00000000000E+00 -0.96266181905E+03  0.96266181906E+03  0.50400001928E-02 0. -1.
    10030    2    1    2    0    0  0.00000000000E+00  0.00000000000E+00 -0.52667698109E+03  0.13986466570E+04  0.12956943424E+04 0.  0.
        4    1    3    3  502    0  0.40536163450E+02 -0.26903659857E+03 -0.89800104096E+03  0.93831303645E+03  0.12699999809E+01 0. -1.
       -4    1    3    3    0  502 -0.40536163450E+02  0.26903659857E+03  0.37132405987E+03  0.46033362060E+03  0.12699999809E+01 0.  1.
</event>
<event>
 5   0  0.1081574E-03  0.1291766E+04  0.7818609E-02  0.9036120E-01
       -2   -1    0    0    0  501  0.00000000000E+00  0.00000000000E+00  0.31073505773E+03  0.31073505774E+03  0.25500000920E-02 0.  1.
        2   -1    0    0  501    0  0.00000000000E+00  0.00000000000E+00 -0.13425107387E+04  0.13425107387E+04  0.25500000920E-02 0. -1.
    10030    2    1    2    0    0  0.00000000000E+00  0.00000000000E+00 -0.10317756810E+04  0.16532457965E+04  0.12917664679E+04 0.  0.
        5    1    3    3  502    0 -0.35058652707E+03 -0.53522150191E+03 -0.62870275657E+03  0.89702966238E+03  0.46999998093E+01 0. -1.
       -5    1    3    3    0  502  0.35058652707E+03  0.53522150191E+03 -0.40307292442E+03  0.75621613409E+03  0.46999998093E+01 0.  1.
</event>
<event>
 5   0  0.5710383E-04  0.1304624E+04  0.7818609E-02  0.9025906E-01
       -1   -1    0    0    0  501  0.00000000000E+00  0.00000000000E+00  0.20869525700E+03  0.20869525706E+03  0.50400001928E-02 0.  1.
        1   -1    0    0  501    0  0.00000000000E+00  0.00000000000E+00 -0.20389106345E+04  0.20389106345E+04  0.50400001928E-02 0. -1.
    10030    2    1    2    0    0  0.00000000000E+00  0.00000000000E+00 -0.18302153775E+04  0.22476058916E+04  0.13046240515E+04 0.  0.
        1    1    3    3  502    0  0.21718215086E+03  0.51299863756E+03 -0.33043280425E+03  0.64770481467E+03  0.50400001928E-02 0.  1.
       -1    1    3    3    0  502 -0.21718215086E+03 -0.51299863756E+03 -0.14997825732E+04  0.15999010769E+04  0.50400001928E-02 0. -1.
</event>
<event>
 5   0  0.6006119E-04  0.1275708E+04  0.7818609E-02  0.9049054E-01
        1   -1    0    0  501    0  0.00000000000E+00  0.00000000000E+00  0.13393399135E+04  0.13393399135E+04  0.50400001928E-02 0. -1.
       -1   -1    0    0    0  501  0.00000000000E+00  0.00000000000E+00 -0.30377501978E+03  0.30377501982E+03  0.50400001928E-02 0.  1.
    10030    2    1    2    0    0  0.00000000000E+00  0.00000000000E+00  0.10355648937E+04  0.16431149333E+04  0.12757084444E+04 0.  0.
        4    1    3    3  502    0  0.36045454519E+03 -0.48457386123E+02 -0.15713645965E+03  0.39619323224E+03  0.12699999809E+01 0.  1.
       -4    1    3    3    0  502 -0.36045454519E+03  0.48457386123E+02  0.11927013534E+04  0.12469217011E+04  0.12699999809E+01 0. -1.
</event>
<event>
 5   0  0.5812938E-04  0.1303358E+04  0.7818609E-02  0.9026906E-01
       -1   -1    0    0    0  501  0.00000000000E+00  0.00000000000E+00  0.24651826765E+03  0.24651826770E+03  0.50400001928E-02 0.  1.
        1   -1    0    0  501    0  0.00000000000E+00  0.00000000000E+00 -0.17227347224E+04  0.17227347224E+04  0.50400001928E-02 0. -1.
    10030    2    1    2    0    0  0.00000000000E+00  0.00000000000E+00 -0.14762164547E+04  0.19692529901E+04  0.13033580927E+04 0.  0.
        5    1    3    3  502    0 -0.53834612489E+03 -0.25673253348E+03 -0.11348050656E+04  0.12820034207E+04  0.46999998093E+01 0. -1.
       -5    1    3    3    0  502  0.53834612489E+03  0.25673253348E+03 -0.34141138918E+03  0.68724956937E+03  0.46999998093E+01 0.  1.
</event>
<event>
 5   0  0.1103241E-03  0.1300877E+04  0.7818609E-02  0.9028870E-01
        2   -1    0    0  501    0  0.00000000000E+00  0.00000000000E+00  0.67760100709E+03  0.67760100710E+03  0.25500000920E-02 0. -1.
       -2   -1    0    0    0  501  0.00000000000E+00  0.00000000000E+00 -0.62436486143E+03  0.62436486144E+03  0.25500000920E-02 0.  1.
    10030    2    1    2    0    0  0.00000000000E+00  0.00000000000E+00  0.53236145661E+02  0.13019658685E+04  0.13008770256E+04 0.  0.
        4    1    3    3  502    0 -0.21265421635E+03 -0.20497412379E+03 -0.55337749804E+03  0.62726746719E+03  0.12699999809E+01 0.  1.
       -4    1    3    3    0  502  0.21265421635E+03  0.20497412379E+03  0.60661364370E+03  0.67469840134E+03  0.12699999809E+01 0. -1.
</event>
<event>
 5   0  0.5710383E-04  0.1298693E+04  0.7818609E-02  0.9030602E-01
        1   -1    0    0  501    0  0.00000000000E+00  0.00000000000E+00  0.18316396595E+04  0.18316396595E+04  0.50400001928E-02 0.  1.
       -1   -1    0    0    0  501  0.00000000000E+00  0.00000000000E+00 -0.23020398177E+03  0.23020398182E+03  0.50400001928E-02 0. -1.
    10030    2    1    2    0    0  0.00000000000E+00  0.00000000000E+00  0.16014356777E+04  0.20618436413E+04  0.12986927933E+04 0.  0.
        1    1    3    3  502    0 -0.32576132820E+03  0.15020791212E+03 -0.58610835274E+02  0.36348052197E+03  0.50400001928E-02 0. -1.
       -1    1    3    3    0  502  0.32576132820E+03 -0.15020791212E+03  0.16600465130E+04  0.16983631193E+04  0.50400001928E-02 0.  1.
</event>
<event>
 5   0  0.1031295E-03  0.1294207E+04  0.7818609E-02  0.9034171E-01
        2   -1    0    0  501    0  0.00000000000E+00  0.00000000000E+00  0.21701666250E+04  0.21701666250E+04  0.25500000920E-02 0.  1.
       -2   -1    0    0    0  501  0.00000000000E+00  0.00000000000E+00 -0.19295438554E+03  0.19295438556E+03  0.25500000920E-02 0. -1.
    10030    2    1    2    0    0  0.00000000000E+00  0.00000000000E+00  0.19772122395E+04  0.23631210106E+04  0.12942073523E+04 0.  0.
        2    1    3    3  502    0 -0.38092601610E+03  0.39862005528E+03  0.37010479073E+03  0.66406335115E+03  0.25500000920E-02 0. -1.
       -2    1    3    3    0  502  0.38092601610E+03 -0.39862005528E+03  0.16071074487E+04  0.16990576594E+04  0.25500000920E-02 0.  1.
</event>
<event>
 5   0  0.1081574E-03  0.1229798E+04  0.7818609E-02  0.9087167E-01
        2   -1    0    0  501    0  0.00000000000E+00  0.00000000000E+00  0.11443680276E+04  0.11443680276E+04  0.25500000920E-02 0.  1.
       -2   -1    0    0    0  501  0.00000000000E+00  0.00000000000E+00 -0.33040116763E+03  0.33040116764E+03  0.25500000920E-02 0. -1.
    10030    2    1    2    0    0  0.00000000000E+00  0.00000000000E+00  0.81396686001E+03  0.14747691953E+04  0.12297975972E+04 0.  0.
        5    1    3    3  502    0 -0.86012585766E+02  0.84583790838E+02 -0.31604949209E+03  0.33832226358E+03  0.46999998093E+01 0. -1.
       -5    1    3    3    0  502  0.86012585766E+02 -0.84583790838E+02  0.11300163521E+04  0.11364469317E+04  0.46999998093E+01 0.  1.
</event>
<event>
 5   0  0.5766027E-04  0.1312862E+04  0.7818609E-02  0.9019427E-01
       -1   -1    0    0    0  501  0.00000000000E+00  0.00000000000E+00  0.21366089789E+03  0.21366089795E+03  0.50400001928E-02 0. -1.
        1   -1    0    0  501    0  0.00000000000E+00  0.00000000000E+00 -0.20167546451E+04  0.20167546451E+04  0.50400001928E-02 0.  1.
    10030    2    1    2    0    0  0.00000000000E+00  0.00000000000E+00 -0.18030937472E+04  0.22304155430E+04  0.13128619248E+04 0.  0.
        3    1    3    3  502    0 -0.18524227130E+03  0.23919968315E+03 -0.18912472072E+04  0.19152929793E+04  0.10100000352E+00 0.  1.
       -3    1    3    3    0  502  0.18524227130E+03 -0.23919968315E+03  0.88153459998E+02  0.31512256378E+03  0.10100000352E+00 0. -1.
</event>
<event>
 5   0  0.4012375E-04  0.1298610E+04  0.7818609E-02  0.9030668E-01
       -3   -1    0    0    0  501  0.00000000000E+00  0.00000000000E+00  0.75032227154E+03  0.75032227834E+03  0.10100000352E+00 0.  1.
        3   -1    0    0  501    0  0.00000000000E+00  0.00000000000E+00 -0.56188778156E+03  0.56188779064E+03  0.10100000352E+00 0. -1.
    10030    2    1    2    0    0  0.00000000000E+00  0.00000000000E+00  0.18843448998E+03  0.13122100690E+04  0.12986099138E+04 0.  0.
        3    1    3    3  502    0  0.47409973955E+02 -0.45650118666E+03  0.55832675451E+03  0.72275155763E+03  0.10100000352E+00 0.  1.
       -3    1    3    3    0  502 -0.47409973955E+02  0.45650118666E+03 -0.36989226453E+03  0.58945851135E+03  0.10100000352E+00 0. -1.
</event>
<event>
 5   0  0.5812938E-04  0.1267803E+04  0.7818609E-02  0.9055494E-01
       -1   -1    0    0    0  501  0.00000000000E+00  0.00000000000E+00  0.97944669569E+03  0.97944669570E+03  0.50400001928E-02 0.  1.
        1   -1    0    0  501    0  0.00000000000E+00  0.00000000000E+00 -0.41026366845E+03  0.41026366848E+03  0.50400001928E-02 0. -1.
    10030    2    1    2    0    0  0.00000000000E+00  0.00000000000E+00  0.56918302724E+03  0.13897103642E+04  0.12678034461E+04 0.  0.
        5    1    3    3  502    0  0.53611688319E+03 -0.24731466940E+03  0.53747697657E+03  0.79842936349E+03  0.46999998093E+01 0.  1.
       -5    1    3    3    0  502 -0.53611688319E+03  0.24731466940E+03  0.31706050670E+02  0.59128100070E+03  0.46999998093E+01 0. -1.
</event>
<event>
 5   0  0.1031295E-03  0.1307888E+04  0.7818609E-02  0.9023333E-01
       -2   -1    0    0    0  501  0.00000000000E+00  0.00000000000E+00  0.77435615669E+03  0.77435615669E+03  0.25500000920E-02 0. -1.
        2   -1    0    0  501    0  0.00000000000E+00  0.00000000000E+00 -0.55225601797E+03  0.55225601798E+03  0.25500000920E-02 0.  1.
    10030    2    1    2    0    0  0.00000000000E+00  0.00000000000E+00  0.22210013872E+03  0.13266121747E+04  0.13078881414E+04 0.  0.
        2    1    3    3  502    0  0.26215795209E+03 -0.25058613637E+01  0.71871758504E+03  0.76504120036E+03  0.25500000920E-02 0. -1.
       -2    1    3    3    0  502 -0.26215795209E+03  0.25058613637E+01 -0.49661744633E+03  0.56157097431E+03  0.25500000920E-02 0.  1.
</event>
<event>
 5   0  0.6006119E-04  0.1311591E+04  0.7818609E-02  0.9020423E-01
        1   -1    0    0  501    0  0.00000000000E+00  0.00000000000E+00  0.58550478217E+03  0.58550478219E+03  0.50400001928E-02 0. -1.
       -1   -1    0    0    0  501  0.00000000000E+00  0.00000000000E+00 -0.73452511733E+03  0.73452511734E+03  0.50400001928E-02 0.  1.
    10030    2    1    2    0    0  0.00000000000E+00  0.00000000000E+00 -0.14902033516E+03  0.13200298995E+04  0.13115913523E+04 0.  0.
        4    1    3    3  502    0 -0.52318763475E+03 -0.24101805139E+03 -0.38997757389E+03  0.69562858143E+03  0.12699999809E+01 0. -1.
       -4    1    3    3    0  502  0.52318763475E+03  0.24101805139E+03  0.24095723873E+03  0.62440131811E+03  0.12699999809E+01 0.  1.
</event>
<event>
 5   0  0.1046253E-03  0.1298275E+04  0.7818609E-02  0.9030934E-01
       -2   -1    0    0    0  501  0.00000000000E+00  0.00000000000E+00  0.54025897489E+03  0.54025897489E+03  0.25500000920E-02 0.  1.
        2   -1    0    0  501    0  0.00000000000E+00  0.00000000000E+00 -0.77995844064E+03  0.77995844064E+03  0.25500000920E-02 0. -1.
    10030    2    1    2    0    0  0.00000000000E+00  0.00000000000E+00 -0.23969946575E+03  0.13202174155E+04  0.12982750827E+04 0.  0.
        3    1    3    3  502    0 -0.25475100288E+03 -0.58863316357E+03 -0.22150151639E+03  0.67856466655E+03  0.10100000352E+00 0. -1.
       -3    1    3    3    0  502  0.25475100288E+03  0.58863316357E+03 -0.18197949360E+02  0.64165274899E+03  0.10100000352E+00 0.  1.
</event>
<event>
 5   0  0.1081574E-03  0.1302784E+04  0.7818609E-02  0.9027360E-01
       -2   -1    0    0    0  501  0.00000000000E+00  0.00000000000E+00  0.26206245937E+03  0.26206245938E+03  0.25500000920E-02 0.  1.
        2   -1    0    0  501    0  0.00000000000E+00  0.00000000000E+00 -0.16191248907E+04  0.16191248907E+04  0.25500000920E-02 0. -1.
    10030    2    1    2    0    0  0.00000000000E+00  0.00000000000E+00 -0.13570624313E+04  0.18811873501E+04  0.13027844809E+04 0.  0.
        5    1    3    3  502    0  0.34986635131E+03 -0.26045266552E+03 -0.13771040093E+04  0.14445343877E+04  0.46999998093E+01 0. -1.
       -5    1    3    3    0  502 -0.34986635131E+03  0.26045266552E+03  0.20041577935E+02  0.43665296243E+03  0.46999998093E+01 0.  1.
</event>
<event>
 5   0  0.1101619E-03  0.1309765E+04  0.7818609E-02  0.9021857E-01
       -2   -1    0    0    0  501  0.00000000000E+00  0.00000000000E+00  0.35026312386E+03  0.35026312387E+03  0.25500000920E-02 0. -1.
        2   -1    0    0  501    0  0.00000000000E+00  0.00000000000E+00 -0.12244251609E+04  0.12244251609E+04  0.25500000920E-02 0.  1.
    10030    2    1    2    0    0  0.00000000000E+00  0.00000000000E+00 -0.87416203700E+03  0.15746882847E+04  0.13097648366E+04 0.  0.
        1    1    3    3  502    0 -0.38485337418E+03 -0.15581409257E+03  0.17179479885E+03  0.44933684915E+03  0.50400001928E-02 0. -1.
       -1    1    3    3    0  502  0.38485337418E+03  0.15581409257E+03 -0.10459568359E+04  0.11253514356E+04  0.50400001928E-02 0.  1.
</event>
<event>
 5   0  0.6006119E-04  0.1299309E+04  0.7818609E-02  0.9030113E-01
       -1   -1    0    0    0  501  0.00000000000E+00  0.00000000000E+00  0.11309349406E+04  0.11309349407E+04  0.50400001928E-02 0. -1.
        1   -1    0    0  501    0  0.00000000000E+00  0.00000000000E+00 -0.37318753893E+03  0.37318753897E+03  0.50400001928E-02 0.  1.
    10030    2    1    2    0    0  0.00000000000E+00  0.00000000000E+00  0.75774740172E+03  0.15041224796E+04  0.12993087812E+04 0.  0.
        4    1    3    3  502    0 -0.42418219236E+03 -0.46722803968E+03  0.20022038423E+03  0.66205920320E+03  0.12699999809E+01 0.  1.
       -4    1    3    3    0  502  0.42418219236E+03  0.46722803968E+03  0.55752701748E+03  0.84206327643E+03  0.12699999809E+01 0. -1.
</event>
<event>
 5   0  0.1101619E-03  0.1301739E+04  0.7818609E-02  0.9028187E-01
        2   -1    0    0  501    0  0.00000000000E+00  0.00000000000E+00  0.68083026620E+03  0.68083026620E+03  0.25500000920E-02 0. -1.
       -2   -1    0    0    0  501  0.00000000000E+00  0.00000000000E+00 -0.62222744451E+03  0.62222744452E+03  0.25500000920E-02 0.  1.
    10030    2    1    2    0    0  0.00000000000E+00  0.00000000000E+00  0.58602821685E+02  0.13030577107E+04  0.13017392622E+04 0.  0.
        1    1    3    3  502    0  0.33721323333E+03 -0.51795230305E+03  0.23357652768E+03  0.66071578403E+03  0.50400001928E-02 0. -1.
       -1    1    3    3    0  502 -0.33721323333E+03  0.51795230305E+03 -0.17497370600E+03  0.64234192669E+03  0.50400001928E-02 0.  1.
</event>
<event>
 5   0  0.6006119E-04  0.1298250E+04  0.7818609E-02  0.9030954E-01
        1   -1    0    0  501    0  0.00000000000E+00  0.00000000000E+00  0.13375419150E+04  0.13375419150E+04  0.50400001928E-02 0. -1.
       -1   -1    0    0    0  501  0.00000000000E+00  0.00000000000E+00 -0.31502793623E+03  0.31502793627E+03  0.50400001928E-02 0.  1.
    10030    2    1    2    0    0  0.00000000000E+00  0.00000000000E+00  0.10225139788E+04  0.16525698513E+04  0.12982496973E+04 0.  0.
        4    1    3    3  502    0 -0.53499684795E+03  0.25226559674E+03  0.17087985366E+03  0.61567937752E+03  0.12699999809E+01 0.  1.
       -4    1    3    3    0  502  0.53499684795E+03 -0.25226559674E+03  0.85163412510E+03  0.10368904738E+04  0.12699999809E+01 0. -1.
</event>
<event>
 5   0  0.1103241E-03  0.1307917E+04  0.7818609E-02  0.9023311E-01
        2   -1    0    0  501    0  0.00000000000E+00  0.00000000000E+00  0.42234251842E+03  0.42234251842E+03  0.25500000920E-02 0.  1.
       -2   -1    0    0    0  501  0.00000000000E+00  0.00000000000E+00 -0.10125942019E+04  0.10125942019E+04  0.25500000920E-02 0. -1.
    10030    2    1    2    0    0  0.00000000000E+00  0.00000000000E+00 -0.59025168351E+03  0.14349367204E+04  0.13079167946E+04 0.  0.
        4    1    3    3  502    0 -0.46830044036E+03  0.86973535599E+02 -0.78673953300E+03  0.91969038487E+03  0.12699999809E+01 0. -1.
       -4    1    3    3    0  502  0.46830044036E+03 -0.86973535599E+02  0.19648784948E+03  0.51524633549E+03  0.12699999809E+01 0.  1.
</event>
<event>
 5   0  0.5710383E-04  0.1362958E+04  0.7818609E-02  0.8981077E-01
        1   -1    0    0  501    0  0.00000000000E+00  0.00000000000E+00  0.99027549503E+03  0.99027549504E+03  0.50400001928E-02 0.  1.
       -1   -1    0    0    0  501  0.00000000000E+00  0.00000000000E+00 -0.46897415075E+03  0.46897415078E+03  0.50400001928E-02 0. -1.
    10030    2    1    2    0    0  0.00000000000E+00  0.00000000000E+00  0.52130134428E+03  0.14592496458E+04  0.13629579734E+04 0.  0.
        1    1    3    3  502    0 -0.86166007690E+02 -0.21052649650E+03 -0.42712582350E+03  0.48392401855E+03  0.50400001928E-02 0. -1.
       -1    1    3    3    0  502  0.86166007690E+02  0.21052649650E+03  0.94842716778E+03  0.97532562727E+03  0.50400001928E-02 0.  1.
</event>
<event>
 5   0  0.1081574E-03  0.1318533E+04  0.7818609E-02  0.9014996E-01
       -2   -1    0    0    0  501  0.00000000000E+00  0.00000000000E+00  0.64092823229E+03  0.64092823229E+03  0.25500000920E-02 0.  1.
        2   -1    0    0  501    0  0.00000000000E+00  0.00000000000E+00 -0.67812918931E+03  0.67812918932E+03  0.25500000920E-02 0. -1.
    10030    2    1    2    0    0  0.00000000000E+00  0.00000000000E+00 -0.37200957027E+02  0.13190574216E+04  0.13185327339E+04 0.  0.
        5    1    3    3  502    0 -0.15569715312E+02  0.55261131377E+03  0.34069195160E+03  0.64939570065E+03  0.46999998093E+01 0.  1.
       -5    1    3    3    0  502  0.15569715312E+02 -0.55261131377E+03 -0.37789290862E+03  0.66966172096E+03  0.46999998093E+01 0. -1.
</event>
<event>
 5   0  0.1081574E-03  0.1271816E+04  0.7818609E-02  0.9052218E-01
       -2   -1    0    0    0  501  0.00000000000E+00  0.00000000000E+00  0.35360516504E+03  0.35360516505E+03  0.25500000920E-02 0.  1.
        2   -1    0    0  501    0  0.00000000000E+00  0.00000000000E+00 -0.11435898307E+04  0.11435898307E+04  0.25500000920E-02 0. -1.
    10030    2    1    2    0    0  0.00000000000E+00  0.00000000000E+00 -0.78998466570E+03  0.14971949958E+04  0.12718164503E+04 0.  0.
        5    1    3    3  502    0 -0.54683754179E+03  0.12525446416E+03 -0.42541876764E+02  0.56262943327E+03  0.46999998093E+01 0.  1.
       -5    1    3    3    0  502  0.54683754179E+03 -0.12525446416E+03 -0.74744278894E+03  0.93456556252E+03  0.46999998093E+01 0. -1.
</event>
<event>
 5   0  0.1031295E-03  0.1170337E+04  0.7818609E-02  0.9139224E-01
       -2   -1    0    0    0  501  0.00000000000E+00  0.00000000000E+00  0.19857558827E+03  0.19857558828E+03  0.25500000920E-02 0.  1.
        2   -1    0    0  501    0  0.00000000000E+00  0.00000000000E+00 -0.17243931950E+04  0.17243931950E+04  0.25500000920E-02 0. -1.
    10030    2    1    2    0    0  0.00000000000E+00  0.00000000000E+00 -0.15258176067E+04  0.19229687833E+04  0.11703373755E+04 0.  0.
        2    1    3    3  502    0 -0.21944480820E+03 -0.15292208253E+03  0.92257532950E+02  0.28293575165E+03  0.25500000920E-02 0.  1.
       -2    1    3    3    0  502  0.21944480820E+03  0.15292208253E+03 -0.16180751397E+04  0.16400330316E+04  0.25500000920E-02 0. -1.
</event>
<event>
 5   0  0.1031295E-03  0.1307375E+04  0.7818609E-02  0.9023737E-01
       -2   -1    0    0    0  501  0.00000000000E+00  0.00000000000E+00  0.44774999598E+03  0.44774999599E+03  0.25500000920E-02 0.  1.
        2   -1    0    0  501    0  0.00000000000E+00  0.00000000000E+00 -0.95434292511E+03  0.95434292512E+03  0.25500000920E-02 0. -1.
    10030    2    1    2    0    0  0.00000000000E+00  0.00000000000E+00 -0.50659292914E+03  0.14020929211E+04  0.13073745307E+04 0.  0.
        2    1    3    3  502    0 -0.23418804187E+03 -0.13539550243E+01 -0.90780795811E+03  0.93752928539E+03  0.25500000920E-02 0. -1.
       -2    1    3    3    0  502  0.23418804187E+03  0.13539550243E+01  0.40121502897E+03  0.46456363572E+03  0.25500000920E-02 0.  1.
</event>
<event>
 5   0  0.1101619E-03  0.1317851E+04  0.7818609E-02  0.9015527E-01
        2   -1    0    0  501    0  0.00000000000E+00  0.00000000000E+00  0.12543279340E+04  0.12543279340E+04  0.25500000920E-02 0. -1.
       -2   -1    0    0    0  501  0.00000000000E+00  0.00000000000E+00 -0.34614795296E+03  0.34614795297E+03  0.25500000920E-02 0.  1.
    10030    2    1    2    0    0  0.00000000000E+00  0.00000000000E+00  0.90817998099E+03  0.16004758869E+04  0.13178513523E+04 0.  0.
        1    1    3    3  502    0  0.37845905112E+03 -0.53924249131E+03  0.43828667532E+03  0.79127045161E+03  0.50400001928E-02 0.  1.
       -1    1    3    3    0  502 -0.37845905112E+03  0.53924249131E+03  0.46989330568E+03  0.80920543532E+03  0.50400001928E-02 0. -1.
</event>
<event>
 5   0  0.5766027E-04  0.1304799E+04  0.7818609E-02  0.9025768E-01
       -1   -1    0    0    0  501  0.00000000000E+00  0.00000000000E+00  0.45886093779E+03  0.45886093781E+03  0.50400001928E-02 0.  1.
        1   -1    0    0  501    0  0.00000000000E+00  0.00000000000E+00 -0.92756836246E+03  0.92756836247E+03  0.50400001928E-02 0. -1.
    10030    2    1    2    0    0  0.00000000000E+00  0.00000000000E+00 -0.46870742467E+03  0.13864293003E+04  0.13047986644E+04 0.  0.
        3    1    3    3  502    0 -0.48759134136E+03  0.16035132631E+03  0.19353958656E+03  0.54855760480E+03  0.10100000352E+00 0.  1.
       -3    1    3    3    0  502  0.48759134136E+03 -0.16035132631E+03 -0.66224701123E+03  0.83787169549E+03  0.10100000352E+00 0. -1.
</event>
<event>
 5   0  0.5766027E-04  0.1296828E+04  0.7818609E-02  0.9032085E-01
       -1   -1    0    0    0  501  0.00000000000E+00  0.00000000000E+00  0.47355029554E+03  0.47355029556E+03  0.50400001928E-02 0.  1.
        1   -1    0    0  501    0  0.00000000000E+00  0.00000000000E+00 -0.88784765228E+03  0.88784765229E+03  0.50400001928E-02 0. -1.
    10030    2    1    2    0    0  0.00000000000E+00  0.00000000000E+00 -0.41429735674E+03  0.13613979479E+04  0.12968276958E+04 0.  0.
        3    1    3    3  502    0 -0.38342082812E+03 -0.52267603804E+03 -0.22336907883E+03  0.68563512727E+03  0.10100000352E+00 0.  1.
       -3    1    3    3    0  502  0.38342082812E+03  0.52267603804E+03 -0.19092827791E+03  0.67576282058E+03  0.10100000352E+00 0. -1.
</event>
<event>
 5   0  0.4012375E-04  0.1307859E+04  0.7818609E-02  0.9023356E-01
       -3   -1    0    0    0  501  0.00000000000E+00  0.00000000000E+00  0.21057997799E+04  0.21057997823E+04  0.10100000352E+00 0.  1.
        3   -1    0    0  501    0  0.00000000000E+00  0.00000000000E+00 -0.20306943635E+03  0.20306946147E+03  0.10100000352E+00 0. -1.
    10030    2    1    2    0    0  0.00000000000E+00  0.00000000000E+00  0.19027303435E+04  0.23088692438E+04  0.13078587174E+04 0.  0.
        1    1    3    3  502    0 -0.20859291101E+03  0.61679058969E+03  0.84424315183E+03  0.10661557736E+04  0.50400001928E-02 0.  1.
       -1    1    3    3    0  502  0.20859291101E+03 -0.61679058969E+03  0.10584871917E+04  0.12427134702E+04  0.50400001928E-02 0. -1.
</event>
<event>
 5   0  0.1046253E-03  0.1311407E+04  0.7818609E-02  0.9020568E-01
        2   -1    0    0  501    0  0.00000000000E+00  0.00000000000E+00  0.81285804440E+03  0.81285804441E+03  0.25500000920E-02 0. -1.
       -2   -1    0    0    0  501  0.00000000000E+00  0.00000000000E+00 -0.52893223840E+03  0.52893223841E+03  0.25500000920E-02 0.  1.
    10030    2    1    2    0    0  0.00000000000E+00  0.00000000000E+00  0.28392580600E+03  0.13417902828E+04  0.13114066111E+04 0.  0.
        3    1    3    3  502    0  0.17754551047E+03  0.45708889791E+03 -0.30343192794E+03  0.57664860528E+03  0.10100000352E+00 0.  1.
       -3    1    3    3    0  502 -0.17754551047E+03 -0.45708889791E+03  0.58735773394E+03  0.76514167753E+03  0.10100000352E+00 0. -1.
</event>
<event>
 5   0  0.5710383E-04  0.1322640E+04  0.7818609E-02  0.9011802E-01
       -1   -1    0    0    0  501  0.00000000000E+00  0.00000000000E+00  0.73068403722E+03  0.73068403723E+03  0.50400001928E-02 0.  1.
        1   -1    0    0  501    0  0.00000000000E+00  0.00000000000E+00 -0.59854064819E+03  0.59854064822E+03  0.50400001928E-02 0. -1.
    10030    2    1    2    0    0  0.00000000000E+00  0.00000000000E+00  0.13214338902E+03  0.13292246854E+04  0.13226399318E+04 0.  0.
        1    1    3    3  502    0  0.32920211237E+03 -0.56064511844E+03  0.18769949489E+03  0.67670383479E+03  0.50400001928E-02 0.  1.
       -1    1    3    3    0  502 -0.32920211237E+03  0.56064511844E+03 -0.55556105868E+02  0.65252085066E+03  0.50400001928E-02 0. -1.
</event>
<event>
 5   0  0.1031295E-03  0.1311630E+04  0.7818609E-02  0.9020393E-01
       -2   -1    0    0    0  501  0.00000000000E+00  0.00000000000E+00  0.20519405071E+03  0.20519405072E+03  0.25500000920E-02 0.  1.
        2   -1    0    0  501    0  0.00000000000E+00  0.00000000000E+00 -0.20960329692E+04  0.20960329692E+04  0.25500000920E-02 0. -1.
    10030    2    1    2    0    0  0.00000000000E+00  0.00000000000E+00 -0.18908389185E+04  0.23012270199E+04  0.13116302762E+04 0.  0.
        2    1    3    3  502    0 -0.43512992472E+03  0.14505304550E+03 -0.17678096902E+04  0.18263432147E+04  0.25500000920E-02 0. -1.
       -2    1    3    3    0  502  0.43512992472E+03 -0.14505304550E+03 -0.12302922834E+03  0.47488380519E+03  0.25500000920E-02 0.  1.
</event>
<event>
 5   0  0.6006119E-04  0.1312354E+04  0.7818609E-02  0.9019825E-01
       -1   -1    0    0    0  501  0.00000000000E+00  0.00000000000E+00  0.37814760517E+03  0.37814760521E+03  0.50400001928E-02 0.  1.
        1   -1    0    0  501    0  0.00000000000E+00  0.00000000000E+00 -0.11386256828E+04  0.11386256828E+04  0.50400001928E-02 0. -1.
    10030    2    1    2    0    0  0.00000000000E+00  0.00000000000E+00 -0.76047807761E+03  0.15167732880E+04  0.13123544874E+04 0.  0.
        4    1    3    3  502    0 -0.37430261631E+03  0.29091345175E+03  0.14411900974E+03  0.49548459800E+03  0.12699999809E+01 0.  1.
       -4    1    3    3    0  502  0.37430261631E+03 -0.29091345175E+03 -0.90459708735E+03  0.10212886900E+04  0.12699999809E+01 0. -1.
</event>
<event>
 5   0  0.5710383E-04  0.1304129E+04  0.7818609E-02  0.9026298E-01
        1   -1    0    0  501    0  0.00000000000E+00  0.00000000000E+00  0.83947508194E+03  0.83947508195E+03  0.50400001928E-02 0.  1.
       -1   -1    0    0    0  501  0.00000000000E+00  0.00000000000E+00 -0.50649253381E+03  0.50649253383E+03  0.50400001928E-02 0. -1.
    10030    2    1    2    0    0  0.00000000000E+00  0.00000000000E+00  0.33298254813E+03  0.13459676158E+04  0.13041286154E+04 0.  0.
        1    1    3    3  502    0 -0.15906239311E+03  0.32153504976E+03  0.72848072968E+03  0.81201589065E+03  0.50400001928E-02 0.  1.
       -1    1    3    3    0  502  0.15906239311E+03 -0.32153504976E+03 -0.39549818156E+03  0.53395172513E+03  0.50400001928E-02 0. -1.
</event>
<event>
 5   0  0.5563545E-04  0.1306414E+04  0.7818609E-02  0.9024494E-01
       -1   -1    0    0    0  501  0.00000000000E+00  0.00000000000E+00  0.68601996138E+03  0.68601996140E+03  0.50400001928E-02 0.  1.
        1   -1    0    0  501    0  0.00000000000E+00  0.00000000000E+00 -0.62196359075E+03  0.62196359077E+03  0.50400001928E-02 0. -1.
    10030    2    1    2    0    0  0.00000000000E+00  0.00000000000E+00  0.64056370633E+02  0.13079835522E+04  0.13064140822E+04 0.  0.
        2    1    3    3  502    0 -0.13403015816E+03  0.60756186947E+03 -0.16716793915E+03  0.64423646933E+03  0.25500000920E-02 0. -1.
       -2    1    3    3    0  502  0.13403015816E+03 -0.60756186947E+03  0.23122430979E+03  0.66374708283E+03  0.25500000920E-02 0.  1.
</event>
<event>
 5   0  0.5766027E-04  0.1302308E+04  0.7818609E-02  0.9027737E-01
       -1   -1    0    0    0  501  0.00000000000E+00  0.00000000000E+00  0.26541350875E+03  0.26541350880E+03  0.50400001928E-02 0. -1.
        1   -1    0    0  501    0  0.00000000000E+00  0.00000000000E+00 -0.15975141176E+04  0.15975141176E+04  0.50400001928E-02 0.  1.
    10030    2    1    2    0    0  0.00000000000E+00  0.00000000000E+00 -0.13321006088E+04  0.18629276264E+04  0.13023084539E+04 0.  0.
        3    1    3    3  502    0 -0.86328505574E+02  0.63703582229E+03 -0.81425924241E+03  0.10374417448E+04  0.10100000352E+00 0. -1.
       -3    1    3    3    0  502  0.86328505574E+02 -0.63703582229E+03 -0.51784136643E+03  0.82548588161E+03  0.10100000352E+00 0.  1.
</event>
<event>
 5   0  0.1103241E-03  0.1313019E+04  0.7818609E-02  0.9019304E-01
        2   -1    0    0  501    0  0.00000000000E+00  0.00000000000E+00  0.10260750305E+04  0.10260750305E+04  0.25500000920E-02 0.  1.
       -2   -1    0    0    0  501  0.00000000000E+00  0.00000000000E+00 -0.42005196043E+03  0.42005196044E+03  0.25500000920E-02 0. -1.
    10030    2    1    2    0    0  0.00000000000E+00  0.00000000000E+00  0.60602307012E+03  0.14461269910E+04  0.13130191592E+04 0.  0.
        4    1    3    3  502    0  0.40059495701E+03 -0.13227374022E+03 -0.25100388322E+03  0.49089431065E+03  0.12699999809E+01 0. -1.
       -4    1    3    3    0  502 -0.40059495701E+03  0.13227374022E+03  0.85702695334E+03  0.95523268034E+03  0.12699999809E+01 0.  1.
</event>
<event>
 5   0  0.1103241E-03  0.1296997E+04  0.7818609E-02  0.9031950E-01
       -2   -1    0    0    0  501  0.00000000000E+00  0.00000000000E+00  0.42759455820E+03  0.42759455821E+03  0.25500000920E-02 0. -1.
        2   -1    0    0  501    0  0.00000000000E+00  0.00000000000E+00 -0.98352609346E+03  0.98352609346E+03  0.25500000920E-02 0.  1.
    10030    2    1    2    0    0  0.00000000000E+00  0.00000000000E+00 -0.55593153526E+03  0.14111206517E+04  0.12969971556E+04 0.  0.
        4    1    3    3  502    0  0.47431759802E+03  0.12021316165E+03 -0.74099543040E+03  0.88797760602E+03  0.12699999809E+01 0.  1.
       -4    1    3    3    0  502 -0.47431759802E+03 -0.12021316165E+03  0.18506389514E+03  0.52314304565E+03  0.12699999809E+01 0. -1.
</event>
<event>
 5   0  0.5563545E-04  0.1297683E+04  0.7818609E-02  0.9031404E-01
       -1   -1    0    0    0  501  0.00000000000E+00  0.00000000000E+00  0.11765095638E+04  0.11765095638E+04  0.50400001928E-02 0. -1.
        1   -1    0    0  501    0  0.00000000000E+00  0.00000000000E+00 -0.35783428889E+03  0.35783428893E+03  0.50400001928E-02 0.  1.
    10030    2    1    2    0    0  0.00000000000E+00  0.00000000000E+00  0.81867527493E+03  0.15343438528E+04  0.12976832636E+04 0.  0.
        2    1    3    3  502    0  0.26745267083E+03 -0.35643128133E+03  0.96696253430E+03  0.10647021801E+04  0.25500000920E-02 0. -1.
       -2    1    3    3    0  502 -0.26745267083E+03  0.35643128133E+03 -0.14828725938E+03  0.46964167271E+03  0.25500000920E-02 0.  1.
</event>
<event>
 5   0  0.1103241E-03  0.1268598E+04  0.7818609E-02  0.9054845E-01
        2   -1    0    0  501    0  0.00000000000E+00  0.00000000000E+00  0.14832208299E+04  0.14832208299E+04  0.25500000920E-02 0. -1.
       -2   -1    0    0    0  501  0.00000000000E+00  0.00000000000E+00 -0.27125765920E+03  0.27125765921E+03  0.25500000920E-02 0.  1.
    10030    2    1    2    0    0  0.00000000000E+00  0.00000000000E+00  0.12119631707E+04  0.17544784891E+04  0.12685976674E+04 0.  0.
        4    1    3    3  502    0  0.24356078581E+03 -0.57941964903E+03  0.48794371270E+03  0.79570073880E+03  0.12699999809E+01 0. -1.
       -4    1    3    3    0  502 -0.24356078581E+03  0.57941964903E+03  0.72401945803E+03  0.95877775035E+03  0.12699999809E+01 0.  1.
</event>
<event>
 5   0  0.1101619E-03  0.1298546E+04  0.7818609E-02  0.9030719E-01
        2   -1    0    0  501    0  0.00000000000E+00  0.00000000000E+00  0.62004267189E+03  0.62004267190E+03  0.25500000920E-02 0.  1.
       -2   -1    0    0    0  501  0.00000000000E+00  0.00000000000E+00 -0.67988132254E+03  0.67988132254E+03  0.25500000920E-02 0. -1.
    10030    2    1    2    0    0  0.00000000000E+00  0.00000000000E+00 -0.59838650649E+02  0.12999239944E+04  0.12985460050E+04 0.  0.
        1    1    3    3  502    0 -0.52895175558E+03 -0.32087588266E+03 -0.22711602895E+03  0.65903943922E+03  0.50400001928E-02 0. -1.
       -1    1    3    3    0  502  0.52895175558E+03  0.32087588266E+03  0.16727737831E+03  0.64088455523E+03  0.50400001928E-02 0.  1.
</event>
<event>
 5   0  0.1103241E-03  0.1306603E+04  0.7818609E-02  0.9024345E-01
        2   -1    0    0  501    0  0.00000000000E+00  0.00000000000E+00  0.54673846339E+03  0.54673846340E+03  0.25500000920E-02 0.  1.
       -2   -1    0    0    0  501  0.00000000000E+00  0.00000000000E+00 -0.78063434445E+03  0.78063434446E+03  0.25500000920E-02 0. -1.
    10030    2    1    2    0    0  0.00000000000E+00  0.00000000000E+00 -0.23389588106E+03  0.13273728079E+04  0.13066029572E+04 0.  0.
        4    1    3    3  502    0  0.78137492922E+02  0.35264430016E+03 -0.66997038958E+03  0.76113428910E+03  0.12699999809E+01 0. -1.
       -4    1    3    3    0  502 -0.78137492922E+02 -0.35264430016E+03  0.43607450851E+03  0.56623851875E+03  0.12699999809E+01 0.  1.
</event>
<event>
 5   0  0.5766027E-04  0.1302596E+04  0.7818609E-02  0.9027509E-01
        1   -1    0    0  501    0  0.00000000000E+00  0.00000000000E+00  0.10583175104E+04  0.10583175104E+04  0.50400001928E-02 0. -1.
       -1   -1    0    0    0  501  0.00000000000E+00  0.00000000000E+00 -0.40081482181E+03  0.40081482184E+03  0.50400001928E-02 0.  1.
    10030    2    1    2    0    0  0.00000000000E+00  0.00000000000E+00  0.65750268856E+03  0.14591323322E+04  0.13025963985E+04 0.  0.
        3    1    3    3  502    0 -0.32226884685E+02  0.10541662672E+03 -0.39028938976E+03  0.40555770890E+03  0.10100000352E+00 0.  1.
       -3    1    3    3    0  502  0.32226884685E+02 -0.10541662672E+03  0.10477920783E+04  0.10535746233E+04  0.10100000352E+00 0. -1.
</event>
<event>
 5   0  0.1081574E-03  0.1301851E+04  0.7818609E-02  0.9028098E-01
       -2   -1    0    0    0  501  0.00000000000E+00  0.00000000000E+00  0.98140434855E+03  0.98140434856E+03  0.25500000920E-02 0.  1.
        2   -1    0    0  501    0  0.00000000000E+00  0.00000000000E+00 -0.43173259942E+03  0.43173259942E+03  0.25500000920E-02 0. -1.
    10030    2    1    2    0    0  0.00000000000E+00  0.00000000000E+00  0.54967174914E+03  0.14131369480E+04  0.13018513748E+04 0.  0.
        5    1    3    3  502    0 -0.45493236256E+03  0.44588156288E+03  0.12957438767E+03  0.65006571557E+03  0.46999998093E+01 0. -1.
       -5    1    3    3    0  502  0.45493236256E+03 -0.44588156288E+03  0.42009736146E+03  0.76307123241E+03  0.46999998093E+01 0.  1.
</event>
<event>
 5   0  0.5766027E-04  0.1309926E+04  0.7818609E-02  0.9021730E-01
       -1   -1    0    0    0  501  0.00000000000E+00  0.00000000000E+00  0.22460776976E+03  0.22460776981E+03  0.50400001928E-02 0.  1.
        1   -1    0    0  501    0  0.00000000000E+00  0.00000000000E+00 -0.19098923452E+04  0.19098923452E+04  0.50400001928E-02 0. -1.
    10030    2    1    2    0    0  0.00000000000E+00  0.00000000000E+00 -0.16852845755E+04  0.21345001150E+04  0.13099261967E+04 0.  0.
        3    1    3    3  502    0 -0.40158797957E+02  0.50858722685E+03 -0.17335789425E+03  0.53881969718E+03  0.10100000352E+00 0.  1.
       -3    1    3    3    0  502  0.40158797957E+02 -0.50858722685E+03 -0.15119266812E+04  0.15956804178E+04  0.10100000352E+00 0. -1.
</event>
<event>
 5   0  0.5766027E-04  0.1307295E+04  0.7818609E-02  0.9023800E-01
       -1   -1    0    0    0  501  0.00000000000E+00  0.00000000000E+00  0.34460963479E+03  0.34460963483E+03  0.50400001928E-02 0.  1.
        1   -1    0    0  501    0  0.00000000000E+00  0.00000000000E+00 -0.12398236395E+04  0.12398236395E+04  0.50400001928E-02 0. -1.
    10030    2    1    2    0    0  0.00000000000E+00  0.00000000000E+00 -0.89521400467E+03  0.15844332743E+04  0.13072951796E+04 0.  0.
        3    1    3    3  502    0  0.24335357986E+03  0.34172287516E+03  0.15991455046E+03  0.44896343045E+03  0.10100000352E+00 0.  1.
       -3    1    3    3    0  502 -0.24335357986E+03 -0.34172287516E+03 -0.10551285551E+04  0.11354698438E+04  0.10100000352E+00 0. -1.
</event>
<event>
 5   0  0.1081574E-03  0.1313684E+04  0.7818609E-02  0.9018784E-01
       -2   -1    0    0    0  501  0.00000000000E+00  0.00000000000E+00  0.37684300158E+03  0.37684300159E+03  0.25500000920E-02 0.  1.
        2   -1    0    0  501    0  0.00000000000E+00  0.00000000000E+00 -0.11448834625E+04  0.11448834625E+04  0.25500000920E-02 0. -1.
    10030    2    1    2    0    0  0.00000000000E+00  0.00000000000E+00 -0.76804046095E+03  0.15217264641E+04  0.13136838592E+04 0.  0.
        5    1    3    3  502    0  0.75940727979E+01 -0.22699808069E+03  0.32988789219E+03  0.40054202025E+03  0.46999998093E+01 0.  1.
       -5    1    3    3    0  502 -0.75940727979E+01  0.22699808069E+03 -0.10979283531E+04  0.11211844439E+04  0.46999998093E+01 0. -1.
</event>
<event>
 5   0  0.5710383E-04  0.1308100E+04  0.7818609E-02  0.9023166E-01
        1   -1    0    0  501    0  0.00000000000E+00  0.00000000000E+00  0.84063663341E+03  0.84063663342E+03  0.50400001928E-02 0. -1.
       -1   -1    0    0    0  501  0.00000000000E+00  0.00000000000E+00 -0.50887798328E+03  0.50887798331E+03  0.50400001928E-02 0.  1.
    10030    2    1    2    0    0  0.00000000000E+00  0.00000000000E+00  0.33175865013E+03  0.13495146167E+04  0.13081001104E+04 0.  0.
        1    1    3    3  502    0 -0.61511909008E+03  0.17922996056E+03  0.30152045963E+03  0.70810271948E+03  0.50400001928E-02 0.  1.
       -1    1    3    3    0  502  0.61511909008E+03 -0.17922996056E+03  0.30238190494E+02  0.64141189725E+03  0.50400001928E-02 0. -1.
</event>
<event>
 5   0  0.6006119E-04  0.1279147E+04  0.7818609E-02  0.9046267E-01
       -1   -1    0    0    0  501  0.00000000000E+00  0.00000000000E+00  0.95530721453E+03  0.95530721454E+03  0.50400001928E-02 0.  1.
        1   -1    0    0  501    0  0.00000000000E+00  0.00000000000E+00 -0.42819134652E+03  0.42819134654E+03  0.50400001928E-02 0. -1.
    10030    2    1    2    0    0  0.00000000000E+00  0.00000000000E+00  0.52711586801E+03  0.13834985611E+04  0.12791470323E+04 0.  0.
        4    1    3    3  502    0 -0.55467389941E+02 -0.29119698908E+03 -0.34940290484E+03  0.45820990890E+03  0.12699999809E+01 0. -1.
       -4    1    3    3    0  502  0.55467389941E+02  0.29119698908E+03  0.87651877286E+03  0.92528865219E+03  0.12699999809E+01 0.  1.
</event>
<event>
 5   0  0.5812938E-04  0.1304575E+04  0.7818609E-02  0.9025945E-01
        1   -1    0    0  501    0  0.00000000000E+00  0.00000000000E+00  0.10477768320E+04  0.10477768321E+04  0.50400001928E-02 0.  1.
       -1   -1    0    0    0  501  0.00000000000E+00  0.00000000000E+00 -0.40607758246E+03  0.40607758249E+03  0.50400001928E-02 0. -1.
    10030    2    1    2    0    0  0.00000000000E+00  0.00000000000E+00  0.64169924958E+03  0.14538544145E+04  0.13045745405E+04 0.  0.
        5    1    3    3  502    0  0.82958065249E+02 -0.19699537580E+03 -0.36591963345E+03  0.42380241483E+03  0.46999998093E+01 0. -1.
       -5    1    3    3    0  502 -0.82958065249E+02  0.19699537580E+03  0.10076188830E+04  0.10300519997E+04  0.46999998093E+01 0.  1.
</event>
<event>
 5   0  0.6006119E-04  0.1310350E+04  0.7818609E-02  0.9021397E-01
        1   -1    0    0  501    0  0.00000000000E+00  0.00000000000E+00  0.58944587353E+03  0.58944587355E+03  0.50400001928E-02 0. -1.
       -1   -1    0    0    0  501  0.00000000000E+00  0.00000000000E+00 -0.72823407546E+03  0.72823407548E+03  0.50400001928E-02 0.  1.
    10030    2    1    2    0    0  0.00000000000E+00  0.00000000000E+00 -0.13878820194E+03  0.13176799490E+04  0.13103504428E+04 0.  0.
        4    1    3    3  502    0  0.53427688150E+03  0.36728900844E+03  0.25473170164E+02  0.64884782278E+03  0.12699999809E+01 0. -1.
       -4    1    3    3    0  502 -0.53427688150E+03 -0.36728900844E+03 -0.16426137210E+03  0.66883212624E+03  0.12699999809E+01 0.  1.
</event>
<event>
 5   0  0.5710383E-04  0.1273015E+04  0.7818609E-02  0.9051243E-01
       -1   -1    0    0    0  501  0.00000000000E+00  0.00000000000E+00  0.21274545180E+04  0.21274545180E+04  0.50400001928E-02 0.  1.
        1   -1    0    0  501    0  0.00000000000E+00  0.00000000000E+00 -0.19043491100E+03  0.19043491107E+03  0.50400001928E-02 0. -1.
    10030    2    1    2    0    0  0.00000000000E+00  0.00000000000E+00  0.19370196070E+04  0.23178894291E+04  0.12730147083E+04 0.  0.
        1    1    3    3  502    0  0.23943558908E+03  0.42715180337E+03  0.17089091924E+04  0.17776835186E+04  0.50400001928E-02 0.  1.
       -1    1    3    3    0  502 -0.23943558908E+03 -0.42715180337E+03  0.22811041462E+03  0.54020591049E+03  0.50400001928E-02 0. -1.
</event>
<event>
 5   0  0.1103241E-03  0.1296231E+04  0.7818609E-02  0.9032560E-01
        2   -1    0    0  501    0  0.00000000000E+00  0.00000000000E+00  0.88148017607E+03  0.88148017607E+03  0.25500000920E-02 0. -1.
       -2   -1    0    0    0  501  0.00000000000E+00  0.00000000000E+00 -0.47653186044E+03  0.47653186044E+03  0.25500000920E-02 0.  1.
    10030    2    1    2    0    0  0.00000000000E+00  0.00000000000E+00  0.40494831563E+03  0.13580120365E+04  0.12962305169E+04 0.  0.
        4    1    3    3  502    0  0.28461133762E+03 -0.33666859469E+03 -0.29525087575E+03  0.53058839855E+03  0.12699999809E+01 0.  1.
       -4    1    3    3    0  502 -0.28461133762E+03  0.33666859469E+03  0.70019919138E+03  0.82742363796E+03  0.12699999809E+01 0. -1.
</event>
<event>
 5   0  0.6006119E-04  0.1320523E+04  0.7818609E-02  0.9013447E-01
        1   -1    0    0  501    0  0.00000000000E+00  0.00000000000E+00  0.15026492861E+04  0.15026492861E+04  0.50400001928E-02 0.  1.
       -1   -1    0    0    0  501  0.00000000000E+00  0.00000000000E+00 -0.29011773472E+03  0.29011773477E+03  0.50400001928E-02 0. -1.
    10030    2    1    2    0    0  0.00000000000E+00  0.00000000000E+00  0.12125315514E+04  0.17927670209E+04  0.13205229374E+04 0.  0.
        4    1    3    3  502    0  0.79021909054E+02 -0.14449128620E+03  0.14743157247E+04  0.14834859834E+04  0.12699999809E+01 0.  1.
       -4    1    3    3    0  502 -0.79021909054E+02  0.14449128620E+03 -0.26178417328E+03  0.30928103754E+03  0.12699999809E+01 0. -1.
</event>
<event>
 5   0  0.5710383E-04  0.1304094E+04  0.7818609E-02  0.9026325E-01
        1   -1    0    0  501    0  0.00000000000E+00  0.00000000000E+00  0.11987810895E+04  0.11987810895E+04  0.50400001928E-02 0. -1.
       -1   -1    0    0    0  501  0.00000000000E+00  0.00000000000E+00 -0.35466457389E+03  0.35466457393E+03  0.50400001928E-02 0.  1.
    10030    2    1    2    0    0  0.00000000000E+00  0.00000000000E+00  0.84411651562E+03  0.15534456634E+04  0.13040938376E+04 0.  0.
        1    1    3    3  502    0  0.39911582165E+03  0.23578967054E+03 -0.12417862480E+03  0.47990680210E+03  0.50400001928E-02 0.  1.
       -1    1    3    3    0  502 -0.39911582165E+03 -0.23578967054E+03  0.96829514042E+03  0.10735388613E+04  0.50400001928E-02 0. -1.
</event>
<event>
 5   0  0.5766027E-04  0.1302381E+04  0.7818609E-02  0.9027679E-01
        1   -1    0    0  501    0  0.00000000000E+00  0.00000000000E+00  0.41175078012E+03  0.41175078016E+03  0.50400001928E-02 0. -1.
       -1   -1    0    0    0  501  0.00000000000E+00  0.00000000000E+00 -0.10298676396E+04  0.10298676396E+04  0.50400001928E-02 0.  1.
    10030    2    1    2    0    0  0.00000000000E+00  0.00000000000E+00 -0.61811685948E+03  0.14416184198E+04  0.13023805958E+04 0.  0.
        3    1    3    3  502    0 -0.38889100363E+03  0.67877094797E+02 -0.88231107611E+03  0.96660041275E+03  0.10100000352E+00 0.  1.
       -3    1    3    3    0  502  0.38889100363E+03 -0.67877094797E+02  0.26419421662E+03  0.47501800703E+03  0.10100000352E+00 0. -1.
</event>
<event>
 5   0  0.5766027E-04  0.1353584E+04  0.7818609E-02  0.8988120E-01
        1   -1    0    0  501    0  0.00000000000E+00  0.00000000000E+00  0.27325338890E+03  0.27325338895E+03  0.50400001928E-02 0.  1.
       -1   -1    0    0    0  501  0.00000000000E+00  0.00000000000E+00 -0.16762734348E+04  0.16762734348E+04  0.50400001928E-02 0. -1.
    10030    2    1    2    0    0  0.00000000000E+00  0.00000000000E+00 -0.14030200459E+04  0.19495268237E+04  0.13535839787E+04 0.  0.
        3    1    3    3  502    0  0.67404436783E+03 -0.57383179623E+02 -0.73098273729E+03  0.99597410183E+03  0.10100000352E+00 0.  1.
       -3    1    3    3    0  502 -0.67404436783E+03  0.57383179623E+02 -0.67203730859E+03  0.95355272191E+03  0.10100000352E+00 0. -1.
</event>
<event>
 5   0  0.1103241E-03  0.1291432E+04  0.7818609E-02  0.9036387E-01
        2   -1    0    0  501    0  0.00000000000E+00  0.00000000000E+00  0.13627567260E+04  0.13627567260E+04  0.25500000920E-02 0. -1.
       -2   -1    0    0    0  501  0.00000000000E+00  0.00000000000E+00 -0.30596008432E+03  0.30596008433E+03  0.25500000920E-02 0.  1.
    10030    2    1    2    0    0  0.00000000000E+00  0.00000000000E+00  0.10567966417E+04  0.16687168103E+04  0.12914320157E+04 0.  0.
        4    1    3    3  502    0  0.34942988675E+03  0.94891837385E+02  0.12192327830E+04  0.12718631604E+04  0.12699999809E+01 0. -1.
       -4    1    3    3    0  502 -0.34942988675E+03 -0.94891837385E+02 -0.16243614137E+03  0.39685364995E+03  0.12699999809E+01 0.  1.
</event>
<event>
 5   0  0.5563545E-04  0.1299362E+04  0.7818609E-02  0.9030071E-01
       -1   -1    0    0    0  501  0.00000000000E+00  0.00000000000E+00  0.88599505178E+03  0.88599505180E+03  0.50400001928E-02 0. -1.
        1   -1    0    0  501    0  0.00000000000E+00  0.00000000000E+00 -0.47639708140E+03  0.47639708143E+03  0.50400001928E-02 0.  1.
    10030    2    1    2    0    0  0.00000000000E+00  0.00000000000E+00  0.40959797038E+03  0.13623921332E+04  0.12993620848E+04 0.  0.
        2    1    3    3  502    0  0.14283906749E+03  0.29451618305E+03 -0.38362137783E+03  0.50428974093E+03  0.25500000920E-02 0.  1.
       -2    1    3    3    0  502 -0.14283906749E+03 -0.29451618305E+03  0.79321934821E+03  0.85810239229E+03  0.25500000920E-02 0. -1.
</event>
<event>
 5   0  0.6006119E-04  0.1312396E+04  0.7818609E-02  0.9019792E-01
        1   -1    0    0  501    0  0.00000000000E+00  0.00000000000E+00  0.12870548039E+04  0.12870548039E+04  0.50400001928E-02 0.  1.
       -1   -1    0    0    0  501  0.00000000000E+00  0.00000000000E+00 -0.33455913396E+03  0.33455913400E+03  0.50400001928E-02 0. -1.
    10030    2    1    2    0    0  0.00000000000E+00  0.00000000000E+00  0.95249566994E+03  0.16216139379E+04  0.13123961911E+04 0.  0.
        4    1    3    3  502    0  0.52679563943E+03 -0.34670190098E+03  0.25220124809E+03  0.67920757968E+03  0.12699999809E+01 0. -1.
       -4    1    3    3    0  502 -0.52679563943E+03  0.34670190098E+03  0.70029442185E+03  0.94240635823E+03  0.12699999809E+01 0.  1.
</event>
<event>
 5   0  0.1103241E-03  0.1300399E+04  0.7818609E-02  0.9029248E-01
       -2   -1    0    0    0  501  0.00000000000E+00  0.00000000000E+00  0.21103104116E+03  0.21103104117E+03  0.25500000920E-02 0.  1.
        2   -1    0    0  501    0  0.00000000000E+00  0.00000000000E+00 -0.20033055431E+04  0.20033055431E+04  0.25500000920E-02 0. -1.
    10030    2    1    2    0    0  0.00000000000E+00  0.00000000000E+00 -0.17922745019E+04  0.22143365842E+04  0.13003994071E+04 0.  0.
        4    1    3    3  502    0 -0.48435168574E+03 -0.15868037416E+03 -0.20869419843E+03  0.55075484381E+03  0.12699999809E+01 0.  1.
       -4    1    3    3    0  502  0.48435168574E+03  0.15868037416E+03 -0.15835803035E+04  0.16635817404E+04  0.12699999809E+01 0. -1.
</event>
<event>
 5   0  0.1081574E-03  0.1291836E+04  0.7818609E-02  0.9036064E-01
       -2   -1    0    0    0  501  0.00000000000E+00  0.00000000000E+00  0.22386168599E+03  0.22386168601E+03  0.25500000920E-02 0. -1.
        2   -1    0    0  501    0  0.00000000000E+00  0.00000000000E+00 -0.18636956190E+04  0.18636956190E+04  0.25500000920E-02 0.  1.
    10030    2    1    2    0    0  0.00000000000E+00  0.00000000000E+00 -0.16398339330E+04  0.20875573050E+04  0.12918359702E+04 0.  0.
        5    1    3    3  502    0 -0.31706942557E+03 -0.52856339107E+03 -0.11319092036E+04  0.12888571737E+04  0.46999998093E+01 0.  1.
       -5    1    3    3    0  502  0.31706942557E+03  0.52856339107E+03 -0.50792472940E+03  0.79870013131E+03  0.46999998093E+01 0. -1.
</event>
<event>
 5   0  0.6006119E-04  0.1312538E+04  0.7818609E-02  0.9019681E-01
       -1   -1    0    0    0  501  0.00000000000E+00  0.00000000000E+00  0.49373569759E+03  0.49373569762E+03  0.50400001928E-02 0.  1.
        1   -1    0    0  501    0  0.00000000000E+00  0.00000000000E+00 -0.87230612940E+03  0.87230612941E+03  0.50400001928E-02 0. -1.
    10030    2    1    2    0    0  0.00000000000E+00  0.00000000000E+00 -0.37857043181E+03  0.13660418270E+04  0.13125375047E+04 0.  0.
        4    1    3    3  502    0  0.14263815603E+03  0.43294245396E+03  0.30208576205E+03  0.54684754048E+03  0.12699999809E+01 0.  1.
       -4    1    3    3    0  502 -0.14263815603E+03 -0.43294245396E+03 -0.68065619386E+03  0.81919428656E+03  0.12699999809E+01 0. -1.
</event>
<event>
 5   0  0.1103241E-03  0.1316738E+04  0.7818609E-02  0.9016396E-01
       -2   -1    0    0    0  501  0.00000000000E+00  0.00000000000E+00  0.20971268931E+03  0.20971268932E+03  0.25500000920E-02 0.  1.
        2   -1    0    0  501    0  0.00000000000E+00  0.00000000000E+00 -0.20668740039E+04  0.20668740039E+04  0.25500000920E-02 0. -1.
    10030    2    1    2    0    0  0.00000000000E+00  0.00000000000E+00 -0.18571613146E+04  0.22765866932E+04  0.13167379479E+04 0.  0.
        4    1    3    3  502    0 -0.52203469618E+03  0.23033444205E+03 -0.36071832888E+03  0.67505074246E+03  0.12699999809E+01 0.  1.
       -4    1    3    3    0  502  0.52203469618E+03 -0.23033444205E+03 -0.14964429857E+04  0.16015359508E+04  0.12699999809E+01 0. -1.
</event>
<event>
 5   0  0.1046253E-03  0.1302280E+04  0.7818609E-02  0.9027759E-01
        2   -1    0    0  501    0  0.00000000000E+00  0.00000000000E+00  0.51586915586E+03  0.51586915587E+03  0.25500000920E-02 0. -1.
       -2   -1    0    0    0  501  0.00000000000E+00  0.00000000000E+00 -0.82188187854E+03  0.82188187855E+03  0.25500000920E-02 0.  1.
    10030    2    1    2    0    0  0.00000000000E+00  0.00000000000E+00 -0.30601272268E+03  0.13377510344E+04  0.13022803245E+04 0.  0.
        3    1    3    3  502    0  0.72573142762E+02  0.59745645045E+03 -0.40829589022E+03  0.72727341173E+03  0.10100000352E+00 0.  1.
       -3    1    3    3    0  502 -0.72573142762E+02 -0.59745645045E+03  0.10228316754E+03  0.61047762268E+03  0.10100000352E+00 0. -1.
</event>
<event>
 5   0  0.5812938E-04  0.1299537E+04  0.7818609E-02  0.9029932E-01
        1   -1    0    0  501    0  0.00000000000E+00  0.00000000000E+00  0.98459932643E+03  0.98459932644E+03  0.50400001928E-02 0.  1.
       -1   -1    0    0    0  501  0.00000000000E+00  0.00000000000E+00 -0.42880289339E+03  0.42880289342E+03  0.50400001928E-02 0. -1.
    10030    2    1    2    0    0  0.00000000000E+00  0.00000000000E+00  0.55579643304E+03  0.14134022199E+04  0.12995369022E+04 0.  0.
        5    1    3    3  502    0  0.68648026662E+02  0.27153331334E+03 -0.35976069781E+03  0.45595256497E+03  0.46999998093E+01 0. -1.
       -5    1    3    3    0  502 -0.68648026662E+02 -0.27153331334E+03  0.91555713085E+03  0.95744965490E+03  0.46999998093E+01 0.  1.
</event>
<event>
 5   0  0.1031295E-03  0.1302656E+04  0.7818609E-02  0.9027462E-01
        2   -1    0    0  501    0  0.00000000000E+00  0.00000000000E+00  0.11941234924E+04  0.11941234924E+04  0.25500000920E-02 0. -1.
       -2   -1    0    0    0  501  0.00000000000E+00  0.00000000000E+00 -0.35526320374E+03  0.35526320374E+03  0.25500000920E-02 0.  1.
    10030    2    1    2    0    0  0.00000000000E+00  0.00000000000E+00  0.83886028867E+03  0.15493866962E+04  0.13026559601E+04 0.  0.
        2    1    3    3  502    0 -0.20266695092E+03 -0.24342996993E+03  0.10963432886E+04  0.11411838807E+04  0.25500000920E-02 0. -1.
       -2    1    3    3    0  502  0.20266695092E+03  0.24342996993E+03 -0.25748299991E+03  0.40820281541E+03  0.25500000920E-02 0.  1.
</event>
<event>
 5   0  0.5812938E-04  0.1269083E+04  0.7818609E-02  0.9054449E-01
        1   -1    0    0  501    0  0.00000000000E+00  0.00000000000E+00  0.95443003328E+03  0.95443003330E+03  0.50400001928E-02 0.  1.
       -1   -1    0    0    0  501  0.00000000000E+00  0.00000000000E+00 -0.42186716280E+03  0.42186716283E+03  0.50400001928E-02 0. -1.
    10030    2    1    2    0    0  0.00000000000E+00  0.00000000000E+00  0.53256287048E+03  0.13762971961E+04  0.12690826455E+04 0.  0.
        5    1    3    3  502    0 -0.52278283677E+03  0.34659707636E+03  0.16232281134E+03  0.64792145576E+03  0.46999998093E+01 0. -1.
       -5    1    3    3    0  502  0.52278283677E+03 -0.34659707636E+03  0.37024005914E+03  0.72837574037E+03  0.46999998093E+01 0.  1.
</event>
<event>
 5   0  0.1031295E-03  0.1305077E+04  0.7818609E-02  0.9025549E-01
       -2   -1    0    0    0  501  0.00000000000E+00  0.00000000000E+00  0.21315226293E+03  0.21315226294E+03  0.25500000920E-02 0.  1.
        2   -1    0    0  501    0  0.00000000000E+00  0.00000000000E+00 -0.19976642582E+04  0.19976642582E+04  0.25500000920E-02 0. -1.
    10030    2    1    2    0    0  0.00000000000E+00  0.00000000000E+00 -0.17845119953E+04  0.22108165212E+04  0.13050772502E+04 0.  0.
        2    1    3    3  502    0 -0.22857322630E+02 -0.40277807805E+03 -0.23417704831E+02  0.40410521682E+03  0.25500000920E-02 0.  1.
       -2    1    3    3    0  502  0.22857322630E+02  0.40277807805E+03 -0.17610942905E+04  0.18067113044E+04  0.25500000920E-02 0. -1.
</event>
<event>
 5   0  0.5766027E-04  0.1300574E+04  0.7818609E-02  0.9029110E-01
       -1   -1    0    0    0  501  0.00000000000E+00  0.00000000000E+00  0.16059770837E+04  0.16059770837E+04  0.50400001928E-02 0. -1.
        1   -1    0    0  501    0  0.00000000000E+00  0.00000000000E+00 -0.26331215928E+03  0.26331215933E+03  0.50400001928E-02 0.  1.
    10030    2    1    2    0    0  0.00000000000E+00  0.00000000000E+00  0.13426649244E+04  0.18692892430E+04  0.13005741712E+04 0.  0.
        3    1    3    3  502    0 -0.15193039957E+02  0.62995314401E+03  0.90220048673E+03  0.11004714992E+04  0.10100000352E+00 0. -1.
       -3    1    3    3    0  502  0.15193039957E+02 -0.62995314401E+03  0.44046443765E+03  0.76881774378E+03  0.10100000352E+00 0.  1.
</event>
<event>
 5   0  0.1046253E-03  0.1299324E+04  0.7818609E-02  0.9030101E-01
       -2   -1    0    0    0  501  0.00000000000E+00  0.00000000000E+00  0.71232023227E+03  0.71232023227E+03  0.25500000920E-02 0. -1.
        2   -1    0    0  501    0  0.00000000000E+00  0.00000000000E+00 -0.59251563692E+03  0.59251563692E+03  0.25500000920E-02 0.  1.
    10030    2    1    2    0    0  0.00000000000E+00  0.00000000000E+00  0.11980459535E+03  0.13048358692E+04  0.12993242492E+04 0.  0.
        3    1    3    3  502    0  0.50932716013E+03  0.14209383243E+03  0.43893684526E+03  0.68721930822E+03  0.10100000352E+00 0. -1.
       -3    1    3    3    0  502 -0.50932716013E+03 -0.14209383243E+03 -0.31913224991E+03  0.61761656098E+03  0.10100000352E+00 0.  1.
</event>
<event>
 5   0  0.5563545E-04  0.1300131E+04  0.7818609E-02  0.9029461E-01
       -1   -1    0    0    0  501  0.00000000000E+00  0.00000000000E+00  0.40623294209E+03  0.40623294212E+03  0.50400001928E-02 0. -1.
        1   -1    0    0  501    0  0.00000000000E+00  0.00000000000E+00 -0.10402531033E+04  0.10402531034E+04  0.50400001928E-02 0.  1.
    10030    2    1    2    0    0  0.00000000000E+00  0.00000000000E+00 -0.63402016125E+03  0.14464860455E+04  0.13001308837E+04 0.  0.
        2    1    3    3  502    0 -0.41079929835E+03 -0.59683640166E+02 -0.87359170215E+03  0.96720249302E+03  0.25500000920E-02 0.  1.
       -2    1    3    3    0  502  0.41079929835E+03  0.59683640166E+02  0.23957154090E+03  0.47928355245E+03  0.25500000920E-02 0. -1.
</event>
<event>
 5   0  0.5710383E-04  0.1283841E+04  0.7818609E-02  0.9042479E-01
        1   -1    0    0  501    0  0.00000000000E+00  0.00000000000E+00  0.10293982847E+04  0.10293982848E+04  0.50400001928E-02 0.  1.
       -1   -1    0    0    0  501  0.00000000000E+00  0.00000000000E+00 -0.40029375312E+03  0.40029375316E+03  0.50400001928E-02 0. -1.
    10030    2    1    2    0    0  0.00000000000E+00  0.00000000000E+00  0.62910453162E+03  0.14296920379E+04  0.12838406488E+04 0.  0.
        1    1    3    3  502    0 -0.29318949106E+02  0.64891331336E+02  0.10249865231E+04  0.10274569861E+04  0.50400001928E-02 0.  1.
       -1    1    3    3    0  502  0.29318949106E+02 -0.64891331336E+02 -0.39588199152E+03  0.40223505180E+03  0.50400001928E-02 0. -1.
</event>
<event>
 5   0  0.1031295E-03  0.1298728E+04  0.7818609E-02  0.9030574E-01
       -2   -1    0    0    0  501  0.00000000000E+00  0.00000000000E+00  0.15759085926E+03  0.15759085928E+03  0.25500000920E-02 0.  1.
        2   -1    0    0  501    0  0.00000000000E+00  0.00000000000E+00 -0.26757498392E+04  0.26757498392E+04  0.25500000920E-02 0. -1.
    10030    2    1    2    0    0  0.00000000000E+00  0.00000000000E+00 -0.25181589800E+04  0.28333406985E+04  0.12987281723E+04 0.  0.
        2    1    3    3  502    0 -0.44169278332E+03 -0.36247074700E+03 -0.19321960133E+04  0.20149091769E+04  0.25500000920E-02 0.  1.
       -2    1    3    3    0  502  0.44169278332E+03  0.36247074700E+03 -0.58596296663E+03  0.81843152159E+03  0.25500000920E-02 0. -1.
</event>
<event>
 5   0  0.5766027E-04  0.1304394E+04  0.7818609E-02  0.9026088E-01
       -1   -1    0    0    0  501  0.00000000000E+00  0.00000000000E+00  0.28650970065E+03  0.28650970070E+03  0.50400001928E-02 0. -1.
        1   -1    0    0  501    0  0.00000000000E+00  0.00000000000E+00 -0.14846291153E+04  0.14846291153E+04  0.50400001928E-02 0.  1.
    10030    2    1    2    0    0  0.00000000000E+00  0.00000000000E+00 -0.11981194147E+04  0.17711388160E+04  0.13043935655E+04 0.  0.
        3    1    3    3  502    0  0.31354532193E+03 -0.14705844982E+03 -0.13494641125E+04  0.13931942641E+04  0.10100000352E+00 0.  1.
       -3    1    3    3    0  502 -0.31354532193E+03  0.14705844982E+03  0.15134469779E+03  0.37794455191E+03  0.10100000352E+00 0. -1.
</event>
<event>
 5   0  0.1103241E-03  0.1292039E+04  0.7818609E-02  0.9035902E-01
       -2   -1    0    0    0  501  0.00000000000E+00  0.00000000000E+00  0.15515226858E+03  0.15515226860E+03  0.25500000920E-02 0. -1.
        2   -1    0    0  501    0  0.00000000000E+00  0.00000000000E+00 -0.26898827062E+04  0.26898827062E+04  0.25500000920E-02 0.  1.
    10030    2    1    2    0    0  0.00000000000E+00  0.00000000000E+00 -0.25347304376E+04  0.28450349748E+04  0.12920393246E+04 0.  0.
        4    1    3    3  502    0 -0.21519651826E+03 -0.44835102008E+03 -0.21752927194E+04  0.22314184294E+04  0.12699999809E+01 0.  1.
       -4    1    3    3    0  502  0.21519651826E+03  0.44835102008E+03 -0.35943771814E+03  0.61361654541E+03  0.12699999809E+01 0. -1.
</event>
<event>
 5   0  0.1046253E-03  0.1308231E+04  0.7818609E-02  0.9023063E-01
        2   -1    0    0  501    0  0.00000000000E+00  0.00000000000E+00  0.11678542103E+04  0.11678542103E+04  0.25500000920E-02 0.  1.
       -2   -1    0    0    0  501  0.00000000000E+00  0.00000000000E+00 -0.36637018009E+03  0.36637018010E+03  0.25500000920E-02 0. -1.
    10030    2    1    2    0    0  0.00000000000E+00  0.00000000000E+00  0.80148403018E+03  0.15342243904E+04  0.13082308013E+04 0.  0.
        3    1    3    3  502    0 -0.65190961956E+02  0.17208780185E+03 -0.33538746007E+03  0.38255565823E+03  0.10100000352E+00 0. -1.
       -3    1    3    3    0  502  0.65190961956E+02 -0.17208780185E+03  0.11368714903E+04  0.11516687322E+04  0.10100000352E+00 0.  1.
</event>
<event>
 5   0  0.4012375E-04  0.1295654E+04  0.7818609E-02  0.9033018E-01
       -4   -1    0    0    0  501  0.00000000000E+00  0.00000000000E+00  0.51301178236E+03  0.51301335435E+03  0.12699999809E+01 0. -1.
        4   -1    0    0  501    0  0.00000000000E+00  0.00000000000E+00 -0.81806756401E+03  0.81806854981E+03  0.12699999809E+01 0.  1.
    10030    2    1    2    0    0  0.00000000000E+00  0.00000000000E+00 -0.30505578166E+03  0.13310819042E+04  0.12956542771E+04 0.  0.
        2    1    3    3  502    0  0.12113157737E+03  0.54714249534E+03  0.18138595750E+03  0.58901496995E+03  0.25500000920E-02 0. -1.
       -2    1    3    3    0  502 -0.12113157737E+03 -0.54714249534E+03 -0.48644173915E+03  0.74206693421E+03  0.25500000920E-02 0.  1.
</event>
<event>
 5   0  0.6006119E-04  0.1321726E+04  0.7818609E-02  0.9012512E-01
        1   -1    0    0  501    0  0.00000000000E+00  0.00000000000E+00  0.23596758453E+03  0.23596758459E+03  0.50400001928E-02 0. -1.
       -1   -1    0    0    0  501  0.00000000000E+00  0.00000000000E+00 -0.18508459810E+04  0.18508459810E+04  0.50400001928E-02 0.  1.
    10030    2    1    2    0    0  0.00000000000E+00  0.00000000000E+00 -0.16148783965E+04  0.20868135656E+04  0.13217256229E+04 0.  0.
        4    1    3    3  502    0 -0.86503629481E+02 -0.61962258288E+03 -0.11435649293E+04  0.13035173124E+04  0.12699999809E+01 0.  1.
       -4    1    3    3    0  502  0.86503629481E+02  0.61962258288E+03 -0.47131346715E+03  0.78329625324E+03  0.12699999809E+01 0. -1.
</event>
<event>
 5   0  0.5766027E-04  0.1333957E+04  0.7818609E-02  0.9003062E-01
       -1   -1    0    0    0  501  0.00000000000E+00  0.00000000000E+00  0.35682697332E+03  0.35682697336E+03  0.50400001928E-02 0.  1.
        1   -1    0    0  501    0  0.00000000000E+00  0.00000000000E+00 -0.12467110327E+04  0.12467110327E+04  0.50400001928E-02 0. -1.
    10030    2    1    2    0    0  0.00000000000E+00  0.00000000000E+00 -0.88988405937E+03  0.16035380061E+04  0.13339567076E+04 0.  0.
        3    1    3    3  502    0 -0.34270782637E+03  0.52068265518E+02  0.24003956903E+03  0.42163819020E+03  0.10100000352E+00 0.  1.
       -3    1    3    3    0  502  0.34270782637E+03 -0.52068265518E+02 -0.11299236284E+04  0.11818998159E+04  0.10100000352E+00 0. -1.
</event>
<event>
 5   0  0.5812938E-04  0.1324079E+04  0.7818609E-02  0.9010685E-01
       -1   -1    0    0    0  501  0.00000000000E+00  0.00000000000E+00  0.25951875942E+03  0.25951875947E+03  0.50400001928E-02 0.  1.
        1   -1    0    0  501    0  0.00000000000E+00  0.00000000000E+00 -0.16888821424E+04  0.16888821424E+04  0.50400001928E-02 0. -1.
    10030    2    1    2    0    0  0.00000000000E+00  0.00000000000E+00 -0.14293633829E+04  0.19484009018E+04  0.13240794515E+04 0.  0.
        5    1    3    3  502    0 -0.23730531056E+03 -0.61031263458E+03 -0.57141349263E+03  0.86909768836E+03  0.46999998093E+01 0.  1.
       -5    1    3    3    0  502  0.23730531056E+03  0.61031263458E+03 -0.85794989031E+03  0.10793032135E+04  0.46999998093E+01 0. -1.
</event>
<event>
 5   0  0.1103241E-03  0.1301076E+04  0.7818609E-02  0.9028712E-01
        2   -1    0    0  501    0  0.00000000000E+00  0.00000000000E+00  0.19975114204E+04  0.19975114204E+04  0.25500000920E-02 0. -1.
       -2   -1    0    0    0  501  0.00000000000E+00  0.00000000000E+00 -0.21186353689E+03  0.21186353691E+03  0.25500000920E-02 0.  1.
    10030    2    1    2    0    0  0.00000000000E+00  0.00000000000E+00  0.17856478835E+04  0.22093749573E+04  0.13010762230E+04 0.  0.
        4    1    3    3  502    0  0.29886139832E+03 -0.53225203268E+01  0.18739922677E+04  0.18976815057E+04  0.12699999809E+01 0. -1.
       -4    1    3    3    0  502 -0.29886139832E+03  0.53225203268E+01 -0.88344384260E+02  0.31169345158E+03  0.12699999809E+01 0.  1.
</event>
<event>
 5   0  0.1101619E-03  0.1310053E+04  0.7818609E-02  0.9021631E-01
        2   -1    0    0  501    0  0.00000000000E+00  0.00000000000E+00  0.73487861721E+03  0.73487861721E+03  0.25500000920E-02 0. -1.
       -2   -1    0    0    0  501  0.00000000000E+00  0.00000000000E+00 -0.58385108798E+03  0.58385108799E+03  0.25500000920E-02 0.  1.
    10030    2    1    2    0    0  0.00000000000E+00  0.00000000000E+00  0.15102752922E+03  0.13187297052E+04  0.13100529458E+04 0.  0.
        1    1    3    3  502    0  0.29531051929E+03 -0.14342140926E+03  0.64608506093E+03  0.72470953452E+03  0.50400001928E-02 0. -1.
       -1    1    3    3    0  502 -0.29531051929E+03  0.14342140926E+03 -0.49505753171E+03  0.59402017067E+03  0.50400001928E-02 0.  1.
</event>
<event>
 5   0  0.1081574E-03  0.1299728E+04  0.7818609E-02  0.9029781E-01
        2   -1    0    0  501    0  0.00000000000E+00  0.00000000000E+00  0.69805302244E+03  0.69805302245E+03  0.25500000920E-02 0. -1.
       -2   -1    0    0    0  501  0.00000000000E+00  0.00000000000E+00 -0.60500189765E+03  0.60500189766E+03  0.25500000920E-02 0.  1.
    10030    2    1    2    0    0  0.00000000000E+00  0.00000000000E+00  0.93051124791E+02  0.13030549201E+04  0.12997282843E+04 0.  0.
        5    1    3    3  502    0 -0.12257218723E+03  0.11241826185E+03  0.67633683579E+03  0.69650227001E+03  0.46999998093E+01 0. -1.
       -5    1    3    3    0  502  0.12257218723E+03 -0.11241826185E+03 -0.58328571100E+03  0.60655265010E+03  0.46999998093E+01 0.  1.
</event>
<event>
 5   0  0.1103241E-03  0.1289481E+04  0.7818609E-02  0.9037948E-01
       -2   -1    0    0    0  501  0.00000000000E+00  0.00000000000E+00  0.78705363953E+03  0.78705363954E+03  0.25500000920E-02 0. -1.
        2   -1    0    0  501    0  0.00000000000E+00  0.00000000000E+00 -0.52816042253E+03  0.52816042254E+03  0.25500000920E-02 0.  1.
    10030    2    1    2    0    0  0.00000000000E+00  0.00000000000E+00  0.25889321700E+03  0.13152140621E+04  0.12894814195E+04 0.  0.
        4    1    3    3  502    0  0.54613792141E+02 -0.19017039532E+03 -0.49642866358E+03  0.53440665834E+03  0.12699999809E+01 0.  1.
       -4    1    3    3    0  502 -0.54613792141E+02  0.19017039532E+03  0.75532188058E+03  0.78080740374E+03  0.12699999809E+01 0. -1.
</event>
<event>
 5   0  0.1031295E-03  0.1300312E+04  0.7818609E-02  0.9029318E-01
        2   -1    0    0  501    0  0.00000000000E+00  0.00000000000E+00  0.10774290668E+04  0.10774290668E+04  0.25500000920E-02 0.  1.
       -2   -1    0    0    0  501  0.00000000000E+00  0.00000000000E+00 -0.39232521227E+03  0.39232521228E+03  0.25500000920E-02 0. -1.
    10030    2    1    2    0    0  0.00000000000E+00  0.00000000000E+00  0.68510385455E+03  0.14697542791E+04  0.13003116355E+04 0.  0.
        2    1    3    3  502    0  0.53538090234E+03 -0.12819518589E+02 -0.74140741426E+02  0.54064211840E+03  0.25500000920E-02 0. -1.
       -2    1    3    3    0  502 -0.53538090234E+03  0.12819518589E+02  0.75924459598E+03  0.92911216071E+03  0.25500000920E-02 0.  1.
</event>
<event>
 5   0  0.1081574E-03  0.1309031E+04  0.7818609E-02  0.9022434E-01
       -2   -1    0    0    0  501  0.00000000000E+00  0.00000000000E+00  0.19212522603E+03  0.19212522604E+03  0.25500000920E-02 0.  1.
        2   -1    0    0  501    0  0.00000000000E+00  0.00000000000E+00 -0.22297448653E+04  0.22297448653E+04  0.25500000920E-02 0. -1.
    10030    2    1    2    0    0  0.00000000000E+00  0.00000000000E+00 -0.20376196393E+04  0.24218700914E+04  0.13090305363E+04 0.  0.
        5    1    3    3  502    0 -0.18289159240E+03  0.18191192546E+03 -0.21316978460E+04  0.21472538461E+04  0.46999998093E+01 0. -1.
       -5    1    3    3    0  502  0.18289159240E+03 -0.18191192546E+03  0.94078206661E+02  0.27461624526E+03  0.46999998093E+01 0.  1.
</event>
<event>
 5   0  0.1081574E-03  0.1294122E+04  0.7818609E-02  0.9034240E-01
       -2   -1    0    0    0  501  0.00000000000E+00  0.00000000000E+00  0.58075088891E+03  0.58075088892E+03  0.25500000920E-02 0. -1.
        2   -1    0    0  501    0  0.00000000000E+00  0.00000000000E+00 -0.72094217515E+03  0.72094217515E+03  0.25500000920E-02 0.  1.
    10030    2    1    2    0    0  0.00000000000E+00  0.00000000000E+00 -0.14019128624E+03  0.13016930641E+04  0.12941218012E+04 0.  0.
        5    1    3    3  502    0  0.69596802584E+02  0.10161783198E+03 -0.70902516820E+03  0.71965872318E+03  0.46999998093E+01 0.  1.
       -5    1    3    3    0  502 -0.69596802584E+02 -0.10161783198E+03  0.56883388197E+03  0.58203434089E+03  0.46999998093E+01 0. -1.
</event>
<event>
 5   0  0.5563545E-04  0.1290230E+04  0.7818609E-02  0.9037349E-01
        1   -1    0    0  501    0  0.00000000000E+00  0.00000000000E+00  0.10679844298E+04  0.10679844298E+04  0.50400001928E-02 0. -1.
       -1   -1    0    0    0  501  0.00000000000E+00  0.00000000000E+00 -0.38968132911E+03  0.38968132915E+03  0.50400001928E-02 0.  1.
    10030    2    1    2    0    0  0.00000000000E+00  0.00000000000E+00  0.67830310070E+03  0.14576657590E+04  0.12902303548E+04 0.  0.
        2    1    3    3  502    0  0.35506941714E+03 -0.50121307497E+03  0.56193369387E+03  0.83250123953E+03  0.25500000920E-02 0.  1.
       -2    1    3    3    0  502 -0.35506941714E+03  0.50121307497E+03  0.11636940684E+03  0.62516451944E+03  0.25500000920E-02 0. -1.
</event>
<event>
 5   0  0.5563545E-04  0.1219596E+04  0.7818609E-02  0.9095875E-01
       -1   -1    0    0    0  501  0.00000000000E+00  0.00000000000E+00  0.27429197594E+03  0.27429197598E+03  0.50400001928E-02 0. -1.
        1   -1    0    0  501    0  0.00000000000E+00  0.00000000000E+00 -0.13556857717E+04  0.13556857717E+04  0.50400001928E-02 0.  1.
    10030    2    1    2    0    0  0.00000000000E+00  0.00000000000E+00 -0.10813937958E+04  0.16299777477E+04  0.12195962104E+04 0.  0.
        2    1    3    3  502    0  0.63363078683E+02  0.12989475950E+03  0.25107166937E+03  0.28969727553E+03  0.25500000920E-02 0. -1.
       -2    1    3    3    0  502 -0.63363078683E+02 -0.12989475950E+03 -0.13324654651E+04  0.13402804722E+04  0.25500000920E-02 0.  1.
</event>
<event>
 5   0  0.4012375E-04  0.1296953E+04  0.7818609E-02  0.9031985E-01
        4   -1    0    0  501    0  0.00000000000E+00  0.00000000000E+00  0.67479864878E+03  0.67479984388E+03  0.12699999809E+01 0.  1.
       -4   -1    0    0    0  501  0.00000000000E+00  0.00000000000E+00 -0.62317858129E+03  0.62317987538E+03  0.12699999809E+01 0. -1.
    10030    2    1    2    0    0  0.00000000000E+00  0.00000000000E+00  0.51620067488E+02  0.12979797193E+04  0.12969528597E+04 0.  0.
        5    1    3    3  502    0  0.64724822585E+03 -0.44270538912E+01 -0.13587686212E+02  0.64742303009E+03  0.46999998093E+01 0. -1.
       -5    1    3    3    0  502 -0.64724822585E+03  0.44270538912E+01  0.65207753700E+02  0.65055668917E+03  0.46999998093E+01 0.  1.
</event>
<event>
 5   0  0.5812938E-04  0.1297580E+04  0.7818609E-02  0.9031487E-01
        1   -1    0    0  501    0  0.00000000000E+00  0.00000000000E+00  0.25033607999E+04  0.25033607999E+04  0.50400001928E-02 0. -1.
       -1   -1    0    0    0  501  0.00000000000E+00  0.00000000000E+00 -0.16814524407E+03  0.16814524415E+03  0.50400001928E-02 0.  1.
    10030    2    1    2    0    0  0.00000000000E+00  0.00000000000E+00  0.23352155558E+04  0.26715060440E+04  0.12975796127E+04 0.  0.
        5    1    3    3  502    0 -0.36391214520E+03  0.43689689936E+03  0.52442217262E+03  0.77353193549E+03  0.46999998093E+01 0.  1.
       -5    1    3    3    0  502  0.36391214520E+03 -0.43689689936E+03  0.18107933832E+04  0.18979741085E+04  0.46999998093E+01 0. -1.
</event>
<event>
 5   0  0.1046253E-03  0.1283955E+04  0.7818609E-02  0.9042386E-01
       -2   -1    0    0    0  501  0.00000000000E+00  0.00000000000E+00  0.12835266323E+04  0.12835266323E+04  0.25500000920E-02 0.  1.
        2   -1    0    0  501    0  0.00000000000E+00  0.00000000000E+00 -0.32109612259E+03  0.32109612260E+03  0.25500000920E-02 0. -1.
    10030    2    1    2    0    0  0.00000000000E+00  0.00000000000E+00  0.96243050969E+03  0.16046227549E+04  0.12839554897E+04 0.  0.
        3    1    3    3  502    0 -0.43982607389E+03  0.11729656814E+03 -0.84536226640E+02  0.46298147262E+03  0.10100000352E+00 0. -1.
       -3    1    3    3    0  502  0.43982607389E+03 -0.11729656814E+03  0.10469667363E+04  0.11416412823E+04  0.10100000352E+00 0.  1.
</event>
<event>
 5   0  0.5710383E-04  0.1303437E+04  0.7818609E-02  0.9026844E-01
       -1   -1    0    0    0  501  0.00000000000E+00  0.00000000000E+00  0.15656478880E+04  0.15656478880E+04  0.50400001928E-02 0.  1.
        1   -1    0    0  501    0  0.00000000000E+00  0.00000000000E+00 -0.27128508287E+03  0.27128508291E+03  0.50400001928E-02 0. -1.
    10030    2    1    2    0    0  0.00000000000E+00  0.00000000000E+00  0.12943628052E+04  0.18369329709E+04  0.13034368678E+04 0.  0.
        1    1    3    3  502    0  0.16129741651E+03  0.45040159255E+02 -0.24044400591E+03  0.29301671031E+03  0.50400001928E-02 0. -1.
       -1    1    3    3    0  502 -0.16129741651E+03 -0.45040159255E+02  0.15348068111E+04  0.15439162606E+04  0.50400001928E-02 0.  1.
</event>
<event>
 5   0  0.5563545E-04  0.1297857E+04  0.7818609E-02  0.9031266E-01
        1   -1    0    0  501    0  0.00000000000E+00  0.00000000000E+00  0.77205048474E+03  0.77205048476E+03  0.50400001928E-02 0. -1.
       -1   -1    0    0    0  501  0.00000000000E+00  0.00000000000E+00 -0.54544144320E+03  0.54544144323E+03  0.50400001928E-02 0.  1.
    10030    2    1    2    0    0  0.00000000000E+00  0.00000000000E+00  0.22660904154E+03  0.13174919280E+04  0.12978572042E+04 0.  0.
        2    1    3    3  502    0 -0.46038650737E+03  0.27452090706E+03 -0.25800345957E+03  0.59488087021E+03  0.25500000920E-02 0.  1.
       -2    1    3    3    0  502  0.46038650737E+03 -0.27452090706E+03  0.48461250111E+03  0.72261105778E+03  0.25500000920E-02 0. -1.
</event>
<event>
 5   0  0.5812938E-04  0.1292829E+04  0.7818609E-02  0.9035271E-01
        1   -1    0    0  501    0  0.00000000000E+00  0.00000000000E+00  0.65923810256E+03  0.65923810258E+03  0.50400001928E-02 0. -1.
       -1   -1    0    0    0  501  0.00000000000E+00  0.00000000000E+00 -0.63384034005E+03  0.63384034007E+03  0.50400001928E-02 0.  1.
    10030    2    1    2    0    0  0.00000000000E+00  0.00000000000E+00  0.25397762514E+02  0.12930784426E+04  0.12928289958E+04 0.  0.
        5    1    3    3  502    0  0.19038445097E+03  0.44467381196E+03  0.44155728169E+03  0.65496256475E+03  0.46999998093E+01 0. -1.
       -5    1    3    3    0  502 -0.19038445097E+03 -0.44467381196E+03 -0.41615951918E+03  0.63811587789E+03  0.46999998093E+01 0.  1.
</event>
<event>
 5   0  0.1031295E-03  0.1293504E+04  0.7818609E-02  0.9034733E-01
       -2   -1    0    0    0  501  0.00000000000E+00  0.00000000000E+00  0.24334999931E+03  0.24334999933E+03  0.25500000920E-02 0. -1.
        2   -1    0    0  501    0  0.00000000000E+00  0.00000000000E+00 -0.17188735399E+04  0.17188735399E+04  0.25500000920E-02 0.  1.
    10030    2    1    2    0    0  0.00000000000E+00  0.00000000000E+00 -0.14755235406E+04  0.19622235393E+04  0.12935035752E+04 0.  0.
        2    1    3    3  502    0 -0.33305782994E+03 -0.36618012504E+03 -0.13692214637E+04  0.14559473956E+04  0.25500000920E-02 0.  1.
       -2    1    3    3    0  502  0.33305782994E+03  0.36618012504E+03 -0.10630207687E+03  0.50627614363E+03  0.25500000920E-02 0. -1.
</event>
<event>
 5   0  0.1103241E-03  0.1356651E+04  0.7818609E-02  0.8985808E-01
        2   -1    0    0  501    0  0.00000000000E+00  0.00000000000E+00  0.85519624834E+03  0.85519624834E+03  0.25500000920E-02 0. -1.
       -2   -1    0    0    0  501  0.00000000000E+00  0.00000000000E+00 -0.53803520750E+03  0.53803520750E+03  0.25500000920E-02 0.  1.
    10030    2    1    2    0    0  0.00000000000E+00  0.00000000000E+00  0.31716104084E+03  0.13932314558E+04  0.13566513051E+04 0.  0.
        4    1    3    3  502    0 -0.49852119479E+03 -0.15938653107E+03 -0.28455946855E+03  0.59573748580E+03  0.12699999809E+01 0.  1.
       -4    1    3    3    0  502  0.49852119479E+03  0.15938653107E+03  0.60172050939E+03  0.79749397005E+03  0.12699999809E+01 0. -1.
</event>
<event>
 5   0  0.5766027E-04  0.1297440E+04  0.7818609E-02  0.9031598E-01
        1   -1    0    0  501    0  0.00000000000E+00  0.00000000000E+00  0.16060271247E+04  0.16060271247E+04  0.50400001928E-02 0.  1.
       -1   -1    0    0    0  501  0.00000000000E+00  0.00000000000E+00 -0.26203643113E+03  0.26203643118E+03  0.50400001928E-02 0. -1.
    10030    2    1    2    0    0  0.00000000000E+00  0.00000000000E+00  0.13439906936E+04  0.18680635559E+04  0.12974399657E+04 0.  0.
        3    1    3    3  502    0 -0.14960015911E+03  0.16063901696E+01 -0.23685822319E+03  0.28015105959E+03  0.10100000352E+00 0. -1.
       -3    1    3    3    0  502  0.14960015911E+03 -0.16063901696E+01  0.15808489168E+04  0.15879124963E+04  0.10100000352E+00 0.  1.
</event>
<event>
 5   0  0.1031295E-03  0.1293026E+04  0.7818609E-02  0.9035114E-01
       -2   -1    0    0    0  501  0.00000000000E+00  0.00000000000E+00  0.36289461824E+03  0.36289461825E+03  0.25500000920E-02 0.  1.
        2   -1    0    0  501    0  0.00000000000E+00  0.00000000000E+00 -0.11517923673E+04  0.11517923673E+04  0.25500000920E-02 0. -1.
    10030    2    1    2    0    0  0.00000000000E+00  0.00000000000E+00 -0.78889774906E+03  0.15146869856E+04  0.12930262974E+04 0.  0.
        2    1    3    3  502    0 -0.50828359623E+03 -0.33313618685E+03 -0.65282060167E+03  0.89191180683E+03  0.25500000920E-02 0. -1.
       -2    1    3    3    0  502  0.50828359623E+03  0.33313618685E+03 -0.13607714738E+03  0.62277517872E+03  0.25500000920E-02 0.  1.
</event>
<event>
 5   0  0.5812938E-04  0.1298132E+04  0.7818609E-02  0.9031048E-01
       -1   -1    0    0    0  501  0.00000000000E+00  0.00000000000E+00  0.50510645195E+03  0.50510645197E+03  0.50400001928E-02 0. -1.
        1   -1    0    0  501    0  0.00000000000E+00  0.00000000000E+00 -0.83405468389E+03  0.83405468391E+03  0.50400001928E-02 0.  1.
    10030    2    1    2    0    0  0.00000000000E+00  0.00000000000E+00 -0.32894823194E+03  0.13391611359E+04  0.12981315837E+04 0.  0.
        5    1    3    3  502    0 -0.24401718021E+02 -0.90007608723E+02  0.49814143875E+03  0.50681732060E+03  0.46999998093E+01 0. -1.
       -5    1    3    3    0  502  0.24401718021E+02  0.90007608723E+02 -0.82708967069E+03  0.83234381528E+03  0.46999998093E+01 0.  1.
</event>
<event>
 5   0  0.4012375E-04  0.1291910E+04  0.7818609E-02  0.9036005E-01
        3   -1    0    0  501    0  0.00000000000E+00  0.00000000000E+00  0.72810599744E+03  0.72810600445E+03  0.10100000352E+00 0.  1.
       -3   -1    0    0    0  501  0.00000000000E+00  0.00000000000E+00 -0.57307337274E+03  0.57307338164E+03  0.10100000352E+00 0. -1.
    10030    2    1    2    0    0  0.00000000000E+00  0.00000000000E+00  0.15503262470E+03  0.13011793861E+04  0.12919104768E+04 0.  0.
        1    1    3    3  502    0  0.12640868115E+03  0.25860765244E+03  0.65993942523E+03  0.71998410925E+03  0.50400001928E-02 0.  1.
       -1    1    3    3    0  502 -0.12640868115E+03 -0.25860765244E+03 -0.50490680053E+03  0.58119527684E+03  0.50400001928E-02 0. -1.
</event>
<event>
 5   0  0.6006119E-04  0.1303556E+04  0.7818609E-02  0.9026750E-01
        1   -1    0    0  501    0  0.00000000000E+00  0.00000000000E+00  0.59510285601E+03  0.59510285603E+03  0.50400001928E-02 0. -1.
       -1   -1    0    0    0  501  0.00000000000E+00  0.00000000000E+00 -0.71385066862E+03  0.71385066863E+03  0.50400001928E-02 0.  1.
    10030    2    1    2    0    0  0.00000000000E+00  0.00000000000E+00 -0.11874781261E+03  0.13089535247E+04  0.13035560160E+04 0.  0.
        4    1    3    3  502    0  0.52598175169E+03 -0.24037984608E+03 -0.36124082715E+03  0.68186202535E+03  0.12699999809E+01 0.  1.
       -4    1    3    3    0  502 -0.52598175169E+03  0.24037984608E+03  0.24249301454E+03  0.62709149932E+03  0.12699999809E+01 0. -1.
</event>
<event>
 5   0  0.5563545E-04  0.1303033E+04  0.7818609E-02  0.9027163E-01
       -1   -1    0    0    0  501  0.00000000000E+00  0.00000000000E+00  0.75049670924E+03  0.75049670925E+03  0.50400001928E-02 0.  1.
        1   -1    0    0  501    0  0.00000000000E+00  0.00000000000E+00 -0.56559073247E+03  0.56559073249E+03  0.50400001928E-02 0. -1.
    10030    2    1    2    0    0  0.00000000000E+00  0.00000000000E+00  0.18490597677E+03  0.13160874417E+04  0.13030333588E+04 0.  0.
        2    1    3    3  502    0 -0.75182233439E+02  0.50799606666E+03 -0.31251471249E+03  0.60114708474E+03  0.25500000920E-02 0. -1.
       -2    1    3    3    0  502  0.75182233439E+02 -0.50799606666E+03  0.49742068926E+03  0.71494035700E+03  0.25500000920E-02 0.  1.
</event>
<event>
 5   0  0.5812938E-04  0.1301974E+04  0.7818609E-02  0.9028001E-01
       -1   -1    0    0    0  501  0.00000000000E+00  0.00000000000E+00  0.48815920443E+03  0.48815920446E+03  0.50400001928E-02 0. -1.
        1   -1    0    0  501    0  0.00000000000E+00  0.00000000000E+00 -0.86812724124E+03  0.86812724126E+03  0.50400001928E-02 0.  1.
    10030    2    1    2    0    0  0.00000000000E+00  0.00000000000E+00 -0.37996803681E+03  0.13562864457E+04  0.13019743522E+04 0.  0.
        5    1    3    3  502    0 -0.54695191192E+03  0.49086099031E+02 -0.55413220594E+03  0.78016051601E+03  0.46999998093E+01 0. -1.
       -5    1    3    3    0  502  0.54695191192E+03 -0.49086099031E+02  0.17416416913E+03  0.57612592971E+03  0.46999998093E+01 0.  1.
</event>
<event>
 5   0  0.5710383E-04  0.1168849E+04  0.7818609E-02  0.9140569E-01
       -1   -1    0    0    0  501  0.00000000000E+00  0.00000000000E+00  0.48598902012E+03  0.48598902015E+03  0.50400001928E-02 0.  1.
        1   -1    0    0  501    0  0.00000000000E+00  0.00000000000E+00 -0.70279746699E+03  0.70279746701E+03  0.50400001928E-02 0. -1.
    10030    2    1    2    0    0  0.00000000000E+00  0.00000000000E+00 -0.21680844687E+03  0.11887864872E+04  0.11688487539E+04 0.  0.
        1    1    3    3  502    0  0.40104066845E+03  0.18427913055E+03  0.28122234151E+03  0.52333394797E+03  0.50400001928E-02 0.  1.
       -1    1    3    3    0  502 -0.40104066845E+03 -0.18427913055E+03 -0.49803078838E+03  0.66545253919E+03  0.50400001928E-02 0. -1.
</event>
<event>
 5   0  0.1046253E-03  0.1292112E+04  0.7818609E-02  0.9035844E-01
        2   -1    0    0  501    0  0.00000000000E+00  0.00000000000E+00  0.13046801127E+04  0.13046801127E+04  0.25500000920E-02 0. -1.
       -2   -1    0    0    0  501  0.00000000000E+00  0.00000000000E+00 -0.31991612809E+03  0.31991612810E+03  0.25500000920E-02 0.  1.
    10030    2    1    2    0    0  0.00000000000E+00  0.00000000000E+00  0.98476398461E+03  0.16245962408E+04  0.12921117754E+04 0.  0.
        3    1    3    3  502    0 -0.22547965442E+03 -0.58250523757E+03  0.69987680483E+03  0.93807301341E+03  0.10100000352E+00 0. -1.
       -3    1    3    3    0  502  0.22547965442E+03  0.58250523757E+03  0.28488717978E+03  0.68652322740E+03  0.10100000352E+00 0.  1.
</event>
<event>
 5   0  0.1046253E-03  0.1292041E+04  0.7818609E-02  0.9035900E-01
        2   -1    0    0  501    0  0.00000000000E+00  0.00000000000E+00  0.29732341465E+03  0.29732341466E+03  0.25500000920E-02 0. -1.
       -2   -1    0    0    0  501  0.00000000000E+00  0.00000000000E+00 -0.14036657798E+04  0.14036657798E+04  0.25500000920E-02 0.  1.
    10030    2    1    2    0    0  0.00000000000E+00  0.00000000000E+00 -0.11063423652E+04  0.17009891945E+04  0.12920413348E+04 0.  0.
        3    1    3    3  502    0  0.85214797788E+02 -0.38723697916E+03 -0.12246297859E+04  0.12872187703E+04  0.10100000352E+00 0.  1.
       -3    1    3    3    0  502 -0.85214797788E+02  0.38723697916E+03  0.11828742079E+03  0.41377042416E+03  0.10100000352E+00 0. -1.
</event>
<event>
 5   0  0.5812938E-04  0.1293049E+04  0.7818609E-02  0.9035096E-01
        1   -1    0    0  501    0  0.00000000000E+00  0.00000000000E+00  0.18069473560E+04  0.18069473560E+04  0.50400001928E-02 0. -1.
       -1   -1    0    0    0  501  0.00000000000E+00  0.00000000000E+00 -0.23132586864E+03  0.23132586870E+03  0.50400001928E-02 0.  1.
    10030    2    1    2    0    0  0.00000000000E+00  0.00000000000E+00  0.15756214874E+04  0.20382732247E+04  0.12930485943E+04 0.  0.
        5    1    3    3  502    0 -0.43902658634E+02  0.14348539325E+03  0.17790915083E+04  0.17854142899E+04  0.46999998093E+01 0. -1.
       -5    1    3    3    0  502  0.43902658634E+02 -0.14348539325E+03 -0.20347002094E+03  0.25285893485E+03  0.46999998093E+01 0.  1.
</event>
<event>
 5   0  0.5766027E-04  0.1298997E+04  0.7818609E-02  0.9030361E-01
        1   -1    0    0  501    0  0.00000000000E+00  0.00000000000E+00  0.60609345390E+03  0.60609345392E+03  0.50400001928E-02 0. -1.
       -1   -1    0    0    0  501  0.00000000000E+00  0.00000000000E+00 -0.69601227093E+03  0.69601227094E+03  0.50400001928E-02 0.  1.
    10030    2    1    2    0    0  0.00000000000E+00  0.00000000000E+00 -0.89918817025E+02  0.13021057249E+04  0.12989972768E+04 0.  0.
        3    1    3    3  502    0  0.49054475645E+03  0.22396072375E+03  0.31792332829E+03  0.62599346381E+03  0.10100000352E+00 0. -1.
       -3    1    3    3    0  502 -0.49054475645E+03 -0.22396072375E+03 -0.40784214531E+03  0.67611226106E+03  0.10100000352E+00 0.  1.
</event>
<event>
 5   0  0.5766027E-04  0.1301803E+04  0.7818609E-02  0.9028136E-01
       -1   -1    0    0    0  501  0.00000000000E+00  0.00000000000E+00  0.53619506080E+03  0.53619506083E+03  0.50400001928E-02 0. -1.
        1   -1    0    0  501    0  0.00000000000E+00  0.00000000000E+00 -0.79014729567E+03  0.79014729568E+03  0.50400001928E-02 0.  1.
    10030    2    1    2    0    0  0.00000000000E+00  0.00000000000E+00 -0.25395223486E+03  0.13263423565E+04  0.13018034833E+04 0.  0.
        3    1    3    3  502    0  0.50802352154E+03  0.59104180060E+02  0.28321931361E+03  0.58463184342E+03  0.10100000352E+00 0. -1.
       -3    1    3    3    0  502 -0.50802352154E+03 -0.59104180060E+02 -0.53717154847E+03  0.74171051309E+03  0.10100000352E+00 0.  1.
</event>
<event>
 5   0  0.1031295E-03  0.1300563E+04  0.7818609E-02  0.9029119E-01
        2   -1    0    0  501    0  0.00000000000E+00  0.00000000000E+00  0.89353815378E+03  0.89353815378E+03  0.25500000920E-02 0.  1.
       -2   -1    0    0    0  501  0.00000000000E+00  0.00000000000E+00 -0.47324924517E+03  0.47324924518E+03  0.25500000920E-02 0. -1.
    10030    2    1    2    0    0  0.00000000000E+00  0.00000000000E+00  0.42028890861E+03  0.13667873990E+04  0.13005633500E+04 0.  0.
        2    1    3    3  502    0 -0.20511238821E+03  0.39291029799E+03 -0.28991730819E+03  0.52962405502E+03  0.25500000920E-02 0. -1.
       -2    1    3    3    0  502  0.20511238821E+03 -0.39291029799E+03  0.71020621679E+03  0.83716334394E+03  0.25500000920E-02 0.  1.
</event>
<event>
 5   0  0.1031295E-03  0.1299496E+04  0.7818609E-02  0.9029965E-01
       -2   -1    0    0    0  501  0.00000000000E+00  0.00000000000E+00  0.41032805778E+03  0.41032805779E+03  0.25500000920E-02 0. -1.
        2   -1    0    0  501    0  0.00000000000E+00  0.00000000000E+00 -0.10288655218E+04  0.10288655218E+04  0.25500000920E-02 0.  1.
    10030    2    1    2    0    0  0.00000000000E+00  0.00000000000E+00 -0.61853746401E+03  0.14391935796E+04  0.12994958888E+04 0.  0.
        2    1    3    3  502    0 -0.91537580392E+02  0.16001314203E+02 -0.10214681350E+04  0.10256862685E+04  0.25500000920E-02 0.  1.
       -2    1    3    3    0  502  0.91537580392E+02 -0.16001314203E+02  0.40293067097E+03  0.41350731105E+03  0.25500000920E-02 0. -1.
</event>
<event>
 5   0  0.6006119E-04  0.1291381E+04  0.7818609E-02  0.9036428E-01
        1   -1    0    0  501    0  0.00000000000E+00  0.00000000000E+00  0.37481683041E+03  0.37481683044E+03  0.50400001928E-02 0.  1.
       -1   -1    0    0    0  501  0.00000000000E+00  0.00000000000E+00 -0.11123203877E+04  0.11123203877E+04  0.50400001928E-02 0. -1.
    10030    2    1    2    0    0  0.00000000000E+00  0.00000000000E+00 -0.73750355728E+03  0.14871372181E+04  0.12913812793E+04 0.  0.
        4    1    3    3  502    0  0.56034954763E+03  0.26832495991E+03 -0.16623983802E+03  0.64313855139E+03  0.12699999809E+01 0. -1.
       -4    1    3    3    0  502 -0.56034954763E+03 -0.26832495991E+03 -0.57126371926E+03  0.84399866675E+03  0.12699999809E+01 0.  1.
</event>
<event>
 5   0  0.1101619E-03  0.1291528E+04  0.7818609E-02  0.9036311E-01
       -2   -1    0    0    0  501  0.00000000000E+00  0.00000000000E+00  0.18838397705E+03  0.18838397707E+03  0.25500000920E-02 0.  1.
        2   -1    0    0  501    0  0.00000000000E+00  0.00000000000E+00 -0.22136218331E+04  0.22136218331E+04  0.25500000920E-02 0. -1.
    10030    2    1    2    0    0  0.00000000000E+00  0.00000000000E+00 -0.20252378561E+04  0.24020058102E+04  0.12915275988E+04 0.  0.
        1    1    3    3  502    0 -0.13445185308E+03  0.64810754420E+02  0.15586343773E+03  0.21580348915E+03  0.50400001928E-02 0.  1.
       -1    1    3    3    0  502  0.13445185308E+03 -0.64810754420E+02 -0.21811012938E+04  0.21862023210E+04  0.50400001928E-02 0. -1.
</event>
<event>
 5   0  0.4012375E-04  0.1302493E+04  0.7818609E-02  0.9027591E-01
       -3   -1    0    0    0  501  0.00000000000E+00  0.00000000000E+00  0.61524330248E+03  0.61524331077E+03  0.10100000352E+00 0. -1.
        3   -1    0    0  501    0  0.00000000000E+00  0.00000000000E+00 -0.68935625931E+03  0.68935626671E+03  0.10100000352E+00 0.  1.
    10030    2    1    2    0    0  0.00000000000E+00  0.00000000000E+00 -0.74112956838E+02  0.13045995775E+04  0.13024927359E+04 0.  0.
        4    1    3    3  502    0  0.16976085662E+03  0.81079695852E+02  0.58743222415E+03  0.61682322945E+03  0.12699999809E+01 0. -1.
       -4    1    3    3    0  502 -0.16976085662E+03 -0.81079695852E+02 -0.66154518099E+03  0.68777634803E+03  0.12699999809E+01 0.  1.
</event>
<event>
 5   0  0.4012375E-04  0.1302902E+04  0.7818609E-02  0.9027267E-01
       -4   -1    0    0    0  501  0.00000000000E+00  0.00000000000E+00  0.42477943171E+03  0.42478133022E+03  0.12699999809E+01 0. -1.
        4   -1    0    0  501    0  0.00000000000E+00  0.00000000000E+00 -0.99907444403E+03  0.99907525122E+03  0.12699999809E+01 0.  1.
    10030    2    1    2    0    0  0.00000000000E+00  0.00000000000E+00 -0.57429501232E+03  0.14238565814E+04  0.13029016860E+04 0.  0.
        2    1    3    3  502    0 -0.22792859138E+03  0.25275904280E+03  0.31989221811E+03  0.46708629577E+03  0.25500000920E-02 0. -1.
       -2    1    3    3    0  502  0.22792859138E+03 -0.25275904280E+03 -0.89418723042E+03  0.95677028567E+03  0.25500000920E-02 0.  1.
</event>
<event>
 5   0  0.4012375E-04  0.1303963E+04  0.7818609E-02  0.9026428E-01
       -4   -1    0    0    0  501  0.00000000000E+00  0.00000000000E+00  0.34109936313E+03  0.34110172739E+03  0.12699999809E+01 0. -1.
        4   -1    0    0  501    0  0.00000000000E+00  0.00000000000E+00 -0.12461990421E+04  0.12461996893E+04  0.12699999809E+01 0.  1.
    10030    2    1    2    0    0  0.00000000000E+00  0.00000000000E+00 -0.90509967900E+03  0.15873014166E+04  0.13039633271E+04 0.  0.
        2    1    3    3  502    0  0.23868032750E+03  0.38832381836E+03  0.11491672855E+03  0.47007397412E+03  0.25500000920E-02 0. -1.
       -2    1    3    3    0  502 -0.23868032750E+03 -0.38832381836E+03 -0.10200164075E+04  0.11172274425E+04  0.25500000920E-02 0.  1.
</event>
<event>
 5   0  0.1031295E-03  0.1297908E+04  0.7818609E-02  0.9031226E-01
        2   -1    0    0  501    0  0.00000000000E+00  0.00000000000E+00  0.27010092131E+04  0.27010092131E+04  0.25500000920E-02 0. -1.
       -2   -1    0    0    0  501  0.00000000000E+00  0.00000000000E+00 -0.15592005622E+03  0.15592005624E+03  0.25500000920E-02 0.  1.
    10030    2    1    2    0    0  0.00000000000E+00  0.00000000000E+00  0.25450891569E+04  0.28569292694E+04  0.12979083302E+04 0.  0.
        2    1    3    3  502    0 -0.53568106353E+03 -0.35431883325E+03  0.14772125082E+04  0.16107926098E+04  0.25500000920E-02 0. -1.
       -2    1    3    3    0  502  0.53568106353E+03  0.35431883325E+03  0.10678766487E+04  0.12461366595E+04  0.25500000920E-02 0.  1.
</event>
<event>
 5   0  0.5812938E-04  0.1302905E+04  0.7818609E-02  0.9027265E-01
       -1   -1    0    0    0  501  0.00000000000E+00  0.00000000000E+00  0.79736651432E+03  0.79736651434E+03  0.50400001928E-02 0.  1.
        1   -1    0    0  501    0  0.00000000000E+00  0.00000000000E+00 -0.53223993449E+03  0.53223993451E+03  0.50400001928E-02 0. -1.
    10030    2    1    2    0    0  0.00000000000E+00  0.00000000000E+00  0.26512657984E+03  0.13296064489E+04  0.13029049104E+04 0.  0.
        5    1    3    3  502    0 -0.17527092512E+03 -0.61946051005E+03  0.30938340083E+02  0.64453897601E+03  0.46999998093E+01 0. -1.
       -5    1    3    3    0  502  0.17527092512E+03  0.61946051005E+03  0.23418823975E+03  0.68506747284E+03  0.46999998093E+01 0.  1.
</event>
<event>
 5   0  0.1046253E-03  0.1295988E+04  0.7818609E-02  0.9032753E-01
        2   -1    0    0  501    0  0.00000000000E+00  0.00000000000E+00  0.60495425109E+03  0.60495425110E+03  0.25500000920E-02 0. -1.
       -2   -1    0    0    0  501  0.00000000000E+00  0.00000000000E+00 -0.69409595050E+03  0.69409595051E+03  0.25500000920E-02 0.  1.
    10030    2    1    2    0    0  0.00000000000E+00  0.00000000000E+00 -0.89141699413E+02  0.12990502016E+04  0.12959881109E+04 0.  0.
        3    1    3    3  502    0 -0.49968194553E+03  0.39663989177E+03 -0.15837780795E+03  0.65733461090E+03  0.10100000352E+00 0. -1.
       -3    1    3    3    0  502  0.49968194553E+03 -0.39663989177E+03  0.69236108535E+02  0.64171559071E+03  0.10100000352E+00 0.  1.
</event>
<event>
 5   0  0.5766027E-04  0.1290387E+04  0.7818609E-02  0.9037223E-01
       -1   -1    0    0    0  501  0.00000000000E+00  0.00000000000E+00  0.39095535535E+03  0.39095535538E+03  0.50400001928E-02 0.  1.
        1   -1    0    0  501    0  0.00000000000E+00  0.00000000000E+00 -0.10647625046E+04  0.10647625047E+04  0.50400001928E-02 0. -1.
    10030    2    1    2    0    0  0.00000000000E+00  0.00000000000E+00 -0.67380714929E+03  0.14557178600E+04  0.12903869240E+04 0.  0.
        3    1    3    3  502    0 -0.30023407545E+03 -0.55883697976E+03 -0.20420938361E+03  0.66643885883E+03  0.10100000352E+00 0.  1.
       -3    1    3    3    0  502  0.30023407545E+03  0.55883697976E+03 -0.46959776568E+03  0.78927900120E+03  0.10100000352E+00 0. -1.
</event>
<event>
 5   0  0.1103241E-03  0.1303668E+04  0.7818609E-02  0.9026661E-01
       -2   -1    0    0    0  501  0.00000000000E+00  0.00000000000E+00  0.97860833169E+03  0.97860833169E+03  0.25500000920E-02 0. -1.
        2   -1    0    0  501    0  0.00000000000E+00  0.00000000000E+00 -0.43417558427E+03  0.43417558428E+03  0.25500000920E-02 0.  1.
    10030    2    1    2    0    0  0.00000000000E+00  0.00000000000E+00  0.54443274742E+03  0.14127839160E+04  0.13036684305E+04 0.  0.
        4    1    3    3  502    0 -0.43956862339E+03 -0.11365803400E+03  0.77906718988E+03  0.90171282713E+03  0.12699999809E+01 0. -1.
       -4    1    3    3    0  502  0.43956862339E+03  0.11365803400E+03 -0.23463444246E+03  0.51107108884E+03  0.12699999809E+01 0.  1.
</event>
<event>
 5   0  0.5563545E-04  0.1300056E+04  0.7818609E-02  0.9029521E-01
        1   -1    0    0  501    0  0.00000000000E+00  0.00000000000E+00  0.64392793984E+03  0.64392793986E+03  0.50400001928E-02 0.  1.
       -1   -1    0    0    0  501  0.00000000000E+00  0.00000000000E+00 -0.65618548897E+03  0.65618548899E+03  0.50400001928E-02 0. -1.
    10030    2    1    2    0    0  0.00000000000E+00  0.00000000000E+00 -0.12257549137E+02  0.13001134289E+04  0.13000556451E+04 0.  0.
        2    1    3    3  502    0 -0.19397266734E+03 -0.19781772287E+03  0.58192705728E+03  0.64451248798E+03  0.25500000920E-02 0.  1.
       -2    1    3    3    0  502  0.19397266734E+03  0.19781772287E+03 -0.59418460642E+03  0.65560094087E+03  0.25500000920E-02 0. -1.
</event>
<event>
 5   0  0.5710383E-04  0.1295576E+04  0.7818609E-02  0.9033081E-01
       -1   -1    0    0    0  501  0.00000000000E+00  0.00000000000E+00  0.29540006324E+03  0.29540006328E+03  0.50400001928E-02 0.  1.
        1   -1    0    0  501    0  0.00000000000E+00  0.00000000000E+00 -0.14205452137E+04  0.14205452137E+04  0.50400001928E-02 0. -1.
    10030    2    1    2    0    0  0.00000000000E+00  0.00000000000E+00 -0.11251451504E+04  0.17159452770E+04  0.12955757732E+04 0.  0.
        1    1    3    3  502    0 -0.32063532051E+03  0.31457668194E+02  0.18176348677E+03  0.36991155537E+03  0.50400001928E-02 0.  1.
       -1    1    3    3    0  502  0.32063532051E+03 -0.31457668194E+02 -0.13069086372E+04  0.13460337216E+04  0.50400001928E-02 0. -1.
</event>
<event>
 5   0  0.1081574E-03  0.1313512E+04  0.7818609E-02  0.9018918E-01
        2   -1    0    0  501    0  0.00000000000E+00  0.00000000000E+00  0.94931066321E+03  0.94931066321E+03  0.25500000920E-02 0. -1.
       -2   -1    0    0    0  501  0.00000000000E+00  0.00000000000E+00 -0.45435984597E+03  0.45435984598E+03  0.25500000920E-02 0.  1.
    10030    2    1    2    0    0  0.00000000000E+00  0.00000000000E+00  0.49495081724E+03  0.14036705092E+04  0.13135123094E+04 0.  0.
        5    1    3    3  502    0 -0.58182326308E+03  0.23317336298E+03  0.38015535840E+02  0.62797722699E+03  0.46999998093E+01 0.  1.
       -5    1    3    3    0  502  0.58182326308E+03 -0.23317336298E+03  0.45693528140E+03  0.77569328220E+03  0.46999998093E+01 0. -1.
</event>
<event>
 5   0  0.5812938E-04  0.1296054E+04  0.7818609E-02  0.9032700E-01
       -1   -1    0    0    0  501  0.00000000000E+00  0.00000000000E+00  0.38923202938E+03  0.38923202941E+03  0.50400001928E-02 0.  1.
        1   -1    0    0  501    0  0.00000000000E+00  0.00000000000E+00 -0.10788908655E+04  0.10788908655E+04  0.50400001928E-02 0. -1.
    10030    2    1    2    0    0  0.00000000000E+00  0.00000000000E+00 -0.68965883611E+03  0.14681228949E+04  0.12960538277E+04 0.  0.
        5    1    3    3  502    0 -0.39371180154E+03  0.12322352593E+03  0.22123950722E+03  0.46814744426E+03  0.46999998093E+01 0.  1.
       -5    1    3    3    0  502  0.39371180154E+03 -0.12322352593E+03 -0.91089834333E+03  0.99997545064E+03  0.46999998093E+01 0. -1.
</event>
<event>
 5   0  0.1046253E-03  0.1321430E+04  0.7818609E-02  0.9012741E-01
        2   -1    0    0  501    0  0.00000000000E+00  0.00000000000E+00  0.30163443253E+03  0.30163443254E+03  0.25500000920E-02 0.  1.
       -2   -1    0    0    0  501  0.00000000000E+00  0.00000000000E+00 -0.14472637226E+04  0.14472637226E+04  0.25500000920E-02 0. -1.
    10030    2    1    2    0    0  0.00000000000E+00  0.00000000000E+00 -0.11456292900E+04  0.17488981551E+04  0.13214303942E+04 0.  0.
        3    1    3    3  502    0  0.58718036398E+03 -0.29268168618E+03 -0.67619268495E+03  0.94216766377E+03  0.10100000352E+00 0.  1.
       -3    1    3    3    0  502 -0.58718036398E+03  0.29268168618E+03 -0.46943660509E+03  0.80673049135E+03  0.10100000352E+00 0. -1.
</event>
<event>
 5   0  0.1101619E-03  0.1304685E+04  0.7818609E-02  0.9025858E-01
        2   -1    0    0  501    0  0.00000000000E+00  0.00000000000E+00  0.10964597330E+04  0.10964597330E+04  0.25500000920E-02 0.  1.
       -2   -1    0    0    0  501  0.00000000000E+00  0.00000000000E+00 -0.38811322403E+03  0.38811322404E+03  0.25500000920E-02 0. -1.
    10030    2    1    2    0    0  0.00000000000E+00  0.00000000000E+00  0.70834650900E+03  0.14845729571E+04  0.13046846700E+04 0.  0.
        1    1    3    3  502    0  0.11934602946E+03  0.28444886766E+03 -0.29988028936E+03  0.43021253007E+03  0.50400001928E-02 0. -1.
       -1    1    3    3    0  502 -0.11934602946E+03 -0.28444886766E+03  0.10082267984E+04  0.10543604270E+04  0.50400001928E-02 0.  1.
</event>
<event>
 5   0  0.5563545E-04  0.1343676E+04  0.7818609E-02  0.8995629E-01
       -1   -1    0    0    0  501  0.00000000000E+00  0.00000000000E+00  0.88230413488E+03  0.88230413489E+03  0.50400001928E-02 0. -1.
        1   -1    0    0  501    0  0.00000000000E+00  0.00000000000E+00 -0.51157677443E+03  0.51157677446E+03  0.50400001928E-02 0.  1.
    10030    2    1    2    0    0  0.00000000000E+00  0.00000000000E+00  0.37072736044E+03  0.13938809093E+04  0.13436760077E+04 0.  0.
        2    1    3    3  502    0 -0.65733322912E+03 -0.13778181668E+03  0.16753126924E+03  0.69219760856E+03  0.25500000920E-02 0.  1.
       -2    1    3    3    0  502  0.65733322912E+03  0.13778181668E+03  0.20319609121E+03  0.70168330079E+03  0.25500000920E-02 0. -1.
</event>
<event>
 5   0  0.5563545E-04  0.1243010E+04  0.7818609E-02  0.9076021E-01
       -1   -1    0    0    0  501  0.00000000000E+00  0.00000000000E+00  0.52255874118E+03  0.52255874120E+03  0.50400001928E-02 0. -1.
        1   -1    0    0  501    0  0.00000000000E+00  0.00000000000E+00 -0.73918703431E+03  0.73918703433E+03  0.50400001928E-02 0.  1.
    10030    2    1    2    0    0  0.00000000000E+00  0.00000000000E+00 -0.21662829314E+03  0.12617457755E+04  0.12430102915E+04 0.  0.
        2    1    3    3  502    0 -0.12333522900E+03  0.57268413409E+03  0.10239584518E+03  0.59469622940E+03  0.25500000920E-02 0. -1.
       -2    1    3    3    0  502  0.12333522900E+03 -0.57268413409E+03 -0.31902413831E+03  0.66704954612E+03  0.25500000920E-02 0.  1.
</event>
<event>
 5   0  0.1046253E-03  0.1291585E+04  0.7818609E-02  0.9036265E-01
       -2   -1    0    0    0  501  0.00000000000E+00  0.00000000000E+00  0.77004190639E+03  0.77004190639E+03  0.25500000920E-02 0. -1.
        2   -1    0    0  501    0  0.00000000000E+00  0.00000000000E+00 -0.54159091892E+03  0.54159091892E+03  0.25500000920E-02 0.  1.
    10030    2    1    2    0    0  0.00000000000E+00  0.00000000000E+00  0.22845098747E+03  0.13116328253E+04  0.12915846139E+04 0.  0.
        3    1    3    3  502    0 -0.17694064225E+03  0.27326667775E+03  0.68061474924E+03  0.75446611265E+03  0.10100000352E+00 0. -1.
       -3    1    3    3    0  502  0.17694064225E+03 -0.27326667775E+03 -0.45216376177E+03  0.55716671267E+03  0.10100000352E+00 0.  1.
</event>
<event>
 5   0  0.1081574E-03  0.1305069E+04  0.7818609E-02  0.9025555E-01
       -2   -1    0    0    0  501  0.00000000000E+00  0.00000000000E+00  0.34748473709E+03  0.34748473710E+03  0.25500000920E-02 0.  1.
        2   -1    0    0  501    0  0.00000000000E+00  0.00000000000E+00 -0.12253818610E+04  0.12253818610E+04  0.25500000920E-02 0. -1.
    10030    2    1    2    0    0  0.00000000000E+00  0.00000000000E+00 -0.87789712395E+03  0.15728665981E+04  0.13050693373E+04 0.  0.
        5    1    3    3  502    0 -0.10011970858E+02  0.49514643676E+03  0.73096212996E+02  0.50063497656E+03  0.46999998093E+01 0.  1.
       -5    1    3    3    0  502  0.10011970858E+02 -0.49514643676E+03 -0.95099333694E+03  0.10722316216E+04  0.46999998093E+01 0. -1.
</event>
<event>
 5   0  0.6006119E-04  0.1153008E+04  0.7818609E-02  0.9155013E-01
       -1   -1    0    0    0  501  0.00000000000E+00  0.00000000000E+00  0.54958727524E+03  0.54958727526E+03  0.50400001928E-02 0.  1.
        1   -1    0    0  501    0  0.00000000000E+00  0.00000000000E+00 -0.60473949015E+03  0.60473949018E+03  0.50400001928E-02 0. -1.
    10030    2    1    2    0    0  0.00000000000E+00  0.00000000000E+00 -0.55152214917E+02  0.11543267654E+04  0.11530084625E+04 0.  0.
        4    1    3    3  502    0  0.56719958509E+03  0.78501523588E+02 -0.94567914534E+02  0.58036416317E+03  0.12699999809E+01 0. -1.
       -4    1    3    3    0  502 -0.56719958509E+03 -0.78501523588E+02  0.39415699616E+02  0.57396260227E+03  0.12699999809E+01 0.  1.
</event>
<event>
 5   0  0.6006119E-04  0.1294891E+04  0.7818609E-02  0.9033626E-01
        1   -1    0    0  501    0  0.00000000000E+00  0.00000000000E+00  0.77293931148E+03  0.77293931149E+03  0.50400001928E-02 0. -1.
       -1   -1    0    0    0  501  0.00000000000E+00  0.00000000000E+00 -0.54232708383E+03  0.54232708385E+03  0.50400001928E-02 0.  1.
    10030    2    1    2    0    0  0.00000000000E+00  0.00000000000E+00  0.23061222765E+03  0.13152663953E+04  0.12948913820E+04 0.  0.
        4    1    3    3  502    0  0.37597578639E+03 -0.56785185389E+01  0.65066131608E+03  0.75149969971E+03  0.12699999809E+01 0. -1.
       -4    1    3    3    0  502 -0.37597578639E+03  0.56785185389E+01 -0.42004908843E+03  0.56376669564E+03  0.12699999809E+01 0.  1.
</event>
<event>
 5   0  0.5710383E-04  0.1311328E+04  0.7818609E-02  0.9020630E-01
        1   -1    0    0  501    0  0.00000000000E+00  0.00000000000E+00  0.87581359862E+03  0.87581359863E+03  0.50400001928E-02 0. -1.
       -1   -1    0    0    0  501  0.00000000000E+00  0.00000000000E+00 -0.49085275425E+03  0.49085275427E+03  0.50400001928E-02 0.  1.
    10030    2    1    2    0    0  0.00000000000E+00  0.00000000000E+00  0.38496084437E+03  0.13666663529E+04  0.13113283603E+04 0.  0.
        1    1    3    3  502    0  0.31832016974E+03 -0.27308957306E+03  0.71772218204E+03  0.83128260898E+03  0.50400001928E-02 0. -1.
       -1    1    3    3    0  502 -0.31832016974E+03  0.27308957306E+03 -0.33276133767E+03  0.53538374392E+03  0.50400001928E-02 0.  1.
</event>
<event>
 5   0  0.5710383E-04  0.1301106E+04  0.7818609E-02  0.9028689E-01
       -1   -1    0    0    0  501  0.00000000000E+00  0.00000000000E+00  0.35069496043E+03  0.35069496046E+03  0.50400001928E-02 0. -1.
        1   -1    0    0  501    0  0.00000000000E+00  0.00000000000E+00 -0.12068016224E+04  0.12068016224E+04  0.50400001928E-02 0.  1.
    10030    2    1    2    0    0  0.00000000000E+00  0.00000000000E+00 -0.85610666194E+03  0.15574965828E+04  0.13011060637E+04 0.  0.
        1    1    3    3  502    0  0.46959587814E+03  0.40207042013E+03 -0.67055195099E+03  0.91204212101E+03  0.50400001928E-02 0.  1.
       -1    1    3    3    0  502 -0.46959587814E+03 -0.40207042013E+03 -0.18555471096E+03  0.64545446183E+03  0.50400001928E-02 0. -1.
</event>
<event>
 5   0  0.5563545E-04  0.1252185E+04  0.7818609E-02  0.9068367E-01
        1   -1    0    0  501    0  0.00000000000E+00  0.00000000000E+00  0.74403250601E+03  0.74403250603E+03  0.50400001928E-02 0. -1.
       -1   -1    0    0    0  501  0.00000000000E+00  0.00000000000E+00 -0.52684745707E+03  0.52684745709E+03  0.50400001928E-02 0.  1.
    10030    2    1    2    0    0  0.00000000000E+00  0.00000000000E+00  0.21718504894E+03  0.12708799631E+04  0.12521847049E+04 0.  0.
        2    1    3    3  502    0  0.44440643554E+03 -0.20878239851E+03 -0.28567152783E+03  0.56806284133E+03  0.25500000920E-02 0.  1.
       -2    1    3    3    0  502 -0.44440643554E+03  0.20878239851E+03  0.50285657677E+03  0.70281712179E+03  0.25500000920E-02 0. -1.
</event>
<event>
 5   0  0.5812938E-04  0.1290437E+04  0.7818609E-02  0.9037183E-01
        1   -1    0    0  501    0  0.00000000000E+00  0.00000000000E+00  0.17468131791E+04  0.17468131791E+04  0.50400001928E-02 0. -1.
       -1   -1    0    0    0  501  0.00000000000E+00  0.00000000000E+00 -0.23832363829E+03  0.23832363834E+03  0.50400001928E-02 0.  1.
    10030    2    1    2    0    0  0.00000000000E+00  0.00000000000E+00  0.15084895408E+04  0.19851368174E+04  0.12904369373E+04 0.  0.
        5    1    3    3  502    0  0.51727497418E+03 -0.17021069727E+02  0.16158928249E+03  0.54221425834E+03  0.46999998093E+01 0.  1.
       -5    1    3    3    0  502 -0.51727497418E+03  0.17021069727E+02  0.13469002583E+04  0.14429225591E+04  0.46999998093E+01 0. -1.
</event>
<event>
 5   0  0.5563545E-04  0.1307442E+04  0.7818609E-02  0.9023685E-01
        1   -1    0    0  501    0  0.00000000000E+00  0.00000000000E+00  0.15224771357E+04  0.15224771357E+04  0.50400001928E-02 0.  1.
       -1   -1    0    0    0  501  0.00000000000E+00  0.00000000000E+00 -0.28069443390E+03  0.28069443394E+03  0.50400001928E-02 0. -1.
    10030    2    1    2    0    0  0.00000000000E+00  0.00000000000E+00  0.12417827018E+04  0.18031715697E+04  0.13074415593E+04 0.  0.
        2    1    3    3  502    0  0.61223818220E+02  0.64905694478E+03  0.68742900332E+03  0.94740799453E+03  0.25500000920E-02 0. -1.
       -2    1    3    3    0  502 -0.61223818220E+02 -0.64905694478E+03  0.55435369849E+03  0.85576357513E+03  0.25500000920E-02 0.  1.
</event>
<event>
 5   0  0.1101619E-03  0.1301630E+04  0.7818609E-02  0.9028274E-01
        2   -1    0    0  501    0  0.00000000000E+00  0.00000000000E+00  0.16107911416E+04  0.16107911416E+04  0.25500000920E-02 0. -1.
       -2   -1    0    0    0  501  0.00000000000E+00  0.00000000000E+00 -0.26295151259E+03  0.26295151260E+03  0.25500000920E-02 0.  1.
    10030    2    1    2    0    0  0.00000000000E+00  0.00000000000E+00  0.13478396290E+04  0.18737426542E+04  0.13016296972E+04 0.  0.
        1    1    3    3  502    0  0.65012784455E+02  0.50244723177E+03  0.85855603040E+02  0.51385899570E+03  0.50400001928E-02 0.  1.
       -1    1    3    3    0  502 -0.65012784455E+02 -0.50244723177E+03  0.12619840260E+04  0.13598836585E+04  0.50400001928E-02 0. -1.
</event>
<event>
 5   0  0.1101619E-03  0.1298256E+04  0.7818609E-02  0.9030949E-01
       -2   -1    0    0    0  501  0.00000000000E+00  0.00000000000E+00  0.29026216810E+03  0.29026216811E+03  0.25500000920E-02 0. -1.
        2   -1    0    0  501    0  0.00000000000E+00  0.00000000000E+00 -0.14516783397E+04  0.14516783397E+04  0.25500000920E-02 0.  1.
    10030    2    1    2    0    0  0.00000000000E+00  0.00000000000E+00 -0.11614161716E+04  0.17419405078E+04  0.12982562186E+04 0.  0.
        1    1    3    3  502    0 -0.43298635029E+03  0.21715740476E+03 -0.90143407596E+00  0.48439171193E+03  0.50400001928E-02 0. -1.
       -1    1    3    3    0  502  0.43298635029E+03 -0.21715740476E+03 -0.11605147375E+04  0.12575487959E+04  0.50400001928E-02 0.  1.
</event>
<event>
 5   0  0.1031295E-03  0.1303686E+04  0.7818609E-02  0.9026648E-01
       -2   -1    0    0    0  501  0.00000000000E+00  0.00000000000E+00  0.62080719490E+03  0.62080719491E+03  0.25500000920E-02 0.  1.
        2   -1    0    0  501    0  0.00000000000E+00  0.00000000000E+00 -0.68442995218E+03  0.68442995219E+03  0.25500000920E-02 0. -1.
    10030    2    1    2    0    0  0.00000000000E+00  0.00000000000E+00 -0.63622757278E+02  0.13052371471E+04  0.13036856043E+04 0.  0.
        2    1    3    3  502    0 -0.15184800634E+03  0.33002317930E+03 -0.57368181695E+03  0.67903162151E+03  0.25500000920E-02 0. -1.
       -2    1    3    3    0  502  0.15184800634E+03 -0.33002317930E+03  0.51005905967E+03  0.62620552558E+03  0.25500000920E-02 0.  1.
</event>
<event>
 5   0  0.6006119E-04  0.1341867E+04  0.7818609E-02  0.8997008E-01
        1   -1    0    0  501    0  0.00000000000E+00  0.00000000000E+00  0.20203837243E+04  0.20203837243E+04  0.50400001928E-02 0. -1.
       -1   -1    0    0    0  501  0.00000000000E+00  0.00000000000E+00 -0.22280491906E+03  0.22280491912E+03  0.50400001928E-02 0.  1.
    10030    2    1    2    0    0  0.00000000000E+00  0.00000000000E+00  0.17975788052E+04  0.22431886434E+04  0.13418665094E+04 0.  0.
        4    1    3    3  502    0  0.25996466627E+03 -0.48624959618E+03  0.15378256096E+04  0.16336858682E+04  0.12699999809E+01 0. -1.
       -4    1    3    3    0  502 -0.25996466627E+03  0.48624959618E+03  0.25975319568E+03  0.60950277527E+03  0.12699999809E+01 0.  1.
</event>
<event>
 5   0  0.6006119E-04  0.1297956E+04  0.7818609E-02  0.9031188E-01
        1   -1    0    0  501    0  0.00000000000E+00  0.00000000000E+00  0.78456955335E+03  0.78456955337E+03  0.50400001928E-02 0. -1.
       -1   -1    0    0    0  501  0.00000000000E+00  0.00000000000E+00 -0.53681967815E+03  0.53681967817E+03  0.50400001928E-02 0.  1.
    10030    2    1    2    0    0  0.00000000000E+00  0.00000000000E+00  0.24774987520E+03  0.13213892315E+04  0.12979558932E+04 0.  0.
        4    1    3    3  502    0 -0.83094687382E+02 -0.63759286378E+03  0.34301366692E+02  0.64390029016E+03  0.12699999809E+01 0.  1.
       -4    1    3    3    0  502  0.83094687382E+02  0.63759286378E+03  0.21344850851E+03  0.67748894138E+03  0.12699999809E+01 0. -1.
</event>
<event>
 5   0  0.5710383E-04  0.1296283E+04  0.7818609E-02  0.9032518E-01
        1   -1    0    0  501    0  0.00000000000E+00  0.00000000000E+00  0.86213291398E+03  0.86213291400E+03  0.50400001928E-02 0. -1.
       -1   -1    0    0    0  501  0.00000000000E+00  0.00000000000E+00 -0.48726525101E+03  0.48726525104E+03  0.50400001928E-02 0.  1.
    10030    2    1    2    0    0  0.00000000000E+00  0.00000000000E+00  0.37486766297E+03  0.13493981650E+04  0.12962830104E+04 0.  0.
        1    1    3    3  502    0 -0.54804434981E+02 -0.26479211570E+03 -0.42574285750E+03  0.50435639320E+03  0.50400001928E-02 0.  1.
       -1    1    3    3    0  502  0.54804434981E+02  0.26479211570E+03  0.80061052047E+03  0.84504177183E+03  0.50400001928E-02 0. -1.
</event>
<event>
 5   0  0.5563545E-04  0.1297349E+04  0.7818609E-02  0.9031670E-01
        1   -1    0    0  501    0  0.00000000000E+00  0.00000000000E+00  0.47986776923E+03  0.47986776925E+03  0.50400001928E-02 0. -1.
       -1   -1    0    0    0  501  0.00000000000E+00  0.00000000000E+00 -0.87686399373E+03  0.87686399375E+03  0.50400001928E-02 0.  1.
    10030    2    1    2    0    0  0.00000000000E+00  0.00000000000E+00 -0.39699622451E+03  0.13567317630E+04  0.12973492492E+04 0.  0.
        2    1    3    3  502    0  0.49223305758E+03  0.30450007466E+03 -0.50475958174E+03  0.76798171450E+03  0.25500000920E-02 0.  1.
       -2    1    3    3    0  502 -0.49223305758E+03 -0.30450007466E+03  0.10776335723E+03  0.58875004850E+03  0.25500000920E-02 0. -1.
</event>
<event>
 5   0  0.5563545E-04  0.1235019E+04  0.7818609E-02  0.9082745E-01
       -1   -1    0    0    0  501  0.00000000000E+00  0.00000000000E+00  0.11127481055E+04  0.11127481055E+04  0.50400001928E-02 0. -1.
        1   -1    0    0  501    0  0.00000000000E+00  0.00000000000E+00 -0.34268136352E+03  0.34268136356E+03  0.50400001928E-02 0.  1.
    10030    2    1    2    0    0  0.00000000000E+00  0.00000000000E+00  0.77006674199E+03  0.14554294691E+04  0.12350190899E+04 0.  0.
        2    1    3    3  502    0 -0.28968966501E+03 -0.54531245489E+03  0.39172708685E+03  0.73125637505E+03  0.25500000920E-02 0.  1.
       -2    1    3    3    0  502  0.28968966501E+03  0.54531245489E+03  0.37833965514E+03  0.72417309404E+03  0.25500000920E-02 0. -1.
</event>
<event>
 5   0  0.1046253E-03  0.1297115E+04  0.7818609E-02  0.9031856E-01
       -2   -1    0    0    0  501  0.00000000000E+00  0.00000000000E+00  0.67922177743E+03  0.67922177744E+03  0.25500000920E-02 0. -1.
        2   -1    0    0  501    0  0.00000000000E+00  0.00000000000E+00 -0.61927714896E+03  0.61927714897E+03  0.25500000920E-02 0.  1.
    10030    2    1    2    0    0  0.00000000000E+00  0.00000000000E+00  0.59944628471E+02  0.12984989264E+04  0.12971145298E+04 0.  0.
        3    1    3    3  502    0 -0.28783781986E+03  0.24367202016E+03  0.55817155245E+03  0.67363354735E+03  0.10100000352E+00 0. -1.
       -3    1    3    3    0  502  0.28783781986E+03 -0.24367202016E+03 -0.49822692398E+03  0.62486537905E+03  0.10100000352E+00 0.  1.
</event>
<event>
 5   0  0.1101619E-03  0.1305848E+04  0.7818609E-02  0.9024940E-01
       -2   -1    0    0    0  501  0.00000000000E+00  0.00000000000E+00  0.24613114393E+03  0.24613114394E+03  0.25500000920E-02 0. -1.
        2   -1    0    0  501    0  0.00000000000E+00  0.00000000000E+00 -0.17320436693E+04  0.17320436693E+04  0.25500000920E-02 0.  1.
    10030    2    1    2    0    0  0.00000000000E+00  0.00000000000E+00 -0.14859125253E+04  0.19781748132E+04  0.13058482142E+04 0.  0.
        1    1    3    3  502    0 -0.19537470082E+03  0.59774592954E+03 -0.10089785513E+04  0.11889109247E+04  0.50400001928E-02 0.  1.
       -1    1    3    3    0  502  0.19537470082E+03 -0.59774592954E+03 -0.47693397407E+03  0.78926388847E+03  0.50400001928E-02 0. -1.
</event>
<event>
 5   0  0.1046253E-03  0.1277036E+04  0.7818609E-02  0.9047976E-01
        2   -1    0    0  501    0  0.00000000000E+00  0.00000000000E+00  0.73208346047E+03  0.73208346048E+03  0.25500000920E-02 0.  1.
       -2   -1    0    0    0  501  0.00000000000E+00  0.00000000000E+00 -0.55691129441E+03  0.55691129441E+03  0.25500000920E-02 0. -1.
    10030    2    1    2    0    0  0.00000000000E+00  0.00000000000E+00  0.17517216607E+03  0.12889947549E+04  0.12770364875E+04 0.  0.
        3    1    3    3  502    0  0.29143105405E+03  0.56119607497E+03  0.17691590764E+03  0.65663714668E+03  0.10100000352E+00 0.  1.
       -3    1    3    3    0  502 -0.29143105405E+03 -0.56119607497E+03 -0.17437415764E+01  0.63235760821E+03  0.10100000352E+00 0. -1.
</event>
<event>
 5   0  0.5710383E-04  0.1303023E+04  0.7818609E-02  0.9027172E-01
       -1   -1    0    0    0  501  0.00000000000E+00  0.00000000000E+00  0.82729171458E+03  0.82729171460E+03  0.50400001928E-02 0.  1.
        1   -1    0    0  501    0  0.00000000000E+00  0.00000000000E+00 -0.51308028330E+03  0.51308028332E+03  0.50400001928E-02 0. -1.
    10030    2    1    2    0    0  0.00000000000E+00  0.00000000000E+00  0.31421143128E+03  0.13403719979E+04  0.13030227432E+04 0.  0.
        1    1    3    3  502    0  0.54756561951E+03  0.34388822537E+03  0.23926913761E+03  0.68944683584E+03  0.50400001928E-02 0.  1.
       -1    1    3    3    0  502 -0.54756561951E+03 -0.34388822537E+03  0.74942293672E+02  0.65092516208E+03  0.50400001928E-02 0. -1.
</event>
<event>
 5   0  0.1031295E-03  0.1303101E+04  0.7818609E-02  0.9027110E-01
       -2   -1    0    0    0  501  0.00000000000E+00  0.00000000000E+00  0.26447284641E+03  0.26447284642E+03  0.25500000920E-02 0. -1.
        2   -1    0    0  501    0  0.00000000000E+00  0.00000000000E+00 -0.16051474735E+04  0.16051474735E+04  0.25500000920E-02 0.  1.
    10030    2    1    2    0    0  0.00000000000E+00  0.00000000000E+00 -0.13406746271E+04  0.18696203199E+04  0.13031007962E+04 0.  0.
        2    1    3    3  502    0  0.29442271471E+02 -0.60418124147E+03 -0.32297405986E+03  0.68572156393E+03  0.25500000920E-02 0. -1.
       -2    1    3    3    0  502 -0.29442271471E+02  0.60418124147E+03 -0.10177005672E+04  0.11838987560E+04  0.25500000920E-02 0.  1.
</event>
<event>
 5   0  0.1031295E-03  0.1297670E+04  0.7818609E-02  0.9031415E-01
       -2   -1    0    0    0  501  0.00000000000E+00  0.00000000000E+00  0.35402738648E+03  0.35402738649E+03  0.25500000920E-02 0. -1.
        2   -1    0    0  501    0  0.00000000000E+00  0.00000000000E+00 -0.11891367264E+04  0.11891367264E+04  0.25500000920E-02 0.  1.
    10030    2    1    2    0    0  0.00000000000E+00  0.00000000000E+00 -0.83510933990E+03  0.15431641129E+04  0.12976701698E+04 0.  0.
        2    1    3    3  502    0  0.76938689568E+02 -0.64315291654E+03 -0.37271560257E+03  0.74731663732E+03  0.25500000920E-02 0. -1.
       -2    1    3    3    0  502 -0.76938689568E+02  0.64315291654E+03 -0.46239373734E+03  0.79584747555E+03  0.25500000920E-02 0.  1.
</event>
<event>
 5   0  0.5710383E-04  0.1313392E+04  0.7818609E-02  0.9019012E-01
       -1   -1    0    0    0  501  0.00000000000E+00  0.00000000000E+00  0.24733894790E+03  0.24733894795E+03  0.50400001928E-02 0. -1.
        1   -1    0    0  501    0  0.00000000000E+00  0.00000000000E+00 -0.17435585095E+04  0.17435585095E+04  0.50400001928E-02 0.  1.
    10030    2    1    2    0    0  0.00000000000E+00  0.00000000000E+00 -0.14962195616E+04  0.19908974575E+04  0.13133924431E+04 0.  0.
        1    1    3    3  502    0 -0.63770044967E+03 -0.39658205191E+02 -0.97807524035E+03  0.11682747162E+04  0.50400001928E-02 0.  1.
       -1    1    3    3    0  502  0.63770044967E+03  0.39658205191E+02 -0.51814432125E+03  0.82262274124E+03  0.50400001928E-02 0. -1.
</event>
<event>
 5   0  0.5563545E-04  0.1303392E+04  0.7818609E-02  0.9026880E-01
       -1   -1    0    0    0  501  0.00000000000E+00  0.00000000000E+00  0.23377784666E+03  0.23377784671E+03  0.50400001928E-02 0. -1.
        1   -1    0    0  501    0  0.00000000000E+00  0.00000000000E+00 -0.18167150585E+04  0.18167150586E+04  0.50400001928E-02 0.  1.
    10030    2    1    2    0    0  0.00000000000E+00  0.00000000000E+00 -0.15829372119E+04  0.20504929053E+04  0.13033920890E+04 0.  0.
        2    1    3    3  502    0  0.27027838041E+03  0.33661828488E+03 -0.15595135487E+04  0.16181609256E+04  0.25500000920E-02 0.  1.
       -2    1    3    3    0  502 -0.27027838041E+03 -0.33661828488E+03 -0.23423663216E+02  0.43233197966E+03  0.25500000920E-02 0. -1.
</event>
<event>
 5   0  0.5812938E-04  0.1282702E+04  0.7818609E-02  0.9043396E-01
       -1   -1    0    0    0  501  0.00000000000E+00  0.00000000000E+00  0.66565870633E+03  0.66565870634E+03  0.50400001928E-02 0.  1.
        1   -1    0    0  501    0  0.00000000000E+00  0.00000000000E+00 -0.61793130939E+03  0.61793130941E+03  0.50400001928E-02 0. -1.
    10030    2    1    2    0    0  0.00000000000E+00  0.00000000000E+00  0.47727396934E+02  0.12835900158E+04  0.12827023911E+04 0.  0.
        5    1    3    3  502    0  0.68625646829E+02 -0.63676776884E+03  0.57451716262E+02  0.64304390249E+03  0.46999998093E+01 0. -1.
       -5    1    3    3    0  502 -0.68625646829E+02  0.63676776884E+03 -0.97243193276E+01  0.64054611326E+03  0.46999998093E+01 0.  1.
</event>
<event>
 5   0  0.1103241E-03  0.1282905E+04  0.7818609E-02  0.9043233E-01
        2   -1    0    0  501    0  0.00000000000E+00  0.00000000000E+00  0.73138213934E+03  0.73138213935E+03  0.25500000920E-02 0.  1.
       -2   -1    0    0    0  501  0.00000000000E+00  0.00000000000E+00 -0.56258017022E+03  0.56258017023E+03  0.25500000920E-02 0. -1.
    10030    2    1    2    0    0  0.00000000000E+00  0.00000000000E+00  0.16880196912E+03  0.12939623096E+04  0.12829046550E+04 0.  0.
        4    1    3    3  502    0 -0.53224664440E+03 -0.18654901524E+03 -0.22380184575E+03  0.60677500329E+03  0.12699999809E+01 0.  1.
       -4    1    3    3    0  502  0.53224664440E+03  0.18654901524E+03  0.39260381487E+03  0.68718730628E+03  0.12699999809E+01 0. -1.
</event>
<event>
 5   0  0.5812938E-04  0.1290914E+04  0.7818609E-02  0.9036801E-01
        1   -1    0    0  501    0  0.00000000000E+00  0.00000000000E+00  0.94159446164E+03  0.94159446166E+03  0.50400001928E-02 0.  1.
       -1   -1    0    0    0  501  0.00000000000E+00  0.00000000000E+00 -0.44245696180E+03  0.44245696183E+03  0.50400001928E-02 0. -1.
    10030    2    1    2    0    0  0.00000000000E+00  0.00000000000E+00  0.49913749984E+03  0.13840514235E+04  0.12909144430E+04 0.  0.
        5    1    3    3  502    0 -0.64658619763E+02  0.36270189083E+03 -0.31862879593E+03  0.48711374269E+03  0.46999998093E+01 0. -1.
       -5    1    3    3    0  502  0.64658619763E+02 -0.36270189083E+03  0.81776629578E+03  0.89693768080E+03  0.46999998093E+01 0.  1.
</event>
<event>
 5   0  0.1046253E-03  0.1297563E+04  0.7818609E-02  0.9031500E-01
        2   -1    0    0  501    0  0.00000000000E+00  0.00000000000E+00  0.63120800684E+03  0.63120800684E+03  0.25500000920E-02 0.  1.
       -2   -1    0    0    0  501  0.00000000000E+00  0.00000000000E+00 -0.66684396072E+03  0.66684396072E+03  0.25500000920E-02 0. -1.
    10030    2    1    2    0    0  0.00000000000E+00  0.00000000000E+00 -0.35635953882E+02  0.12980519676E+04  0.12975627111E+04 0.  0.
        3    1    3    3  502    0 -0.56369950255E+02 -0.57988946933E+03  0.26771541340E+03  0.64118711833E+03  0.10100000352E+00 0. -1.
       -3    1    3    3    0  502  0.56369950255E+02  0.57988946933E+03 -0.30335136728E+03  0.65686484924E+03  0.10100000352E+00 0.  1.
</event>
<event>
 5   0  0.5812938E-04  0.1315424E+04  0.7818609E-02  0.9017422E-01
        1   -1    0    0  501    0  0.00000000000E+00  0.00000000000E+00  0.95261999973E+03  0.95261999974E+03  0.50400001928E-02 0. -1.
       -1   -1    0    0    0  501  0.00000000000E+00  0.00000000000E+00 -0.45410065248E+03  0.45410065251E+03  0.50400001928E-02 0.  1.
    10030    2    1    2    0    0  0.00000000000E+00  0.00000000000E+00  0.49851934724E+03  0.14067206523E+04  0.13154244387E+04 0.  0.
        5    1    3    3  502    0 -0.47409801188E+03 -0.88123350834E+02 -0.22902672491E+03  0.53386326016E+03  0.46999998093E+01 0.  1.
       -5    1    3    3    0  502  0.47409801188E+03  0.88123350834E+02  0.72754607215E+03  0.87285739209E+03  0.46999998093E+01 0. -1.
</event>
<event>
 5   0  0.5766027E-04  0.1307590E+04  0.7818609E-02  0.9023568E-01
        1   -1    0    0  501    0  0.00000000000E+00  0.00000000000E+00  0.83510555040E+03  0.83510555042E+03  0.50400001928E-02 0. -1.
       -1   -1    0    0    0  501  0.00000000000E+00  0.00000000000E+00 -0.51184896204E+03  0.51184896206E+03  0.50400001928E-02 0.  1.
    10030    2    1    2    0    0  0.00000000000E+00  0.00000000000E+00  0.32325658836E+03  0.13469545125E+04  0.13075900110E+04 0.  0.
        3    1    3    3  502    0 -0.16464934985E+03  0.62621780341E+03  0.25484993537E+03  0.69584958538E+03  0.10100000352E+00 0. -1.
       -3    1    3    3    0  502  0.16464934985E+03 -0.62621780341E+03  0.68406652994E+02  0.65110492710E+03  0.10100000352E+00 0.  1.
</event>
<event>
 5   0  0.5766027E-04  0.1289925E+04  0.7818609E-02  0.9037593E-01
       -1   -1    0    0    0  501  0.00000000000E+00  0.00000000000E+00  0.12083621498E+04  0.12083621499E+04  0.50400001928E-02 0. -1.
        1   -1    0    0  501    0  0.00000000000E+00  0.00000000000E+00 -0.34424824966E+03  0.34424824970E+03  0.50400001928E-02 0.  1.
    10030    2    1    2    0    0  0.00000000000E+00  0.00000000000E+00  0.86411390019E+03  0.15526103996E+04  0.12899248894E+04 0.  0.
        3    1    3    3  502    0 -0.55788745039E+03  0.21824753333E+03  0.71969048309E+03  0.93638923251E+03  0.10100000352E+00 0. -1.
       -3    1    3    3    0  502  0.55788745039E+03 -0.21824753333E+03  0.14442341710E+03  0.61622116704E+03  0.10100000352E+00 0.  1.
</event>
<event>
 5   0  0.5812938E-04  0.1299114E+04  0.7818609E-02  0.9030268E-01
       -1   -1    0    0    0  501  0.00000000000E+00  0.00000000000E+00  0.32529346123E+03  0.32529346127E+03  0.50400001928E-02 0.  1.
        1   -1    0    0  501    0  0.00000000000E+00  0.00000000000E+00 -0.12970570795E+04  0.12970570795E+04  0.50400001928E-02 0. -1.
    10030    2    1    2    0    0  0.00000000000E+00  0.00000000000E+00 -0.97176361831E+03  0.16223505408E+04  0.12991138316E+04 0.  0.
        5    1    3    3  502    0 -0.52762001220E+03  0.12181215213E+02 -0.13026899804E+02  0.52794227847E+03  0.46999998093E+01 0. -1.
       -5    1    3    3    0  502  0.52762001220E+03 -0.12181215213E+02 -0.95873671850E+03  0.10944082623E+04  0.46999998093E+01 0.  1.
</event>
<event>
 5   0  0.1103241E-03  0.1298246E+04  0.7818609E-02  0.9030957E-01
        2   -1    0    0  501    0  0.00000000000E+00  0.00000000000E+00  0.10537180090E+04  0.10537180090E+04  0.25500000920E-02 0. -1.
       -2   -1    0    0    0  501  0.00000000000E+00  0.00000000000E+00 -0.39987993416E+03  0.39987993417E+03  0.25500000920E-02 0.  1.
    10030    2    1    2    0    0  0.00000000000E+00  0.00000000000E+00  0.65383807480E+03  0.14535979431E+04  0.12982460292E+04 0.  0.
        4    1    3    3  502    0  0.40861864105E+03  0.27449784481E+03  0.80068441466E+03  0.93990180625E+03  0.12699999809E+01 0. -1.
       -4    1    3    3    0  502 -0.40861864105E+03 -0.27449784481E+03 -0.14684633985E+03  0.51369613688E+03  0.12699999809E+01 0.  1.
</event>
<event>
 5   0  0.1046253E-03  0.1275431E+04  0.7818609E-02  0.9049279E-01
       -2   -1    0    0    0  501  0.00000000000E+00  0.00000000000E+00  0.28607977861E+03  0.28607977862E+03  0.25500000920E-02 0.  1.
        2   -1    0    0  501    0  0.00000000000E+00  0.00000000000E+00 -0.14215655502E+04  0.14215655502E+04  0.25500000920E-02 0. -1.
    10030    2    1    2    0    0  0.00000000000E+00  0.00000000000E+00 -0.11354857716E+04  0.17076453288E+04  0.12754311552E+04 0.  0.
        3    1    3    3  502    0 -0.38293789051E+03  0.16691076589E+03 -0.12128822458E+04  0.12828031744E+04  0.10100000352E+00 0. -1.
       -3    1    3    3    0  502  0.38293789051E+03 -0.16691076589E+03  0.77396474244E+02  0.42484215443E+03  0.10100000352E+00 0.  1.
</event>
<event>
 5   0  0.1031295E-03  0.1294444E+04  0.7818609E-02  0.9033983E-01
       -2   -1    0    0    0  501  0.00000000000E+00  0.00000000000E+00  0.35956679423E+03  0.35956679424E+03  0.25500000920E-02 0.  1.
        2   -1    0    0  501    0  0.00000000000E+00  0.00000000000E+00 -0.11650024961E+04  0.11650024961E+04  0.25500000920E-02 0. -1.
    10030    2    1    2    0    0  0.00000000000E+00  0.00000000000E+00 -0.80543570191E+03  0.15245692904E+04  0.12944438386E+04 0.  0.
        2    1    3    3  502    0  0.25448985659E+03 -0.16859173717E+03 -0.10748863191E+04  0.11173937802E+04  0.25500000920E-02 0. -1.
       -2    1    3    3    0  502 -0.25448985659E+03  0.16859173717E+03  0.26945061724E+03  0.40717551018E+03  0.25500000920E-02 0.  1.
</event>
<event>
 5   0  0.1101619E-03  0.1310998E+04  0.7818609E-02  0.9020889E-01
        2   -1    0    0  501    0  0.00000000000E+00  0.00000000000E+00  0.83455859382E+03  0.83455859382E+03  0.25500000920E-02 0.  1.
       -2   -1    0    0    0  501  0.00000000000E+00  0.00000000000E+00 -0.51485757220E+03  0.51485757220E+03  0.25500000920E-02 0. -1.
    10030    2    1    2    0    0  0.00000000000E+00  0.00000000000E+00  0.31970102162E+03  0.13494161660E+04  0.13109978055E+04 0.  0.
        1    1    3    3  502    0 -0.19460660401E+03  0.60032514400E+03  0.34229255750E+03  0.71793189356E+03  0.50400001928E-02 0.  1.
       -1    1    3    3    0  502  0.19460660401E+03 -0.60032514400E+03 -0.22591535876E+02  0.63148427246E+03  0.50400001928E-02 0. -1.
</event>
<event>
 5   0  0.1081574E-03  0.1293833E+04  0.7818609E-02  0.9034470E-01
        2   -1    0    0  501    0  0.00000000000E+00  0.00000000000E+00  0.47394047601E+03  0.47394047602E+03  0.25500000920E-02 0. -1.
       -2   -1    0    0    0  501  0.00000000000E+00  0.00000000000E+00 -0.88302451932E+03  0.88302451932E+03  0.25500000920E-02 0.  1.
    10030    2    1    2    0    0  0.00000000000E+00  0.00000000000E+00 -0.40908404331E+03  0.13569649953E+04  0.12938331593E+04 0.  0.
        5    1    3    3  502    0  0.72286082146E+02  0.41259683224E+03 -0.72156421295E+03  0.83434910383E+03  0.46999998093E+01 0.  1.
       -5    1    3    3    0  502 -0.72286082146E+02 -0.41259683224E+03  0.31248016964E+03  0.52261589152E+03  0.46999998093E+01 0. -1.
</event>
<event>
 5   0  0.1046253E-03  0.1290555E+04  0.7818609E-02  0.9037089E-01
       -2   -1    0    0    0  501  0.00000000000E+00  0.00000000000E+00  0.46001663824E+03  0.46001663825E+03  0.25500000920E-02 0. -1.
        2   -1    0    0  501    0  0.00000000000E+00  0.00000000000E+00 -0.90514737752E+03  0.90514737753E+03  0.25500000920E-02 0.  1.
    10030    2    1    2    0    0  0.00000000000E+00  0.00000000000E+00 -0.44513073928E+03  0.13651640158E+04  0.12905546927E+04 0.  0.
        3    1    3    3  502    0 -0.61994373026E+01 -0.50049210813E+03 -0.65335858335E+03  0.82304813465E+03  0.10100000352E+00 0.  1.
       -3    1    3    3    0  502  0.61994373026E+01  0.50049210813E+03  0.20822784407E+03  0.54211588113E+03  0.10100000352E+00 0. -1.
</event>
<event>
 5   0  0.5710383E-04  0.1314897E+04  0.7818609E-02  0.9017835E-01
       -1   -1    0    0    0  501  0.00000000000E+00  0.00000000000E+00  0.35069720281E+03  0.35069720285E+03  0.50400001928E-02 0.  1.
        1   -1    0    0  501    0  0.00000000000E+00  0.00000000000E+00 -0.12325117531E+04  0.12325117531E+04  0.50400001928E-02 0. -1.
    10030    2    1    2    0    0  0.00000000000E+00  0.00000000000E+00 -0.88181455025E+03  0.15832089559E+04  0.13148968389E+04 0.  0.
        1    1    3    3  502    0 -0.31650186869E+03  0.32815096194E+03 -0.10112560375E+04  0.11092769087E+04  0.50400001928E-02 0. -1.
       -1    1    3    3    0  502  0.31650186869E+03 -0.32815096194E+03  0.12944148729E+03  0.47393204720E+03  0.50400001928E-02 0.  1.
</event>
<event>
 5   0  0.5766027E-04  0.1307859E+04  0.7818609E-02  0.9023356E-01
        1   -1    0    0  501    0  0.00000000000E+00  0.00000000000E+00  0.13737176626E+04  0.13737176626E+04  0.50400001928E-02 0. -1.
       -1   -1    0    0    0  501  0.00000000000E+00  0.00000000000E+00 -0.31128926555E+03  0.31128926559E+03  0.50400001928E-02 0.  1.
    10030    2    1    2    0    0  0.00000000000E+00  0.00000000000E+00  0.10624283970E+04  0.16850069282E+04  0.13078586503E+04 0.  0.
        3    1    3    3  502    0 -0.29019018872E+03 -0.87618152553E+02 -0.21530332995E+03  0.37181019402E+03  0.10100000352E+00 0.  1.
       -3    1    3    3    0  502  0.29019018872E+03  0.87618152553E+02  0.12777317270E+04  0.13131967342E+04  0.10100000352E+00 0. -1.
</event>
<event>
 5   0  0.5812938E-04  0.1298748E+04  0.7818609E-02  0.9030559E-01
       -1   -1    0    0    0  501  0.00000000000E+00  0.00000000000E+00  0.77200540285E+03  0.77200540286E+03  0.50400001928E-02 0.  1.
        1   -1    0    0  501    0  0.00000000000E+00  0.00000000000E+00 -0.54622193468E+03  0.54622193470E+03  0.50400001928E-02 0. -1.
    10030    2    1    2    0    0  0.00000000000E+00  0.00000000000E+00  0.22578346817E+03  0.13182273376E+04  0.12987475270E+04 0.  0.
        5    1    3    3  502    0  0.99437846998E+02  0.40957053997E+03 -0.38850980366E+03  0.57323456818E+03  0.46999998093E+01 0. -1.
       -5    1    3    3    0  502 -0.99437846998E+02 -0.40957053997E+03  0.61429327182E+03  0.74499276938E+03  0.46999998093E+01 0.  1.
</event>
<event>
 5   0  0.5766027E-04  0.1273316E+04  0.7818609E-02  0.9050998E-01
        1   -1    0    0  501    0  0.00000000000E+00  0.00000000000E+00  0.11685932945E+04  0.11685932945E+04  0.50400001928E-02 0. -1.
       -1   -1    0    0    0  501  0.00000000000E+00  0.00000000000E+00 -0.34685587868E+03  0.34685587872E+03  0.50400001928E-02 0.  1.
    10030    2    1    2    0    0  0.00000000000E+00  0.00000000000E+00  0.82173741580E+03  0.15154491732E+04  0.12733160708E+04 0.  0.
        3    1    3    3  502    0 -0.46687815700E+03  0.68291370978E+02 -0.97838526469E+02  0.48188308987E+03  0.10100000352E+00 0.  1.
       -3    1    3    3    0  502  0.46687815700E+03 -0.68291370978E+02  0.91957594227E+03  0.10335660833E+04  0.10100000352E+00 0. -1.
</event>
<event>
 5   0  0.1031295E-03  0.1297346E+04  0.7818609E-02  0.9031672E-01
       -2   -1    0    0    0  501  0.00000000000E+00  0.00000000000E+00  0.58572617902E+03  0.58572617902E+03  0.25500000920E-02 0. -1.
        2   -1    0    0  501    0  0.00000000000E+00  0.00000000000E+00 -0.71838467549E+03  0.71838467550E+03  0.25500000920E-02 0.  1.
    10030    2    1    2    0    0  0.00000000000E+00  0.00000000000E+00 -0.13265849648E+03  0.13041108545E+04  0.12973460773E+04 0.  0.
        2    1    3    3  502    0  0.57977420278E+03 -0.22769975755E+03 -0.24835745088E+03  0.67057194186E+03  0.25500000920E-02 0.  1.
       -2    1    3    3    0  502 -0.57977420278E+03  0.22769975755E+03  0.11569895441E+03  0.63353891266E+03  0.25500000920E-02 0. -1.
</event>
<event>
 5   0  0.1046253E-03  0.1283482E+04  0.7818609E-02  0.9042768E-01
       -2   -1    0    0    0  501  0.00000000000E+00  0.00000000000E+00  0.85592501512E+03  0.85592501513E+03  0.25500000920E-02 0. -1.
        2   -1    0    0  501    0  0.00000000000E+00  0.00000000000E+00 -0.48115372440E+03  0.48115372441E+03  0.25500000920E-02 0.  1.
    10030    2    1    2    0    0  0.00000000000E+00  0.00000000000E+00  0.37477129072E+03  0.13370787395E+04  0.12834819965E+04 0.  0.
        3    1    3    3  502    0 -0.33005128460E+03  0.24846976256E+02  0.76014488928E+03  0.82907869686E+03  0.10100000352E+00 0. -1.
       -3    1    3    3    0  502  0.33005128460E+03 -0.24846976256E+02 -0.38537359856E+03  0.50800004268E+03  0.10100000352E+00 0.  1.
</event>
<event>
 5   0  0.5766027E-04  0.1307483E+04  0.7818609E-02  0.9023652E-01
        1   -1    0    0  501    0  0.00000000000E+00  0.00000000000E+00  0.91175196019E+03  0.91175196020E+03  0.50400001928E-02 0.  1.
       -1   -1    0    0    0  501  0.00000000000E+00  0.00000000000E+00 -0.46874346286E+03  0.46874346288E+03  0.50400001928E-02 0. -1.
    10030    2    1    2    0    0  0.00000000000E+00  0.00000000000E+00  0.44300849733E+03  0.13804954231E+04  0.13074827282E+04 0.  0.
        3    1    3    3  502    0 -0.62496085508E+03  0.82012089894E+02  0.40461208791E+03  0.74900801408E+03  0.10100000352E+00 0.  1.
       -3    1    3    3    0  502  0.62496085508E+03 -0.82012089894E+02  0.38396409424E+02  0.63148740900E+03  0.10100000352E+00 0. -1.
</event>
<event>
 5   0  0.5563545E-04  0.1311093E+04  0.7818609E-02  0.9020815E-01
       -1   -1    0    0    0  501  0.00000000000E+00  0.00000000000E+00  0.88306095458E+03  0.88306095459E+03  0.50400001928E-02 0. -1.
        1   -1    0    0  501    0  0.00000000000E+00  0.00000000000E+00 -0.48664923329E+03  0.48664923332E+03  0.50400001928E-02 0.  1.
    10030    2    1    2    0    0  0.00000000000E+00  0.00000000000E+00  0.39641172129E+03  0.13697101879E+04  0.13110925772E+04 0.  0.
        2    1    3    3  502    0  0.16097669934E+03 -0.19475435338E+03 -0.43373356693E+03  0.50196370683E+03  0.25500000920E-02 0.  1.
       -2    1    3    3    0  502 -0.16097669934E+03  0.19475435338E+03  0.83014528821E+03  0.86774648109E+03  0.25500000920E-02 0. -1.
</event>
<event>
 5   0  0.1031295E-03  0.1295503E+04  0.7818609E-02  0.9033139E-01
        2   -1    0    0  501    0  0.00000000000E+00  0.00000000000E+00  0.18966533571E+04  0.18966533571E+04  0.25500000920E-02 0. -1.
       -2   -1    0    0    0  501  0.00000000000E+00  0.00000000000E+00 -0.22122216358E+03  0.22122216360E+03  0.25500000920E-02 0.  1.
    10030    2    1    2    0    0  0.00000000000E+00  0.00000000000E+00  0.16754311935E+04  0.21178755207E+04  0.12955026194E+04 0.  0.
        2    1    3    3  502    0 -0.23221430226E+02  0.31863867810E+03  0.17588906123E+04  0.17876705592E+04  0.25500000920E-02 0. -1.
       -2    1    3    3    0  502  0.23221430226E+02 -0.31863867810E+03 -0.83459418832E+02  0.33020496150E+03  0.25500000920E-02 0.  1.
</event>
<event>
 5   0  0.6006119E-04  0.1292409E+04  0.7818609E-02  0.9035606E-01
        1   -1    0    0  501    0  0.00000000000E+00  0.00000000000E+00  0.77373680511E+03  0.77373680513E+03  0.50400001928E-02 0. -1.
       -1   -1    0    0    0  501  0.00000000000E+00  0.00000000000E+00 -0.53969318571E+03  0.53969318573E+03  0.50400001928E-02 0.  1.
    10030    2    1    2    0    0  0.00000000000E+00  0.00000000000E+00  0.23404361940E+03  0.13134299909E+04  0.12924093489E+04 0.  0.
        4    1    3    3  502    0 -0.43160543264E+03 -0.38496429865E+03  0.40997781485E+03  0.70891761319E+03  0.12699999809E+01 0.  1.
       -4    1    3    3    0  502  0.43160543264E+03  0.38496429865E+03 -0.17593419545E+03  0.60451237766E+03  0.12699999809E+01 0. -1.
</event>
<event>
 5   0  0.4012375E-04  0.1300388E+04  0.7818609E-02  0.9029258E-01
        3   -1    0    0  501    0  0.00000000000E+00  0.00000000000E+00  0.51031883638E+03  0.51031884638E+03  0.10100000352E+00 0.  1.
       -3   -1    0    0    0  501  0.00000000000E+00  0.00000000000E+00 -0.82840749253E+03  0.82840749869E+03  0.10100000352E+00 0. -1.
    10030    2    1    2    0    0  0.00000000000E+00  0.00000000000E+00 -0.31808865615E+03  0.13387263451E+04  0.13003875706E+04 0.  0.
        1    1    3    3  502    0  0.15466303105E+03 -0.60444716676E+03  0.29311396995E+02  0.62460882846E+03  0.50400001928E-02 0. -1.
       -1    1    3    3    0  502 -0.15466303105E+03  0.60444716676E+03 -0.34740005314E+03  0.71411751661E+03  0.50400001928E-02 0.  1.
</event>
<event>
 5   0  0.1101619E-03  0.1308102E+04  0.7818609E-02  0.9023165E-01
       -2   -1    0    0    0  501  0.00000000000E+00  0.00000000000E+00  0.10584419555E+04  0.10584419555E+04  0.25500000920E-02 0. -1.
        2   -1    0    0  501    0  0.00000000000E+00  0.00000000000E+00 -0.40416249083E+03  0.40416249084E+03  0.25500000920E-02 0.  1.
    10030    2    1    2    0    0  0.00000000000E+00  0.00000000000E+00  0.65427946470E+03  0.14626044464E+04  0.13081017348E+04 0.  0.
        1    1    3    3  502    0 -0.29207576404E+03 -0.31699425186E+03 -0.22288613796E+03  0.48525440562E+03  0.50400001928E-02 0.  1.
       -1    1    3    3    0  502  0.29207576404E+03  0.31699425186E+03  0.87716560267E+03  0.97735004076E+03  0.50400001928E-02 0. -1.
</event>
<event>
 5   0  0.6006119E-04  0.1438810E+04  0.7818609E-02  0.8926195E-01
       -1   -1    0    0    0  501  0.00000000000E+00  0.00000000000E+00  0.65392803125E+03  0.65392803127E+03  0.50400001928E-02 0.  1.
        1   -1    0    0  501    0  0.00000000000E+00  0.00000000000E+00 -0.79143817905E+03  0.79143817907E+03  0.50400001928E-02 0. -1.
    10030    2    1    2    0    0  0.00000000000E+00  0.00000000000E+00 -0.13751014781E+03  0.14453662103E+04  0.14388100782E+04 0.  0.
        4    1    3    3  502    0  0.14010021845E+02  0.28983389698E+03 -0.73004184154E+03  0.78559701619E+03  0.12699999809E+01 0. -1.
       -4    1    3    3    0  502 -0.14010021845E+02 -0.28983389698E+03  0.59253169374E+03  0.65976919414E+03  0.12699999809E+01 0.  1.
</event>
<event>
 5   0  0.5710383E-04  0.1333411E+04  0.7818609E-02  0.9003482E-01
       -1   -1    0    0    0  501  0.00000000000E+00  0.00000000000E+00  0.35000813107E+03  0.35000813111E+03  0.50400001928E-02 0.  1.
        1   -1    0    0  501    0  0.00000000000E+00  0.00000000000E+00 -0.12699599373E+04  0.12699599373E+04  0.50400001928E-02 0. -1.
    10030    2    1    2    0    0  0.00000000000E+00  0.00000000000E+00 -0.91995180619E+03  0.16199680684E+04  0.13334111207E+04 0.  0.
        1    1    3    3  502    0  0.47783069705E+03  0.22730156464E+03  0.32784794419E+02  0.53015376930E+03  0.50400001928E-02 0.  1.
       -1    1    3    3    0  502 -0.47783069705E+03 -0.22730156464E+03 -0.95273660061E+03  0.10898142991E+04  0.50400001928E-02 0. -1.
</event>
<event>
 5   0  0.5563545E-04  0.1298633E+04  0.7818609E-02  0.9030650E-01
       -1   -1    0    0    0  501  0.00000000000E+00  0.00000000000E+00  0.24394033868E+03  0.24394033873E+03  0.50400001928E-02 0. -1.
        1   -1    0    0  501    0  0.00000000000E+00  0.00000000000E+00 -0.17283412666E+04  0.17283412666E+04  0.50400001928E-02 0.  1.
    10030    2    1    2    0    0  0.00000000000E+00  0.00000000000E+00 -0.14844009279E+04  0.19722816053E+04  0.12986333647E+04 0.  0.
        2    1    3    3  502    0  0.17262073784E+03 -0.38364953420E+03  0.89635979678E+01  0.42079119563E+03  0.25500000920E-02 0. -1.
       -2    1    3    3    0  502 -0.17262073784E+03  0.38364953420E+03 -0.14933645259E+04  0.15514904097E+04  0.25500000920E-02 0.  1.
</event>
<event>
 5   0  0.1101619E-03  0.1252266E+04  0.7818609E-02  0.9068299E-01
       -2   -1    0    0    0  501  0.00000000000E+00  0.00000000000E+00  0.73487300015E+03  0.73487300015E+03  0.25500000920E-02 0. -1.
        2   -1    0    0  501    0  0.00000000000E+00  0.00000000000E+00 -0.53348375758E+03  0.53348375759E+03  0.25500000920E-02 0.  1.
    10030    2    1    2    0    0  0.00000000000E+00  0.00000000000E+00  0.20138924256E+03  0.12683567577E+04  0.12522664405E+04 0.  0.
        1    1    3    3  502    0 -0.45266574107E+03 -0.34782846627E+03  0.36119947998E+03  0.67554124926E+03  0.50400001928E-02 0. -1.
       -1    1    3    3    0  502  0.45266574107E+03  0.34782846627E+03 -0.15981023741E+03  0.59281550848E+03  0.50400001928E-02 0.  1.
</event>
<event>
 5   0  0.1081574E-03  0.1325733E+04  0.7818609E-02  0.9009404E-01
       -2   -1    0    0    0  501  0.00000000000E+00  0.00000000000E+00  0.82085048130E+03  0.82085048130E+03  0.25500000920E-02 0.  1.
        2   -1    0    0  501    0  0.00000000000E+00  0.00000000000E+00 -0.53528870989E+03  0.53528870990E+03  0.25500000920E-02 0. -1.
    10030    2    1    2    0    0  0.00000000000E+00  0.00000000000E+00  0.28556177141E+03  0.13561391912E+04  0.13257329975E+04 0.  0.
        5    1    3    3  502    0  0.18656290728E+02 -0.11092256974E+01 -0.53500209445E+03  0.53534906242E+03  0.46999998093E+01 0. -1.
       -5    1    3    3    0  502 -0.18656290728E+02  0.11092256974E+01  0.82056386586E+03  0.82079012878E+03  0.46999998093E+01 0.  1.
</event>
<event>
 5   0  0.5766027E-04  0.1296364E+04  0.7818609E-02  0.9032453E-01
        1   -1    0    0  501    0  0.00000000000E+00  0.00000000000E+00  0.12500794652E+04  0.12500794652E+04  0.50400001928E-02 0.  1.
       -1   -1    0    0    0  501  0.00000000000E+00  0.00000000000E+00 -0.33609079197E+03  0.33609079201E+03  0.50400001928E-02 0. -1.
    10030    2    1    2    0    0  0.00000000000E+00  0.00000000000E+00  0.91398867326E+03  0.15861702573E+04  0.12963644511E+04 0.  0.
        3    1    3    3  502    0 -0.17954180430E+03 -0.43153831544E+03  0.10064766086E+04  0.11097097599E+04  0.10100000352E+00 0.  1.
       -3    1    3    3    0  502  0.17954180430E+03  0.43153831544E+03 -0.92487935382E+02  0.47646049740E+03  0.10100000352E+00 0. -1.
</event>
<event>
 5   0  0.1103241E-03  0.1294473E+04  0.7818609E-02  0.9033960E-01
       -2   -1    0    0    0  501  0.00000000000E+00  0.00000000000E+00  0.75817282784E+03  0.75817282784E+03  0.25500000920E-02 0. -1.
        2   -1    0    0  501    0  0.00000000000E+00  0.00000000000E+00 -0.55253219749E+03  0.55253219750E+03  0.25500000920E-02 0.  1.
    10030    2    1    2    0    0  0.00000000000E+00  0.00000000000E+00  0.20564063034E+03  0.13107050253E+04  0.12944727091E+04 0.  0.
        4    1    3    3  502    0 -0.39256042504E+03  0.30619133680E+03 -0.31595571006E+03  0.58964942606E+03  0.12699999809E+01 0.  1.
       -4    1    3    3    0  502  0.39256042504E+03 -0.30619133680E+03  0.52159634040E+03  0.72105559928E+03  0.12699999809E+01 0. -1.
</event>
<event>
 5   0  0.5710383E-04  0.1298854E+04  0.7818609E-02  0.9030475E-01
       -1   -1    0    0    0  501  0.00000000000E+00  0.00000000000E+00  0.35791158440E+03  0.35791158443E+03  0.50400001928E-02 0.  1.
        1   -1    0    0  501    0  0.00000000000E+00  0.00000000000E+00 -0.11783783047E+04  0.11783783047E+04  0.50400001928E-02 0. -1.
    10030    2    1    2    0    0  0.00000000000E+00  0.00000000000E+00 -0.82046672026E+03  0.15362898891E+04  0.12988537194E+04 0.  0.
        1    1    3    3  502    0 -0.64625114167E+03  0.63883573796E+02 -0.40337748638E+03  0.76448351562E+03  0.50400001928E-02 0. -1.
       -1    1    3    3    0  502  0.64625114167E+03 -0.63883573796E+02 -0.41708923388E+03  0.77180637349E+03  0.50400001928E-02 0.  1.
</event>
<event>
 5   0  0.5812938E-04  0.1303045E+04  0.7818609E-02  0.9027154E-01
        1   -1    0    0  501    0  0.00000000000E+00  0.00000000000E+00  0.15147080400E+04  0.15147080400E+04  0.50400001928E-02 0. -1.
       -1   -1    0    0    0  501  0.00000000000E+00  0.00000000000E+00 -0.28024001954E+03  0.28024001959E+03  0.50400001928E-02 0.  1.
    10030    2    1    2    0    0  0.00000000000E+00  0.00000000000E+00  0.12344680204E+04  0.17949480596E+04  0.13030453726E+04 0.  0.
        5    1    3    3  502    0  0.16508610613E+02  0.64661219928E+03  0.72464254451E+03  0.97134379999E+03  0.46999998093E+01 0.  1.
       -5    1    3    3    0  502 -0.16508610613E+02 -0.64661219928E+03  0.50982547591E+03  0.82360425956E+03  0.46999998093E+01 0. -1.
</event>
<event>
 5   0  0.5563545E-04  0.1287147E+04  0.7818609E-02  0.9039820E-01
        1   -1    0    0  501    0  0.00000000000E+00  0.00000000000E+00  0.18925082442E+04  0.18925082442E+04  0.50400001928E-02 0.  1.
       -1   -1    0    0    0  501  0.00000000000E+00  0.00000000000E+00 -0.21885619741E+03  0.21885619747E+03  0.50400001928E-02 0. -1.
    10030    2    1    2    0    0  0.00000000000E+00  0.00000000000E+00  0.16736520468E+04  0.21113644417E+04  0.12871474787E+04 0.  0.
        2    1    3    3  502    0  0.38634289198E+03  0.79998439548E+02  0.27848488498E+01  0.39454826816E+03  0.25500000920E-02 0. -1.
       -2    1    3    3    0  502 -0.38634289198E+03 -0.79998439548E+02  0.16708671980E+04  0.17168161735E+04  0.25500000920E-02 0.  1.
</event>
<event>
 5   0  0.5563545E-04  0.1305190E+04  0.7818609E-02  0.9025459E-01
       -1   -1    0    0    0  501  0.00000000000E+00  0.00000000000E+00  0.76712798241E+03  0.76712798242E+03  0.50400001928E-02 0.  1.
        1   -1    0    0  501    0  0.00000000000E+00  0.00000000000E+00 -0.55516230312E+03  0.55516230315E+03  0.50400001928E-02 0. -1.
    10030    2    1    2    0    0  0.00000000000E+00  0.00000000000E+00  0.21196567928E+03  0.13222902856E+04  0.13051904651E+04 0.  0.
        2    1    3    3  502    0  0.30932363681E+03  0.54735893009E+03 -0.71230653854E+02  0.63273747849E+03  0.25500000920E-02 0. -1.
       -2    1    3    3    0  502 -0.30932363681E+03 -0.54735893009E+03  0.28319633314E+03  0.68955280708E+03  0.25500000920E-02 0.  1.
</event>
<event>
 5   0  0.5812938E-04  0.1308976E+04  0.7818609E-02  0.9022478E-01
       -1   -1    0    0    0  501  0.00000000000E+00  0.00000000000E+00  0.30858487617E+03  0.30858487621E+03  0.50400001928E-02 0.  1.
        1   -1    0    0  501    0  0.00000000000E+00  0.00000000000E+00 -0.13881247790E+04  0.13881247790E+04  0.50400001928E-02 0. -1.
    10030    2    1    2    0    0  0.00000000000E+00  0.00000000000E+00 -0.10795399028E+04  0.16967096552E+04  0.13089756500E+04 0.  0.
        5    1    3    3  502    0  0.25863089679E+03 -0.58208387143E+03 -0.34481759304E+03  0.72431542619E+03  0.46999998093E+01 0. -1.
       -5    1    3    3    0  502 -0.25863089679E+03  0.58208387143E+03 -0.73472230978E+03  0.97239422903E+03  0.46999998093E+01 0.  1.
</event>
<event>
 5   0  0.5812938E-04  0.1296304E+04  0.7818609E-02  0.9032501E-01
       -1   -1    0    0    0  501  0.00000000000E+00  0.00000000000E+00  0.65611912905E+03  0.65611912907E+03  0.50400001928E-02 0. -1.
        1   -1    0    0  501    0  0.00000000000E+00  0.00000000000E+00 -0.64028174812E+03  0.64028174814E+03  0.50400001928E-02 0.  1.
    10030    2    1    2    0    0  0.00000000000E+00  0.00000000000E+00  0.15837380933E+02  0.12964008772E+04  0.12963041355E+04 0.  0.
        5    1    3    3  502    0 -0.14505986301E+03  0.53623827438E+03  0.34183754711E+03  0.65227973246E+03  0.46999998093E+01 0. -1.
       -5    1    3    3    0  502  0.14505986301E+03 -0.53623827438E+03 -0.32600016618E+03  0.64412114475E+03  0.46999998093E+01 0.  1.
</event>
<event>
 5   0  0.5563545E-04  0.1291054E+04  0.7818609E-02  0.9036690E-01
        1   -1    0    0  501    0  0.00000000000E+00  0.00000000000E+00  0.60950674814E+03  0.60950674816E+03  0.50400001928E-02 0. -1.
       -1   -1    0    0    0  501  0.00000000000E+00  0.00000000000E+00 -0.68367575811E+03  0.68367575812E+03  0.50400001928E-02 0.  1.
    10030    2    1    2    0    0  0.00000000000E+00  0.00000000000E+00 -0.74169009963E+02  0.12931825063E+04  0.12910538147E+04 0.  0.
        2    1    3    3  502    0 -0.43298468280E+03 -0.47268210035E+03 -0.11337362201E+03  0.65096672857E+03  0.25500000920E-02 0.  1.
       -2    1    3    3    0  502  0.43298468280E+03  0.47268210035E+03  0.39204612044E+02  0.64221577772E+03  0.25500000920E-02 0. -1.
</event>
<event>
 5   0  0.5563545E-04  0.1301466E+04  0.7818609E-02  0.9028403E-01
        1   -1    0    0  501    0  0.00000000000E+00  0.00000000000E+00  0.58185352211E+03  0.58185352213E+03  0.50400001928E-02 0. -1.
       -1   -1    0    0    0  501  0.00000000000E+00  0.00000000000E+00 -0.72776693578E+03  0.72776693580E+03  0.50400001928E-02 0.  1.
    10030    2    1    2    0    0  0.00000000000E+00  0.00000000000E+00 -0.14591341367E+03  0.13096204579E+04  0.13014664881E+04 0.  0.
        2    1    3    3  502    0  0.28841972819E+03  0.34878503815E+03 -0.54345086970E+03  0.70723107273E+03  0.25500000920E-02 0.  1.
       -2    1    3    3    0  502 -0.28841972819E+03 -0.34878503815E+03  0.39753745603E+03  0.60238938520E+03  0.25500000920E-02 0. -1.
</event>
<event>
 5   0  0.4012375E-04  0.1298764E+04  0.7818609E-02  0.9030546E-01
       -4   -1    0    0    0  501  0.00000000000E+00  0.00000000000E+00  0.36010616953E+03  0.36010840900E+03  0.12699999809E+01 0. -1.
        4   -1    0    0  501    0  0.00000000000E+00  0.00000000000E+00 -0.11710284235E+04  0.11710291122E+04  0.12699999809E+01 0.  1.
    10030    2    1    2    0    0  0.00000000000E+00  0.00000000000E+00 -0.81092225399E+03  0.15311375212E+04  0.12987637225E+04 0.  0.
        5    1    3    3  502    0  0.15544429683E+03 -0.23120482493E+03  0.28604922843E+03  0.39933050418E+03  0.46999998093E+01 0. -1.
       -5    1    3    3    0  502 -0.15544429683E+03  0.23120482493E+03 -0.10969714824E+04  0.11318070170E+04  0.46999998093E+01 0.  1.
</event>
<event>
 5   0  0.1101619E-03  0.1300410E+04  0.7818609E-02  0.9029240E-01
        2   -1    0    0  501    0  0.00000000000E+00  0.00000000000E+00  0.25911971282E+04  0.25911971282E+04  0.25500000920E-02 0.  1.
       -2   -1    0    0    0  501  0.00000000000E+00  0.00000000000E+00 -0.16315497459E+03  0.16315497461E+03  0.25500000920E-02 0. -1.
    10030    2    1    2    0    0  0.00000000000E+00  0.00000000000E+00  0.24280421536E+04  0.27543521028E+04  0.13004102455E+04 0.  0.
        1    1    3    3  502    0  0.13665437830E+03  0.35258392084E+03  0.23343485133E+04  0.23647775418E+04  0.50400001928E-02 0.  1.
       -1    1    3    3    0  502 -0.13665437830E+03 -0.35258392084E+03  0.93693640257E+02  0.38957456102E+03  0.50400001928E-02 0. -1.
</event>
<event>
 5   0  0.5812938E-04  0.1296806E+04  0.7818609E-02  0.9032102E-01
       -1   -1    0    0    0  501  0.00000000000E+00  0.00000000000E+00  0.35976983515E+03  0.35976983519E+03  0.50400001928E-02 0. -1.
        1   -1    0    0  501    0  0.00000000000E+00  0.00000000000E+00 -0.11685986670E+04  0.11685986670E+04  0.50400001928E-02 0.  1.
    10030    2    1    2    0    0  0.00000000000E+00  0.00000000000E+00 -0.80882883185E+03  0.15283685022E+04  0.12968061533E+04 0.  0.
        5    1    3    3  502    0 -0.24963358725E+03  0.12614984397E+03 -0.10938224818E+04  0.11290263162E+04  0.46999998093E+01 0.  1.
       -5    1    3    3    0  502  0.24963358725E+03 -0.12614984397E+03  0.28499364994E+03  0.39934218600E+03  0.46999998093E+01 0. -1.
</event>
<event>
 5   0  0.5563545E-04  0.1273023E+04  0.7818609E-02  0.9051236E-01
       -1   -1    0    0    0  501  0.00000000000E+00  0.00000000000E+00  0.82936653178E+03  0.82936653179E+03  0.50400001928E-02 0.  1.
        1   -1    0    0  501    0  0.00000000000E+00  0.00000000000E+00 -0.48850142399E+03  0.48850142401E+03  0.50400001928E-02 0. -1.
    10030    2    1    2    0    0  0.00000000000E+00  0.00000000000E+00  0.34086510779E+03  0.13178679558E+04  0.12730227521E+04 0.  0.
        2    1    3    3  502    0  0.45261107721E+03  0.24523412030E+03  0.55798684355E+03  0.75917447175E+03  0.25500000920E-02 0.  1.
       -2    1    3    3    0  502 -0.45261107721E+03 -0.24523412030E+03 -0.21712173577E+03  0.55869348405E+03  0.25500000920E-02 0. -1.
</event>
<event>
 5   0  0.5710383E-04  0.1301098E+04  0.7818609E-02  0.9028695E-01
        1   -1    0    0  501    0  0.00000000000E+00  0.00000000000E+00  0.11326234173E+04  0.11326234173E+04  0.50400001928E-02 0.  1.
       -1   -1    0    0    0  501  0.00000000000E+00  0.00000000000E+00 -0.37365791726E+03  0.37365791730E+03  0.50400001928E-02 0. -1.
    10030    2    1    2    0    0  0.00000000000E+00  0.00000000000E+00  0.75896549999E+03  0.15062813346E+04  0.13010975477E+04 0.  0.
        1    1    3    3  502    0 -0.18646407141E+02  0.27180047447E+03 -0.30443370278E+03  0.40853771654E+03  0.50400001928E-02 0. -1.
       -1    1    3    3    0  502  0.18646407141E+02 -0.27180047447E+03  0.10633992028E+04  0.10977436180E+04  0.50400001928E-02 0.  1.
</event>
<event>
 5   0  0.1081574E-03  0.1295113E+04  0.7818609E-02  0.9033450E-01
        2   -1    0    0  501    0  0.00000000000E+00  0.00000000000E+00  0.21854938567E+04  0.21854938567E+04  0.25500000920E-02 0. -1.
       -2   -1    0    0    0  501  0.00000000000E+00  0.00000000000E+00 -0.19186926802E+03  0.19186926804E+03  0.25500000920E-02 0.  1.
    10030    2    1    2    0    0  0.00000000000E+00  0.00000000000E+00  0.19936245887E+04  0.23773631248E+04  0.12951125149E+04 0.  0.
        5    1    3    3  502    0 -0.90358961096E+02  0.33630610538E+03  0.19989459502E+04  0.20290573033E+04  0.46999998093E+01 0. -1.
       -5    1    3    3    0  502  0.90358961096E+02 -0.33630610538E+03 -0.53213614820E+01  0.34830582145E+03  0.46999998093E+01 0.  1.
</event>
<event>
 5   0  0.1081574E-03  0.1305536E+04  0.7818609E-02  0.9025186E-01
       -2   -1    0    0    0  501  0.00000000000E+00  0.00000000000E+00  0.62083596454E+03  0.62083596455E+03  0.25500000920E-02 0. -1.
        2   -1    0    0  501    0  0.00000000000E+00  0.00000000000E+00 -0.68634255783E+03  0.68634255784E+03  0.25500000920E-02 0.  1.
    10030    2    1    2    0    0  0.00000000000E+00  0.00000000000E+00 -0.65506593291E+02  0.13071785224E+04  0.13055361257E+04 0.  0.
        5    1    3    3  502    0 -0.12310493908E+03 -0.58159237224E+03 -0.30268388174E+03  0.66711628352E+03  0.46999998093E+01 0.  1.
       -5    1    3    3    0  502  0.12310493908E+03  0.58159237224E+03  0.23717728845E+03  0.64006223887E+03  0.46999998093E+01 0. -1.
</event>
<event>
 5   0  0.1103241E-03  0.1275562E+04  0.7818609E-02  0.9049173E-01
        2   -1    0    0  501    0  0.00000000000E+00  0.00000000000E+00  0.14550190145E+04  0.14550190145E+04  0.25500000920E-02 0. -1.
       -2   -1    0    0    0  501  0.00000000000E+00  0.00000000000E+00 -0.27955954374E+03  0.27955954375E+03  0.25500000920E-02 0.  1.
    10030    2    1    2    0    0  0.00000000000E+00  0.00000000000E+00  0.11754594708E+04  0.17345785583E+04  0.12755617615E+04 0.  0.
        4    1    3    3  502    0  0.21630220941E+03 -0.55603871190E+03  0.89421678596E+03  0.10749841711E+04  0.12699999809E+01 0. -1.
       -4    1    3    3    0  502 -0.21630220941E+03  0.55603871190E+03  0.28124268483E+03  0.65959438718E+03  0.12699999809E+01 0.  1.
</event>
<event>
 5   0  0.5812938E-04  0.1304721E+04  0.7818609E-02  0.9025830E-01
       -1   -1    0    0    0  501  0.00000000000E+00  0.00000000000E+00  0.13252920627E+04  0.13252920627E+04  0.50400001928E-02 0.  1.
        1   -1    0    0  501    0  0.00000000000E+00  0.00000000000E+00 -0.32111707258E+03  0.32111707262E+03  0.50400001928E-02 0. -1.
    10030    2    1    2    0    0  0.00000000000E+00  0.00000000000E+00  0.10041749901E+04  0.16464091353E+04  0.13047205180E+04 0.  0.
        5    1    3    3  502    0 -0.37164332380E+03  0.87060102067E+02  0.11696404474E+04  0.12303573008E+04  0.46999998093E+01 0.  1.
       -5    1    3    3    0  502  0.37164332380E+03 -0.87060102067E+02 -0.16546545724E+03  0.41605183455E+03  0.46999998093E+01 0. -1.
</event>
<event>
 5   0  0.1031295E-03  0.1304093E+04  0.7818609E-02  0.9026326E-01
        2   -1    0    0  501    0  0.00000000000E+00  0.00000000000E+00  0.10056716731E+04  0.10056716731E+04  0.25500000920E-02 0. -1.
       -2   -1    0    0    0  501  0.00000000000E+00  0.00000000000E+00 -0.42276667060E+03  0.42276667061E+03  0.25500000920E-02 0.  1.
    10030    2    1    2    0    0  0.00000000000E+00  0.00000000000E+00  0.58290500248E+03  0.14284383437E+04  0.13040927344E+04 0.  0.
        2    1    3    3  502    0 -0.13262448977E+02  0.54449883399E+03  0.68411623951E+03  0.87445405936E+03  0.25500000920E-02 0. -1.
       -2    1    3    3    0  502  0.13262448977E+02 -0.54449883399E+03 -0.10121123703E+03  0.55398428432E+03  0.25500000920E-02 0.  1.
</event>
<event>
 5   0  0.5563545E-04  0.1283863E+04  0.7818609E-02  0.9042461E-01
       -1   -1    0    0    0  501  0.00000000000E+00  0.00000000000E+00  0.52448152352E+03  0.52448152354E+03  0.50400001928E-02 0. -1.
        1   -1    0    0  501    0  0.00000000000E+00  0.00000000000E+00 -0.78568209893E+03  0.78568209895E+03  0.50400001928E-02 0.  1.
    10030    2    1    2    0    0  0.00000000000E+00  0.00000000000E+00 -0.26120057541E+03  0.13101636225E+04  0.12838625227E+04 0.  0.
        2    1    3    3  502    0 -0.27507823154E+03  0.45605786821E+03 -0.49629740892E+03  0.72798896334E+03  0.25500000920E-02 0.  1.
       -2    1    3    3    0  502  0.27507823154E+03 -0.45605786821E+03  0.23509683351E+03  0.58217465916E+03  0.25500000920E-02 0. -1.
</event>
<event>
 5   0  0.1031295E-03  0.1304208E+04  0.7818609E-02  0.9026235E-01
       -2   -1    0    0    0  501  0.00000000000E+00  0.00000000000E+00  0.29440840255E+03  0.29440840256E+03  0.25500000920E-02 0. -1.
        2   -1    0    0  501    0  0.00000000000E+00  0.00000000000E+00 -0.14443859250E+04  0.14443859251E+04  0.25500000920E-02 0.  1.
    10030    2    1    2    0    0  0.00000000000E+00  0.00000000000E+00 -0.11499775225E+04  0.17387943276E+04  0.13042075799E+04 0.  0.
        2    1    3    3  502    0 -0.54911270146E+03 -0.35151884037E+03 -0.59126816939E+03  0.88016379281E+03  0.25500000920E-02 0. -1.
       -2    1    3    3    0  502  0.54911270146E+03  0.35151884037E+03 -0.55870935310E+03  0.85863053480E+03  0.25500000920E-02 0.  1.
</event>
<event>
 5   0  0.5812938E-04  0.1303002E+04  0.7818609E-02  0.9027188E-01
       -1   -1    0    0    0  501  0.00000000000E+00  0.00000000000E+00  0.23035130970E+03  0.23035130975E+03  0.50400001928E-02 0.  1.
        1   -1    0    0  501    0  0.00000000000E+00  0.00000000000E+00 -0.18426361934E+04  0.18426361934E+04  0.50400001928E-02 0. -1.
    10030    2    1    2    0    0  0.00000000000E+00  0.00000000000E+00 -0.16122848837E+04  0.20729875032E+04  0.13030021650E+04 0.  0.
        5    1    3    3  502    0 -0.15295166053E+03 -0.22993599829E+02 -0.18129755754E+04  0.18195673780E+04  0.46999998093E+01 0. -1.
       -5    1    3    3    0  502  0.15295166053E+03  0.22993599829E+02  0.20069069171E+03  0.25342012515E+03  0.46999998093E+01 0.  1.
</event>
<event>
 5   0  0.1103241E-03  0.1291445E+04  0.7818609E-02  0.9036377E-01
        2   -1    0    0  501    0  0.00000000000E+00  0.00000000000E+00  0.12853499013E+04  0.12853499013E+04  0.25500000920E-02 0. -1.
       -2   -1    0    0    0  501  0.00000000000E+00  0.00000000000E+00 -0.32439210277E+03  0.32439210278E+03  0.25500000920E-02 0.  1.
    10030    2    1    2    0    0  0.00000000000E+00  0.00000000000E+00  0.96095779855E+03  0.16097420041E+04  0.12914447062E+04 0.  0.
        4    1    3    3  502    0  0.30395577521E+03  0.28655201466E+03  0.10942347583E+04  0.11712610680E+04  0.12699999809E+01 0. -1.
       -4    1    3    3    0  502 -0.30395577521E+03 -0.28655201466E+03 -0.13327695973E+03  0.43848093605E+03  0.12699999809E+01 0.  1.
</event>
<event>
 5   0  0.5710383E-04  0.1320809E+04  0.7818609E-02  0.9013224E-01
        1   -1    0    0  501    0  0.00000000000E+00  0.00000000000E+00  0.21412029596E+04  0.21412029596E+04  0.50400001928E-02 0.  1.
       -1   -1    0    0    0  501  0.00000000000E+00  0.00000000000E+00 -0.20368654187E+03  0.20368654193E+03  0.50400001928E-02 0. -1.
    10030    2    1    2    0    0  0.00000000000E+00  0.00000000000E+00  0.19375164177E+04  0.23448895015E+04  0.13208091859E+04 0.  0.
        1    1    3    3  502    0  0.20341355187E+03  0.13847145223E+03  0.20567738910E+04  0.20714415885E+04  0.50400001928E-02 0.  1.
       -1    1    3    3    0  502 -0.20341355187E+03 -0.13847145223E+03 -0.11925747324E+03  0.27344791299E+03  0.50400001928E-02 0. -1.
</event>
<event>
 5   0  0.5812938E-04  0.1315107E+04  0.7818609E-02  0.9017670E-01
       -1   -1    0    0    0  501  0.00000000000E+00  0.00000000000E+00  0.40835930732E+03  0.40835930735E+03  0.50400001928E-02 0.  1.
        1   -1    0    0  501    0  0.00000000000E+00  0.00000000000E+00 -0.10588139591E+04  0.10588139591E+04  0.50400001928E-02 0. -1.
    10030    2    1    2    0    0  0.00000000000E+00  0.00000000000E+00 -0.65045465179E+03  0.14671732665E+04  0.13151068929E+04 0.  0.
        5    1    3    3  502    0 -0.24100718029E+03  0.60298435206E+03 -0.44052035053E+03  0.78470049000E+03  0.46999998093E+01 0.  1.
       -5    1    3    3    0  502  0.24100718029E+03 -0.60298435206E+03 -0.20993430126E+03  0.68247277647E+03  0.46999998093E+01 0. -1.
</event>
<event>
 5   0  0.5710383E-04  0.1292751E+04  0.7818609E-02  0.9035333E-01
        1   -1    0    0  501    0  0.00000000000E+00  0.00000000000E+00  0.80085197711E+03  0.80085197712E+03  0.50400001928E-02 0.  1.
       -1   -1    0    0    0  501  0.00000000000E+00  0.00000000000E+00 -0.52169603218E+03  0.52169603221E+03  0.50400001928E-02 0. -1.
    10030    2    1    2    0    0  0.00000000000E+00  0.00000000000E+00  0.27915594492E+03  0.13225480093E+04  0.12927510183E+04 0.  0.
        1    1    3    3  502    0 -0.10711217011E+03  0.13533733686E+03 -0.49768573364E+03  0.52676399007E+03  0.50400001928E-02 0. -1.
       -1    1    3    3    0  502  0.10711217011E+03 -0.13533733686E+03  0.77684167856E+03  0.79578401926E+03  0.50400001928E-02 0.  1.
</event>
<event>
 5   0  0.1031295E-03  0.1301996E+04  0.7818609E-02  0.9027984E-01
        2   -1    0    0  501    0  0.00000000000E+00  0.00000000000E+00  0.25071688280E+04  0.25071688280E+04  0.25500000920E-02 0.  1.
       -2   -1    0    0    0  501  0.00000000000E+00  0.00000000000E+00 -0.16903455144E+03  0.16903455146E+03  0.25500000920E-02 0. -1.
    10030    2    1    2    0    0  0.00000000000E+00  0.00000000000E+00  0.23381342766E+04  0.26762033795E+04  0.13019956348E+04 0.  0.
        2    1    3    3  502    0  0.56073229797E+02 -0.39528327473E+03  0.22259929089E+04  0.22615122164E+04  0.25500000920E-02 0.  1.
       -2    1    3    3    0  502 -0.56073229797E+02  0.39528327473E+03  0.11214136764E+03  0.41469116306E+03  0.25500000920E-02 0. -1.
</event>
<event>
 5   0  0.1046253E-03  0.1266420E+04  0.7818609E-02  0.9056627E-01
       -2   -1    0    0    0  501  0.00000000000E+00  0.00000000000E+00  0.28368342135E+03  0.28368342136E+03  0.25500000920E-02 0.  1.
        2   -1    0    0  501    0  0.00000000000E+00  0.00000000000E+00 -0.14133886158E+04  0.14133886158E+04  0.25500000920E-02 0. -1.
    10030    2    1    2    0    0  0.00000000000E+00  0.00000000000E+00 -0.11297051944E+04  0.16970720371E+04  0.12664200223E+04 0.  0.
        3    1    3    3  502    0 -0.17707266094E+02  0.62581677263E+03 -0.69194410236E+03  0.93313816296E+03  0.10100000352E+00 0. -1.
       -3    1    3    3    0  502  0.17707266094E+02 -0.62581677263E+03 -0.43776109207E+03  0.76393387418E+03  0.10100000352E+00 0.  1.
</event>
<event>
 5   0  0.5812938E-04  0.1299259E+04  0.7818609E-02  0.9030153E-01
       -1   -1    0    0    0  501  0.00000000000E+00  0.00000000000E+00  0.36093698412E+03  0.36093698416E+03  0.50400001928E-02 0. -1.
        1   -1    0    0  501    0  0.00000000000E+00  0.00000000000E+00 -0.11692308095E+04  0.11692308095E+04  0.50400001928E-02 0.  1.
    10030    2    1    2    0    0  0.00000000000E+00  0.00000000000E+00 -0.80829382539E+03  0.15301677937E+04  0.12992592384E+04 0.  0.
        5    1    3    3  502    0  0.22723747695E+03  0.15059217971E+03 -0.10985859797E+04  0.11319134774E+04  0.46999998093E+01 0.  1.
       -5    1    3    3    0  502 -0.22723747695E+03 -0.15059217971E+03  0.29029215436E+03  0.39825431624E+03  0.46999998093E+01 0. -1.
</event>
<event>
 5   0  0.1081574E-03  0.1302251E+04  0.7818609E-02  0.9027782E-01
        2   -1    0    0  501    0  0.00000000000E+00  0.00000000000E+00  0.96329641233E+03  0.96329641234E+03  0.25500000920E-02 0.  1.
       -2   -1    0    0    0  501  0.00000000000E+00  0.00000000000E+00 -0.44011857701E+03  0.44011857702E+03  0.25500000920E-02 0. -1.
    10030    2    1    2    0    0  0.00000000000E+00  0.00000000000E+00  0.52317783532E+03  0.14034149894E+04  0.13022513525E+04 0.  0.
        5    1    3    3  502    0 -0.73668706849E+02  0.34901624722E+03  0.84860819399E+03  0.92054189264E+03  0.46999998093E+01 0.  1.
       -5    1    3    3    0  502  0.73668706849E+02 -0.34901624722E+03 -0.32543035867E+03  0.48287309672E+03  0.46999998093E+01 0. -1.
</event>
<event>
 5   0  0.1081574E-03  0.1294611E+04  0.7818609E-02  0.9033850E-01
       -2   -1    0    0    0  501  0.00000000000E+00  0.00000000000E+00  0.54835189625E+03  0.54835189626E+03  0.25500000920E-02 0.  1.
        2   -1    0    0  501    0  0.00000000000E+00  0.00000000000E+00 -0.76411563538E+03  0.76411563538E+03  0.25500000920E-02 0. -1.
    10030    2    1    2    0    0  0.00000000000E+00  0.00000000000E+00 -0.21576373912E+03  0.13124675316E+04  0.12946107641E+04 0.  0.
        5    1    3    3  502    0  0.47682700368E+03  0.39434138738E+03 -0.30053737210E+03  0.68790546100E+03  0.46999998093E+01 0. -1.
       -5    1    3    3    0  502 -0.47682700368E+03 -0.39434138738E+03  0.84773632979E+02  0.62456207065E+03  0.46999998093E+01 0.  1.
</event>
<event>
 5   0  0.1081574E-03  0.1301855E+04  0.7818609E-02  0.9028095E-01
       -2   -1    0    0    0  501  0.00000000000E+00  0.00000000000E+00  0.49415428043E+03  0.49415428044E+03  0.25500000920E-02 0. -1.
        2   -1    0    0  501    0  0.00000000000E+00  0.00000000000E+00 -0.85743792334E+03  0.85743792334E+03  0.25500000920E-02 0.  1.
    10030    2    1    2    0    0  0.00000000000E+00  0.00000000000E+00 -0.36328364291E+03  0.13515922038E+04  0.13018550150E+04 0.  0.
        5    1    3    3  502    0  0.64218712049E+03  0.57079303959E+02 -0.88653286815E+02  0.65080245845E+03  0.46999998093E+01 0. -1.
       -5    1    3    3    0  502 -0.64218712049E+03 -0.57079303959E+02 -0.27463035609E+03  0.70078974533E+03  0.46999998093E+01 0.  1.
</event>
<event>
 5   0  0.5710383E-04  0.1301938E+04  0.7818609E-02  0.9028029E-01
        1   -1    0    0  501    0  0.00000000000E+00  0.00000000000E+00  0.80699448173E+03  0.80699448175E+03  0.50400001928E-02 0. -1.
       -1   -1    0    0    0  501  0.00000000000E+00  0.00000000000E+00 -0.52511003167E+03  0.52511003169E+03  0.50400001928E-02 0.  1.
    10030    2    1    2    0    0  0.00000000000E+00  0.00000000000E+00  0.28188445007E+03  0.13321045134E+04  0.13019383978E+04 0.  0.
        1    1    3    3  502    0 -0.72414334102E+02  0.77349810548E+02 -0.51622784255E+03  0.52698957715E+03  0.50400001928E-02 0.  1.
       -1    1    3    3    0  502  0.72414334102E+02 -0.77349810548E+02  0.79811229262E+03  0.80511493629E+03  0.50400001928E-02 0. -1.
</event>
<event>
 5   0  0.1103241E-03  0.1295497E+04  0.7818609E-02  0.9033144E-01
        2   -1    0    0  501    0  0.00000000000E+00  0.00000000000E+00  0.28827126072E+04  0.28827126072E+04  0.25500000920E-02 0. -1.
       -2   -1    0    0    0  501  0.00000000000E+00  0.00000000000E+00 -0.14554976072E+03  0.14554976074E+03  0.25500000920E-02 0.  1.
    10030    2    1    2    0    0  0.00000000000E+00  0.00000000000E+00  0.27371628465E+04  0.30282623679E+04  0.12954970170E+04 0.  0.
        4    1    3    3  502    0  0.43796242515E+03  0.44325859821E+03  0.95511451655E+03  0.11404098488E+04  0.12699999809E+01 0.  1.
       -4    1    3    3    0  502 -0.43796242515E+03 -0.44325859821E+03  0.17820483299E+04  0.18878525191E+04  0.12699999809E+01 0. -1.
</event>
<event>
 5   0  0.5710383E-04  0.1251001E+04  0.7818609E-02  0.9069351E-01
       -1   -1    0    0    0  501  0.00000000000E+00  0.00000000000E+00  0.76635135436E+03  0.76635135437E+03  0.50400001928E-02 0.  1.
        1   -1    0    0  501    0  0.00000000000E+00  0.00000000000E+00 -0.51053690969E+03  0.51053690971E+03  0.50400001928E-02 0. -1.
    10030    2    1    2    0    0  0.00000000000E+00  0.00000000000E+00  0.25581444467E+03  0.12768882641E+04  0.12510006430E+04 0.  0.
        1    1    3    3  502    0 -0.42981808334E+03 -0.42857870083E+03  0.28212102643E+03  0.66933964558E+03  0.50400001928E-02 0. -1.
       -1    1    3    3    0  502  0.42981808334E+03  0.42857870083E+03 -0.26306581760E+02  0.60754861850E+03  0.50400001928E-02 0.  1.
</event>
<event>
 5   0  0.5710383E-04  0.1300120E+04  0.7818609E-02  0.9029470E-01
       -1   -1    0    0    0  501  0.00000000000E+00  0.00000000000E+00  0.90578534381E+03  0.90578534382E+03  0.50400001928E-02 0. -1.
        1   -1    0    0  501    0  0.00000000000E+00  0.00000000000E+00 -0.46653250104E+03  0.46653250107E+03  0.50400001928E-02 0.  1.
    10030    2    1    2    0    0  0.00000000000E+00  0.00000000000E+00  0.43925284276E+03  0.13723178449E+04  0.13001204589E+04 0.  0.
        1    1    3    3  502    0  0.17185247515E+03 -0.80977330254E+02 -0.43657770516E+03  0.47612046154E+03  0.50400001928E-02 0.  1.
       -1    1    3    3    0  502 -0.17185247515E+03  0.80977330254E+02  0.87583054792E+03  0.89619738335E+03  0.50400001928E-02 0. -1.
</event>
<event>
 5   0  0.5563545E-04  0.1301363E+04  0.7818609E-02  0.9028485E-01
       -1   -1    0    0    0  501  0.00000000000E+00  0.00000000000E+00  0.40223434225E+03  0.40223434228E+03  0.50400001928E-02 0. -1.
        1   -1    0    0  501    0  0.00000000000E+00  0.00000000000E+00 -0.10525859487E+04  0.10525859488E+04  0.50400001928E-02 0.  1.
    10030    2    1    2    0    0  0.00000000000E+00  0.00000000000E+00 -0.65035160649E+03  0.14548202910E+04  0.13013626962E+04 0.  0.
        2    1    3    3  502    0  0.16298529319E+03  0.59688291262E+03 -0.10005200007E+03  0.62677254240E+03  0.25500000920E-02 0. -1.
       -2    1    3    3    0  502 -0.16298529319E+03 -0.59688291262E+03 -0.55029960642E+03  0.82804774863E+03  0.25500000920E-02 0.  1.
</event>
<event>
 5   0  0.1103241E-03  0.1291521E+04  0.7818609E-02  0.9036316E-01
       -2   -1    0    0    0  501  0.00000000000E+00  0.00000000000E+00  0.34884459521E+03  0.34884459522E+03  0.25500000920E-02 0. -1.
        2   -1    0    0  501    0  0.00000000000E+00  0.00000000000E+00 -0.11953936201E+04  0.11953936201E+04  0.25500000920E-02 0.  1.
    10030    2    1    2    0    0  0.00000000000E+00  0.00000000000E+00 -0.84654902485E+03  0.15442382153E+04  0.12915209693E+04 0.  0.
        4    1    3    3  502    0  0.29320974776E+03 -0.45041642853E+03  0.47669333035E+01  0.53746744257E+03  0.12699999809E+01 0. -1.
       -4    1    3    3    0  502 -0.29320974776E+03  0.45041642853E+03 -0.85131595816E+03  0.10067707727E+04  0.12699999809E+01 0.  1.
</event>
<event>
 5   0  0.6006119E-04  0.1294520E+04  0.7818609E-02  0.9033922E-01
       -1   -1    0    0    0  501  0.00000000000E+00  0.00000000000E+00  0.23682496339E+03  0.23682496344E+03  0.50400001928E-02 0. -1.
        1   -1    0    0  501    0  0.00000000000E+00  0.00000000000E+00 -0.17690080228E+04  0.17690080228E+04  0.50400001928E-02 0.  1.
    10030    2    1    2    0    0  0.00000000000E+00  0.00000000000E+00 -0.15321830595E+04  0.20058329863E+04  0.12945196179E+04 0.  0.
        4    1    3    3  502    0  0.54993207802E+03  0.17076379684E+03 -0.30812084467E+03  0.65308929907E+03  0.12699999809E+01 0. -1.
       -4    1    3    3    0  502 -0.54993207802E+03 -0.17076379684E+03 -0.12240622148E+04  0.13527436872E+04  0.12699999809E+01 0.  1.
</event>
<event>
 5   0  0.5766027E-04  0.1304204E+04  0.7818609E-02  0.9026238E-01
       -1   -1    0    0    0  501  0.00000000000E+00  0.00000000000E+00  0.37579078523E+03  0.37579078526E+03  0.50400001928E-02 0. -1.
        1   -1    0    0  501    0  0.00000000000E+00  0.00000000000E+00 -0.11315787323E+04  0.11315787323E+04  0.50400001928E-02 0.  1.
    10030    2    1    2    0    0  0.00000000000E+00  0.00000000000E+00 -0.75578794702E+03  0.15073695175E+04  0.13042037577E+04 0.  0.
        3    1    3    3  502    0 -0.40442290628E+03 -0.49486491158E+03 -0.52764494652E+03  0.82876918839E+03  0.10100000352E+00 0.  1.
       -3    1    3    3    0  502  0.40442290628E+03  0.49486491158E+03 -0.22814300051E+03  0.67860032914E+03  0.10100000352E+00 0. -1.
</event>
<event>
 5   0  0.1101619E-03  0.1293721E+04  0.7818609E-02  0.9034559E-01
        2   -1    0    0  501    0  0.00000000000E+00  0.00000000000E+00  0.92743580682E+03  0.92743580682E+03  0.25500000920E-02 0. -1.
       -2   -1    0    0    0  501  0.00000000000E+00  0.00000000000E+00 -0.45116734604E+03  0.45116734604E+03  0.25500000920E-02 0.  1.
    10030    2    1    2    0    0  0.00000000000E+00  0.00000000000E+00  0.47626846078E+03  0.13786031529E+04  0.12937213790E+04 0.  0.
        1    1    3    3  502    0  0.17760643879E+03  0.76063939032E+02  0.89596988203E+03  0.91656521833E+03  0.50400001928E-02 0. -1.
       -1    1    3    3    0  502 -0.17760643879E+03 -0.76063939032E+02 -0.41970142125E+03  0.46203793453E+03  0.50400001928E-02 0.  1.
</event>
<event>
 5   0  0.1081574E-03  0.1312911E+04  0.7818609E-02  0.9019389E-01
        2   -1    0    0  501    0  0.00000000000E+00  0.00000000000E+00  0.83964441369E+03  0.83964441370E+03  0.25500000920E-02 0.  1.
       -2   -1    0    0    0  501  0.00000000000E+00  0.00000000000E+00 -0.51323346169E+03  0.51323346170E+03  0.25500000920E-02 0. -1.
    10030    2    1    2    0    0  0.00000000000E+00  0.00000000000E+00  0.32641095200E+03  0.13528778754E+04  0.13129106733E+04 0.  0.
        5    1    3    3  502    0 -0.61880547855E+03  0.18120264576E+03  0.36344336742E+02  0.64583095305E+03  0.46999998093E+01 0. -1.
       -5    1    3    3    0  502  0.61880547855E+03 -0.18120264576E+03  0.29006661526E+03  0.70704692234E+03  0.46999998093E+01 0.  1.
</event>
<event>
 5   0  0.6006119E-04  0.1184279E+04  0.7818609E-02  0.9126729E-01
        1   -1    0    0  501    0  0.00000000000E+00  0.00000000000E+00  0.21183385880E+04  0.21183385880E+04  0.50400001928E-02 0. -1.
       -1   -1    0    0    0  501  0.00000000000E+00  0.00000000000E+00 -0.16552095064E+03  0.16552095071E+03  0.50400001928E-02 0.  1.
    10030    2    1    2    0    0  0.00000000000E+00  0.00000000000E+00  0.19528176374E+04  0.22838595388E+04  0.11842793876E+04 0.  0.
        4    1    3    3  502    0  0.53424683975E+03 -0.11230285283E+02  0.48443084218E+03  0.72126323825E+03  0.12699999809E+01 0.  1.
       -4    1    3    3    0  502 -0.53424683975E+03  0.11230285283E+02  0.14683867952E+04  0.15625963005E+04  0.12699999809E+01 0. -1.
</event>
<event>
 5   0  0.1103241E-03  0.1321165E+04  0.7818609E-02  0.9012947E-01
        2   -1    0    0  501    0  0.00000000000E+00  0.00000000000E+00  0.99962766563E+03  0.99962766564E+03  0.25500000920E-02 0. -1.
       -2   -1    0    0    0  501  0.00000000000E+00  0.00000000000E+00 -0.43653208827E+03  0.43653208828E+03  0.25500000920E-02 0.  1.
    10030    2    1    2    0    0  0.00000000000E+00  0.00000000000E+00  0.56309557736E+03  0.14361597539E+04  0.13211654739E+04 0.  0.
        4    1    3    3  502    0 -0.27091360258E+03  0.46410549929E+03 -0.13605083753E+03  0.55434604520E+03  0.12699999809E+01 0.  1.
       -4    1    3    3    0  502  0.27091360258E+03 -0.46410549929E+03  0.69914641489E+03  0.88181370872E+03  0.12699999809E+01 0. -1.
</event>
<event>
 5   0  0.1031295E-03  0.1247079E+04  0.7818609E-02  0.9072618E-01
        2   -1    0    0  501    0  0.00000000000E+00  0.00000000000E+00  0.57877689524E+03  0.57877689524E+03  0.25500000920E-02 0. -1.
       -2   -1    0    0    0  501  0.00000000000E+00  0.00000000000E+00 -0.67176360365E+03  0.67176360365E+03  0.25500000920E-02 0.  1.
    10030    2    1    2    0    0  0.00000000000E+00  0.00000000000E+00 -0.92986708409E+02  0.12505404989E+04  0.12470785907E+04 0.  0.
        2    1    3    3  502    0  0.43256522966E+02  0.21855361406E+03  0.53750160153E+03  0.58184601112E+03  0.25500000920E-02 0. -1.
       -2    1    3    3    0  502 -0.43256522966E+02 -0.21855361406E+03 -0.63048830994E+03  0.66869448777E+03  0.25500000920E-02 0.  1.
</event>
<event>
 5   0  0.5710383E-04  0.1307244E+04  0.7818609E-02  0.9023840E-01
        1   -1    0    0  501    0  0.00000000000E+00  0.00000000000E+00  0.98122315727E+03  0.98122315728E+03  0.50400001928E-02 0. -1.
       -1   -1    0    0    0  501  0.00000000000E+00  0.00000000000E+00 -0.43539735314E+03  0.43539735317E+03  0.50400001928E-02 0.  1.
    10030    2    1    2    0    0  0.00000000000E+00  0.00000000000E+00  0.54582580413E+03  0.14166205105E+04  0.13072443774E+04 0.  0.
        1    1    3    3  502    0 -0.58680230373E+03 -0.28595421125E+03  0.23672401319E+03  0.69436662726E+03  0.50400001928E-02 0.  1.
       -1    1    3    3    0  502  0.58680230373E+03  0.28595421125E+03  0.30910179094E+03  0.72225388319E+03  0.50400001928E-02 0. -1.
</event>
<event>
 5   0  0.1031295E-03  0.1291912E+04  0.7818609E-02  0.9036004E-01
       -2   -1    0    0    0  501  0.00000000000E+00  0.00000000000E+00  0.80454529893E+03  0.80454529894E+03  0.25500000920E-02 0. -1.
        2   -1    0    0  501    0  0.00000000000E+00  0.00000000000E+00 -0.51862707209E+03  0.51862707210E+03  0.25500000920E-02 0.  1.
    10030    2    1    2    0    0  0.00000000000E+00  0.00000000000E+00  0.28591822684E+03  0.13231723710E+04  0.12919117195E+04 0.  0.
        2    1    3    3  502    0  0.42027952081E+03 -0.44505123048E+03 -0.68317402246E+02  0.61593241579E+03  0.25500000920E-02 0.  1.
       -2    1    3    3    0  502 -0.42027952081E+03  0.44505123048E+03  0.35423562909E+03  0.70723995524E+03  0.25500000920E-02 0. -1.
</event>
<event>
 5   0  0.5563545E-04  0.1289329E+04  0.7818609E-02  0.9038070E-01
       -1   -1    0    0    0  501  0.00000000000E+00  0.00000000000E+00  0.51133924448E+03  0.51133924451E+03  0.50400001928E-02 0.  1.
        1   -1    0    0  501    0  0.00000000000E+00  0.00000000000E+00 -0.81275272843E+03  0.81275272845E+03  0.50400001928E-02 0. -1.
    10030    2    1    2    0    0  0.00000000000E+00  0.00000000000E+00 -0.30141348395E+03  0.13240919730E+04  0.12893290753E+04 0.  0.
        2    1    3    3  502    0 -0.93227550257E+02 -0.29451352218E+03  0.43037843122E+03  0.52976899205E+03  0.25500000920E-02 0.  1.
       -2    1    3    3    0  502  0.93227550257E+02  0.29451352218E+03 -0.73179191517E+03  0.79432298091E+03  0.25500000920E-02 0. -1.
</event>
<event>
 5   0  0.6006119E-04  0.1307507E+04  0.7818609E-02  0.9023633E-01
        1   -1    0    0  501    0  0.00000000000E+00  0.00000000000E+00  0.99979089590E+03  0.99979089591E+03  0.50400001928E-02 0. -1.
       -1   -1    0    0    0  501  0.00000000000E+00  0.00000000000E+00 -0.42748282579E+03  0.42748282582E+03  0.50400001928E-02 0.  1.
    10030    2    1    2    0    0  0.00000000000E+00  0.00000000000E+00  0.57230807011E+03  0.14272737217E+04  0.13075066920E+04 0.  0.
        4    1    3    3  502    0 -0.58687968484E+03 -0.24564593368E+03  0.45033777613E+03  0.77947124047E+03  0.12699999809E+01 0. -1.
       -4    1    3    3    0  502  0.58687968484E+03  0.24564593368E+03  0.12197029398E+03  0.64780248126E+03  0.12699999809E+01 0.  1.
</event>
<event>
 5   0  0.1101619E-03  0.1296713E+04  0.7818609E-02  0.9032176E-01
       -2   -1    0    0    0  501  0.00000000000E+00  0.00000000000E+00  0.50168893089E+03  0.50168893090E+03  0.25500000920E-02 0. -1.
        2   -1    0    0  501    0  0.00000000000E+00  0.00000000000E+00 -0.83790232719E+03  0.83790232720E+03  0.25500000920E-02 0.  1.
    10030    2    1    2    0    0  0.00000000000E+00  0.00000000000E+00 -0.33621339630E+03  0.13395912581E+04  0.12967132647E+04 0.  0.
        1    1    3    3  502    0 -0.13070868325E+03 -0.34119285141E+03  0.38520539441E+03  0.53092421082E+03  0.50400001928E-02 0. -1.
       -1    1    3    3    0  502  0.13070868325E+03  0.34119285141E+03 -0.72141879071E+03  0.80866704727E+03  0.50400001928E-02 0.  1.
</event>
<event>
 5   0  0.1031295E-03  0.1302736E+04  0.7818609E-02  0.9027398E-01
       -2   -1    0    0    0  501  0.00000000000E+00  0.00000000000E+00  0.39464847887E+03  0.39464847888E+03  0.25500000920E-02 0.  1.
        2   -1    0    0  501    0  0.00000000000E+00  0.00000000000E+00 -0.10750843941E+04  0.10750843941E+04  0.25500000920E-02 0. -1.
    10030    2    1    2    0    0  0.00000000000E+00  0.00000000000E+00 -0.68043591525E+03  0.14697328730E+04  0.13027362293E+04 0.  0.
        2    1    3    3  502    0 -0.87217468545E+02  0.59440395447E+03 -0.62419343618E+03  0.86633734404E+03  0.25500000920E-02 0. -1.
       -2    1    3    3    0  502  0.87217468545E+02 -0.59440395447E+03 -0.56242479070E+02  0.60339552896E+03  0.25500000920E-02 0.  1.
</event>
<event>
 5   0  0.5710383E-04  0.1311172E+04  0.7818609E-02  0.9020752E-01
        1   -1    0    0  501    0  0.00000000000E+00  0.00000000000E+00  0.10247226284E+04  0.10247226284E+04  0.50400001928E-02 0.  1.
       -1   -1    0    0    0  501  0.00000000000E+00  0.00000000000E+00 -0.41942386196E+03  0.41942386199E+03  0.50400001928E-02 0. -1.
    10030    2    1    2    0    0  0.00000000000E+00  0.00000000000E+00  0.60529876646E+03  0.14441464904E+04  0.13111721813E+04 0.  0.
        1    1    3    3  502    0  0.15052923214E+03  0.42960901532E+03 -0.21696958724E+03  0.50428043545E+03  0.50400001928E-02 0. -1.
       -1    1    3    3    0  502 -0.15052923214E+03 -0.42960901532E+03  0.82226835369E+03  0.93986605497E+03  0.50400001928E-02 0.  1.
</event>
<event>
 5   0  0.5563545E-04  0.1302750E+04  0.7818609E-02  0.9027387E-01
       -1   -1    0    0    0  501  0.00000000000E+00  0.00000000000E+00  0.24161301598E+03  0.24161301604E+03  0.50400001928E-02 0. -1.
        1   -1    0    0  501    0  0.00000000000E+00  0.00000000000E+00 -0.17560711351E+04  0.17560711351E+04  0.50400001928E-02 0.  1.
    10030    2    1    2    0    0  0.00000000000E+00  0.00000000000E+00 -0.15144581191E+04  0.19976841511E+04  0.13027503879E+04 0.  0.
        2    1    3    3  502    0 -0.63036460362E+03 -0.16376644683E+03 -0.77336009621E+03  0.10110711256E+04  0.25500000920E-02 0. -1.
       -2    1    3    3    0  502  0.63036460362E+03  0.16376644683E+03 -0.74109802290E+03  0.98661302554E+03  0.25500000920E-02 0.  1.
</event>
<event>
 5   0  0.1101619E-03  0.1293421E+04  0.7818609E-02  0.9034799E-01
       -2   -1    0    0    0  501  0.00000000000E+00  0.00000000000E+00  0.16689422976E+04  0.16689422976E+04  0.25500000920E-02 0.  1.
        2   -1    0    0  501    0  0.00000000000E+00  0.00000000000E+00 -0.25059841306E+03  0.25059841308E+03  0.25500000920E-02 0. -1.
    10030    2    1    2    0    0  0.00000000000E+00  0.00000000000E+00  0.14183438845E+04  0.19195407106E+04  0.12934207224E+04 0.  0.
        1    1    3    3  502    0  0.39947326612E+03 -0.30540138837E+03  0.10563190229E+03  0.51381611221E+03  0.50400001928E-02 0. -1.
       -1    1    3    3    0  502 -0.39947326612E+03  0.30540138837E+03  0.13127119822E+04  0.14057245984E+04  0.50400001928E-02 0.  1.
</event>
<event>
 5   0  0.5563545E-04  0.1284560E+04  0.7818609E-02  0.9041900E-01
       -1   -1    0    0    0  501  0.00000000000E+00  0.00000000000E+00  0.63004313251E+03  0.63004313253E+03  0.50400001928E-02 0.  1.
        1   -1    0    0  501    0  0.00000000000E+00  0.00000000000E+00 -0.65475430330E+03  0.65475430332E+03  0.50400001928E-02 0. -1.
    10030    2    1    2    0    0  0.00000000000E+00  0.00000000000E+00 -0.24711170796E+02  0.12847974358E+04  0.12845597725E+04 0.  0.
        2    1    3    3  502    0 -0.44464044596E+03 -0.78386683810E+02 -0.46924843586E+03  0.65118637343E+03  0.25500000920E-02 0. -1.
       -2    1    3    3    0  502  0.44464044596E+03  0.78386683810E+02  0.44453726506E+03  0.63361106242E+03  0.25500000920E-02 0.  1.
</event>
<event>
 5   0  0.5766027E-04  0.1310185E+04  0.7818609E-02  0.9021527E-01
        1   -1    0    0  501    0  0.00000000000E+00  0.00000000000E+00  0.85946426053E+03  0.85946426055E+03  0.50400001928E-02 0.  1.
       -1   -1    0    0    0  501  0.00000000000E+00  0.00000000000E+00 -0.49931810623E+03  0.49931810626E+03  0.50400001928E-02 0. -1.
    10030    2    1    2    0    0  0.00000000000E+00  0.00000000000E+00  0.36014615430E+03  0.13587823668E+04  0.13101848220E+04 0.  0.
        3    1    3    3  502    0 -0.65446261606E+03  0.12576979669E+02  0.20684854917E+03  0.68648803976E+03  0.10100000352E+00 0. -1.
       -3    1    3    3    0  502  0.65446261606E+03 -0.12576979669E+02  0.15329760513E+03  0.67229432705E+03  0.10100000352E+00 0.  1.
</event>
<event>
 5   0  0.1103241E-03  0.1290672E+04  0.7818609E-02  0.9036995E-01
        2   -1    0    0  501    0  0.00000000000E+00  0.00000000000E+00  0.12837504651E+04  0.12837504651E+04  0.25500000920E-02 0.  1.
       -2   -1    0    0    0  501  0.00000000000E+00  0.00000000000E+00 -0.32440782312E+03  0.32440782313E+03  0.25500000920E-02 0. -1.
    10030    2    1    2    0    0  0.00000000000E+00  0.00000000000E+00  0.95934264195E+03  0.16081582882E+04  0.12906722184E+04 0.  0.
        4    1    3    3  502    0 -0.31261262321E+03 -0.38146786377E+03 -0.38893073593E+02  0.49473090398E+03  0.12699999809E+01 0. -1.
       -4    1    3    3    0  502  0.31261262321E+03  0.38146786377E+03  0.99823571554E+03  0.11134273842E+04  0.12699999809E+01 0.  1.
</event>
<event>
 5   0  0.1103241E-03  0.1305172E+04  0.7818609E-02  0.9025474E-01
        2   -1    0    0  501    0  0.00000000000E+00  0.00000000000E+00  0.25019900814E+04  0.25019900814E+04  0.25500000920E-02 0.  1.
       -2   -1    0    0    0  501  0.00000000000E+00  0.00000000000E+00 -0.17021181025E+03  0.17021181027E+03  0.25500000920E-02 0. -1.
    10030    2    1    2    0    0  0.00000000000E+00  0.00000000000E+00  0.23317782712E+04  0.26722018917E+04  0.13051716531E+04 0.  0.
        4    1    3    3  502    0 -0.24033185477E+03 -0.19632321855E+03 -0.94733034849E+01  0.31047312756E+03  0.12699999809E+01 0. -1.
       -4    1    3    3    0  502  0.24033185477E+03  0.19632321855E+03  0.23412515747E+04  0.23617287641E+04  0.12699999809E+01 0.  1.
</event>
<event>
 5   0  0.1103241E-03  0.1292073E+04  0.7818609E-02  0.9035875E-01
       -2   -1    0    0    0  501  0.00000000000E+00  0.00000000000E+00  0.64130255771E+03  0.64130255772E+03  0.25500000920E-02 0.  1.
        2   -1    0    0  501    0  0.00000000000E+00  0.00000000000E+00 -0.65080570600E+03  0.65080570600E+03  0.25500000920E-02 0. -1.
    10030    2    1    2    0    0  0.00000000000E+00  0.00000000000E+00 -0.95031482886E+01  0.12921082637E+04  0.12920733166E+04 0.  0.
        4    1    3    3  502    0  0.31110189946E+03  0.53150695179E+03  0.19038883459E+03  0.64461892067E+03  0.12699999809E+01 0.  1.
       -4    1    3    3    0  502 -0.31110189946E+03 -0.53150695179E+03 -0.19989198288E+03  0.64748934305E+03  0.12699999809E+01 0. -1.
</event>
<event>
 5   0  0.1046253E-03  0.1293071E+04  0.7818609E-02  0.9035078E-01
       -2   -1    0    0    0  501  0.00000000000E+00  0.00000000000E+00  0.20278575773E+03  0.20278575774E+03  0.25500000920E-02 0. -1.
        2   -1    0    0  501    0  0.00000000000E+00  0.00000000000E+00 -0.20613274421E+04  0.20613274421E+04  0.25500000920E-02 0.  1.
    10030    2    1    2    0    0  0.00000000000E+00  0.00000000000E+00 -0.18585416844E+04  0.22641131999E+04  0.12930705275E+04 0.  0.
        3    1    3    3  502    0 -0.32191635885E+03  0.52296254030E+03 -0.12833278554E+04  0.14226912368E+04  0.10100000352E+00 0. -1.
       -3    1    3    3    0  502  0.32191635885E+03 -0.52296254030E+03 -0.57521382898E+03  0.84142196305E+03  0.10100000352E+00 0.  1.
</event>
<event>
 5   0  0.5710383E-04  0.1302298E+04  0.7818609E-02  0.9027745E-01
        1   -1    0    0  501    0  0.00000000000E+00  0.00000000000E+00  0.15406470845E+04  0.15406470845E+04  0.50400001928E-02 0.  1.
       -1   -1    0    0    0  501  0.00000000000E+00  0.00000000000E+00 -0.27520574699E+03  0.27520574704E+03  0.50400001928E-02 0. -1.
    10030    2    1    2    0    0  0.00000000000E+00  0.00000000000E+00  0.12654413375E+04  0.18158528315E+04  0.13022978642E+04 0.  0.
        1    1    3    3  502    0 -0.20607928410E+03  0.59612541200E+03  0.85824605967E+03  0.10650917693E+04  0.50400001928E-02 0.  1.
       -1    1    3    3    0  502  0.20607928410E+03 -0.59612541200E+03  0.40719527781E+03  0.75076106217E+03  0.50400001928E-02 0. -1.
</event>
<event>
 5   0  0.1031295E-03  0.1295316E+04  0.7818609E-02  0.9033288E-01
       -2   -1    0    0    0  501  0.00000000000E+00  0.00000000000E+00  0.52670863278E+03  0.52670863279E+03  0.25500000920E-02 0. -1.
        2   -1    0    0  501    0  0.00000000000E+00  0.00000000000E+00 -0.79638152773E+03  0.79638152773E+03  0.25500000920E-02 0.  1.
    10030    2    1    2    0    0  0.00000000000E+00  0.00000000000E+00 -0.26967289495E+03  0.13230901605E+04  0.12953162172E+04 0.  0.
        2    1    3    3  502    0  0.64699194824E+03  0.14773021253E+02 -0.10891108698E+03  0.65626096038E+03  0.25500000920E-02 0.  1.
       -2    1    3    3    0  502 -0.64699194824E+03 -0.14773021253E+02 -0.16076180797E+03  0.66682920014E+03  0.25500000920E-02 0. -1.
</event>
<event>
 5   0  0.1101619E-03  0.1293313E+04  0.7818609E-02  0.9034885E-01
        2   -1    0    0  501    0  0.00000000000E+00  0.00000000000E+00  0.46777159172E+03  0.46777159173E+03  0.25500000920E-02 0. -1.
       -2   -1    0    0    0  501  0.00000000000E+00  0.00000000000E+00 -0.89395044871E+03  0.89395044871E+03  0.25500000920E-02 0.  1.
    10030    2    1    2    0    0  0.00000000000E+00  0.00000000000E+00 -0.42617885699E+03  0.13617220404E+04  0.12933129928E+04 0.  0.
        1    1    3    3  502    0  0.60848509391E+03  0.19634921743E+03 -0.11123856039E+03  0.64898470093E+03  0.50400001928E-02 0.  1.
       -1    1    3    3    0  502 -0.60848509391E+03 -0.19634921743E+03 -0.31494029659E+03  0.71273733952E+03  0.50400001928E-02 0. -1.
</event>
<event>
 5   0  0.5563545E-04  0.1278859E+04  0.7818609E-02  0.9046501E-01
        1   -1    0    0  501    0  0.00000000000E+00  0.00000000000E+00  0.81604695644E+03  0.81604695645E+03  0.50400001928E-02 0.  1.
       -1   -1    0    0    0  501  0.00000000000E+00  0.00000000000E+00 -0.50103714955E+03  0.50103714957E+03  0.50400001928E-02 0. -1.
    10030    2    1    2    0    0  0.00000000000E+00  0.00000000000E+00  0.31500980689E+03  0.13170841060E+04  0.12788586176E+04 0.  0.
        2    1    3    3  502    0  0.57288395444E+03  0.35958090714E+02  0.44767242234E+03  0.72794203565E+03  0.25500000920E-02 0.  1.
       -2    1    3    3    0  502 -0.57288395444E+03 -0.35958090714E+02 -0.13266261545E+03  0.58914207037E+03  0.25500000920E-02 0. -1.
</event>
<event>
 5   0  0.5563545E-04  0.1330971E+04  0.7818609E-02  0.9005359E-01
       -1   -1    0    0    0  501  0.00000000000E+00  0.00000000000E+00  0.38146593950E+03  0.38146593954E+03  0.50400001928E-02 0. -1.
        1   -1    0    0  501    0  0.00000000000E+00  0.00000000000E+00 -0.11609705338E+04  0.11609705338E+04  0.50400001928E-02 0.  1.
    10030    2    1    2    0    0  0.00000000000E+00  0.00000000000E+00 -0.77950459425E+03  0.15424364733E+04  0.13309706465E+04 0.  0.
        2    1    3    3  502    0  0.47027875785E+03 -0.44386238889E+03 -0.57186550063E+03  0.86325319644E+03  0.25500000920E-02 0.  1.
       -2    1    3    3    0  502 -0.47027875785E+03  0.44386238889E+03 -0.20763909362E+03  0.67918327686E+03  0.25500000920E-02 0. -1.
</event>
<event>
 5   0  0.1101619E-03  0.1301778E+04  0.7818609E-02  0.9028156E-01
        2   -1    0    0  501    0  0.00000000000E+00  0.00000000000E+00  0.16630777242E+04  0.16630777242E+04  0.25500000920E-02 0. -1.
       -2   -1    0    0    0  501  0.00000000000E+00  0.00000000000E+00 -0.25474263417E+03  0.25474263418E+03  0.25500000920E-02 0.  1.
    10030    2    1    2    0    0  0.00000000000E+00  0.00000000000E+00  0.14083350900E+04  0.19178203583E+04  0.13017784762E+04 0.  0.
        1    1    3    3  502    0  0.27456074961E+03  0.46291624189E+02  0.15709111282E+04  0.15953959673E+04  0.50400001928E-02 0. -1.
       -1    1    3    3    0  502 -0.27456074961E+03 -0.46291624189E+02 -0.16257603824E+03  0.32242439103E+03  0.50400001928E-02 0.  1.
</event>
<event>
 5   0  0.1103241E-03  0.1300252E+04  0.7818609E-02  0.9029366E-01
        2   -1    0    0  501    0  0.00000000000E+00  0.00000000000E+00  0.12645347768E+04  0.12645347768E+04  0.25500000920E-02 0. -1.
       -2   -1    0    0    0  501  0.00000000000E+00  0.00000000000E+00 -0.33424429725E+03  0.33424429726E+03  0.25500000920E-02 0.  1.
    10030    2    1    2    0    0  0.00000000000E+00  0.00000000000E+00  0.93029047950E+03  0.15987790740E+04  0.13002515723E+04 0.  0.
        4    1    3    3  502    0 -0.12339055919E+03 -0.61192424240E+03  0.24182810196E+03  0.66944675093E+03  0.12699999809E+01 0.  1.
       -4    1    3    3    0  502  0.12339055919E+03  0.61192424240E+03  0.68846237754E+03  0.92933232308E+03  0.12699999809E+01 0. -1.
</event>
<event>
 5   0  0.1103241E-03  0.1296084E+04  0.7818609E-02  0.9032676E-01
        2   -1    0    0  501    0  0.00000000000E+00  0.00000000000E+00  0.60557550352E+03  0.60557550353E+03  0.25500000920E-02 0. -1.
       -2   -1    0    0    0  501  0.00000000000E+00  0.00000000000E+00 -0.69348641335E+03  0.69348641336E+03  0.25500000920E-02 0.  1.
    10030    2    1    2    0    0  0.00000000000E+00  0.00000000000E+00 -0.87910909829E+02  0.12990619169E+04  0.12960839231E+04 0.  0.
        4    1    3    3  502    0  0.50427247685E+03 -0.26801376230E+03 -0.35098373361E+03  0.67030836325E+03  0.12699999809E+01 0. -1.
       -4    1    3    3    0  502 -0.50427247685E+03  0.26801376230E+03  0.26307282378E+03  0.62875355363E+03  0.12699999809E+01 0.  1.
</event>
<event>
 5   0  0.5766027E-04  0.1298156E+04  0.7818609E-02  0.9031029E-01
       -1   -1    0    0    0  501  0.00000000000E+00  0.00000000000E+00  0.18560793891E+03  0.18560793897E+03  0.50400001928E-02 0.  1.
        1   -1    0    0  501    0  0.00000000000E+00  0.00000000000E+00 -0.22698493542E+04  0.22698493542E+04  0.50400001928E-02 0. -1.
    10030    2    1    2    0    0  0.00000000000E+00  0.00000000000E+00 -0.20842414153E+04  0.24554572931E+04  0.12981557077E+04 0.  0.
        3    1    3    3  502    0  0.64130480515E+03  0.99678612243E+02 -0.10237457835E+04  0.12121316423E+04  0.10100000352E+00 0.  1.
       -3    1    3    3    0  502 -0.64130480515E+03 -0.99678612243E+02 -0.10604956318E+04  0.12433256509E+04  0.10100000352E+00 0. -1.
</event>
<event>
 5   0  0.4012375E-04  0.1282437E+04  0.7818609E-02  0.9043610E-01
        3   -1    0    0  501    0  0.00000000000E+00  0.00000000000E+00  0.75718852937E+03  0.75718853610E+03  0.10100000352E+00 0.  1.
       -3   -1    0    0    0  501  0.00000000000E+00  0.00000000000E+00 -0.54301025854E+03  0.54301026793E+03  0.10100000352E+00 0. -1.
    10030    2    1    2    0    0  0.00000000000E+00  0.00000000000E+00  0.21417827083E+03  0.13001988040E+04  0.12824369764E+04 0.  0.
        3    1    3    3  502    0 -0.33522346942E+03  0.86412893025E+02  0.65430448098E+03  0.74024072204E+03  0.10100000352E+00 0.  1.
       -3    1    3    3    0  502  0.33522346942E+03 -0.86412893025E+02 -0.44012621015E+03  0.55995808200E+03  0.10100000352E+00 0. -1.
</event>
<event>
 5   0  0.5766027E-04  0.1296265E+04  0.7818609E-02  0.9032532E-01
       -1   -1    0    0    0  501  0.00000000000E+00  0.00000000000E+00  0.68212186029E+03  0.68212186030E+03  0.50400001928E-02 0.  1.
        1   -1    0    0  501    0  0.00000000000E+00  0.00000000000E+00 -0.61583681341E+03  0.61583681343E+03  0.50400001928E-02 0. -1.
    10030    2    1    2    0    0  0.00000000000E+00  0.00000000000E+00  0.66285046871E+02  0.12979586737E+04  0.12962650236E+04 0.  0.
        3    1    3    3  502    0 -0.30411578971E+03 -0.36527811914E+03  0.47435553710E+03  0.67151150672E+03  0.10100000352E+00 0.  1.
       -3    1    3    3    0  502  0.30411578971E+03  0.36527811914E+03 -0.40807049022E+03  0.62644716702E+03  0.10100000352E+00 0. -1.
</event>
<event>
 5   0  0.1031295E-03  0.1299461E+04  0.7818609E-02  0.9029993E-01
       -2   -1    0    0    0  501  0.00000000000E+00  0.00000000000E+00  0.36684977138E+03  0.36684977138E+03  0.25500000920E-02 0. -1.
        2   -1    0    0  501    0  0.00000000000E+00  0.00000000000E+00 -0.11507422065E+04  0.11507422065E+04  0.25500000920E-02 0.  1.
    10030    2    1    2    0    0  0.00000000000E+00  0.00000000000E+00 -0.78389243509E+03  0.15175919779E+04  0.12994606810E+04 0.  0.
        2    1    3    3  502    0  0.23979446593E+03 -0.20042838217E+03 -0.10571941993E+04  0.11024211978E+04  0.25500000920E-02 0.  1.
       -2    1    3    3    0  502 -0.23979446593E+03  0.20042838217E+03  0.27330176424E+03  0.41517078005E+03  0.25500000920E-02 0. -1.
</event>
<event>
 5   0  0.5563545E-04  0.1300312E+04  0.7818609E-02  0.9029318E-01
       -1   -1    0    0    0  501  0.00000000000E+00  0.00000000000E+00  0.24866819228E+03  0.24866819233E+03  0.50400001928E-02 0.  1.
        1   -1    0    0  501    0  0.00000000000E+00  0.00000000000E+00 -0.16998670070E+04  0.16998670071E+04  0.50400001928E-02 0. -1.
    10030    2    1    2    0    0  0.00000000000E+00  0.00000000000E+00 -0.14511988148E+04  0.19485351994E+04  0.13003120484E+04 0.  0.
        2    1    3    3  502    0 -0.53751000616E+03 -0.36540825001E+03 -0.74988549579E+03  0.99235500336E+03  0.25500000920E-02 0. -1.
       -2    1    3    3    0  502  0.53751000616E+03  0.36540825001E+03 -0.70131331898E+03  0.95618019603E+03  0.25500000920E-02 0.  1.
</event>
<event>
 5   0  0.5563545E-04  0.1274437E+04  0.7818609E-02  0.9050086E-01
        1   -1    0    0  501    0  0.00000000000E+00  0.00000000000E+00  0.27959283876E+03  0.27959283881E+03  0.50400001928E-02 0. -1.
       -1   -1    0    0    0  501  0.00000000000E+00  0.00000000000E+00 -0.14522806834E+04  0.14522806834E+04  0.50400001928E-02 0.  1.
    10030    2    1    2    0    0  0.00000000000E+00  0.00000000000E+00 -0.11726878446E+04  0.17318735222E+04  0.12744367838E+04 0.  0.
        2    1    3    3  502    0 -0.61127641257E+03  0.24559492758E+02 -0.34406772792E+03  0.70188647419E+03  0.25500000920E-02 0. -1.
       -2    1    3    3    0  502  0.61127641257E+03 -0.24559492758E+02 -0.82862011667E+03  0.10299870480E+04  0.25500000920E-02 0.  1.
</event>
<event>
 5   0  0.5710383E-04  0.1296670E+04  0.7818609E-02  0.9032210E-01
        1   -1    0    0  501    0  0.00000000000E+00  0.00000000000E+00  0.88518007773E+03  0.88518007775E+03  0.50400001928E-02 0. -1.
       -1   -1    0    0    0  501  0.00000000000E+00  0.00000000000E+00 -0.47486189667E+03  0.47486189669E+03  0.50400001928E-02 0.  1.
    10030    2    1    2    0    0  0.00000000000E+00  0.00000000000E+00  0.41031818107E+03  0.13600419744E+04  0.12966700284E+04 0.  0.
        1    1    3    3  502    0  0.44023542450E+03 -0.28420350042E+03 -0.19528433984E+03  0.55920911299E+03  0.50400001928E-02 0.  1.
       -1    1    3    3    0  502 -0.44023542450E+03  0.28420350042E+03  0.60560252091E+03  0.80083286146E+03  0.50400001928E-02 0. -1.
</event>
<event>
 5   0  0.1031295E-03  0.1309627E+04  0.7818609E-02  0.9021966E-01
       -2   -1    0    0    0  501  0.00000000000E+00  0.00000000000E+00  0.24060852381E+03  0.24060852382E+03  0.25500000920E-02 0.  1.
        2   -1    0    0  501    0  0.00000000000E+00  0.00000000000E+00 -0.17820675609E+04  0.17820675609E+04  0.25500000920E-02 0. -1.
    10030    2    1    2    0    0  0.00000000000E+00  0.00000000000E+00 -0.15414590371E+04  0.20226760848E+04  0.13096268861E+04 0.  0.
        2    1    3    3  502    0 -0.54573427273E+02  0.82303161850E+02  0.22904157913E+03  0.24942356423E+03  0.25500000920E-02 0.  1.
       -2    1    3    3    0  502  0.54573427273E+02 -0.82303161850E+02 -0.17705006162E+04  0.17732525205E+04  0.25500000920E-02 0. -1.
</event>
<event>
 5   0  0.1103241E-03  0.1307132E+04  0.7818609E-02  0.9023928E-01
       -2   -1    0    0    0  501  0.00000000000E+00  0.00000000000E+00  0.13044549271E+03  0.13044549273E+03  0.25500000920E-02 0.  1.
        2   -1    0    0  501    0  0.00000000000E+00  0.00000000000E+00 -0.32745383813E+04  0.32745383813E+04  0.25500000920E-02 0. -1.
    10030    2    1    2    0    0  0.00000000000E+00  0.00000000000E+00 -0.31440928886E+04  0.34049838740E+04  0.13071323921E+04 0.  0.
        4    1    3    3  502    0  0.61679374815E+03  0.21083103379E+03 -0.14481300276E+04  0.15880700370E+04  0.12699999809E+01 0.  1.
       -4    1    3    3    0  502 -0.61679374815E+03 -0.21083103379E+03 -0.16959628609E+04  0.18169138370E+04  0.12699999809E+01 0. -1.
</event>
<event>
 5   0  0.5710383E-04  0.1294536E+04  0.7818609E-02  0.9033910E-01
       -1   -1    0    0    0  501  0.00000000000E+00  0.00000000000E+00  0.43755087192E+03  0.43755087195E+03  0.50400001928E-02 0.  1.
        1   -1    0    0  501    0  0.00000000000E+00  0.00000000000E+00 -0.95750167141E+03  0.95750167142E+03  0.50400001928E-02 0. -1.
    10030    2    1    2    0    0  0.00000000000E+00  0.00000000000E+00 -0.51995079949E+03  0.13950525434E+04  0.12945357333E+04 0.  0.
        1    1    3    3  502    0 -0.54746135880E+03 -0.31416589445E+03 -0.10552357293E+03  0.63996044650E+03  0.50400001928E-02 0.  1.
       -1    1    3    3    0  502  0.54746135880E+03  0.31416589445E+03 -0.41442722656E+03  0.75509209687E+03  0.50400001928E-02 0. -1.
</event>
<event>
 5   0  0.1101619E-03  0.1313058E+04  0.7818609E-02  0.9019274E-01
       -2   -1    0    0    0  501  0.00000000000E+00  0.00000000000E+00  0.31028542609E+03  0.31028542610E+03  0.25500000920E-02 0. -1.
        2   -1    0    0  501    0  0.00000000000E+00  0.00000000000E+00 -0.13891409021E+04  0.13891409021E+04  0.25500000920E-02 0.  1.
    10030    2    1    2    0    0  0.00000000000E+00  0.00000000000E+00 -0.10788554760E+04  0.16994263282E+04  0.13130577698E+04 0.  0.
        1    1    3    3  502    0 -0.13748624804E+03  0.33166288873E+03  0.17197182037E+03  0.39809175725E+03  0.50400001928E-02 0. -1.
       -1    1    3    3    0  502  0.13748624804E+03 -0.33166288873E+03 -0.12508272964E+04  0.13013345709E+04  0.50400001928E-02 0.  1.
</event>
<event>
 5   0  0.5563545E-04  0.1261296E+04  0.7818609E-02  0.9060834E-01
        1   -1    0    0  501    0  0.00000000000E+00  0.00000000000E+00  0.12366698598E+04  0.12366698599E+04  0.50400001928E-02 0.  1.
       -1   -1    0    0    0  501  0.00000000000E+00  0.00000000000E+00 -0.32160316741E+03  0.32160316745E+03  0.50400001928E-02 0. -1.
    10030    2    1    2    0    0  0.00000000000E+00  0.00000000000E+00  0.91506669244E+03  0.15582730273E+04  0.12612960699E+04 0.  0.
        2    1    3    3  502    0 -0.37338069882E+03 -0.10699569467E+03 -0.15629665011E+03  0.41867632817E+03  0.25500000920E-02 0. -1.
       -2    1    3    3    0  502  0.37338069882E+03  0.10699569467E+03  0.10713633425E+04  0.11395966991E+04  0.25500000920E-02 0.  1.
</event>
<event>
 5   0  0.5710383E-04  0.1300122E+04  0.7818609E-02  0.9029469E-01
       -1   -1    0    0    0  501  0.00000000000E+00  0.00000000000E+00  0.62301674290E+03  0.62301674292E+03  0.50400001928E-02 0. -1.
        1   -1    0    0  501    0  0.00000000000E+00  0.00000000000E+00 -0.67827901663E+03  0.67827901665E+03  0.50400001928E-02 0.  1.
    10030    2    1    2    0    0  0.00000000000E+00  0.00000000000E+00 -0.55262273738E+02  0.13012957596E+04  0.13001218154E+04 0.  0.
        1    1    3    3  502    0  0.32009160462E+03 -0.19274604666E+03  0.50479797094E+03  0.62803715283E+03  0.50400001928E-02 0. -1.
       -1    1    3    3    0  502 -0.32009160462E+03  0.19274604666E+03 -0.56006024467E+03  0.67325860674E+03  0.50400001928E-02 0.  1.
</event>
<event>
 5   0  0.5710383E-04  0.1313336E+04  0.7818609E-02  0.9019056E-01
        1   -1    0    0  501    0  0.00000000000E+00  0.00000000000E+00  0.64117227233E+03  0.64117227235E+03  0.50400001928E-02 0.  1.
       -1   -1    0    0    0  501  0.00000000000E+00  0.00000000000E+00 -0.67253848994E+03  0.67253848995E+03  0.50400001928E-02 0. -1.
    10030    2    1    2    0    0  0.00000000000E+00  0.00000000000E+00 -0.31366217601E+02  0.13137107623E+04  0.13133362583E+04 0.  0.
        1    1    3    3  502    0  0.23281756676E+03 -0.41229507571E+02 -0.62848259720E+03  0.67148660947E+03  0.50400001928E-02 0. -1.
       -1    1    3    3    0  502 -0.23281756676E+03  0.41229507571E+02  0.59711637960E+03  0.64222415284E+03  0.50400001928E-02 0.  1.
</event>
<event>
 5   0  0.5710383E-04  0.1351930E+04  0.7818609E-02  0.8989369E-01
       -1   -1    0    0    0  501  0.00000000000E+00  0.00000000000E+00  0.18553920911E+03  0.18553920918E+03  0.50400001928E-02 0. -1.
        1   -1    0    0  501    0  0.00000000000E+00  0.00000000000E+00 -0.24627056457E+04  0.24627056457E+04  0.50400001928E-02 0.  1.
    10030    2    1    2    0    0  0.00000000000E+00  0.00000000000E+00 -0.22771664365E+04  0.26482448548E+04  0.13519296696E+04 0.  0.
        1    1    3    3  502    0 -0.24514288088E+03  0.46000590523E+03 -0.19816410136E+04  0.20490489432E+04  0.50400001928E-02 0.  1.
       -1    1    3    3    0  502  0.24514288088E+03 -0.46000590523E+03 -0.29552542296E+03  0.59919591164E+03  0.50400001928E-02 0. -1.
</event>
<event>
 5   0  0.5710383E-04  0.1295857E+04  0.7818609E-02  0.9032857E-01
        1   -1    0    0  501    0  0.00000000000E+00  0.00000000000E+00  0.71777220495E+03  0.71777220497E+03  0.50400001928E-02 0.  1.
       -1   -1    0    0    0  501  0.00000000000E+00  0.00000000000E+00 -0.58488057160E+03  0.58488057162E+03  0.50400001928E-02 0. -1.
    10030    2    1    2    0    0  0.00000000000E+00  0.00000000000E+00  0.13289163336E+03  0.13026527766E+04  0.12958565006E+04 0.  0.
        1    1    3    3  502    0 -0.18748810037E+03 -0.36597670748E+03 -0.43690002987E+03  0.59997697816E+03  0.50400001928E-02 0. -1.
       -1    1    3    3    0  502  0.18748810037E+03  0.36597670748E+03  0.56979166322E+03  0.70267579843E+03  0.50400001928E-02 0.  1.
</event>
<event>
 5   0  0.5563545E-04  0.1303269E+04  0.7818609E-02  0.9026977E-01
        1   -1    0    0  501    0  0.00000000000E+00  0.00000000000E+00  0.84925571195E+03  0.84925571196E+03  0.50400001928E-02 0.  1.
       -1   -1    0    0    0  501  0.00000000000E+00  0.00000000000E+00 -0.49999991573E+03  0.49999991575E+03  0.50400001928E-02 0. -1.
    10030    2    1    2    0    0  0.00000000000E+00  0.00000000000E+00  0.34925579622E+03  0.13492556277E+04  0.13032694034E+04 0.  0.
        2    1    3    3  502    0 -0.42620766891E+03  0.12962012106E+03 -0.31772991310E+03  0.54718063792E+03  0.25500000920E-02 0. -1.
       -2    1    3    3    0  502  0.42620766891E+03 -0.12962012106E+03  0.66698570932E+03  0.80207498980E+03  0.25500000920E-02 0.  1.
</event>
<event>
 5   0  0.6006119E-04  0.1300927E+04  0.7818609E-02  0.9028831E-01
        1   -1    0    0  501    0  0.00000000000E+00  0.00000000000E+00  0.65843712602E+03  0.65843712604E+03  0.50400001928E-02 0. -1.
       -1   -1    0    0    0  501  0.00000000000E+00  0.00000000000E+00 -0.64258606212E+03  0.64258606214E+03  0.50400001928E-02 0.  1.
    10030    2    1    2    0    0  0.00000000000E+00  0.00000000000E+00  0.15851063902E+02  0.13010231882E+04  0.13009266236E+04 0.  0.
        4    1    3    3  502    0  0.74352124951E+02 -0.60777367434E+03 -0.21159891495E+03  0.64783700991E+03  0.12699999809E+01 0. -1.
       -4    1    3    3    0  502 -0.74352124951E+02  0.60777367434E+03  0.22744997885E+03  0.65318617827E+03  0.12699999809E+01 0.  1.
</event>
<event>
 5   0  0.1031295E-03  0.1300838E+04  0.7818609E-02  0.9028901E-01
       -2   -1    0    0    0  501  0.00000000000E+00  0.00000000000E+00  0.25367763371E+03  0.25367763373E+03  0.25500000920E-02 0.  1.
        2   -1    0    0  501    0  0.00000000000E+00  0.00000000000E+00 -0.16676467122E+04  0.16676467122E+04  0.25500000920E-02 0. -1.
    10030    2    1    2    0    0  0.00000000000E+00  0.00000000000E+00 -0.14139690785E+04  0.19213243459E+04  0.13008376868E+04 0.  0.
        2    1    3    3  502    0 -0.19277951283E+03 -0.14056531750E+03 -0.16006820769E+04  0.16183651196E+04  0.25500000920E-02 0. -1.
       -2    1    3    3    0  502  0.19277951283E+03  0.14056531750E+03  0.18671299839E+03  0.30295922634E+03  0.25500000920E-02 0.  1.
</event>
<event>
 5   0  0.5563545E-04  0.1290963E+04  0.7818609E-02  0.9036762E-01
        1   -1    0    0  501    0  0.00000000000E+00  0.00000000000E+00  0.48817825330E+03  0.48817825333E+03  0.50400001928E-02 0. -1.
       -1   -1    0    0    0  501  0.00000000000E+00  0.00000000000E+00 -0.85347195459E+03  0.85347195460E+03  0.50400001928E-02 0.  1.
    10030    2    1    2    0    0  0.00000000000E+00  0.00000000000E+00 -0.36529370129E+03  0.13416502079E+04  0.12909631258E+04 0.  0.
        2    1    3    3  502    0 -0.92083673350E+02  0.32075907686E+03  0.39156891269E+03  0.51448226566E+03  0.25500000920E-02 0. -1.
       -2    1    3    3    0  502  0.92083673350E+02 -0.32075907686E+03 -0.75686261397E+03  0.82716794227E+03  0.25500000920E-02 0.  1.
</event>
<event>
 5   0  0.5812938E-04  0.1300688E+04  0.7818609E-02  0.9029020E-01
        1   -1    0    0  501    0  0.00000000000E+00  0.00000000000E+00  0.10851953939E+04  0.10851953939E+04  0.50400001928E-02 0.  1.
       -1   -1    0    0    0  501  0.00000000000E+00  0.00000000000E+00 -0.38974303086E+03  0.38974303089E+03  0.50400001928E-02 0. -1.
    10030    2    1    2    0    0  0.00000000000E+00  0.00000000000E+00  0.69545236307E+03  0.14749384248E+04  0.13006880363E+04 0.  0.
        5    1    3    3  502    0 -0.18720889911E+03 -0.40970042533E+03  0.87963282960E+03  0.98827001135E+03  0.46999998093E+01 0.  1.
       -5    1    3    3    0  502  0.18720889911E+03  0.40970042533E+03 -0.18418046654E+03  0.48666841348E+03  0.46999998093E+01 0. -1.
</event>
<event>
 5   0  0.1101619E-03  0.1302906E+04  0.7818609E-02  0.9027264E-01
       -2   -1    0    0    0  501  0.00000000000E+00  0.00000000000E+00  0.27864921308E+03  0.27864921310E+03  0.25500000920E-02 0. -1.
        2   -1    0    0  501    0  0.00000000000E+00  0.00000000000E+00 -0.15230295412E+04  0.15230295412E+04  0.25500000920E-02 0.  1.
    10030    2    1    2    0    0  0.00000000000E+00  0.00000000000E+00 -0.12443803282E+04  0.18016787543E+04  0.13029059570E+04 0.  0.
        1    1    3    3  502    0  0.29679392822E+03 -0.43449194101E+03 -0.11533085789E+04  0.12676713141E+04  0.50400001928E-02 0.  1.
       -1    1    3    3    0  502 -0.29679392822E+03  0.43449194101E+03 -0.91071749307E+02  0.53400744019E+03  0.50400001928E-02 0. -1.
</event>
<event>
 5   0  0.1101619E-03  0.1298573E+04  0.7818609E-02  0.9030697E-01
        2   -1    0    0  501    0  0.00000000000E+00  0.00000000000E+00  0.58674716865E+03  0.58674716865E+03  0.25500000920E-02 0. -1.
       -2   -1    0    0    0  501  0.00000000000E+00  0.00000000000E+00 -0.71849174738E+03  0.71849174739E+03  0.25500000920E-02 0.  1.
    10030    2    1    2    0    0  0.00000000000E+00  0.00000000000E+00 -0.13174457874E+03  0.13052389160E+04  0.12985730607E+04 0.  0.
        1    1    3    3  502    0  0.55020472646E+03 -0.30592404926E+03  0.93871915475E+02  0.63649564137E+03  0.50400001928E-02 0. -1.
       -1    1    3    3    0  502 -0.55020472646E+03  0.30592404926E+03 -0.22561649421E+03  0.66874327468E+03  0.50400001928E-02 0.  1.
</event>
<event>
 5   0  0.1031295E-03  0.1301056E+04  0.7818609E-02  0.9028728E-01
        2   -1    0    0  501    0  0.00000000000E+00  0.00000000000E+00  0.19973715638E+04  0.19973715638E+04  0.25500000920E-02 0. -1.
       -2   -1    0    0    0  501  0.00000000000E+00  0.00000000000E+00 -0.21187172721E+03  0.21187172723E+03  0.25500000920E-02 0.  1.
    10030    2    1    2    0    0  0.00000000000E+00  0.00000000000E+00  0.17854998365E+04  0.22092432910E+04  0.13010558222E+04 0.  0.
        2    1    3    3  502    0  0.48762646884E+03  0.40390025269E+03  0.63934030383E+03  0.89981720996E+03  0.25500000920E-02 0.  1.
       -2    1    3    3    0  502 -0.48762646884E+03 -0.40390025269E+03  0.11461595327E+04  0.13094260810E+04  0.25500000920E-02 0. -1.
</event>
<event>
 5   0  0.1081574E-03  0.1305549E+04  0.7818609E-02  0.9025177E-01
        2   -1    0    0  501    0  0.00000000000E+00  0.00000000000E+00  0.19609803249E+04  0.19609803249E+04  0.25500000920E-02 0.  1.
       -2   -1    0    0    0  501  0.00000000000E+00  0.00000000000E+00 -0.21729654545E+03  0.21729654546E+03  0.25500000920E-02 0. -1.
    10030    2    1    2    0    0  0.00000000000E+00  0.00000000000E+00  0.17436837794E+04  0.21782768703E+04  0.13055485442E+04 0.  0.
        5    1    3    3  502    0  0.16262087666E+03  0.55314913387E+03  0.36118822810E+03  0.68036647473E+03  0.46999998093E+01 0. -1.
       -5    1    3    3    0  502 -0.16262087666E+03 -0.55314913387E+03  0.13824955513E+04  0.14979103956E+04  0.46999998093E+01 0.  1.
</event>
<event>
 5   0  0.6006119E-04  0.1303258E+04  0.7818609E-02  0.9026985E-01
       -1   -1    0    0    0  501  0.00000000000E+00  0.00000000000E+00  0.23297294173E+03  0.23297294178E+03  0.50400001928E-02 0.  1.
        1   -1    0    0  501    0  0.00000000000E+00  0.00000000000E+00 -0.18226168135E+04  0.18226168135E+04  0.50400001928E-02 0. -1.
    10030    2    1    2    0    0  0.00000000000E+00  0.00000000000E+00 -0.15896438717E+04  0.20555897552E+04  0.13032580723E+04 0.  0.
        4    1    3    3  502    0  0.50088927680E+03  0.66859343501E+02 -0.14591662743E+03  0.52597862550E+03  0.12699999809E+01 0.  1.
       -4    1    3    3    0  502 -0.50088927680E+03 -0.66859343501E+02 -0.14437272443E+04  0.15296111297E+04  0.12699999809E+01 0. -1.
</event>
<event>
 5   0  0.1101619E-03  0.1359863E+04  0.7818609E-02  0.8983395E-01
       -2   -1    0    0    0  501  0.00000000000E+00  0.00000000000E+00  0.26770514683E+03  0.26770514684E+03  0.25500000920E-02 0.  1.
        2   -1    0    0  501    0  0.00000000000E+00  0.00000000000E+00 -0.17269257840E+04  0.17269257840E+04  0.25500000920E-02 0. -1.
    10030    2    1    2    0    0  0.00000000000E+00  0.00000000000E+00 -0.14592206372E+04  0.19946309309E+04  0.13598631116E+04 0.  0.
        1    1    3    3  502    0 -0.55152351691E+03  0.32029626877E+03 -0.10752841519E+04  0.12502015425E+04  0.50400001928E-02 0. -1.
       -1    1    3    3    0  502  0.55152351691E+03 -0.32029626877E+03 -0.38393648527E+03  0.74442938835E+03  0.50400001928E-02 0.  1.
</event>
<event>
 5   0  0.5710383E-04  0.1303274E+04  0.7818609E-02  0.9026973E-01
        1   -1    0    0  501    0  0.00000000000E+00  0.00000000000E+00  0.11272018203E+04  0.11272018203E+04  0.50400001928E-02 0. -1.
       -1   -1    0    0    0  501  0.00000000000E+00  0.00000000000E+00 -0.37671213915E+03  0.37671213918E+03  0.50400001928E-02 0.  1.
    10030    2    1    2    0    0  0.00000000000E+00  0.00000000000E+00  0.75048968111E+03  0.15039139594E+04  0.13032737379E+04 0.  0.
        1    1    3    3  502    0  0.45722456185E+03  0.21022010868E+03 -0.10247386786E+03  0.51356371335E+03  0.50400001928E-02 0.  1.
       -1    1    3    3    0  502 -0.45722456185E+03 -0.21022010868E+03  0.85296354896E+03  0.99035024609E+03  0.50400001928E-02 0. -1.
</event>
<event>
 5   0  0.5563545E-04  0.1267262E+04  0.7818609E-02  0.9055937E-01
        1   -1    0    0  501    0  0.00000000000E+00  0.00000000000E+00  0.89449855670E+03  0.89449855671E+03  0.50400001928E-02 0.  1.
       -1   -1    0    0    0  501  0.00000000000E+00  0.00000000000E+00 -0.44884171491E+03  0.44884171494E+03  0.50400001928E-02 0. -1.
    10030    2    1    2    0    0  0.00000000000E+00  0.00000000000E+00  0.44565684179E+03  0.13433402717E+04  0.12672620348E+04 0.  0.
        2    1    3    3  502    0  0.28103255066E+03  0.34186519506E+03 -0.25786746925E+03  0.51219794789E+03  0.25500000920E-02 0. -1.
       -2    1    3    3    0  502 -0.28103255066E+03 -0.34186519506E+03  0.70352431103E+03  0.83114232376E+03  0.25500000920E-02 0.  1.
</event>
<event>
 5   0  0.5710383E-04  0.1312071E+04  0.7818609E-02  0.9020047E-01
       -1   -1    0    0    0  501  0.00000000000E+00  0.00000000000E+00  0.49761357397E+03  0.49761357399E+03  0.50400001928E-02 0. -1.
        1   -1    0    0  501    0  0.00000000000E+00  0.00000000000E+00 -0.86489346391E+03  0.86489346392E+03  0.50400001928E-02 0.  1.
    10030    2    1    2    0    0  0.00000000000E+00  0.00000000000E+00 -0.36727988994E+03  0.13625070379E+04  0.13120712293E+04 0.  0.
        1    1    3    3  502    0  0.32342410267E+03  0.20674528085E+03  0.36882172885E+03  0.53233093940E+03  0.50400001928E-02 0. -1.
       -1    1    3    3    0  502 -0.32342410267E+03 -0.20674528085E+03 -0.73610161879E+03  0.83017609852E+03  0.50400001928E-02 0.  1.
</event>
<event>
 5   0  0.5812938E-04  0.1320013E+04  0.7818609E-02  0.9013843E-01
        1   -1    0    0  501    0  0.00000000000E+00  0.00000000000E+00  0.91637051207E+03  0.91637051208E+03  0.50400001928E-02 0.  1.
       -1   -1    0    0    0  501  0.00000000000E+00  0.00000000000E+00 -0.47536317487E+03  0.47536317490E+03  0.50400001928E-02 0. -1.
    10030    2    1    2    0    0  0.00000000000E+00  0.00000000000E+00  0.44100733720E+03  0.13917336870E+04  0.13200133272E+04 0.  0.
        5    1    3    3  502    0 -0.64013744093E+03  0.12107102916E+03  0.33184727286E+03  0.73114898611E+03  0.46999998093E+01 0.  1.
       -5    1    3    3    0  502  0.64013744093E+03 -0.12107102916E+03  0.10916006434E+03  0.66058470087E+03  0.46999998093E+01 0. -1.
</event>
<event>
 5   0  0.5563545E-04  0.1289443E+04  0.7818609E-02  0.9037979E-01
        1   -1    0    0  501    0  0.00000000000E+00  0.00000000000E+00  0.13484889608E+04  0.13484889608E+04  0.50400001928E-02 0. -1.
       -1   -1    0    0    0  501  0.00000000000E+00  0.00000000000E+00 -0.30824562892E+03  0.30824562896E+03  0.50400001928E-02 0.  1.
    10030    2    1    2    0    0  0.00000000000E+00  0.00000000000E+00  0.10402433318E+04  0.16567345897E+04  0.12894430237E+04 0.  0.
        2    1    3    3  502    0  0.26872939593E+02 -0.52814908510E+03  0.46290332183E+02  0.53085441115E+03  0.25500000920E-02 0.  1.
       -2    1    3    3    0  502 -0.26872939593E+02  0.52814908510E+03  0.99395299965E+03  0.11258801786E+04  0.25500000920E-02 0. -1.
</event>
<event>
 5   0  0.1101619E-03  0.1298120E+04  0.7818609E-02  0.9031057E-01
       -2   -1    0    0    0  501  0.00000000000E+00  0.00000000000E+00  0.11531786150E+04  0.11531786150E+04  0.25500000920E-02 0.  1.
        2   -1    0    0  501    0  0.00000000000E+00  0.00000000000E+00 -0.36531987787E+03  0.36531987787E+03  0.25500000920E-02 0. -1.
    10030    2    1    2    0    0  0.00000000000E+00  0.00000000000E+00  0.78785873711E+03  0.15184984928E+04  0.12981202884E+04 0.  0.
        1    1    3    3  502    0 -0.27236618050E+03 -0.21873735063E+03  0.10338355328E+04  0.10912585733E+04  0.50400001928E-02 0.  1.
       -1    1    3    3    0  502  0.27236618050E+03  0.21873735063E+03 -0.24597679569E+03  0.42723991958E+03  0.50400001928E-02 0. -1.
</event>
<event>
 5   0  0.1046253E-03  0.1288215E+04  0.7818609E-02  0.9038963E-01
       -2   -1    0    0    0  501  0.00000000000E+00  0.00000000000E+00  0.17318405973E+03  0.17318405975E+03  0.25500000920E-02 0.  1.
        2   -1    0    0  501    0  0.00000000000E+00  0.00000000000E+00 -0.23955689281E+04  0.23955689281E+04  0.25500000920E-02 0. -1.
    10030    2    1    2    0    0  0.00000000000E+00  0.00000000000E+00 -0.22223848684E+04  0.25687529879E+04  0.12882148150E+04 0.  0.
        3    1    3    3  502    0 -0.69427843395E+02 -0.64034531603E+03 -0.11042868988E+04  0.12784020942E+04  0.10100000352E+00 0.  1.
       -3    1    3    3    0  502  0.69427843395E+02  0.64034531603E+03 -0.11180979695E+04  0.12903508937E+04  0.10100000352E+00 0. -1.
</event>
<event>
 5   0  0.5710383E-04  0.1306018E+04  0.7818609E-02  0.9024807E-01
        1   -1    0    0  501    0  0.00000000000E+00  0.00000000000E+00  0.96746490475E+03  0.96746490477E+03  0.50400001928E-02 0. -1.
       -1   -1    0    0    0  501  0.00000000000E+00  0.00000000000E+00 -0.44076082582E+03  0.44076082585E+03  0.50400001928E-02 0.  1.
    10030    2    1    2    0    0  0.00000000000E+00  0.00000000000E+00  0.52670407893E+03  0.14082257306E+04  0.13060178106E+04 0.  0.
        1    1    3    3  502    0 -0.55137804709E+03  0.24804828122E+03  0.52938926640E+03  0.80361601280E+03  0.50400001928E-02 0. -1.
       -1    1    3    3    0  502  0.55137804709E+03 -0.24804828122E+03 -0.26851874669E+01  0.60460971782E+03  0.50400001928E-02 0.  1.
</event>
<event>
 5   0  0.5563545E-04  0.1293088E+04  0.7818609E-02  0.9035064E-01
        1   -1    0    0  501    0  0.00000000000E+00  0.00000000000E+00  0.13575263593E+04  0.13575263593E+04  0.50400001928E-02 0.  1.
       -1   -1    0    0    0  501  0.00000000000E+00  0.00000000000E+00 -0.30792706903E+03  0.30792706908E+03  0.50400001928E-02 0. -1.
    10030    2    1    2    0    0  0.00000000000E+00  0.00000000000E+00  0.10495992902E+04  0.16654534284E+04  0.12930879521E+04 0.  0.
        2    1    3    3  502    0  0.26654744067E+03  0.43015614947E+03  0.65036853345E+01  0.50608709625E+03  0.25500000920E-02 0. -1.
       -2    1    3    3    0  502 -0.26654744067E+03 -0.43015614947E+03  0.10430956049E+04  0.11593663321E+04  0.25500000920E-02 0.  1.
</event>
<event>
 5   0  0.4012375E-04  0.1286553E+04  0.7818609E-02  0.9040297E-01
       -3   -1    0    0    0  501  0.00000000000E+00  0.00000000000E+00  0.10569762221E+04  0.10569762269E+04  0.10100000352E+00 0. -1.
        3   -1    0    0  501    0  0.00000000000E+00  0.00000000000E+00 -0.39149879328E+03  0.39149880630E+03  0.10100000352E+00 0.  1.
    10030    2    1    2    0    0  0.00000000000E+00  0.00000000000E+00  0.66547742885E+03  0.14484750333E+04  0.12865534243E+04 0.  0.
        1    1    3    3  502    0  0.43154990558E+03  0.42046027265E+03  0.58645092362E+03  0.84080131287E+03  0.50400001928E-02 0.  1.
       -1    1    3    3    0  502 -0.43154990558E+03 -0.42046027265E+03  0.79026505224E+02  0.60767372038E+03  0.50400001928E-02 0. -1.
</event>
<event>
 5   0  0.5710383E-04  0.1278224E+04  0.7818609E-02  0.9047014E-01
        1   -1    0    0  501    0  0.00000000000E+00  0.00000000000E+00  0.10229313704E+04  0.10229313704E+04  0.50400001928E-02 0. -1.
       -1   -1    0    0    0  501  0.00000000000E+00  0.00000000000E+00 -0.39930772551E+03  0.39930772554E+03  0.50400001928E-02 0.  1.
    10030    2    1    2    0    0  0.00000000000E+00  0.00000000000E+00  0.62362364485E+03  0.14222390959E+04  0.12782243917E+04 0.  0.
        1    1    3    3  502    0 -0.10041632596E+03 -0.63110650351E+03  0.32210274030E+03  0.71563191141E+03  0.50400001928E-02 0.  1.
       -1    1    3    3    0  502  0.10041632596E+03  0.63110650351E+03  0.30152090455E+03  0.70660718451E+03  0.50400001928E-02 0. -1.
</event>
<event>
 5   0  0.5563545E-04  0.1317187E+04  0.7818609E-02  0.9016046E-01
       -1   -1    0    0    0  501  0.00000000000E+00  0.00000000000E+00  0.45762381080E+03  0.45762381083E+03  0.50400001928E-02 0. -1.
        1   -1    0    0  501    0  0.00000000000E+00  0.00000000000E+00 -0.94782022158E+03  0.94782022159E+03  0.50400001928E-02 0.  1.
    10030    2    1    2    0    0  0.00000000000E+00  0.00000000000E+00 -0.49019641078E+03  0.14054440324E+04  0.13171865499E+04 0.  0.
        2    1    3    3  502    0  0.13174667815E+03 -0.25458220402E+03  0.38756964384E+03  0.48205758437E+03  0.25500000920E-02 0. -1.
       -2    1    3    3    0  502 -0.13174667815E+03  0.25458220402E+03 -0.87776605462E+03  0.92338644806E+03  0.25500000920E-02 0.  1.
</event>
<event>
 5   0  0.5766027E-04  0.1374422E+04  0.7818609E-02  0.8972544E-01
        1   -1    0    0  501    0  0.00000000000E+00  0.00000000000E+00  0.94424173504E+03  0.94424173506E+03  0.50400001928E-02 0. -1.
       -1   -1    0    0    0  501  0.00000000000E+00  0.00000000000E+00 -0.50014612202E+03  0.50014612204E+03  0.50400001928E-02 0.  1.
    10030    2    1    2    0    0  0.00000000000E+00  0.00000000000E+00  0.44409561303E+03  0.14443878571E+04  0.13744218305E+04 0.  0.
        3    1    3    3  502    0  0.60707311895E+03  0.22455640087E+03  0.46465796694E+03  0.79678754092E+03  0.10100000352E+00 0. -1.
       -3    1    3    3    0  502 -0.60707311895E+03 -0.22455640087E+03 -0.20562353913E+02  0.64760031618E+03  0.10100000352E+00 0.  1.
</event>
<event>
 5   0  0.1101619E-03  0.1301441E+04  0.7818609E-02  0.9028424E-01
       -2   -1    0    0    0  501  0.00000000000E+00  0.00000000000E+00  0.14313428502E+04  0.14313428502E+04  0.25500000920E-02 0. -1.
        2   -1    0    0  501    0  0.00000000000E+00  0.00000000000E+00 -0.29583189834E+03  0.29583189836E+03  0.25500000920E-02 0.  1.
    10030    2    1    2    0    0  0.00000000000E+00  0.00000000000E+00  0.11355109518E+04  0.17271747485E+04  0.13014405443E+04 0.  0.
        1    1    3    3  502    0 -0.45305027431E+03  0.13918412217E+03 -0.23984856358E+02  0.47455457460E+03  0.50400001928E-02 0.  1.
       -1    1    3    3    0  502  0.45305027431E+03 -0.13918412217E+03  0.11594958082E+04  0.12526201739E+04  0.50400001928E-02 0. -1.
</event>
<event>
 5   0  0.5812938E-04  0.1298059E+04  0.7818609E-02  0.9031106E-01
       -1   -1    0    0    0  501  0.00000000000E+00  0.00000000000E+00  0.47483007267E+03  0.47483007270E+03  0.50400001928E-02 0. -1.
        1   -1    0    0  501    0  0.00000000000E+00  0.00000000000E+00 -0.88713728236E+03  0.88713728238E+03  0.50400001928E-02 0.  1.
    10030    2    1    2    0    0  0.00000000000E+00  0.00000000000E+00 -0.41230720969E+03  0.13619673551E+04  0.12980592595E+04 0.  0.
        5    1    3    3  502    0 -0.33252635072E+03  0.11764398948E+03 -0.77777263521E+03  0.85402941651E+03  0.46999998093E+01 0.  1.
       -5    1    3    3    0  502  0.33252635072E+03 -0.11764398948E+03  0.36546542552E+03  0.50793793856E+03  0.46999998093E+01 0. -1.
</event>
<event>
 5   0  0.1031295E-03  0.1313710E+04  0.7818609E-02  0.9018763E-01
       -2   -1    0    0    0  501  0.00000000000E+00  0.00000000000E+00  0.29655754646E+03  0.29655754647E+03  0.25500000920E-02 0.  1.
        2   -1    0    0  501    0  0.00000000000E+00  0.00000000000E+00 -0.14548891512E+04  0.14548891512E+04  0.25500000920E-02 0. -1.
    10030    2    1    2    0    0  0.00000000000E+00  0.00000000000E+00 -0.11583316048E+04  0.17514466977E+04  0.13137097961E+04 0.  0.
        2    1    3    3  502    0  0.62042420539E+03 -0.18177436418E+02 -0.29259847877E+03  0.68620003178E+03  0.25500000920E-02 0.  1.
       -2    1    3    3    0  502 -0.62042420539E+03  0.18177436418E+02 -0.86573312599E+03  0.10652466659E+04  0.25500000920E-02 0. -1.
</event>
<event>
 5   0  0.5563545E-04  0.1290733E+04  0.7818609E-02  0.9036947E-01
        1   -1    0    0  501    0  0.00000000000E+00  0.00000000000E+00  0.40214179521E+03  0.40214179524E+03  0.50400001928E-02 0.  1.
       -1   -1    0    0    0  501  0.00000000000E+00  0.00000000000E+00 -0.10356988782E+04  0.10356988782E+04  0.50400001928E-02 0. -1.
    10030    2    1    2    0    0  0.00000000000E+00  0.00000000000E+00 -0.63355708303E+03  0.14378406735E+04  0.12907328247E+04 0.  0.
        2    1    3    3  502    0  0.36576870356E+03 -0.38573254712E+03  0.90882776036E+02  0.53929214847E+03  0.25500000920E-02 0.  1.
       -2    1    3    3    0  502 -0.36576870356E+03  0.38573254712E+03 -0.72443985906E+03  0.89854852502E+03  0.25500000920E-02 0. -1.
</event>
<event>
 5   0  0.1046253E-03  0.1286700E+04  0.7818609E-02  0.9040179E-01
        2   -1    0    0  501    0  0.00000000000E+00  0.00000000000E+00  0.13008190132E+04  0.13008190132E+04  0.25500000920E-02 0.  1.
       -2   -1    0    0    0  501  0.00000000000E+00  0.00000000000E+00 -0.31818366801E+03  0.31818366802E+03  0.25500000920E-02 0. -1.
    10030    2    1    2    0    0  0.00000000000E+00  0.00000000000E+00  0.98263534521E+03  0.16190026812E+04  0.12867002216E+04 0.  0.
        3    1    3    3  502    0  0.23536386259E+03 -0.59823646964E+03  0.52255530104E+03  0.82846066549E+03  0.10100000352E+00 0. -1.
       -3    1    3    3    0  502 -0.23536386259E+03  0.59823646964E+03  0.46008004417E+03  0.79054201575E+03  0.10100000352E+00 0.  1.
</event>
<event>
 5   0  0.5710383E-04  0.1300106E+04  0.7818609E-02  0.9029481E-01
       -1   -1    0    0    0  501  0.00000000000E+00  0.00000000000E+00  0.24224662311E+03  0.24224662316E+03  0.50400001928E-02 0.  1.
        1   -1    0    0  501    0  0.00000000000E+00  0.00000000000E+00 -0.17443740452E+04  0.17443740452E+04  0.50400001928E-02 0. -1.
    10030    2    1    2    0    0  0.00000000000E+00  0.00000000000E+00 -0.15021274221E+04  0.19866206683E+04  0.13001057218E+04 0.  0.
        1    1    3    3  502    0 -0.59162715163E+02  0.63347346752E+03 -0.95481504486E+03  0.11473711827E+04  0.50400001928E-02 0.  1.
       -1    1    3    3    0  502  0.59162715163E+02 -0.63347346752E+03 -0.54731237720E+03  0.83924948566E+03  0.50400001928E-02 0. -1.
</event>
<event>
 5   0  0.1046253E-03  0.1306583E+04  0.7818609E-02  0.9024361E-01
       -2   -1    0    0    0  501  0.00000000000E+00  0.00000000000E+00  0.10296550037E+04  0.10296550037E+04  0.25500000920E-02 0. -1.
        2   -1    0    0  501    0  0.00000000000E+00  0.00000000000E+00 -0.41449779689E+03  0.41449779689E+03  0.25500000920E-02 0.  1.
    10030    2    1    2    0    0  0.00000000000E+00  0.00000000000E+00  0.61515720685E+03  0.14441528006E+04  0.13065829183E+04 0.  0.
        3    1    3    3  502    0 -0.58284218080E+03 -0.27960948367E+03  0.41187046960E+03  0.76650098826E+03  0.10100000352E+00 0.  1.
       -3    1    3    3    0  502  0.58284218080E+03  0.27960948367E+03  0.20328673725E+03  0.67765181238E+03  0.10100000352E+00 0. -1.
</event>
<event>
 5   0  0.5766027E-04  0.1288448E+04  0.7818609E-02  0.9038777E-01
        1   -1    0    0  501    0  0.00000000000E+00  0.00000000000E+00  0.53106200664E+03  0.53106200666E+03  0.50400001928E-02 0. -1.
       -1   -1    0    0    0  501  0.00000000000E+00  0.00000000000E+00 -0.78149910944E+03  0.78149910946E+03  0.50400001928E-02 0.  1.
    10030    2    1    2    0    0  0.00000000000E+00  0.00000000000E+00 -0.25043710280E+03  0.13125611161E+04  0.12884478806E+04 0.  0.
        3    1    3    3  502    0  0.41346262739E+03  0.28108700562E+03 -0.53910179443E+03  0.73524962015E+03  0.10100000352E+00 0.  1.
       -3    1    3    3    0  502 -0.41346262739E+03 -0.28108700562E+03  0.28866469163E+03  0.57731149596E+03  0.10100000352E+00 0. -1.
</event>
<event>
 5   0  0.5812938E-04  0.1238776E+04  0.7818609E-02  0.9079577E-01
        1   -1    0    0  501    0  0.00000000000E+00  0.00000000000E+00  0.81022852239E+03  0.81022852241E+03  0.50400001928E-02 0. -1.
       -1   -1    0    0    0  501  0.00000000000E+00  0.00000000000E+00 -0.47349778271E+03  0.47349778274E+03  0.50400001928E-02 0.  1.
    10030    2    1    2    0    0  0.00000000000E+00  0.00000000000E+00  0.33673073968E+03  0.12837263051E+04  0.12387758617E+04 0.  0.
        5    1    3    3  502    0  0.19194797547E+03  0.54214960076E+03  0.40659650520E+03  0.70435291079E+03  0.46999998093E+01 0. -1.
       -5    1    3    3    0  502 -0.19194797547E+03 -0.54214960076E+03 -0.69865765521E+02  0.57937339436E+03  0.46999998093E+01 0.  1.
</event>
<event>
 5   0  0.5766027E-04  0.1304195E+04  0.7818609E-02  0.9026245E-01
        1   -1    0    0  501    0  0.00000000000E+00  0.00000000000E+00  0.48196890018E+03  0.48196890020E+03  0.50400001928E-02 0.  1.
       -1   -1    0    0    0  501  0.00000000000E+00  0.00000000000E+00 -0.88227914604E+03  0.88227914606E+03  0.50400001928E-02 0. -1.
    10030    2    1    2    0    0  0.00000000000E+00  0.00000000000E+00 -0.40031024587E+03  0.13642480463E+04  0.13041949389E+04 0.  0.
        3    1    3    3  502    0 -0.36484717298E+03  0.46128796241E+03  0.94471811176E+02  0.59567187042E+03  0.10100000352E+00 0.  1.
       -3    1    3    3    0  502  0.36484717298E+03 -0.46128796241E+03 -0.49478205704E+03  0.76857617584E+03  0.10100000352E+00 0. -1.
</event>
<event>
 5   0  0.1081574E-03  0.1296343E+04  0.7818609E-02  0.9032471E-01
        2   -1    0    0  501    0  0.00000000000E+00  0.00000000000E+00  0.40203858521E+03  0.40203858522E+03  0.25500000920E-02 0. -1.
       -2   -1    0    0    0  501  0.00000000000E+00  0.00000000000E+00 -0.10449892320E+04  0.10449892320E+04  0.25500000920E-02 0.  1.
    10030    2    1    2    0    0  0.00000000000E+00  0.00000000000E+00 -0.64295064677E+03  0.14470278172E+04  0.12963425356E+04 0.  0.
        5    1    3    3  502    0 -0.20793958550E+03  0.16446496988E+02  0.36353027430E+03  0.41914879078E+03  0.46999998093E+01 0. -1.
       -5    1    3    3    0  502  0.20793958550E+03 -0.16446496988E+02 -0.10064809211E+04  0.10278790264E+04  0.46999998093E+01 0.  1.
</event>
<event>
 5   0  0.1101619E-03  0.1296564E+04  0.7818609E-02  0.9032295E-01
       -2   -1    0    0    0  501  0.00000000000E+00  0.00000000000E+00  0.24458881459E+03  0.24458881461E+03  0.25500000920E-02 0.  1.
        2   -1    0    0  501    0  0.00000000000E+00  0.00000000000E+00 -0.17182689373E+04  0.17182689373E+04  0.25500000920E-02 0. -1.
    10030    2    1    2    0    0  0.00000000000E+00  0.00000000000E+00 -0.14736801227E+04  0.19628577519E+04  0.12965637085E+04 0.  0.
        1    1    3    3  502    0 -0.26745894569E+03 -0.20776860864E+03 -0.15736915450E+04  0.16097226970E+04  0.50400001928E-02 0. -1.
       -1    1    3    3    0  502  0.26745894569E+03  0.20776860864E+03  0.10001142233E+03  0.35313505488E+03  0.50400001928E-02 0.  1.
</event>
<event>
 5   0  0.1101619E-03  0.1307277E+04  0.7818609E-02  0.9023815E-01
       -2   -1    0    0    0  501  0.00000000000E+00  0.00000000000E+00  0.52185743643E+03  0.52185743643E+03  0.25500000920E-02 0. -1.
        2   -1    0    0  501    0  0.00000000000E+00  0.00000000000E+00 -0.81869680227E+03  0.81869680228E+03  0.25500000920E-02 0.  1.
    10030    2    1    2    0    0  0.00000000000E+00  0.00000000000E+00 -0.29683936584E+03  0.13405542387E+04  0.13072765805E+04 0.  0.
        1    1    3    3  502    0 -0.50926222414E+03  0.25802690574E+03  0.17798645868E+03  0.59800090010E+03  0.50400001928E-02 0. -1.
       -1    1    3    3    0  502  0.50926222414E+03 -0.25802690574E+03 -0.47482582452E+03  0.74255333861E+03  0.50400001928E-02 0.  1.
</event>
<event>
 5   0  0.5563545E-04  0.1278402E+04  0.7818609E-02  0.9046870E-01
        1   -1    0    0  501    0  0.00000000000E+00  0.00000000000E+00  0.12992738382E+04  0.12992738382E+04  0.50400001928E-02 0.  1.
       -1   -1    0    0    0  501  0.00000000000E+00  0.00000000000E+00 -0.31446660277E+03  0.31446660281E+03  0.50400001928E-02 0. -1.
    10030    2    1    2    0    0  0.00000000000E+00  0.00000000000E+00  0.98480723541E+03  0.16137404410E+04  0.12784024875E+04 0.  0.
        2    1    3    3  502    0  0.21714075524E+03  0.48273090545E+03  0.40082474781E+02  0.53083503978E+03  0.25500000920E-02 0. -1.
       -2    1    3    3    0  502 -0.21714075524E+03 -0.48273090545E+03  0.94472476063E+03  0.10829054012E+04  0.25500000920E-02 0.  1.
</event>
<event>
 5   0  0.4012375E-04  0.1287358E+04  0.7818609E-02  0.9039651E-01
       -4   -1    0    0    0  501  0.00000000000E+00  0.00000000000E+00  0.17143259249E+04  0.17143263953E+04  0.12699999809E+01 0. -1.
        4   -1    0    0  501    0  0.00000000000E+00  0.00000000000E+00 -0.24168040226E+03  0.24168373908E+03  0.12699999809E+01 0.  1.
    10030    2    1    2    0    0  0.00000000000E+00  0.00000000000E+00  0.14726455226E+04  0.19560101344E+04  0.12873580739E+04 0.  0.
        3    1    3    3  502    0 -0.13239861809E+03 -0.27369354765E+03  0.15983524107E+04  0.16270119824E+04  0.10100000352E+00 0. -1.
       -3    1    3    3    0  502  0.13239861809E+03  0.27369354765E+03 -0.12570688803E+03  0.32899815196E+03  0.10100000352E+00 0.  1.
</event>
<event>
 5   0  0.1031295E-03  0.1315674E+04  0.7818609E-02  0.9017227E-01
        2   -1    0    0  501    0  0.00000000000E+00  0.00000000000E+00  0.27385143432E+03  0.27385143433E+03  0.25500000920E-02 0. -1.
       -2   -1    0    0    0  501  0.00000000000E+00  0.00000000000E+00 -0.15802356463E+04  0.15802356463E+04  0.25500000920E-02 0.  1.
    10030    2    1    2    0    0  0.00000000000E+00  0.00000000000E+00 -0.13063842120E+04  0.18540870806E+04  0.13156744253E+04 0.  0.
        2    1    3    3  502    0 -0.29502757342E+03 -0.52987822559E+03 -0.10123040054E+04  0.11800727107E+04  0.25500000920E-02 0.  1.
       -2    1    3    3    0  502  0.29502757342E+03  0.52987822559E+03 -0.29408020653E+03  0.67401436996E+03  0.25500000920E-02 0. -1.
</event>
<event>
 5   0  0.5812938E-04  0.1291674E+04  0.7818609E-02  0.9036194E-01
        1   -1    0    0  501    0  0.00000000000E+00  0.00000000000E+00  0.73656608465E+03  0.73656608467E+03  0.50400001928E-02 0.  1.
       -1   -1    0    0    0  501  0.00000000000E+00  0.00000000000E+00 -0.56628391559E+03  0.56628391561E+03  0.50400001928E-02 0. -1.
    10030    2    1    2    0    0  0.00000000000E+00  0.00000000000E+00  0.17028216906E+03  0.13028500003E+04  0.12916741486E+04 0.  0.
        5    1    3    3  502    0 -0.30539227086E+03  0.21805623021E+03  0.61530319830E+03  0.72071705576E+03  0.46999998093E+01 0.  1.
       -5    1    3    3    0  502  0.30539227086E+03 -0.21805623021E+03 -0.44502102924E+03  0.58213294452E+03  0.46999998093E+01 0. -1.
</event>
<event>
 5   0  0.6006119E-04  0.1297212E+04  0.7818609E-02  0.9031779E-01
       -1   -1    0    0    0  501  0.00000000000E+00  0.00000000000E+00  0.32757853670E+03  0.32757853674E+03  0.50400001928E-02 0.  1.
        1   -1    0    0  501    0  0.00000000000E+00  0.00000000000E+00 -0.12842408583E+04  0.12842408583E+04  0.50400001928E-02 0. -1.
    10030    2    1    2    0    0  0.00000000000E+00  0.00000000000E+00 -0.95666232157E+03  0.16118193950E+04  0.12972119968E+04 0.  0.
        4    1    3    3  502    0  0.62204421556E+03  0.13822983297E+03 -0.32798227450E+03  0.71667320176E+03  0.12699999809E+01 0. -1.
       -4    1    3    3    0  502 -0.62204421556E+03 -0.13822983297E+03 -0.62868004708E+03  0.89514619327E+03  0.12699999809E+01 0.  1.
</event>
<event>
 5   0  0.5766027E-04  0.1307910E+04  0.7818609E-02  0.9023316E-01
       -1   -1    0    0    0  501  0.00000000000E+00  0.00000000000E+00  0.78640877801E+03  0.78640877802E+03  0.50400001928E-02 0. -1.
        1   -1    0    0  501    0  0.00000000000E+00  0.00000000000E+00 -0.54381020946E+03  0.54381020949E+03  0.50400001928E-02 0.  1.
    10030    2    1    2    0    0  0.00000000000E+00  0.00000000000E+00  0.24259856854E+03  0.13302189875E+04  0.13079099699E+04 0.  0.
        3    1    3    3  502    0  0.12458395585E+03  0.92590329824E+02 -0.52480251872E+03  0.54727673538E+03  0.10100000352E+00 0.  1.
       -3    1    3    3    0  502 -0.12458395585E+03 -0.92590329824E+02  0.76740108726E+03  0.78294225213E+03  0.10100000352E+00 0. -1.
</event>
<event>
 5   0  0.5812938E-04  0.1299489E+04  0.7818609E-02  0.9029971E-01
       -1   -1    0    0    0  501  0.00000000000E+00  0.00000000000E+00  0.74093377376E+03  0.74093377378E+03  0.50400001928E-02 0.  1.
        1   -1    0    0  501    0  0.00000000000E+00  0.00000000000E+00 -0.56977795647E+03  0.56977795649E+03  0.50400001928E-02 0. -1.
    10030    2    1    2    0    0  0.00000000000E+00  0.00000000000E+00  0.17115581730E+03  0.13107117303E+04  0.12994887172E+04 0.  0.
        5    1    3    3  502    0  0.45982904529E+03 -0.26226305329E+03 -0.29439967451E+03  0.60573749956E+03  0.46999998093E+01 0. -1.
       -5    1    3    3    0  502 -0.45982904529E+03  0.26226305329E+03  0.46555549181E+03  0.70497423071E+03  0.46999998093E+01 0.  1.
</event>
<event>
 5   0  0.1031295E-03  0.1315779E+04  0.7818609E-02  0.9017145E-01
        2   -1    0    0  501    0  0.00000000000E+00  0.00000000000E+00  0.11540352638E+04  0.11540352638E+04  0.25500000920E-02 0.  1.
       -2   -1    0    0    0  501  0.00000000000E+00  0.00000000000E+00 -0.37504792250E+03  0.37504792251E+03  0.25500000920E-02 0. -1.
    10030    2    1    2    0    0  0.00000000000E+00  0.00000000000E+00  0.77898734134E+03  0.15290831863E+04  0.13157788997E+04 0.  0.
        2    1    3    3  502    0 -0.11163148204E+03  0.61572826612E+03  0.15350857251E+03  0.64431961581E+03  0.25500000920E-02 0.  1.
       -2    1    3    3    0  502  0.11163148204E+03 -0.61572826612E+03  0.62547876882E+03  0.88476357053E+03  0.25500000920E-02 0. -1.
</event>
<event>
 5   0  0.1031295E-03  0.1366371E+04  0.7818609E-02  0.8978527E-01
        2   -1    0    0  501    0  0.00000000000E+00  0.00000000000E+00  0.13862326126E+04  0.13862326126E+04  0.25500000920E-02 0.  1.
       -2   -1    0    0    0  501  0.00000000000E+00  0.00000000000E+00 -0.33669846254E+03  0.33669846255E+03  0.25500000920E-02 0. -1.
    10030    2    1    2    0    0  0.00000000000E+00  0.00000000000E+00  0.10495341501E+04  0.17229310752E+04  0.13663709444E+04 0.  0.
        2    1    3    3  502    0 -0.57373944683E+02 -0.63299654398E+03  0.84067570887E+03  0.10539032411E+04  0.25500000920E-02 0.  1.
       -2    1    3    3    0  502  0.57373944683E+02  0.63299654398E+03  0.20885844120E+03  0.66902783401E+03  0.25500000920E-02 0. -1.
</event>
<event>
 5   0  0.6006119E-04  0.1316239E+04  0.7818609E-02  0.9016786E-01
        1   -1    0    0  501    0  0.00000000000E+00  0.00000000000E+00  0.91540884136E+03  0.91540884138E+03  0.50400001928E-02 0. -1.
       -1   -1    0    0    0  501  0.00000000000E+00  0.00000000000E+00 -0.47314487797E+03  0.47314487800E+03  0.50400001928E-02 0.  1.
    10030    2    1    2    0    0  0.00000000000E+00  0.00000000000E+00  0.44226396339E+03  0.13885537194E+04  0.13162385871E+04 0.  0.
        4    1    3    3  502    0  0.43222093294E+03  0.49083489639E+03  0.29855026795E+03  0.71893511931E+03  0.12699999809E+01 0. -1.
       -4    1    3    3    0  502 -0.43222093294E+03 -0.49083489639E+03  0.14371369544E+03  0.66961860006E+03  0.12699999809E+01 0.  1.
</event>
<event>
 5   0  0.5710383E-04  0.1293368E+04  0.7818609E-02  0.9034841E-01
       -1   -1    0    0    0  501  0.00000000000E+00  0.00000000000E+00  0.30310955213E+03  0.30310955217E+03  0.50400001928E-02 0.  1.
        1   -1    0    0  501    0  0.00000000000E+00  0.00000000000E+00 -0.13796991710E+04  0.13796991710E+04  0.50400001928E-02 0. -1.
    10030    2    1    2    0    0  0.00000000000E+00  0.00000000000E+00 -0.10765896189E+04  0.16828087232E+04  0.12933676938E+04 0.  0.
        1    1    3    3  502    0 -0.44277266374E+03  0.41815984764E+03 -0.82125088246E+03  0.10224276512E+04  0.50400001928E-02 0. -1.
       -1    1    3    3    0  502  0.44277266374E+03 -0.41815984764E+03 -0.25533873644E+03  0.66038107202E+03  0.50400001928E-02 0.  1.
</event>
<event>
 5   0  0.5710383E-04  0.1290098E+04  0.7818609E-02  0.9037455E-01
       -1   -1    0    0    0  501  0.00000000000E+00  0.00000000000E+00  0.73521022101E+03  0.73521022103E+03  0.50400001928E-02 0. -1.
        1   -1    0    0  501    0  0.00000000000E+00  0.00000000000E+00 -0.56594449829E+03  0.56594449831E+03  0.50400001928E-02 0.  1.
    10030    2    1    2    0    0  0.00000000000E+00  0.00000000000E+00  0.16926572272E+03  0.13011547193E+04  0.12900979493E+04 0.  0.
        1    1    3    3  502    0  0.11189663100E+03  0.11836839620E+03  0.71412649557E+03  0.73246746341E+03  0.50400001928E-02 0. -1.
       -1    1    3    3    0  502 -0.11189663100E+03 -0.11836839620E+03 -0.54486077285E+03  0.56868725593E+03  0.50400001928E-02 0.  1.
</event>
<event>
 5   0  0.4012375E-04  0.1297829E+04  0.7818609E-02  0.9031289E-01
       -3   -1    0    0    0  501  0.00000000000E+00  0.00000000000E+00  0.93603970810E+03  0.93603971355E+03  0.10100000352E+00 0. -1.
        3   -1    0    0  501    0  0.00000000000E+00  0.00000000000E+00 -0.44986329301E+03  0.44986330434E+03  0.10100000352E+00 0.  1.
    10030    2    1    2    0    0  0.00000000000E+00  0.00000000000E+00  0.48617641509E+03  0.13859030179E+04  0.12978288286E+04 0.  0.
        3    1    3    3  502    0 -0.48796127991E+03  0.42431467623E+03  0.30099701283E+03  0.71326598621E+03  0.10100000352E+00 0. -1.
       -3    1    3    3    0  502  0.48796127991E+03 -0.42431467623E+03  0.18517940227E+03  0.67263703168E+03  0.10100000352E+00 0.  1.
</event>
<event>
 5   0  0.5812938E-04  0.1300883E+04  0.7818609E-02  0.9028865E-01
       -1   -1    0    0    0  501  0.00000000000E+00  0.00000000000E+00  0.28107236071E+03  0.28107236075E+03  0.50400001928E-02 0. -1.
        1   -1    0    0  501    0  0.00000000000E+00  0.00000000000E+00 -0.15052144679E+04  0.15052144680E+04  0.50400001928E-02 0.  1.
    10030    2    1    2    0    0  0.00000000000E+00  0.00000000000E+00 -0.12241421072E+04  0.17862868287E+04  0.13008830600E+04 0.  0.
        5    1    3    3  502    0  0.21477419980E+03  0.38097112138E+03  0.49011557650E+02  0.44010359577E+03  0.46999998093E+01 0. -1.
       -5    1    3    3    0  502 -0.21477419980E+03 -0.38097112138E+03 -0.12731536649E+04  0.13461832329E+04  0.46999998093E+01 0.  1.
</event>
<event>
 5   0  0.1101619E-03  0.1295256E+04  0.7818609E-02  0.9033336E-01
        2   -1    0    0  501    0  0.00000000000E+00  0.00000000000E+00  0.10165573342E+04  0.10165573342E+04  0.25500000920E-02 0.  1.
       -2   -1    0    0    0  501  0.00000000000E+00  0.00000000000E+00 -0.41259040617E+03  0.41259040618E+03  0.25500000920E-02 0. -1.
    10030    2    1    2    0    0  0.00000000000E+00  0.00000000000E+00  0.60396692804E+03  0.14291477404E+04  0.12952556557E+04 0.  0.
        1    1    3    3  502    0 -0.41116431944E+03  0.71670550662E+02  0.84837954648E+03  0.94548433109E+03  0.50400001928E-02 0.  1.
       -1    1    3    3    0  502  0.41116431944E+03 -0.71670550662E+02 -0.24441261845E+03  0.48366340930E+03  0.50400001928E-02 0. -1.
</event>
<event>
 5   0  0.1046253E-03  0.1299048E+04  0.7818609E-02  0.9030320E-01
        2   -1    0    0  501    0  0.00000000000E+00  0.00000000000E+00  0.14809187490E+04  0.14809187491E+04  0.25500000920E-02 0. -1.
       -2   -1    0    0    0  501  0.00000000000E+00  0.00000000000E+00 -0.28487824355E+03  0.28487824356E+03  0.25500000920E-02 0.  1.
    10030    2    1    2    0    0  0.00000000000E+00  0.00000000000E+00  0.11960405055E+04  0.17657969926E+04  0.12990481624E+04 0.  0.
        3    1    3    3  502    0  0.24003399945E+03  0.11835429530E+03  0.14024890761E+04  0.14277953911E+04  0.10100000352E+00 0. -1.
       -3    1    3    3    0  502 -0.24003399945E+03 -0.11835429530E+03 -0.20644857061E+03  0.33800160150E+03  0.10100000352E+00 0.  1.
</event>
<event>
 5   0  0.1101619E-03  0.1300848E+04  0.7818609E-02  0.9028893E-01
        2   -1    0    0  501    0  0.00000000000E+00  0.00000000000E+00  0.50239891091E+03  0.50239891092E+03  0.25500000920E-02 0.  1.
       -2   -1    0    0    0  501  0.00000000000E+00  0.00000000000E+00 -0.84206324759E+03  0.84206324760E+03  0.25500000920E-02 0. -1.
    10030    2    1    2    0    0  0.00000000000E+00  0.00000000000E+00 -0.33966433668E+03  0.13444621585E+04  0.13008484286E+04 0.  0.
        1    1    3    3  502    0 -0.17437535942E+03  0.29447572896E+03 -0.74148474529E+03  0.81665313839E+03  0.50400001928E-02 0. -1.
       -1    1    3    3    0  502  0.17437535942E+03 -0.29447572896E+03  0.40182040861E+03  0.52780902012E+03  0.50400001928E-02 0.  1.
</event>
<event>
 5   0  0.1046253E-03  0.1310057E+04  0.7818609E-02  0.9021627E-01
       -2   -1    0    0    0  501  0.00000000000E+00  0.00000000000E+00  0.69167480961E+03  0.69167480962E+03  0.25500000920E-02 0.  1.
        2   -1    0    0  501    0  0.00000000000E+00  0.00000000000E+00 -0.62032424764E+03  0.62032424764E+03  0.25500000920E-02 0. -1.
    10030    2    1    2    0    0  0.00000000000E+00  0.00000000000E+00  0.71350561973E+02  0.13119990573E+04  0.13100574886E+04 0.  0.
        3    1    3    3  502    0  0.47304496473E+03  0.44978122646E+03  0.90418486108E+02  0.65897663325E+03  0.10100000352E+00 0. -1.
       -3    1    3    3    0  502 -0.47304496473E+03 -0.44978122646E+03 -0.19067924135E+02  0.65302242401E+03  0.10100000352E+00 0.  1.
</event>
<event>
 5   0  0.1081574E-03  0.1299904E+04  0.7818609E-02  0.9029641E-01
       -2   -1    0    0    0  501  0.00000000000E+00  0.00000000000E+00  0.24434449449E+03  0.24434449450E+03  0.25500000920E-02 0.  1.
        2   -1    0    0  501    0  0.00000000000E+00  0.00000000000E+00 -0.17288611427E+04  0.17288611427E+04  0.25500000920E-02 0. -1.
    10030    2    1    2    0    0  0.00000000000E+00  0.00000000000E+00 -0.14845166482E+04  0.19732056372E+04  0.12999041533E+04 0.  0.
        5    1    3    3  502    0  0.40992832158E+03 -0.40252039779E+03 -0.28095828370E+03  0.63954948726E+03  0.46999998093E+01 0.  1.
       -5    1    3    3    0  502 -0.40992832158E+03  0.40252039779E+03 -0.12035583645E+04  0.13336561499E+04  0.46999998093E+01 0. -1.
</event>
<event>
 5   0  0.4012375E-04  0.1326006E+04  0.7818609E-02  0.9009193E-01
        4   -1    0    0  501    0  0.00000000000E+00  0.00000000000E+00  0.73180655562E+03  0.73180765762E+03  0.12699999809E+01 0. -1.
       -4   -1    0    0    0  501  0.00000000000E+00  0.00000000000E+00 -0.60066572281E+03  0.60066706540E+03  0.12699999809E+01 0.  1.
    10030    2    1    2    0    0  0.00000000000E+00  0.00000000000E+00  0.13114083282E+03  0.13324747230E+04  0.13260056446E+04 0.  0.
        3    1    3    3  502    0  0.40412483947E+03 -0.96455200907E+02 -0.45362445222E+03  0.61513872055E+03  0.10100000352E+00 0.  1.
       -3    1    3    3    0  502 -0.40412483947E+03  0.96455200907E+02  0.58476528504E+03  0.71733600248E+03  0.10100000352E+00 0. -1.
</event>
<event>
 5   0  0.5710383E-04  0.1297107E+04  0.7818609E-02  0.9031863E-01
        1   -1    0    0  501    0  0.00000000000E+00  0.00000000000E+00  0.72010559985E+03  0.72010559987E+03  0.50400001928E-02 0. -1.
       -1   -1    0    0    0  501  0.00000000000E+00  0.00000000000E+00 -0.58411079997E+03  0.58411080000E+03  0.50400001928E-02 0.  1.
    10030    2    1    2    0    0  0.00000000000E+00  0.00000000000E+00  0.13599479988E+03  0.13042163999E+04  0.12971067158E+04 0.  0.
        1    1    3    3  502    0 -0.63849856715E+03 -0.11368491980E+03  0.63879006145E+02  0.65167876189E+03  0.50400001928E-02 0.  1.
       -1    1    3    3    0  502  0.63849856715E+03  0.11368491980E+03  0.72115793731E+02  0.65253763798E+03  0.50400001928E-02 0. -1.
</event>
<event>
 5   0  0.1101619E-03  0.1300224E+04  0.7818609E-02  0.9029388E-01
       -2   -1    0    0    0  501  0.00000000000E+00  0.00000000000E+00  0.76686235584E+03  0.76686235585E+03  0.25500000920E-02 0. -1.
        2   -1    0    0  501    0  0.00000000000E+00  0.00000000000E+00 -0.55113610681E+03  0.55113610682E+03  0.25500000920E-02 0.  1.
    10030    2    1    2    0    0  0.00000000000E+00  0.00000000000E+00  0.21572624903E+03  0.13179984627E+04  0.13002238781E+04 0.  0.
        1    1    3    3  502    0 -0.13238062511E+03  0.58732795919E+02 -0.53457632418E+03  0.55384656505E+03  0.50400001928E-02 0.  1.
       -1    1    3    3    0  502  0.13238062511E+03 -0.58732795919E+02  0.75030257322E+03  0.76415189761E+03  0.50400001928E-02 0. -1.
</event>
<event>
 5   0  0.5766027E-04  0.1286018E+04  0.7818609E-02  0.9040727E-01
        1   -1    0    0  501    0  0.00000000000E+00  0.00000000000E+00  0.31947326614E+03  0.31947326618E+03  0.50400001928E-02 0.  1.
       -1   -1    0    0    0  501  0.00000000000E+00  0.00000000000E+00 -0.12941955008E+04  0.12941955009E+04  0.50400001928E-02 0. -1.
    10030    2    1    2    0    0  0.00000000000E+00  0.00000000000E+00 -0.97472223471E+03  0.16136687670E+04  0.12860184504E+04 0.  0.
        3    1    3    3  502    0 -0.24575170515E+03 -0.52301512936E+03 -0.84120459012E+03  0.10205703791E+04  0.10100000352E+00 0. -1.
       -3    1    3    3    0  502  0.24575170515E+03  0.52301512936E+03 -0.13351764459E+03  0.59309838790E+03  0.10100000352E+00 0.  1.
</event>
<event>
 5   0  0.5563545E-04  0.1318202E+04  0.7818609E-02  0.9015254E-01
        1   -1    0    0  501    0  0.00000000000E+00  0.00000000000E+00  0.10949942659E+04  0.10949942660E+04  0.50400001928E-02 0. -1.
       -1   -1    0    0    0  501  0.00000000000E+00  0.00000000000E+00 -0.39672715277E+03  0.39672715280E+03  0.50400001928E-02 0.  1.
    10030    2    1    2    0    0  0.00000000000E+00  0.00000000000E+00  0.69826711318E+03  0.14917214188E+04  0.13182017409E+04 0.  0.
        2    1    3    3  502    0  0.14008153055E+01  0.17620165485E+03 -0.36957850853E+03  0.40943529334E+03  0.25500000920E-02 0.  1.
       -2    1    3    3    0  502 -0.14008153055E+01 -0.17620165485E+03  0.10678456217E+04  0.10822861254E+04  0.25500000920E-02 0. -1.
</event>
<event>
 5   0  0.6006119E-04  0.1273445E+04  0.7818609E-02  0.9050893E-01
       -1   -1    0    0    0  501  0.00000000000E+00  0.00000000000E+00  0.27827597637E+03  0.27827597641E+03  0.50400001928E-02 0.  1.
        1   -1    0    0  501    0  0.00000000000E+00  0.00000000000E+00 -0.14568832486E+04  0.14568832486E+04  0.50400001928E-02 0. -1.
    10030    2    1    2    0    0  0.00000000000E+00  0.00000000000E+00 -0.11786072723E+04  0.17351592251E+04  0.12734451045E+04 0.  0.
        4    1    3    3  502    0 -0.21810529071E+03 -0.36623506177E+03  0.55173606926E+02  0.42981830825E+03  0.12699999809E+01 0.  1.
       -4    1    3    3    0  502  0.21810529071E+03  0.36623506177E+03 -0.12337808792E+04  0.13053409168E+04  0.12699999809E+01 0. -1.
</event>
<event>
 5   0  0.1103241E-03  0.1309901E+04  0.7818609E-02  0.9021750E-01
       -2   -1    0    0    0  501  0.00000000000E+00  0.00000000000E+00  0.61708054851E+03  0.61708054852E+03  0.25500000920E-02 0.  1.
        2   -1    0    0  501    0  0.00000000000E+00  0.00000000000E+00 -0.69514470703E+03  0.69514470703E+03  0.25500000920E-02 0. -1.
    10030    2    1    2    0    0  0.00000000000E+00  0.00000000000E+00 -0.78064158518E+02  0.13122252556E+04  0.13099011827E+04 0.  0.
        4    1    3    3  502    0 -0.21447471576E+03  0.23910016448E+03 -0.61082527171E+03  0.69012855166E+03  0.12699999809E+01 0. -1.
       -4    1    3    3    0  502  0.21447471576E+03 -0.23910016448E+03  0.53276111320E+03  0.62209670389E+03  0.12699999809E+01 0.  1.
</event>
<event>
 5   0  0.5812938E-04  0.1303300E+04  0.7818609E-02  0.9026952E-01
       -1   -1    0    0    0  501  0.00000000000E+00  0.00000000000E+00  0.66340612493E+03  0.66340612495E+03  0.50400001928E-02 0. -1.
        1   -1    0    0  501    0  0.00000000000E+00  0.00000000000E+00 -0.64010219434E+03  0.64010219436E+03  0.50400001928E-02 0.  1.
    10030    2    1    2    0    0  0.00000000000E+00  0.00000000000E+00  0.23303930589E+02  0.13035083193E+04  0.13032999905E+04 0.  0.
        5    1    3    3  502    0  0.56330246357E+02  0.20885900858E+03 -0.60312542865E+03  0.64076325956E+03  0.46999998093E+01 0.  1.
       -5    1    3    3    0  502 -0.56330246357E+02 -0.20885900858E+03  0.62642935923E+03  0.66274505976E+03  0.46999998093E+01 0. -1.
</event>
<event>
 5   0  0.5812938E-04  0.1299672E+04  0.7818609E-02  0.9029825E-01
        1   -1    0    0  501    0  0.00000000000E+00  0.00000000000E+00  0.96348681936E+03  0.96348681937E+03  0.50400001928E-02 0.  1.
       -1   -1    0    0    0  501  0.00000000000E+00  0.00000000000E+00 -0.43829053197E+03  0.43829053200E+03  0.50400001928E-02 0. -1.
    10030    2    1    2    0    0  0.00000000000E+00  0.00000000000E+00  0.52519628739E+03  0.14017773514E+04  0.12996724982E+04 0.  0.
        5    1    3    3  502    0 -0.58958639219E+03  0.49502556393E+01  0.55724193657E+03  0.81128126119E+03  0.46999998093E+01 0.  1.
       -5    1    3    3    0  502  0.58958639219E+03 -0.49502556393E+01 -0.32045649187E+02  0.59049609018E+03  0.46999998093E+01 0. -1.
</event>
<event>
 5   0  0.5812938E-04  0.1304511E+04  0.7818609E-02  0.9025996E-01
        1   -1    0    0  501    0  0.00000000000E+00  0.00000000000E+00  0.17025761068E+04  0.17025761068E+04  0.50400001928E-02 0.  1.
       -1   -1    0    0    0  501  0.00000000000E+00  0.00000000000E+00 -0.24987851617E+03  0.24987851622E+03  0.50400001928E-02 0. -1.
    10030    2    1    2    0    0  0.00000000000E+00  0.00000000000E+00  0.14526975906E+04  0.19524546230E+04  0.13045109295E+04 0.  0.
        5    1    3    3  502    0 -0.79768140469E+02  0.19059843240E+03  0.16522748241E+04  0.16651501142E+04  0.46999998093E+01 0.  1.
       -5    1    3    3    0  502  0.79768140469E+02 -0.19059843240E+03 -0.19957723344E+03  0.28730450880E+03  0.46999998093E+01 0. -1.
</event>
<event>
 5   0  0.1081574E-03  0.1304788E+04  0.7818609E-02  0.9025777E-01
       -2   -1    0    0    0  501  0.00000000000E+00  0.00000000000E+00  0.12791003324E+04  0.12791003324E+04  0.25500000920E-02 0. -1.
        2   -1    0    0  501    0  0.00000000000E+00  0.00000000000E+00 -0.33274797137E+03  0.33274797138E+03  0.25500000920E-02 0.  1.
    10030    2    1    2    0    0  0.00000000000E+00  0.00000000000E+00  0.94635236102E+03  0.16118483038E+04  0.13047881679E+04 0.  0.
        5    1    3    3  502    0  0.10967008964E+03 -0.52459405996E+03  0.93269609129E+03  0.10757186180E+04  0.46999998093E+01 0. -1.
       -5    1    3    3    0  502 -0.10967008964E+03  0.52459405996E+03  0.13656269734E+02  0.53612968581E+03  0.46999998093E+01 0.  1.
</event>
<event>
 5   0  0.1101619E-03  0.1329497E+04  0.7818609E-02  0.9006495E-01
       -2   -1    0    0    0  501  0.00000000000E+00  0.00000000000E+00  0.70702353489E+03  0.70702353489E+03  0.25500000920E-02 0.  1.
        2   -1    0    0  501    0  0.00000000000E+00  0.00000000000E+00 -0.62500117764E+03  0.62500117764E+03  0.25500000920E-02 0. -1.
    10030    2    1    2    0    0  0.00000000000E+00  0.00000000000E+00  0.82022357251E+02  0.13320247125E+04  0.13294969604E+04 0.  0.
        1    1    3    3  502    0  0.16651852994E+03  0.92779643704E+02 -0.59703088286E+03  0.62672351018E+03  0.50400001928E-02 0. -1.
       -1    1    3    3    0  502 -0.16651852994E+03 -0.92779643704E+02  0.67905324012E+03  0.70530120235E+03  0.50400001928E-02 0.  1.
</event>
<event>
 5   0  0.5563545E-04  0.1297185E+04  0.7818609E-02  0.9031801E-01
        1   -1    0    0  501    0  0.00000000000E+00  0.00000000000E+00  0.92817478818E+03  0.92817478819E+03  0.50400001928E-02 0. -1.
       -1   -1    0    0    0  501  0.00000000000E+00  0.00000000000E+00 -0.45322511700E+03  0.45322511703E+03  0.50400001928E-02 0.  1.
    10030    2    1    2    0    0  0.00000000000E+00  0.00000000000E+00  0.47494967118E+03  0.13813999052E+04  0.12971848396E+04 0.  0.
        2    1    3    3  502    0  0.20640974473E+03  0.61364255350E+03  0.19609389161E+03  0.67647245363E+03  0.25500000920E-02 0. -1.
       -2    1    3    3    0  502 -0.20640974473E+03 -0.61364255350E+03  0.27885577956E+03  0.70492745158E+03  0.25500000920E-02 0.  1.
</event>
<event>
 5   0  0.4012375E-04  0.1299848E+04  0.7818609E-02  0.9029686E-01
       -4   -1    0    0    0  501  0.00000000000E+00  0.00000000000E+00  0.26150655718E+04  0.26150658802E+04  0.12699999809E+01 0.  1.
        4   -1    0    0  501    0  0.00000000000E+00  0.00000000000E+00 -0.16152314300E+03  0.16152813571E+03  0.12699999809E+01 0. -1.
    10030    2    1    2    0    0  0.00000000000E+00  0.00000000000E+00  0.24535424288E+04  0.27765940159E+04  0.12998476369E+04 0.  0.
        1    1    3    3  502    0  0.60788145148E+03  0.80008250366E+02  0.76624748209E+03  0.98135436160E+03  0.50400001928E-02 0. -1.
       -1    1    3    3    0  502 -0.60788145148E+03 -0.80008250366E+02  0.16872949467E+04  0.17952396543E+04  0.50400001928E-02 0.  1.
</event>
<event>
 5   0  0.1101619E-03  0.1289468E+04  0.7818609E-02  0.9037959E-01
        2   -1    0    0  501    0  0.00000000000E+00  0.00000000000E+00  0.10269514898E+04  0.10269514898E+04  0.25500000920E-02 0.  1.
       -2   -1    0    0    0  501  0.00000000000E+00  0.00000000000E+00 -0.40477299422E+03  0.40477299423E+03  0.25500000920E-02 0. -1.
    10030    2    1    2    0    0  0.00000000000E+00  0.00000000000E+00  0.62217849561E+03  0.14317244841E+04  0.12894684633E+04 0.  0.
        1    1    3    3  502    0  0.23873862915E+03  0.54165170999E+02  0.97334012599E+03  0.10036538246E+04  0.50400001928E-02 0.  1.
       -1    1    3    3    0  502 -0.23873862915E+03 -0.54165170999E+02 -0.35116163038E+03  0.42807065944E+03  0.50400001928E-02 0. -1.
</event>
<event>
 5   0  0.4012375E-04  0.1303126E+04  0.7818609E-02  0.9027090E-01
        3   -1    0    0  501    0  0.00000000000E+00  0.00000000000E+00  0.99711519022E+03  0.99711519534E+03  0.10100000352E+00 0. -1.
       -3   -1    0    0    0  501  0.00000000000E+00  0.00000000000E+00 -0.42576265819E+03  0.42576267017E+03  0.10100000352E+00 0.  1.
    10030    2    1    2    0    0  0.00000000000E+00  0.00000000000E+00  0.57135253203E+03  0.14228778655E+04  0.13031261276E+04 0.  0.
        4    1    3    3  502    0 -0.45073316768E+03 -0.22171568325E+03 -0.16744675810E+03  0.52948868009E+03  0.12699999809E+01 0.  1.
       -4    1    3    3    0  502  0.45073316768E+03  0.22171568325E+03  0.73879929012E+03  0.89338918542E+03  0.12699999809E+01 0. -1.
</event>
<event>
 5   0  0.1101619E-03  0.1305056E+04  0.7818609E-02  0.9025565E-01
       -2   -1    0    0    0  501  0.00000000000E+00  0.00000000000E+00  0.35614083006E+03  0.35614083007E+03  0.25500000920E-02 0.  1.
        2   -1    0    0  501    0  0.00000000000E+00  0.00000000000E+00 -0.11955743632E+04  0.11955743632E+04  0.25500000920E-02 0. -1.
    10030    2    1    2    0    0  0.00000000000E+00  0.00000000000E+00 -0.83943353315E+03  0.15517151933E+04  0.13050560848E+04 0.  0.
        1    1    3    3  502    0  0.39484658273E+03 -0.21729290877E+03 -0.98078597514E+03  0.10793799892E+04  0.50400001928E-02 0. -1.
       -1    1    3    3    0  502 -0.39484658273E+03  0.21729290877E+03  0.14135244199E+03  0.47233520405E+03  0.50400001928E-02 0.  1.
</event>
<event>
 5   0  0.1046253E-03  0.1298052E+04  0.7818609E-02  0.9031111E-01
       -2   -1    0    0    0  501  0.00000000000E+00  0.00000000000E+00  0.62100498740E+03  0.62100498741E+03  0.25500000920E-02 0. -1.
        2   -1    0    0  501    0  0.00000000000E+00  0.00000000000E+00 -0.67831128423E+03  0.67831128424E+03  0.25500000920E-02 0.  1.
    10030    2    1    2    0    0  0.00000000000E+00  0.00000000000E+00 -0.57306296831E+02  0.12993162716E+04  0.12980519104E+04 0.  0.
        3    1    3    3  502    0  0.10692616984E+03  0.32347366126E+02 -0.66861549276E+03  0.67788365171E+03  0.10100000352E+00 0.  1.
       -3    1    3    3    0  502 -0.10692616984E+03 -0.32347366126E+02  0.61130919593E+03  0.62143261994E+03  0.10100000352E+00 0. -1.
</event>
<event>
 5   0  0.6006119E-04  0.1286136E+04  0.7818609E-02  0.9040632E-01
       -1   -1    0    0    0  501  0.00000000000E+00  0.00000000000E+00  0.17106287496E+03  0.17106287504E+03  0.50400001928E-02 0. -1.
        1   -1    0    0  501    0  0.00000000000E+00  0.00000000000E+00 -0.24174547267E+04  0.24174547267E+04  0.50400001928E-02 0.  1.
    10030    2    1    2    0    0  0.00000000000E+00  0.00000000000E+00 -0.22463918517E+04  0.25885176018E+04  0.12861364714E+04 0.  0.
        4    1    3    3  502    0  0.13477184980E+03  0.44574234985E+03 -0.23060969244E+03  0.51964616528E+03  0.12699999809E+01 0. -1.
       -4    1    3    3    0  502 -0.13477184980E+03 -0.44574234985E+03 -0.20157821593E+04  0.20688714365E+04  0.12699999809E+01 0.  1.
</event>
<event>
 5   0  0.6006119E-04  0.1274929E+04  0.7818609E-02  0.9049686E-01
        1   -1    0    0  501    0  0.00000000000E+00  0.00000000000E+00  0.10448790102E+04  0.10448790102E+04  0.50400001928E-02 0.  1.
       -1   -1    0    0    0  501  0.00000000000E+00  0.00000000000E+00 -0.38890715287E+03  0.38890715291E+03  0.50400001928E-02 0. -1.
    10030    2    1    2    0    0  0.00000000000E+00  0.00000000000E+00  0.65597185733E+03  0.14337861631E+04  0.12749288937E+04 0.  0.
        4    1    3    3  502    0  0.69283468087E+01  0.28691308572E+03 -0.31214039984E+03  0.42402872881E+03  0.12699999809E+01 0. -1.
       -4    1    3    3    0  502 -0.69283468087E+01 -0.28691308572E+03  0.96811225717E+03  0.10097574343E+04  0.12699999809E+01 0.  1.
</event>
<event>
 5   0  0.5710383E-04  0.1321298E+04  0.7818609E-02  0.9012844E-01
        1   -1    0    0  501    0  0.00000000000E+00  0.00000000000E+00  0.12518655766E+04  0.12518655766E+04  0.50400001928E-02 0.  1.
       -1   -1    0    0    0  501  0.00000000000E+00  0.00000000000E+00 -0.34864532073E+03  0.34864532076E+03  0.50400001928E-02 0. -1.
    10030    2    1    2    0    0  0.00000000000E+00  0.00000000000E+00  0.90322025589E+03  0.16005108974E+04  0.13212979611E+04 0.  0.
        1    1    3    3  502    0  0.50389899648E+03  0.25986469335E+03  0.40808885864E+02  0.56842697218E+03  0.50400001928E-02 0. -1.
       -1    1    3    3    0  502 -0.50389899648E+03 -0.25986469335E+03  0.86241137002E+03  0.10320839252E+04  0.50400001928E-02 0.  1.
</event>
<event>
 5   0  0.1081574E-03  0.1315401E+04  0.7818609E-02  0.9017440E-01
       -2   -1    0    0    0  501  0.00000000000E+00  0.00000000000E+00  0.32900700443E+03  0.32900700444E+03  0.25500000920E-02 0. -1.
        2   -1    0    0  501    0  0.00000000000E+00  0.00000000000E+00 -0.13147751199E+04  0.13147751199E+04  0.25500000920E-02 0.  1.
    10030    2    1    2    0    0  0.00000000000E+00  0.00000000000E+00 -0.98576811547E+03  0.16437821243E+04  0.13154014196E+04 0.  0.
        5    1    3    3  502    0  0.21313049232E+03 -0.49759824631E+03 -0.26113535216E+02  0.54197105846E+03  0.46999998093E+01 0. -1.
       -5    1    3    3    0  502 -0.21313049232E+03  0.49759824631E+03 -0.95965458026E+03  0.11018110659E+04  0.46999998093E+01 0.  1.
</event>
<event>
 5   0  0.5710383E-04  0.1309982E+04  0.7818609E-02  0.9021686E-01
        1   -1    0    0  501    0  0.00000000000E+00  0.00000000000E+00  0.11749274098E+04  0.11749274098E+04  0.50400001928E-02 0.  1.
       -1   -1    0    0    0  501  0.00000000000E+00  0.00000000000E+00 -0.36514026072E+03  0.36514026076E+03  0.50400001928E-02 0. -1.
    10030    2    1    2    0    0  0.00000000000E+00  0.00000000000E+00  0.80978714908E+03  0.15400676706E+04  0.13099821385E+04 0.  0.
        1    1    3    3  502    0 -0.29632774792E+03 -0.40253305646E+03 -0.92737447909E+02  0.50837312085E+03  0.50400001928E-02 0. -1.
       -1    1    3    3    0  502  0.29632774792E+03  0.40253305646E+03  0.90252459699E+03  0.10316945497E+04  0.50400001928E-02 0.  1.
</event>
<event>
 5   0  0.4012375E-04  0.1222479E+04  0.7818609E-02  0.9093405E-01
        3   -1    0    0  501    0  0.00000000000E+00  0.00000000000E+00  0.48499462323E+03  0.48499463375E+03  0.10100000352E+00 0. -1.
       -3   -1    0    0    0  501  0.00000000000E+00  0.00000000000E+00 -0.77034658933E+03  0.77034659595E+03  0.10100000352E+00 0.  1.
    10030    2    1    2    0    0  0.00000000000E+00  0.00000000000E+00 -0.28535196610E+03  0.12553412297E+04  0.12224793898E+04 0.  0.
        1    1    3    3  502    0  0.28348390064E+03 -0.50514036121E+03 -0.34307327874E+03  0.67322298019E+03  0.50400001928E-02 0.  1.
       -1    1    3    3    0  502 -0.28348390064E+03  0.50514036121E+03  0.57721312649E+02  0.58211824950E+03  0.50400001928E-02 0. -1.
</event>
<event>
 5   0  0.1081574E-03  0.1295541E+04  0.7818609E-02  0.9033109E-01
       -2   -1    0    0    0  501  0.00000000000E+00  0.00000000000E+00  0.89569124080E+03  0.89569124081E+03  0.25500000920E-02 0. -1.
        2   -1    0    0  501    0  0.00000000000E+00  0.00000000000E+00 -0.46847230198E+03  0.46847230199E+03  0.25500000920E-02 0.  1.
    10030    2    1    2    0    0  0.00000000000E+00  0.00000000000E+00  0.42721893882E+03  0.13641635428E+04  0.12955408715E+04 0.  0.
        5    1    3    3  502    0 -0.31379110358E+02 -0.37500697132E+03  0.76876407636E+03  0.85594110323E+03  0.46999998093E+01 0. -1.
       -5    1    3    3    0  502  0.31379110358E+02  0.37500697132E+03 -0.34154513754E+03  0.50822243956E+03  0.46999998093E+01 0.  1.
</event>
<event>
 5   0  0.1101619E-03  0.1303011E+04  0.7818609E-02  0.9027181E-01
       -2   -1    0    0    0  501  0.00000000000E+00  0.00000000000E+00  0.30476632894E+03  0.30476632895E+03  0.25500000920E-02 0. -1.
        2   -1    0    0  501    0  0.00000000000E+00  0.00000000000E+00 -0.13927372707E+04  0.13927372707E+04  0.25500000920E-02 0.  1.
    10030    2    1    2    0    0  0.00000000000E+00  0.00000000000E+00 -0.10879709418E+04  0.16975035997E+04  0.13030110133E+04 0.  0.
        1    1    3    3  502    0  0.56275184073E+03  0.16631138186E+03 -0.91271408206E+03  0.10850788476E+04  0.50400001928E-02 0.  1.
       -1    1    3    3    0  502 -0.56275184073E+03 -0.16631138186E+03 -0.17525685969E+03  0.61242475201E+03  0.50400001928E-02 0. -1.
</event>
<event>
 5   0  0.1103241E-03  0.1308188E+04  0.7818609E-02  0.9023097E-01
        2   -1    0    0  501    0  0.00000000000E+00  0.00000000000E+00  0.94374912110E+03  0.94374912110E+03  0.25500000920E-02 0.  1.
       -2   -1    0    0    0  501  0.00000000000E+00  0.00000000000E+00 -0.45333950267E+03  0.45333950268E+03  0.25500000920E-02 0. -1.
    10030    2    1    2    0    0  0.00000000000E+00  0.00000000000E+00  0.49040961843E+03  0.13970886238E+04  0.13081876887E+04 0.  0.
        4    1    3    3  502    0  0.33619920780E+02  0.25716825645E+03  0.88648746840E+03  0.92364898946E+03  0.12699999809E+01 0.  1.
       -4    1    3    3    0  502 -0.33619920780E+02 -0.25716825645E+03 -0.39607784998E+03  0.47343963432E+03  0.12699999809E+01 0. -1.
</event>
<event>
 5   0  0.1081574E-03  0.1302648E+04  0.7818609E-02  0.9027468E-01
        2   -1    0    0  501    0  0.00000000000E+00  0.00000000000E+00  0.10010931043E+04  0.10010931044E+04  0.25500000920E-02 0.  1.
       -2   -1    0    0    0  501  0.00000000000E+00  0.00000000000E+00 -0.42375946196E+03  0.42375946197E+03  0.25500000920E-02 0. -1.
    10030    2    1    2    0    0  0.00000000000E+00  0.00000000000E+00  0.57733364239E+03  0.14248525663E+04  0.13026475736E+04 0.  0.
        5    1    3    3  502    0  0.44224915745E+03  0.43723761447E+03  0.50031192498E+03  0.79818241088E+03  0.46999998093E+01 0.  1.
       -5    1    3    3    0  502 -0.44224915745E+03 -0.43723761447E+03  0.77021717408E+02  0.62667015544E+03  0.46999998093E+01 0. -1.
</event>
<event>
 5   0  0.6006119E-04  0.1297483E+04  0.7818609E-02  0.9031564E-01
       -1   -1    0    0    0  501  0.00000000000E+00  0.00000000000E+00  0.20012961516E+04  0.20012961516E+04  0.50400001928E-02 0. -1.
        1   -1    0    0  501    0  0.00000000000E+00  0.00000000000E+00 -0.21029643309E+03  0.21029643315E+03  0.50400001928E-02 0.  1.
    10030    2    1    2    0    0  0.00000000000E+00  0.00000000000E+00  0.17909997185E+04  0.22115925847E+04  0.12974828589E+04 0.  0.
        4    1    3    3  502    0  0.17412319929E+03 -0.47452412173E+03  0.15886610214E+04  0.16671345130E+04  0.12699999809E+01 0.  1.
       -4    1    3    3    0  502 -0.17412319929E+03  0.47452412173E+03  0.20233869709E+03  0.54445807174E+03  0.12699999809E+01 0. -1.
</event>
<event>
 5   0  0.1101619E-03  0.1305105E+04  0.7818609E-02  0.9025527E-01
        2   -1    0    0  501    0  0.00000000000E+00  0.00000000000E+00  0.18318168762E+04  0.18318168762E+04  0.25500000920E-02 0. -1.
       -2   -1    0    0    0  501  0.00000000000E+00  0.00000000000E+00 -0.23246034138E+03  0.23246034139E+03  0.25500000920E-02 0.  1.
    10030    2    1    2    0    0  0.00000000000E+00  0.00000000000E+00  0.15993565348E+04  0.20642772176E+04  0.13051050171E+04 0.  0.
        1    1    3    3  502    0  0.54568628667E+03 -0.31200093621E+03  0.10768436023E+04  0.12468802074E+04  0.50400001928E-02 0. -1.
       -1    1    3    3    0  502 -0.54568628667E+03  0.31200093621E+03  0.52251293250E+03  0.81739701022E+03  0.50400001928E-02 0.  1.
</event>
<event>
 5   0  0.6006119E-04  0.1300150E+04  0.7818609E-02  0.9029446E-01
        1   -1    0    0  501    0  0.00000000000E+00  0.00000000000E+00  0.93893043284E+03  0.93893043285E+03  0.50400001928E-02 0. -1.
       -1   -1    0    0    0  501  0.00000000000E+00  0.00000000000E+00 -0.45008377198E+03  0.45008377201E+03  0.50400001928E-02 0.  1.
    10030    2    1    2    0    0  0.00000000000E+00  0.00000000000E+00  0.48884666085E+03  0.13890142049E+04  0.13001497619E+04 0.  0.
        4    1    3    3  502    0  0.21305495156E+03  0.57228089828E+03  0.62559274233E+01  0.61068698074E+03  0.12699999809E+01 0.  1.
       -4    1    3    3    0  502 -0.21305495156E+03 -0.57228089828E+03  0.48259073343E+03  0.77832722412E+03  0.12699999809E+01 0. -1.
</event>
<event>
 5   0  0.5563545E-04  0.1252911E+04  0.7818609E-02  0.9067764E-01
        1   -1    0    0  501    0  0.00000000000E+00  0.00000000000E+00  0.10148491570E+04  0.10148491570E+04  0.50400001928E-02 0.  1.
       -1   -1    0    0    0  501  0.00000000000E+00  0.00000000000E+00 -0.38670452072E+03  0.38670452075E+03  0.50400001928E-02 0. -1.
    10030    2    1    2    0    0  0.00000000000E+00  0.00000000000E+00  0.62814463631E+03  0.14015536778E+04  0.12529114205E+04 0.  0.
        2    1    3    3  502    0  0.19688087624E+03 -0.55072109761E+03  0.56518326229E+03  0.81331908054E+03  0.25500000920E-02 0. -1.
       -2    1    3    3    0  502 -0.19688087624E+03  0.55072109761E+03  0.62961374015E+02  0.58823459726E+03  0.25500000920E-02 0.  1.
</event>
<event>
 5   0  0.5563545E-04  0.1319789E+04  0.7818609E-02  0.9014018E-01
       -1   -1    0    0    0  501  0.00000000000E+00  0.00000000000E+00  0.59386954855E+03  0.59386954857E+03  0.50400001928E-02 0.  1.
        1   -1    0    0  501    0  0.00000000000E+00  0.00000000000E+00 -0.73326012322E+03  0.73326012324E+03  0.50400001928E-02 0. -1.
    10030    2    1    2    0    0  0.00000000000E+00  0.00000000000E+00 -0.13939057467E+03  0.13271296718E+04  0.13197891625E+04 0.  0.
        2    1    3    3  502    0  0.33819040791E+03 -0.26363633391E+03  0.43467593754E+03  0.61058991086E+03  0.25500000920E-02 0.  1.
       -2    1    3    3    0  502 -0.33819040791E+03  0.26363633391E+03 -0.57406651221E+03  0.71653976094E+03  0.25500000920E-02 0. -1.
</event>
<event>
 5   0  0.5710383E-04  0.1304859E+04  0.7818609E-02  0.9025721E-01
       -1   -1    0    0    0  501  0.00000000000E+00  0.00000000000E+00  0.11602350913E+04  0.11602350913E+04  0.50400001928E-02 0.  1.
        1   -1    0    0  501    0  0.00000000000E+00  0.00000000000E+00 -0.36687774957E+03  0.36687774961E+03  0.50400001928E-02 0. -1.
    10030    2    1    2    0    0  0.00000000000E+00  0.00000000000E+00  0.79335734174E+03  0.15271128409E+04  0.13048592864E+04 0.  0.
        1    1    3    3  502    0 -0.42080493290E+01 -0.42554402767E+03  0.97543970506E+03  0.10642311992E+04  0.50400001928E-02 0.  1.
       -1    1    3    3    0  502  0.42080493290E+01  0.42554402767E+03 -0.18208236332E+03  0.46288164170E+03  0.50400001928E-02 0. -1.
</event>
<event>
 5   0  0.6006119E-04  0.1317692E+04  0.7818609E-02  0.9015652E-01
       -1   -1    0    0    0  501  0.00000000000E+00  0.00000000000E+00  0.84532907539E+03  0.84532907541E+03  0.50400001928E-02 0. -1.
        1   -1    0    0  501    0  0.00000000000E+00  0.00000000000E+00 -0.51350179332E+03  0.51350179334E+03  0.50400001928E-02 0.  1.
    10030    2    1    2    0    0  0.00000000000E+00  0.00000000000E+00  0.33182728207E+03  0.13588308688E+04  0.13176919157E+04 0.  0.
        4    1    3    3  502    0  0.18780140320E+03  0.29911759875E+03  0.73945736216E+03  0.81947514196E+03  0.12699999809E+01 0. -1.
       -4    1    3    3    0  502 -0.18780140320E+03 -0.29911759875E+03 -0.40763008009E+03  0.53935572679E+03  0.12699999809E+01 0.  1.
</event>
<event>
 5   0  0.1103241E-03  0.1261863E+04  0.7818609E-02  0.9060367E-01
        2   -1    0    0  501    0  0.00000000000E+00  0.00000000000E+00  0.62854430864E+03  0.62854430865E+03  0.25500000920E-02 0. -1.
       -2   -1    0    0    0  501  0.00000000000E+00  0.00000000000E+00 -0.63332765890E+03  0.63332765890E+03  0.25500000920E-02 0.  1.
    10030    2    1    2    0    0  0.00000000000E+00  0.00000000000E+00 -0.47833502576E+01  0.12618719675E+04  0.12618629014E+04 0.  0.
        4    1    3    3  502    0 -0.52936408585E+03 -0.25946828757E+03  0.22238261378E+03  0.63008393683E+03  0.12699999809E+01 0.  1.
       -4    1    3    3    0  502  0.52936408585E+03  0.25946828757E+03 -0.22716596403E+03  0.63178803072E+03  0.12699999809E+01 0. -1.
</event>
<event>
 5   0  0.1031295E-03  0.1365861E+04  0.7818609E-02  0.8978908E-01
       -2   -1    0    0    0  501  0.00000000000E+00  0.00000000000E+00  0.47764784287E+03  0.47764784288E+03  0.25500000920E-02 0.  1.
        2   -1    0    0  501    0  0.00000000000E+00  0.00000000000E+00 -0.97643896822E+03  0.97643896822E+03  0.25500000920E-02 0. -1.
    10030    2    1    2    0    0  0.00000000000E+00  0.00000000000E+00 -0.49879112535E+03  0.14540868111E+04  0.13658608522E+04 0.  0.
        2    1    3    3  502    0 -0.42618079426E+03  0.19940647465E+03 -0.77634357008E+03  0.90780083187E+03  0.25500000920E-02 0. -1.
       -2    1    3    3    0  502  0.42618079426E+03 -0.19940647465E+03  0.27755244473E+03  0.54628597924E+03  0.25500000920E-02 0.  1.
</event>
<event>
 5   0  0.5766027E-04  0.1223127E+04  0.7818609E-02  0.9092851E-01
        1   -1    0    0  501    0  0.00000000000E+00  0.00000000000E+00  0.53404629512E+03  0.53404629514E+03  0.50400001928E-02 0. -1.
       -1   -1    0    0    0  501  0.00000000000E+00  0.00000000000E+00 -0.70033199208E+03  0.70033199210E+03  0.50400001928E-02 0.  1.
    10030    2    1    2    0    0  0.00000000000E+00  0.00000000000E+00 -0.16628569696E+03  0.12343782872E+04  0.12231266586E+04 0.  0.
        3    1    3    3  502    0  0.39256467212E+03 -0.20955817986E+03 -0.50651123243E+03  0.67422198965E+03  0.10100000352E+00 0.  1.
       -3    1    3    3    0  502 -0.39256467212E+03  0.20955817986E+03  0.34022553548E+03  0.56015629759E+03  0.10100000352E+00 0. -1.
</event>
<event>
 5   0  0.1031295E-03  0.1283430E+04  0.7818609E-02  0.9042809E-01
       -2   -1    0    0    0  501  0.00000000000E+00  0.00000000000E+00  0.46727028877E+03  0.46727028877E+03  0.25500000920E-02 0. -1.
        2   -1    0    0  501    0  0.00000000000E+00  0.00000000000E+00 -0.88128474274E+03  0.88128474275E+03  0.25500000920E-02 0.  1.
    10030    2    1    2    0    0  0.00000000000E+00  0.00000000000E+00 -0.41401445398E+03  0.13485550315E+04  0.12834300546E+04 0.  0.
        2    1    3    3  502    0 -0.30220581864E+03  0.30016658246E+03  0.29731636073E+03  0.51944716037E+03  0.25500000920E-02 0. -1.
       -2    1    3    3    0  502  0.30220581864E+03 -0.30016658246E+03 -0.71133081471E+03  0.82910787115E+03  0.25500000920E-02 0.  1.
</event>
<event>
 5   0  0.5812938E-04  0.1237077E+04  0.7818609E-02  0.9081008E-01
       -1   -1    0    0    0  501  0.00000000000E+00  0.00000000000E+00  0.70114981592E+03  0.70114981593E+03  0.50400001928E-02 0. -1.
        1   -1    0    0  501    0  0.00000000000E+00  0.00000000000E+00 -0.54566035606E+03  0.54566035608E+03  0.50400001928E-02 0.  1.
    10030    2    1    2    0    0  0.00000000000E+00  0.00000000000E+00  0.15548945986E+03  0.12468101720E+04  0.12370766480E+04 0.  0.
        5    1    3    3  502    0 -0.25328002125E+03 -0.33360504703E+03 -0.38094544182E+03  0.56620192177E+03  0.46999998093E+01 0.  1.
       -5    1    3    3    0  502  0.25328002125E+03  0.33360504703E+03  0.53643490168E+03  0.68060825025E+03  0.46999998093E+01 0. -1.
</event>
<event>
 5   0  0.1101619E-03  0.1301762E+04  0.7818609E-02  0.9028169E-01
        2   -1    0    0  501    0  0.00000000000E+00  0.00000000000E+00  0.57157222656E+03  0.57157222656E+03  0.25500000920E-02 0.  1.
       -2   -1    0    0    0  501  0.00000000000E+00  0.00000000000E+00 -0.74119420207E+03  0.74119420208E+03  0.25500000920E-02 0. -1.
    10030    2    1    2    0    0  0.00000000000E+00  0.00000000000E+00 -0.16962197552E+03  0.13127664286E+04  0.13017619143E+04 0.  0.
        1    1    3    3  502    0 -0.40076058808E+03 -0.50514116476E+03 -0.17427039651E+03  0.66794222536E+03  0.50400001928E-02 0. -1.
       -1    1    3    3    0  502  0.40076058808E+03  0.50514116476E+03  0.46484209931E+01  0.64482420328E+03  0.50400001928E-02 0.  1.
</event>
<event>
 5   0  0.1103241E-03  0.1302535E+04  0.7818609E-02  0.9027558E-01
        2   -1    0    0  501    0  0.00000000000E+00  0.00000000000E+00  0.14514311738E+04  0.14514311738E+04  0.25500000920E-02 0. -1.
       -2   -1    0    0    0  501  0.00000000000E+00  0.00000000000E+00 -0.29222823600E+03  0.29222823602E+03  0.25500000920E-02 0.  1.
    10030    2    1    2    0    0  0.00000000000E+00  0.00000000000E+00  0.11592029378E+04  0.17436594099E+04  0.13025347160E+04 0.  0.
        4    1    3    3  502    0  0.27426246250E+03  0.95893146653E+01  0.13702488126E+04  0.13974602945E+04  0.12699999809E+01 0. -1.
       -4    1    3    3    0  502 -0.27426246250E+03 -0.95893146653E+01 -0.21104587481E+03  0.34619911535E+03  0.12699999809E+01 0.  1.
</event>
<event>
 5   0  0.5766027E-04  0.1297944E+04  0.7818609E-02  0.9031197E-01
       -1   -1    0    0    0  501  0.00000000000E+00  0.00000000000E+00  0.11085722380E+04  0.11085722380E+04  0.50400001928E-02 0.  1.
        1   -1    0    0  501    0  0.00000000000E+00  0.00000000000E+00 -0.37991612000E+03  0.37991612003E+03  0.50400001928E-02 0. -1.
    10030    2    1    2    0    0  0.00000000000E+00  0.00000000000E+00  0.72865611798E+03  0.14884883580E+04  0.12979437021E+04 0.  0.
        3    1    3    3  502    0 -0.20450832403E+03 -0.45072922203E+03 -0.11703502290E+03  0.50860366983E+03  0.10100000352E+00 0. -1.
       -3    1    3    3    0  502  0.20450832403E+03  0.45072922203E+03  0.84569114088E+03  0.97988468819E+03  0.10100000352E+00 0.  1.
</event>
<event>
 5   0  0.1103241E-03  0.1346382E+04  0.7818609E-02  0.8993572E-01
       -2   -1    0    0    0  501  0.00000000000E+00  0.00000000000E+00  0.34730934330E+03  0.34730934331E+03  0.25500000920E-02 0.  1.
        2   -1    0    0  501    0  0.00000000000E+00  0.00000000000E+00 -0.13048479867E+04  0.13048479867E+04  0.25500000920E-02 0. -1.
    10030    2    1    2    0    0  0.00000000000E+00  0.00000000000E+00 -0.95753864340E+03  0.16521573300E+04  0.13463816656E+04 0.  0.
        4    1    3    3  502    0 -0.40485150423E+03  0.36163477852E+03  0.97678504556E+01  0.54293782086E+03  0.12699999809E+01 0.  1.
       -4    1    3    3    0  502  0.40485150423E+03 -0.36163477852E+03 -0.96730649386E+03  0.11092195091E+04  0.12699999809E+01 0. -1.
</event>
<event>
 5   0  0.1081574E-03  0.1301733E+04  0.7818609E-02  0.9028192E-01
       -2   -1    0    0    0  501  0.00000000000E+00  0.00000000000E+00  0.33591274387E+03  0.33591274388E+03  0.25500000920E-02 0.  1.
        2   -1    0    0  501    0  0.00000000000E+00  0.00000000000E+00 -0.12611227114E+04  0.12611227114E+04  0.25500000920E-02 0. -1.
    10030    2    1    2    0    0  0.00000000000E+00  0.00000000000E+00 -0.92520996751E+03  0.15970354553E+04  0.13017329839E+04 0.  0.
        5    1    3    3  502    0 -0.55309679675E+03 -0.16669303695E+03 -0.83046149600E+03  0.10116279066E+04  0.46999998093E+01 0.  1.
       -5    1    3    3    0  502  0.55309679675E+03  0.16669303695E+03 -0.94748471511E+02  0.58540754863E+03  0.46999998093E+01 0. -1.
</event>
<event>
 5   0  0.1101619E-03  0.1288147E+04  0.7818609E-02  0.9039018E-01
        2   -1    0    0  501    0  0.00000000000E+00  0.00000000000E+00  0.92927203231E+03  0.92927203232E+03  0.25500000920E-02 0.  1.
       -2   -1    0    0    0  501  0.00000000000E+00  0.00000000000E+00 -0.44640365493E+03  0.44640365494E+03  0.25500000920E-02 0. -1.
    10030    2    1    2    0    0  0.00000000000E+00  0.00000000000E+00  0.48286837738E+03  0.13756756873E+04  0.12881466247E+04 0.  0.
        1    1    3    3  502    0  0.37866783325E+02  0.62878176769E+03  0.98034255109E+02  0.63750381949E+03  0.50400001928E-02 0.  1.
       -1    1    3    3    0  502 -0.37866783325E+02 -0.62878176769E+03  0.38483412228E+03  0.73817186776E+03  0.50400001928E-02 0. -1.
</event>
<event>
 5   0  0.6006119E-04  0.1298012E+04  0.7818609E-02  0.9031143E-01
       -1   -1    0    0    0  501  0.00000000000E+00  0.00000000000E+00  0.64937916675E+03  0.64937916677E+03  0.50400001928E-02 0. -1.
        1   -1    0    0  501    0  0.00000000000E+00  0.00000000000E+00 -0.64863270911E+03  0.64863270913E+03  0.50400001928E-02 0.  1.
    10030    2    1    2    0    0  0.00000000000E+00  0.00000000000E+00  0.74645763499E+00  0.12980118759E+04  0.12980116613E+04 0.  0.
        4    1    3    3  502    0  0.24386892309E+03 -0.43625336842E+02 -0.59948663201E+03  0.64866097194E+03  0.12699999809E+01 0.  1.
       -4    1    3    3    0  502 -0.24386892309E+03  0.43625336842E+02  0.60023308964E+03  0.64935090395E+03  0.12699999809E+01 0. -1.
</event>
<event>
 5   0  0.1101619E-03  0.1295088E+04  0.7818609E-02  0.9033470E-01
        2   -1    0    0  501    0  0.00000000000E+00  0.00000000000E+00  0.11027750332E+04  0.11027750332E+04  0.25500000920E-02 0.  1.
       -2   -1    0    0    0  501  0.00000000000E+00  0.00000000000E+00 -0.38023456099E+03  0.38023456100E+03  0.25500000920E-02 0. -1.
    10030    2    1    2    0    0  0.00000000000E+00  0.00000000000E+00  0.72254047222E+03  0.14830095942E+04  0.12950879208E+04 0.  0.
        1    1    3    3  502    0 -0.36975603503E+03 -0.43324471667E+03  0.71401537918E+03  0.91336655932E+03  0.50400001928E-02 0.  1.
       -1    1    3    3    0  502  0.36975603503E+03  0.43324471667E+03  0.85250930457E+01  0.56964303489E+03  0.50400001928E-02 0. -1.
</event>
<event>
 5   0  0.5563545E-04  0.1304327E+04  0.7818609E-02  0.9026141E-01
        1   -1    0    0  501    0  0.00000000000E+00  0.00000000000E+00  0.96994485936E+03  0.96994485937E+03  0.50400001928E-02 0. -1.
       -1   -1    0    0    0  501  0.00000000000E+00  0.00000000000E+00 -0.43849649992E+03  0.43849649995E+03  0.50400001928E-02 0.  1.
    10030    2    1    2    0    0  0.00000000000E+00  0.00000000000E+00  0.53144835943E+03  0.14084413593E+04  0.13043272994E+04 0.  0.
        2    1    3    3  502    0  0.33002736802E+02 -0.38017213360E+02 -0.43639512047E+03  0.43928941522E+03  0.25500000920E-02 0.  1.
       -2    1    3    3    0  502 -0.33002736802E+02  0.38017213360E+02  0.96784347991E+03  0.96915194410E+03  0.25500000920E-02 0. -1.
</event>
<event>
 5   0  0.1046253E-03  0.1301947E+04  0.7818609E-02  0.9028023E-01
       -2   -1    0    0    0  501  0.00000000000E+00  0.00000000000E+00  0.45477451573E+03  0.45477451573E+03  0.25500000920E-02 0.  1.
        2   -1    0    0  501    0  0.00000000000E+00  0.00000000000E+00 -0.93181620596E+03  0.93181620596E+03  0.25500000920E-02 0. -1.
    10030    2    1    2    0    0  0.00000000000E+00  0.00000000000E+00 -0.47704169023E+03  0.13865907217E+04  0.13019466407E+04 0.  0.
        3    1    3    3  502    0 -0.47810831034E+03 -0.36970129858E+03 -0.49611246326E+03  0.78191699879E+03  0.10100000352E+00 0. -1.
       -3    1    3    3    0  502  0.47810831034E+03  0.36970129858E+03  0.19070773030E+02  0.60467372291E+03  0.10100000352E+00 0.  1.
</event>
<event>
 5   0  0.6006119E-04  0.1306211E+04  0.7818609E-02  0.9024654E-01
       -1   -1    0    0    0  501  0.00000000000E+00  0.00000000000E+00  0.35006055732E+03  0.35006055736E+03  0.50400001928E-02 0. -1.
        1   -1    0    0  501    0  0.00000000000E+00  0.00000000000E+00 -0.12184944958E+04  0.12184944958E+04  0.50400001928E-02 0.  1.
    10030    2    1    2    0    0  0.00000000000E+00  0.00000000000E+00 -0.86843393848E+03  0.15685550532E+04  0.13062111044E+04 0.  0.
        4    1    3    3  502    0 -0.17964564585E+03 -0.37110853608E+03  0.17402078506E+03  0.44752536259E+03  0.12699999809E+01 0. -1.
       -4    1    3    3    0  502  0.17964564585E+03  0.37110853608E+03 -0.10424547235E+04  0.11210296906E+04  0.12699999809E+01 0.  1.
</event>
<event>
 5   0  0.6006119E-04  0.1303153E+04  0.7818609E-02  0.9027068E-01
       -1   -1    0    0    0  501  0.00000000000E+00  0.00000000000E+00  0.46087469191E+03  0.46087469194E+03  0.50400001928E-02 0.  1.
        1   -1    0    0  501    0  0.00000000000E+00  0.00000000000E+00 -0.92118754444E+03  0.92118754446E+03  0.50400001928E-02 0. -1.
    10030    2    1    2    0    0  0.00000000000E+00  0.00000000000E+00 -0.46031285254E+03  0.13820622364E+04  0.13031531388E+04 0.  0.
        4    1    3    3  502    0  0.47240910727E+03 -0.37949174529E+03 -0.48417160609E+03  0.77563400288E+03  0.12699999809E+01 0. -1.
       -4    1    3    3    0  502 -0.47240910727E+03  0.37949174529E+03  0.23858753557E+02  0.60642823351E+03  0.12699999809E+01 0.  1.
</event>
<event>
 5   0  0.1046253E-03  0.1293916E+04  0.7818609E-02  0.9034404E-01
        2   -1    0    0  501    0  0.00000000000E+00  0.00000000000E+00  0.13383474041E+04  0.13383474041E+04  0.25500000920E-02 0.  1.
       -2   -1    0    0    0  501  0.00000000000E+00  0.00000000000E+00 -0.31274007536E+03  0.31274007537E+03  0.25500000920E-02 0. -1.
    10030    2    1    2    0    0  0.00000000000E+00  0.00000000000E+00  0.10256073287E+04  0.16510874795E+04  0.12939163312E+04 0.  0.
        3    1    3    3  502    0  0.17033067497E+03 -0.43442497716E+03 -0.59023004792E+02  0.47034171079E+03  0.10100000352E+00 0. -1.
       -3    1    3    3    0  502 -0.17033067497E+03  0.43442497716E+03  0.10846303335E+04  0.11807457687E+04  0.10100000352E+00 0.  1.
</event>
<event>
 5   0  0.1103241E-03  0.1298895E+04  0.7818609E-02  0.9030442E-01
        2   -1    0    0  501    0  0.00000000000E+00  0.00000000000E+00  0.12326172248E+04  0.12326172248E+04  0.25500000920E-02 0.  1.
       -2   -1    0    0    0  501  0.00000000000E+00  0.00000000000E+00 -0.34218412371E+03  0.34218412372E+03  0.25500000920E-02 0. -1.
    10030    2    1    2    0    0  0.00000000000E+00  0.00000000000E+00  0.89043310108E+03  0.15748013485E+04  0.12988949841E+04 0.  0.
        4    1    3    3  502    0 -0.21004623883E+02  0.63559039553E+03  0.60498010491E+03  0.87773508836E+03  0.12699999809E+01 0. -1.
       -4    1    3    3    0  502  0.21004623883E+02 -0.63559039553E+03  0.28545299618E+03  0.69706626015E+03  0.12699999809E+01 0.  1.
</event>
<event>
 5   0  0.5812938E-04  0.1295504E+04  0.7818609E-02  0.9033138E-01
       -1   -1    0    0    0  501  0.00000000000E+00  0.00000000000E+00  0.34614083041E+03  0.34614083045E+03  0.50400001928E-02 0.  1.
        1   -1    0    0  501    0  0.00000000000E+00  0.00000000000E+00 -0.12121727624E+04  0.12121727624E+04  0.50400001928E-02 0. -1.
    10030    2    1    2    0    0  0.00000000000E+00  0.00000000000E+00 -0.86603193202E+03  0.15583135929E+04  0.12955037424E+04 0.  0.
        5    1    3    3  502    0 -0.54244414873E+03  0.42632065479E+01 -0.85879647166E+03  0.10157840810E+04  0.46999998093E+01 0. -1.
       -5    1    3    3    0  502  0.54244414873E+03 -0.42632065479E+01 -0.72354603628E+01  0.54252951192E+03  0.46999998093E+01 0.  1.
</event>
<event>
 5   0  0.1101619E-03  0.1303679E+04  0.7818609E-02  0.9026653E-01
       -2   -1    0    0    0  501  0.00000000000E+00  0.00000000000E+00  0.18320614305E+03  0.18320614307E+03  0.25500000920E-02 0.  1.
        2   -1    0    0  501    0  0.00000000000E+00  0.00000000000E+00 -0.23192149080E+04  0.23192149080E+04  0.25500000920E-02 0. -1.
    10030    2    1    2    0    0  0.00000000000E+00  0.00000000000E+00 -0.21360087650E+04  0.25024210511E+04  0.13036785159E+04 0.  0.
        1    1    3    3  502    0  0.29925800653E+03 -0.48703635748E+03 -0.16693180368E+04  0.17644779613E+04  0.50400001928E-02 0. -1.
       -1    1    3    3    0  502 -0.29925800653E+03  0.48703635748E+03 -0.46669072821E+03  0.73794308981E+03  0.50400001928E-02 0.  1.
</event>
<event>
 5   0  0.1046253E-03  0.1337309E+04  0.7818609E-02  0.9000491E-01
        2   -1    0    0  501    0  0.00000000000E+00  0.00000000000E+00  0.19126841324E+04  0.19126841324E+04  0.25500000920E-02 0.  1.
       -2   -1    0    0    0  501  0.00000000000E+00  0.00000000000E+00 -0.23375466276E+03  0.23375466277E+03  0.25500000920E-02 0. -1.
    10030    2    1    2    0    0  0.00000000000E+00  0.00000000000E+00  0.16789294696E+04  0.21464387952E+04  0.13373089910E+04 0.  0.
        3    1    3    3  502    0 -0.19754161232E+03 -0.47846938340E+03  0.16012519912E+03  0.54184474626E+03  0.10100000352E+00 0. -1.
       -3    1    3    3    0  502  0.19754161232E+03  0.47846938340E+03  0.15188042705E+04  0.16045940489E+04  0.10100000352E+00 0.  1.
</event>
<event>
 5   0  0.5710383E-04  0.1292177E+04  0.7818609E-02  0.9035792E-01
       -1   -1    0    0    0  501  0.00000000000E+00  0.00000000000E+00  0.49032238150E+03  0.49032238152E+03  0.50400001928E-02 0.  1.
        1   -1    0    0  501    0  0.00000000000E+00  0.00000000000E+00 -0.85133837201E+03  0.85133837203E+03  0.50400001928E-02 0. -1.
    10030    2    1    2    0    0  0.00000000000E+00  0.00000000000E+00 -0.36101599052E+03  0.13416607536E+04  0.12921768579E+04 0.  0.
        1    1    3    3  502    0 -0.28615016848E+03  0.55179009331E+03  0.25267492123E+01  0.62157912649E+03  0.50400001928E-02 0.  1.
       -1    1    3    3    0  502  0.28615016848E+03 -0.55179009331E+03 -0.36354273973E+03  0.72008162706E+03  0.50400001928E-02 0. -1.
</event>
<event>
 5   0  0.6006119E-04  0.1297031E+04  0.7818609E-02  0.9031923E-01
       -1   -1    0    0    0  501  0.00000000000E+00  0.00000000000E+00  0.50717734222E+03  0.50717734225E+03  0.50400001928E-02 0. -1.
        1   -1    0    0  501    0  0.00000000000E+00  0.00000000000E+00 -0.82924118777E+03  0.82924118778E+03  0.50400001928E-02 0.  1.
    10030    2    1    2    0    0  0.00000000000E+00  0.00000000000E+00 -0.32206384555E+03  0.13364185300E+04  0.12970309814E+04 0.  0.
        4    1    3    3  502    0  0.46978826604E+03 -0.44702505133E+03 -0.16741000326E+03  0.66974632027E+03  0.12699999809E+01 0. -1.
       -4    1    3    3    0  502 -0.46978826604E+03  0.44702505133E+03 -0.15465384228E+03  0.66667220975E+03  0.12699999809E+01 0.  1.
</event>
<event>
 5   0  0.5766027E-04  0.1288958E+04  0.7818609E-02  0.9038367E-01
       -1   -1    0    0    0  501  0.00000000000E+00  0.00000000000E+00  0.45954070005E+03  0.45954070007E+03  0.50400001928E-02 0. -1.
        1   -1    0    0  501    0  0.00000000000E+00  0.00000000000E+00 -0.90384472705E+03  0.90384472706E+03  0.50400001928E-02 0.  1.
    10030    2    1    2    0    0  0.00000000000E+00  0.00000000000E+00 -0.44430402700E+03  0.13633854271E+04  0.12889583991E+04 0.  0.
        3    1    3    3  502    0 -0.12024030518E+03 -0.11353140466E+03 -0.88102112116E+03  0.89640690368E+03  0.10100000352E+00 0.  1.
       -3    1    3    3    0  502  0.12024030518E+03  0.11353140466E+03  0.43671709416E+03  0.46697852345E+03  0.10100000352E+00 0. -1.
</event>
<event>
 5   0  0.5812938E-04  0.1302329E+04  0.7818609E-02  0.9027721E-01
        1   -1    0    0  501    0  0.00000000000E+00  0.00000000000E+00  0.75295834671E+03  0.75295834673E+03  0.50400001928E-02 0.  1.
       -1   -1    0    0    0  501  0.00000000000E+00  0.00000000000E+00 -0.56313207669E+03  0.56313207671E+03  0.50400001928E-02 0. -1.
    10030    2    1    2    0    0  0.00000000000E+00  0.00000000000E+00  0.18982627002E+03  0.13160904234E+04  0.13023286797E+04 0.  0.
        5    1    3    3  502    0 -0.16219135664E+03  0.31788238450E+03  0.64531293617E+03  0.73743211357E+03  0.46999998093E+01 0.  1.
       -5    1    3    3    0  502  0.16219135664E+03 -0.31788238450E+03 -0.45548666615E+03  0.57865830987E+03  0.46999998093E+01 0. -1.
</event>
<event>
 5   0  0.4012375E-04  0.1297772E+04  0.7818609E-02  0.9031334E-01
       -3   -1    0    0    0  501  0.00000000000E+00  0.00000000000E+00  0.34650499065E+03  0.34650500537E+03  0.10100000352E+00 0. -1.
        3   -1    0    0  501    0  0.00000000000E+00  0.00000000000E+00 -0.12151418148E+04  0.12151418190E+04  0.10100000352E+00 0.  1.
    10030    2    1    2    0    0  0.00000000000E+00  0.00000000000E+00 -0.86863682414E+03  0.15616468244E+04  0.12977715021E+04 0.  0.
        5    1    3    3  502    0 -0.52238719860E+03 -0.25987413924E+03 -0.92675208913E+02  0.59079077333E+03  0.46999998093E+01 0. -1.
       -5    1    3    3    0  502  0.52238719860E+03  0.25987413924E+03 -0.77596161523E+03  0.97085605103E+03  0.46999998093E+01 0.  1.
</event>
<event>
 5   0  0.5766027E-04  0.1293871E+04  0.7818609E-02  0.9034440E-01
        1   -1    0    0  501    0  0.00000000000E+00  0.00000000000E+00  0.59566931901E+03  0.59566931903E+03  0.50400001928E-02 0.  1.
       -1   -1    0    0    0  501  0.00000000000E+00  0.00000000000E+00 -0.70261372886E+03  0.70261372888E+03  0.50400001928E-02 0. -1.
    10030    2    1    2    0    0  0.00000000000E+00  0.00000000000E+00 -0.10694440985E+03  0.12982830479E+04  0.12938708458E+04 0.  0.
        3    1    3    3  502    0  0.40957407573E+03 -0.60941332646E+02  0.44527475248E+03  0.60805787959E+03  0.10100000352E+00 0.  1.
       -3    1    3    3    0  502 -0.40957407573E+03  0.60941332646E+02 -0.55221916233E+03  0.69022516832E+03  0.10100000352E+00 0. -1.
</event>
<event>
 5   0  0.1103241E-03  0.1286235E+04  0.7818609E-02  0.9040552E-01
       -2   -1    0    0    0  501  0.00000000000E+00  0.00000000000E+00  0.34144770863E+03  0.34144770864E+03  0.25500000920E-02 0.  1.
        2   -1    0    0  501    0  0.00000000000E+00  0.00000000000E+00 -0.12113141345E+04  0.12113141345E+04  0.25500000920E-02 0. -1.
    10030    2    1    2    0    0  0.00000000000E+00  0.00000000000E+00 -0.86986642590E+03  0.15527618432E+04  0.12862354927E+04 0.  0.
        4    1    3    3  502    0  0.57354442796E+02 -0.51315008853E+03  0.27898124229E+02  0.51710005193E+03  0.12699999809E+01 0.  1.
       -4    1    3    3    0  502 -0.57354442796E+02  0.51315008853E+03 -0.89776455013E+03  0.10356617912E+04  0.12699999809E+01 0. -1.
</event>
<event>
 5   0  0.1101619E-03  0.1305518E+04  0.7818609E-02  0.9025200E-01
       -2   -1    0    0    0  501  0.00000000000E+00  0.00000000000E+00  0.32902672560E+03  0.32902672561E+03  0.25500000920E-02 0.  1.
        2   -1    0    0  501    0  0.00000000000E+00  0.00000000000E+00 -0.12950150831E+04  0.12950150831E+04  0.25500000920E-02 0. -1.
    10030    2    1    2    0    0  0.00000000000E+00  0.00000000000E+00 -0.96598835746E+03  0.16240418087E+04  0.13055183988E+04 0.  0.
        1    1    3    3  502    0  0.14722531531E+03  0.57267904309E+03 -0.82696820829E+03  0.10166184129E+04  0.50400001928E-02 0. -1.
       -1    1    3    3    0  502 -0.14722531531E+03 -0.57267904309E+03 -0.13902014917E+03  0.60742339580E+03  0.50400001928E-02 0.  1.
</event>
<event>
 5   0  0.5563545E-04  0.1295080E+04  0.7818609E-02  0.9033476E-01
       -1   -1    0    0    0  501  0.00000000000E+00  0.00000000000E+00  0.74792533523E+03  0.74792533525E+03  0.50400001928E-02 0. -1.
        1   -1    0    0  501    0  0.00000000000E+00  0.00000000000E+00 -0.56062787561E+03  0.56062787563E+03  0.50400001928E-02 0.  1.
    10030    2    1    2    0    0  0.00000000000E+00  0.00000000000E+00  0.18729745962E+03  0.13085532109E+04  0.12950795988E+04 0.  0.
        2    1    3    3  502    0 -0.51919766897E+03  0.38598467311E+03  0.12145603223E+03  0.65825675471E+03  0.25500000920E-02 0. -1.
       -2    1    3    3    0  502  0.51919766897E+03 -0.38598467311E+03  0.65841427392E+02  0.65029645618E+03  0.25500000920E-02 0.  1.
</event>
<event>
 5   0  0.1081574E-03  0.1297692E+04  0.7818609E-02  0.9031398E-01
       -2   -1    0    0    0  501  0.00000000000E+00  0.00000000000E+00  0.46578161173E+03  0.46578161174E+03  0.25500000920E-02 0.  1.
        2   -1    0    0  501    0  0.00000000000E+00  0.00000000000E+00 -0.90385883304E+03  0.90385883305E+03  0.25500000920E-02 0. -1.
    10030    2    1    2    0    0  0.00000000000E+00  0.00000000000E+00 -0.43807722131E+03  0.13696404448E+04  0.12976915258E+04 0.  0.
        5    1    3    3  502    0 -0.85233483010E+02  0.90912162626E+02 -0.89109111231E+03  0.89977509878E+03  0.46999998093E+01 0. -1.
       -5    1    3    3    0  502  0.85233483010E+02 -0.90912162626E+02  0.45301389100E+03  0.46986534601E+03  0.46999998093E+01 0.  1.
</event>
<event>
 5   0  0.5563545E-04  0.1309736E+04  0.7818609E-02  0.9021880E-01
        1   -1    0    0  501    0  0.00000000000E+00  0.00000000000E+00  0.58054738768E+03  0.58054738770E+03  0.50400001928E-02 0.  1.
       -1   -1    0    0    0  501  0.00000000000E+00  0.00000000000E+00 -0.73870320053E+03  0.73870320054E+03  0.50400001928E-02 0. -1.
    10030    2    1    2    0    0  0.00000000000E+00  0.00000000000E+00 -0.15815581284E+03  0.13192505882E+04  0.13097361770E+04 0.  0.
        2    1    3    3  502    0  0.28960790644E+03 -0.28822514936E+03 -0.59456284294E+03  0.72142321172E+03  0.25500000920E-02 0. -1.
       -2    1    3    3    0  502 -0.28960790644E+03  0.28822514936E+03  0.43640703010E+03  0.59782737652E+03  0.25500000920E-02 0.  1.
</event>
<event>
 5   0  0.1031295E-03  0.1301216E+04  0.7818609E-02  0.9028601E-01
        2   -1    0    0  501    0  0.00000000000E+00  0.00000000000E+00  0.14920491325E+04  0.14920491325E+04  0.25500000920E-02 0.  1.
       -2   -1    0    0    0  501  0.00000000000E+00  0.00000000000E+00 -0.28369781641E+03  0.28369781642E+03  0.25500000920E-02 0. -1.
    10030    2    1    2    0    0  0.00000000000E+00  0.00000000000E+00  0.12083513161E+04  0.17757469489E+04  0.13012164783E+04 0.  0.
        2    1    3    3  502    0  0.32421548306E+03 -0.67438924330E+02 -0.16007974305E+03  0.36781681869E+03  0.25500000920E-02 0. -1.
       -2    1    3    3    0  502 -0.32421548306E+03  0.67438924330E+02  0.13684310591E+04  0.14079301302E+04  0.25500000920E-02 0.  1.
</event>
<event>
 5   0  0.1046253E-03  0.1305302E+04  0.7818609E-02  0.9025371E-01
        2   -1    0    0  501    0  0.00000000000E+00  0.00000000000E+00  0.51154990002E+03  0.51154990003E+03  0.25500000920E-02 0. -1.
       -2   -1    0    0    0  501  0.00000000000E+00  0.00000000000E+00 -0.83267156899E+03  0.83267156900E+03  0.25500000920E-02 0.  1.
    10030    2    1    2    0    0  0.00000000000E+00  0.00000000000E+00 -0.32112166897E+03  0.13442214690E+04  0.13053015864E+04 0.  0.
        3    1    3    3  502    0 -0.26285282403E+03  0.58750253304E+03 -0.27196309002E+03  0.69872366924E+03  0.10100000352E+00 0. -1.
       -3    1    3    3    0  502  0.26285282403E+03 -0.58750253304E+03 -0.49158578956E+02  0.64549779978E+03  0.10100000352E+00 0.  1.
</event>
<event>
 5   0  0.4012375E-04  0.1303257E+04  0.7818609E-02  0.9026986E-01
        3   -1    0    0  501    0  0.00000000000E+00  0.00000000000E+00  0.80441096215E+03  0.80441096850E+03  0.10100000352E+00 0.  1.
       -3   -1    0    0    0  501  0.00000000000E+00  0.00000000000E+00 -0.52786422419E+03  0.52786423386E+03  0.10100000352E+00 0. -1.
    10030    2    1    2    0    0  0.00000000000E+00  0.00000000000E+00  0.27654673796E+03  0.13322752024E+04  0.13032571183E+04 0.  0.
        4    1    3    3  502    0 -0.45759254529E+03 -0.45207369942E+03  0.31758377314E+02  0.64402777474E+03  0.12699999809E+01 0.  1.
       -4    1    3    3    0  502  0.45759254529E+03  0.45207369942E+03  0.24478836065E+03  0.68824742761E+03  0.12699999809E+01 0. -1.
</event>
<event>
 5   0  0.1101619E-03  0.1279474E+04  0.7818609E-02  0.9046003E-01
       -2   -1    0    0    0  501  0.00000000000E+00  0.00000000000E+00  0.28494231484E+03  0.28494231485E+03  0.25500000920E-02 0. -1.
        2   -1    0    0  501    0  0.00000000000E+00  0.00000000000E+00 -0.14363030228E+04  0.14363030228E+04  0.25500000920E-02 0.  1.
    10030    2    1    2    0    0  0.00000000000E+00  0.00000000000E+00 -0.11513607080E+04  0.17212453377E+04  0.12794741235E+04 0.  0.
        1    1    3    3  502    0 -0.59550495626E+03  0.18225493594E+03 -0.37878928983E+03  0.72891998238E+03  0.50400001928E-02 0. -1.
       -1    1    3    3    0  502  0.59550495626E+03 -0.18225493594E+03 -0.77257141817E+03  0.99232535532E+03  0.50400001928E-02 0.  1.
</event>
<event>
 5   0  0.1103241E-03  0.1303175E+04  0.7818609E-02  0.9027051E-01
        2   -1    0    0  501    0  0.00000000000E+00  0.00000000000E+00  0.71464819860E+03  0.71464819860E+03  0.25500000920E-02 0. -1.
       -2   -1    0    0    0  501  0.00000000000E+00  0.00000000000E+00 -0.59409146495E+03  0.59409146496E+03  0.25500000920E-02 0.  1.
    10030    2    1    2    0    0  0.00000000000E+00  0.00000000000E+00  0.12055673364E+03  0.13087396636E+04  0.13031751920E+04 0.  0.
        4    1    3    3  502    0 -0.29184230275E+03  0.33293833169E+03 -0.41982665309E+03  0.61014415832E+03  0.12699999809E+01 0.  1.
       -4    1    3    3    0  502  0.29184230275E+03 -0.33293833169E+03  0.54038338673E+03  0.69859550524E+03  0.12699999809E+01 0. -1.
</event>
<event>
 5   0  0.5812938E-04  0.1296632E+04  0.7818609E-02  0.9032241E-01
       -1   -1    0    0    0  501  0.00000000000E+00  0.00000000000E+00  0.32696897874E+03  0.32696897878E+03  0.50400001928E-02 0.  1.
        1   -1    0    0  501    0  0.00000000000E+00  0.00000000000E+00 -0.12854839907E+04  0.12854839907E+04  0.50400001928E-02 0. -1.
    10030    2    1    2    0    0  0.00000000000E+00  0.00000000000E+00 -0.95851501198E+03  0.16124529695E+04  0.12966316172E+04 0.  0.
        5    1    3    3  502    0  0.25480772167E+03  0.24834666881E+03  0.19467086299E+03  0.40561296556E+03  0.46999998093E+01 0.  1.
       -5    1    3    3    0  502 -0.25480772167E+03 -0.24834666881E+03 -0.11531858750E+04  0.12068400040E+04  0.46999998093E+01 0. -1.
</event>
<event>
 5   0  0.6006119E-04  0.1353081E+04  0.7818609E-02  0.8988499E-01
       -1   -1    0    0    0  501  0.00000000000E+00  0.00000000000E+00  0.50925645672E+03  0.50925645674E+03  0.50400001928E-02 0. -1.
        1   -1    0    0  501    0  0.00000000000E+00  0.00000000000E+00 -0.89877473406E+03  0.89877473408E+03  0.50400001928E-02 0.  1.
    10030    2    1    2    0    0  0.00000000000E+00  0.00000000000E+00 -0.38951827734E+03  0.14080311908E+04  0.13530806872E+04 0.  0.
        4    1    3    3  502    0  0.36769685894E+03 -0.52492399965E+03  0.30741707722E+02  0.64163295659E+03  0.12699999809E+01 0. -1.
       -4    1    3    3    0  502 -0.36769685894E+03  0.52492399965E+03 -0.42025998506E+03  0.76639823423E+03  0.12699999809E+01 0.  1.
</event>
<event>
 5   0  0.5812938E-04  0.1291243E+04  0.7818609E-02  0.9036539E-01
        1   -1    0    0  501    0  0.00000000000E+00  0.00000000000E+00  0.12399773620E+04  0.12399773620E+04  0.50400001928E-02 0. -1.
       -1   -1    0    0    0  501  0.00000000000E+00  0.00000000000E+00 -0.33615703161E+03  0.33615703165E+03  0.50400001928E-02 0.  1.
    10030    2    1    2    0    0  0.00000000000E+00  0.00000000000E+00  0.90382033037E+03  0.15761343936E+04  0.12912429815E+04 0.  0.
        5    1    3    3  502    0  0.50180820780E+02 -0.55078858223E+03  0.45384530957E+02  0.55494866676E+03  0.46999998093E+01 0.  1.
       -5    1    3    3    0  502 -0.50180820780E+02  0.55078858223E+03  0.85843579941E+03  0.10211857269E+04  0.46999998093E+01 0. -1.
</event>
<event>
 5   0  0.1046253E-03  0.1303967E+04  0.7818609E-02  0.9026425E-01
       -2   -1    0    0    0  501  0.00000000000E+00  0.00000000000E+00  0.48358558872E+03  0.48358558872E+03  0.25500000920E-02 0. -1.
        2   -1    0    0  501    0  0.00000000000E+00  0.00000000000E+00 -0.87902183370E+03  0.87902183371E+03  0.25500000920E-02 0.  1.
    10030    2    1    2    0    0  0.00000000000E+00  0.00000000000E+00 -0.39543624499E+03  0.13626074224E+04  0.13039667035E+04 0.  0.
        3    1    3    3  502    0 -0.24654874677E+03 -0.12057902921E+03  0.42028015691E+03  0.50195717677E+03  0.10100000352E+00 0. -1.
       -3    1    3    3    0  502  0.24654874677E+03  0.12057902921E+03 -0.81571640190E+03  0.86065024565E+03  0.10100000352E+00 0.  1.
</event>
<event>
 5   0  0.1031295E-03  0.1301489E+04  0.7818609E-02  0.9028385E-01
        2   -1    0    0  501    0  0.00000000000E+00  0.00000000000E+00  0.19535935189E+04  0.19535935189E+04  0.25500000920E-02 0. -1.
       -2   -1    0    0    0  501  0.00000000000E+00  0.00000000000E+00 -0.21676393979E+03  0.21676393980E+03  0.25500000920E-02 0.  1.
    10030    2    1    2    0    0  0.00000000000E+00  0.00000000000E+00  0.17368295791E+04  0.21703574587E+04  0.13014893437E+04 0.  0.
        2    1    3    3  502    0 -0.22397143087E+03 -0.56310155488E+03  0.12638215114E+04  0.14016031448E+04  0.25500000920E-02 0. -1.
       -2    1    3    3    0  502  0.22397143087E+03  0.56310155488E+03  0.47300806771E+03  0.76875431386E+03  0.25500000920E-02 0.  1.
</event>
<event>
 5   0  0.1081574E-03  0.1289996E+04  0.7818609E-02  0.9037537E-01
        2   -1    0    0  501    0  0.00000000000E+00  0.00000000000E+00  0.11075246225E+04  0.11075246225E+04  0.25500000920E-02 0. -1.
       -2   -1    0    0    0  501  0.00000000000E+00  0.00000000000E+00 -0.37563246902E+03  0.37563246903E+03  0.25500000920E-02 0.  1.
    10030    2    1    2    0    0  0.00000000000E+00  0.00000000000E+00  0.73189215348E+03  0.14831570915E+04  0.12899956720E+04 0.  0.
        5    1    3    3  502    0  0.16201842997E+03 -0.59872382039E+03  0.56929028696E+03  0.84192262446E+03  0.46999998093E+01 0. -1.
       -5    1    3    3    0  502 -0.16201842997E+03  0.59872382039E+03  0.16260186652E+03  0.64123446706E+03  0.46999998093E+01 0.  1.
</event>
<event>
 5   0  0.6006119E-04  0.1303431E+04  0.7818609E-02  0.9026849E-01
        1   -1    0    0  501    0  0.00000000000E+00  0.00000000000E+00  0.42279412888E+03  0.42279412891E+03  0.50400001928E-02 0. -1.
       -1   -1    0    0    0  501  0.00000000000E+00  0.00000000000E+00 -0.10045863395E+04  0.10045863395E+04  0.50400001928E-02 0.  1.
    10030    2    1    2    0    0  0.00000000000E+00  0.00000000000E+00 -0.58179221065E+03  0.14273804685E+04  0.13034311740E+04 0.  0.
        4    1    3    3  502    0  0.82852559008E+02 -0.38503943026E+03  0.27772241464E+03  0.48192453962E+03  0.12699999809E+01 0. -1.
       -4    1    3    3    0  502 -0.82852559008E+02  0.38503943026E+03 -0.85951462529E+03  0.94545592884E+03  0.12699999809E+01 0.  1.
</event>
<event>
 5   0  0.5710383E-04  0.1303290E+04  0.7818609E-02  0.9026960E-01
        1   -1    0    0  501    0  0.00000000000E+00  0.00000000000E+00  0.89092801791E+03  0.89092801792E+03  0.50400001928E-02 0.  1.
       -1   -1    0    0    0  501  0.00000000000E+00  0.00000000000E+00 -0.47662790074E+03  0.47662790077E+03  0.50400001928E-02 0. -1.
    10030    2    1    2    0    0  0.00000000000E+00  0.00000000000E+00  0.41430011717E+03  0.13675559187E+04  0.13032899154E+04 0.  0.
        1    1    3    3  502    0 -0.52420066484E+02  0.40486887928E+03 -0.32580725950E+03  0.52231890943E+03  0.50400001928E-02 0. -1.
       -1    1    3    3    0  502  0.52420066484E+02 -0.40486887928E+03  0.74010737667E+03  0.84523700926E+03  0.50400001928E-02 0.  1.
</event>
<event>
 5   0  0.1031295E-03  0.1287667E+04  0.7818609E-02  0.9039403E-01
       -2   -1    0    0    0  501  0.00000000000E+00  0.00000000000E+00  0.36924232735E+03  0.36924232735E+03  0.25500000920E-02 0.  1.
        2   -1    0    0  501    0  0.00000000000E+00  0.00000000000E+00 -0.11226279815E+04  0.11226279815E+04  0.25500000920E-02 0. -1.
    10030    2    1    2    0    0  0.00000000000E+00  0.00000000000E+00 -0.75338565416E+03  0.14918703089E+04  0.12876672996E+04 0.  0.
        2    1    3    3  502    0  0.10062627349E+03  0.22047032679E+02 -0.11130181449E+04  0.11177750710E+04  0.25500000920E-02 0. -1.
       -2    1    3    3    0  502 -0.10062627349E+03 -0.22047032679E+02  0.35963249073E+03  0.37409523782E+03  0.25500000920E-02 0.  1.
</event>
<event>
 5   0  0.4012375E-04  0.1282592E+04  0.7818609E-02  0.9043485E-01
       -3   -1    0    0    0  501  0.00000000000E+00  0.00000000000E+00  0.97180941895E+03  0.97180942420E+03  0.10100000352E+00 0. -1.
        3   -1    0    0  501    0  0.00000000000E+00  0.00000000000E+00 -0.42319059766E+03  0.42319060971E+03  0.10100000352E+00 0.  1.
    10030    2    1    2    0    0  0.00000000000E+00  0.00000000000E+00  0.54861882130E+03  0.13950000339E+04  0.12825920955E+04 0.  0.
        4    1    3    3  502    0 -0.60785133135E+00  0.43402751982E+03 -0.23916640245E+03  0.49556274921E+03  0.12699999809E+01 0.  1.
       -4    1    3    3    0  502  0.60785133135E+00 -0.43402751982E+03  0.78778522375E+03  0.89943728470E+03  0.12699999809E+01 0. -1.
</event>
<event>
 5   0  0.6006119E-04  0.1300892E+04  0.7818609E-02  0.9028858E-01
        1   -1    0    0  501    0  0.00000000000E+00  0.00000000000E+00  0.61052306274E+03  0.61052306277E+03  0.50400001928E-02 0. -1.
       -1   -1    0    0    0  501  0.00000000000E+00  0.00000000000E+00 -0.69297989386E+03  0.69297989388E+03  0.50400001928E-02 0.  1.
    10030    2    1    2    0    0  0.00000000000E+00  0.00000000000E+00 -0.82456831113E+02  0.13035029566E+04  0.13008923203E+04 0.  0.
        4    1    3    3  502    0 -0.29220812210E+03 -0.37559301474E+03  0.40308324782E+03  0.62364526529E+03  0.12699999809E+01 0. -1.
       -4    1    3    3    0  502  0.29220812210E+03  0.37559301474E+03 -0.48554007893E+03  0.67985769135E+03  0.12699999809E+01 0.  1.
</event>
<event>
 5   0  0.1103241E-03  0.1289487E+04  0.7818609E-02  0.9037944E-01
       -2   -1    0    0    0  501  0.00000000000E+00  0.00000000000E+00  0.36579514666E+03  0.36579514667E+03  0.25500000920E-02 0.  1.
        2   -1    0    0  501    0  0.00000000000E+00  0.00000000000E+00 -0.11364123305E+04  0.11364123305E+04  0.25500000920E-02 0. -1.
    10030    2    1    2    0    0  0.00000000000E+00  0.00000000000E+00 -0.77061718385E+03  0.15022074772E+04  0.12894868981E+04 0.  0.
        4    1    3    3  502    0 -0.51247577708E+02  0.64267069515E+03 -0.39272838682E+03  0.75491001804E+03  0.12699999809E+01 0.  1.
       -4    1    3    3    0  502  0.51247577708E+02 -0.64267069515E+03 -0.37788879703E+03  0.74729745915E+03  0.12699999809E+01 0. -1.
</event>
<event>
 5   0  0.5812938E-04  0.1288338E+04  0.7818609E-02  0.9038864E-01
        1   -1    0    0  501    0  0.00000000000E+00  0.00000000000E+00  0.12045097216E+04  0.12045097216E+04  0.50400001928E-02 0. -1.
       -1   -1    0    0    0  501  0.00000000000E+00  0.00000000000E+00 -0.34450029588E+03  0.34450029592E+03  0.50400001928E-02 0.  1.
    10030    2    1    2    0    0  0.00000000000E+00  0.00000000000E+00  0.86000942573E+03  0.15490100175E+04  0.12883383958E+04 0.  0.
        5    1    3    3  502    0 -0.92332127601E+02  0.47482555554E+02 -0.33435303066E+03  0.35013405144E+03  0.46999998093E+01 0.  1.
       -5    1    3    3    0  502  0.92332127601E+02 -0.47482555554E+02  0.11943624564E+04  0.11988759661E+04  0.46999998093E+01 0. -1.
</event>
<event>
 5   0  0.1081574E-03  0.1293181E+04  0.7818609E-02  0.9034990E-01
       -2   -1    0    0    0  501  0.00000000000E+00  0.00000000000E+00  0.52714319685E+03  0.52714319685E+03  0.25500000920E-02 0. -1.
        2   -1    0    0  501    0  0.00000000000E+00  0.00000000000E+00 -0.79310409790E+03  0.79310409790E+03  0.25500000920E-02 0.  1.
    10030    2    1    2    0    0  0.00000000000E+00  0.00000000000E+00 -0.26596090105E+03  0.13202472948E+04  0.12931812396E+04 0.  0.
        5    1    3    3  502    0  0.16630714134E+03 -0.62372239288E+03 -0.17076383390E+03  0.66773502649E+03  0.46999998093E+01 0. -1.
       -5    1    3    3    0  502 -0.16630714134E+03  0.62372239288E+03 -0.95197067145E+02  0.65251226826E+03  0.46999998093E+01 0.  1.
</event>
<event>
 5   0  0.1101619E-03  0.1311195E+04  0.7818609E-02  0.9020734E-01
        2   -1    0    0  501    0  0.00000000000E+00  0.00000000000E+00  0.10647484850E+04  0.10647484850E+04  0.25500000920E-02 0. -1.
       -2   -1    0    0    0  501  0.00000000000E+00  0.00000000000E+00 -0.40367127196E+03  0.40367127197E+03  0.25500000920E-02 0.  1.
    10030    2    1    2    0    0  0.00000000000E+00  0.00000000000E+00  0.66107721306E+03  0.14684197570E+04  0.13111954473E+04 0.  0.
        1    1    3    3  502    0  0.18719426050E+03 -0.60822612436E+02  0.10308779659E+04  0.10495001010E+04  0.50400001928E-02 0. -1.
       -1    1    3    3    0  502 -0.18719426050E+03  0.60822612436E+02 -0.36980075285E+03  0.41891965600E+03  0.50400001928E-02 0.  1.
</event>
<event>
 5   0  0.5766027E-04  0.1302359E+04  0.7818609E-02  0.9027697E-01
       -1   -1    0    0    0  501  0.00000000000E+00  0.00000000000E+00  0.21413572021E+03  0.21413572027E+03  0.50400001928E-02 0.  1.
        1   -1    0    0  501    0  0.00000000000E+00  0.00000000000E+00 -0.19802141960E+04  0.19802141960E+04  0.50400001928E-02 0. -1.
    10030    2    1    2    0    0  0.00000000000E+00  0.00000000000E+00 -0.17660784757E+04  0.21943499162E+04  0.13023587725E+04 0.  0.
        3    1    3    3  502    0  0.36221275817E+03  0.48062715415E+03 -0.46406332887E+03  0.75997060923E+03  0.10100000352E+00 0.  1.
       -3    1    3    3    0  502 -0.36221275817E+03 -0.48062715415E+03 -0.13020151469E+04  0.14343793070E+04  0.10100000352E+00 0. -1.
</event>
<event>
 5   0  0.4012375E-04  0.1297124E+04  0.7818609E-02  0.9031849E-01
        3   -1    0    0  501    0  0.00000000000E+00  0.00000000000E+00  0.15680094671E+04  0.15680094703E+04  0.10100000352E+00 0. -1.
       -3   -1    0    0    0  501  0.00000000000E+00  0.00000000000E+00 -0.26825919228E+03  0.26825921129E+03  0.10100000352E+00 0.  1.
    10030    2    1    2    0    0  0.00000000000E+00  0.00000000000E+00  0.12997502748E+04  0.18362686816E+04  0.12971244714E+04 0.  0.
        5    1    3    3  502    0 -0.66693447493E+02 -0.18631728225E+03 -0.22444939767E+03  0.29926872158E+03  0.46999998093E+01 0.  1.
       -5    1    3    3    0  502  0.66693447493E+02  0.18631728225E+03  0.15241996725E+04  0.15369999601E+04  0.46999998093E+01 0. -1.
</event>
<event>
 5   0  0.5563545E-04  0.1310287E+04  0.7818609E-02  0.9021447E-01
        1   -1    0    0  501    0  0.00000000000E+00  0.00000000000E+00  0.10065187515E+04  0.10065187515E+04  0.50400001928E-02 0.  1.
       -1   -1    0    0    0  501  0.00000000000E+00  0.00000000000E+00 -0.42643337142E+03  0.42643337145E+03  0.50400001928E-02 0. -1.
    10030    2    1    2    0    0  0.00000000000E+00  0.00000000000E+00  0.58008538010E+03  0.14329521230E+04  0.13102872733E+04 0.  0.
        2    1    3    3  502    0  0.56536595467E+03 -0.44996567188E+02  0.64869201964E+03  0.86166390786E+03  0.25500000920E-02 0.  1.
       -2    1    3    3    0  502 -0.56536595467E+03  0.44996567188E+02 -0.68606639542E+02  0.57128821513E+03  0.25500000920E-02 0. -1.
</event>
<event>
 5   0  0.6006119E-04  0.1303069E+04  0.7818609E-02  0.9027135E-01
        1   -1    0    0  501    0  0.00000000000E+00  0.00000000000E+00  0.67570231124E+03  0.67570231126E+03  0.50400001928E-02 0.  1.
       -1   -1    0    0    0  501  0.00000000000E+00  0.00000000000E+00 -0.62823074210E+03  0.62823074212E+03  0.50400001928E-02 0. -1.
    10030    2    1    2    0    0  0.00000000000E+00  0.00000000000E+00  0.47471569139E+02  0.13039330534E+04  0.13030686313E+04 0.  0.
        4    1    3    3  502    0  0.11020995718E+03 -0.62307464412E+03  0.17916784677E+03  0.65762525577E+03  0.12699999809E+01 0. -1.
       -4    1    3    3    0  502 -0.11020995718E+03  0.62307464412E+03 -0.13169627763E+03  0.64630779761E+03  0.12699999809E+01 0.  1.
</event>
<event>
 5   0  0.6006119E-04  0.1304211E+04  0.7818609E-02  0.9026233E-01
        1   -1    0    0  501    0  0.00000000000E+00  0.00000000000E+00  0.90771387776E+03  0.90771387778E+03  0.50400001928E-02 0.  1.
       -1   -1    0    0    0  501  0.00000000000E+00  0.00000000000E+00 -0.46847524015E+03  0.46847524018E+03  0.50400001928E-02 0. -1.
    10030    2    1    2    0    0  0.00000000000E+00  0.00000000000E+00  0.43923863761E+03  0.13761891180E+04  0.13042108371E+04 0.  0.
        4    1    3    3  502    0  0.35581288823E+03  0.46034211646E+03  0.53035807933E+03  0.78727312975E+03  0.12699999809E+01 0.  1.
       -4    1    3    3    0  502 -0.35581288823E+03 -0.46034211646E+03 -0.91119441718E+02  0.58891598821E+03  0.12699999809E+01 0. -1.
</event>
<event>
 5   0  0.5710383E-04  0.1281255E+04  0.7818609E-02  0.9044564E-01
        1   -1    0    0  501    0  0.00000000000E+00  0.00000000000E+00  0.36793104408E+03  0.36793104412E+03  0.50400001928E-02 0. -1.
       -1   -1    0    0    0  501  0.00000000000E+00  0.00000000000E+00 -0.11154354326E+04  0.11154354326E+04  0.50400001928E-02 0.  1.
    10030    2    1    2    0    0  0.00000000000E+00  0.00000000000E+00 -0.74750438847E+03  0.14833664767E+04  0.12812545779E+04 0.  0.
        1    1    3    3  502    0 -0.47700018796E+03  0.42166672716E+03 -0.45619890471E+03  0.78323013782E+03  0.50400001928E-02 0. -1.
       -1    1    3    3    0  502  0.47700018796E+03 -0.42166672716E+03 -0.29130548376E+03  0.70013633887E+03  0.50400001928E-02 0.  1.
</event>
<event>
 5   0  0.1081574E-03  0.1295646E+04  0.7818609E-02  0.9033025E-01
       -2   -1    0    0    0  501  0.00000000000E+00  0.00000000000E+00  0.94307207229E+03  0.94307207229E+03  0.25500000920E-02 0. -1.
        2   -1    0    0  501    0  0.00000000000E+00  0.00000000000E+00 -0.44500811676E+03  0.44500811677E+03  0.25500000920E-02 0.  1.
    10030    2    1    2    0    0  0.00000000000E+00  0.00000000000E+00  0.49806395552E+03  0.13880801891E+04  0.12956461351E+04 0.  0.
        5    1    3    3  502    0  0.12988297494E+03  0.63334282891E+03  0.20538335739E+03  0.67837831599E+03  0.46999998093E+01 0.  1.
       -5    1    3    3    0  502 -0.12988297494E+03 -0.63334282891E+03  0.29268059813E+03  0.70970187307E+03  0.46999998093E+01 0. -1.
</event>
<event>
 5   0  0.1031295E-03  0.1303952E+04  0.7818609E-02  0.9026437E-01
       -2   -1    0    0    0  501  0.00000000000E+00  0.00000000000E+00  0.39274128520E+03  0.39274128521E+03  0.25500000920E-02 0.  1.
        2   -1    0    0  501    0  0.00000000000E+00  0.00000000000E+00 -0.10823227280E+04  0.10823227280E+04  0.25500000920E-02 0. -1.
    10030    2    1    2    0    0  0.00000000000E+00  0.00000000000E+00 -0.68958144278E+03  0.14750640132E+04  0.13039521758E+04 0.  0.
        2    1    3    3  502    0  0.47530240038E+03 -0.18646821047E+03  0.11386516676E+03  0.52311379406E+03  0.25500000920E-02 0.  1.
       -2    1    3    3    0  502 -0.47530240038E+03  0.18646821047E+03 -0.80344660954E+03  0.95195021914E+03  0.25500000920E-02 0. -1.
</event>
<event>
 5   0  0.5563545E-04  0.1298714E+04  0.7818609E-02  0.9030585E-01
        1   -1    0    0  501    0  0.00000000000E+00  0.00000000000E+00  0.97215846582E+03  0.97215846584E+03  0.50400001928E-02 0.  1.
       -1   -1    0    0    0  501  0.00000000000E+00  0.00000000000E+00 -0.43374083583E+03  0.43374083586E+03  0.50400001928E-02 0. -1.
    10030    2    1    2    0    0  0.00000000000E+00  0.00000000000E+00  0.53841763000E+03  0.14058993017E+04  0.12987144806E+04 0.  0.
        2    1    3    3  502    0 -0.39210330500E+03  0.28572181568E+03 -0.19801717174E+03  0.52401599027E+03  0.25500000920E-02 0. -1.
       -2    1    3    3    0  502  0.39210330500E+03 -0.28572181568E+03  0.73643480174E+03  0.88188331142E+03  0.25500000920E-02 0.  1.
</event>
<event>
 5   0  0.5710383E-04  0.1301580E+04  0.7818609E-02  0.9028313E-01
        1   -1    0    0  501    0  0.00000000000E+00  0.00000000000E+00  0.15731373355E+04  0.15731373355E+04  0.50400001928E-02 0. -1.
       -1   -1    0    0    0  501  0.00000000000E+00  0.00000000000E+00 -0.26922496830E+03  0.26922496835E+03  0.50400001928E-02 0.  1.
    10030    2    1    2    0    0  0.00000000000E+00  0.00000000000E+00  0.13039123672E+04  0.18423623038E+04  0.13015803461E+04 0.  0.
        1    1    3    3  502    0  0.35556440132E+03 -0.34108134684E+03  0.50143114299E+02  0.49525433929E+03  0.50400001928E-02 0.  1.
       -1    1    3    3    0  502 -0.35556440132E+03  0.34108134684E+03  0.12537692529E+04  0.13471079645E+04  0.50400001928E-02 0. -1.
</event>
<event>
 5   0  0.5766027E-04  0.1290703E+04  0.7818609E-02  0.9036970E-01
        1   -1    0    0  501    0  0.00000000000E+00  0.00000000000E+00  0.72036426057E+03  0.72036426059E+03  0.50400001928E-02 0.  1.
       -1   -1    0    0    0  501  0.00000000000E+00  0.00000000000E+00 -0.57814987186E+03  0.57814987188E+03  0.50400001928E-02 0. -1.
    10030    2    1    2    0    0  0.00000000000E+00  0.00000000000E+00  0.14221438871E+03  0.12985141325E+04  0.12907029170E+04 0.  0.
        3    1    3    3  502    0 -0.55476209817E+02 -0.45388548270E+03 -0.38704850607E+03  0.59907945843E+03  0.10100000352E+00 0. -1.
       -3    1    3    3    0  502  0.55476209817E+02  0.45388548270E+03  0.52926289478E+03  0.69943467404E+03  0.10100000352E+00 0.  1.
</event>
<event>
 5   0  0.5710383E-04  0.1293070E+04  0.7818609E-02  0.9035078E-01
        1   -1    0    0  501    0  0.00000000000E+00  0.00000000000E+00  0.75120024194E+03  0.75120024196E+03  0.50400001928E-02 0. -1.
       -1   -1    0    0    0  501  0.00000000000E+00  0.00000000000E+00 -0.55645320623E+03  0.55645320625E+03  0.50400001928E-02 0.  1.
    10030    2    1    2    0    0  0.00000000000E+00  0.00000000000E+00  0.19474703571E+03  0.13076534482E+04  0.12930704284E+04 0.  0.
        1    1    3    3  502    0  0.33238702258E+03 -0.18476835711E+02 -0.46312009469E+03  0.57035317863E+03  0.50400001928E-02 0.  1.
       -1    1    3    3    0  502 -0.33238702258E+03  0.18476835711E+02  0.65786713041E+03  0.73730026959E+03  0.50400001928E-02 0. -1.
</event>
<event>
 5   0  0.6006119E-04  0.1301758E+04  0.7818609E-02  0.9028173E-01
       -1   -1    0    0    0  501  0.00000000000E+00  0.00000000000E+00  0.41517366067E+03  0.41517366070E+03  0.50400001928E-02 0.  1.
        1   -1    0    0  501    0  0.00000000000E+00  0.00000000000E+00 -0.10204000483E+04  0.10204000483E+04  0.50400001928E-02 0. -1.
    10030    2    1    2    0    0  0.00000000000E+00  0.00000000000E+00 -0.60522638762E+03  0.14355737090E+04  0.13017576171E+04 0.  0.
        4    1    3    3  502    0 -0.17260729489E+03  0.50366180708E+03 -0.71549688902E+03  0.89185531633E+03  0.12699999809E+01 0. -1.
       -4    1    3    3    0  502  0.17260729489E+03 -0.50366180708E+03  0.11027050140E+03  0.54371839268E+03  0.12699999809E+01 0.  1.
</event>
<event>
 5   0  0.6006119E-04  0.1278798E+04  0.7818609E-02  0.9046549E-01
       -1   -1    0    0    0  501  0.00000000000E+00  0.00000000000E+00  0.29769170842E+03  0.29769170847E+03  0.50400001928E-02 0. -1.
        1   -1    0    0  501    0  0.00000000000E+00  0.00000000000E+00 -0.13733376869E+04  0.13733376869E+04  0.50400001928E-02 0.  1.
    10030    2    1    2    0    0  0.00000000000E+00  0.00000000000E+00 -0.10756459785E+04  0.16710293954E+04  0.12787982520E+04 0.  0.
        4    1    3    3  502    0  0.70129131979E+02 -0.40805823729E+03  0.98858790370E+02  0.42568097621E+03  0.12699999809E+01 0. -1.
       -4    1    3    3    0  502 -0.70129131979E+02  0.40805823729E+03 -0.11745047689E+04  0.12453484192E+04  0.12699999809E+01 0.  1.
</event>
<event>
 5   0  0.5766027E-04  0.1215758E+04  0.7818609E-02  0.9099174E-01
        1   -1    0    0  501    0  0.00000000000E+00  0.00000000000E+00  0.14310074903E+04  0.14310074903E+04  0.50400001928E-02 0. -1.
       -1   -1    0    0    0  501  0.00000000000E+00  0.00000000000E+00 -0.25822153394E+03  0.25822153399E+03  0.50400001928E-02 0.  1.
    10030    2    1    2    0    0  0.00000000000E+00  0.00000000000E+00  0.11727859563E+04  0.16892290242E+04  0.12157581162E+04 0.  0.
        3    1    3    3  502    0 -0.41772007704E+03 -0.38363540190E+03  0.28245445193E+03  0.63359822598E+03  0.10100000352E+00 0.  1.
       -3    1    3    3    0  502  0.41772007704E+03  0.38363540190E+03  0.89033150438E+03  0.10556307983E+04  0.10100000352E+00 0. -1.
</event>
<event>
 5   0  0.1031295E-03  0.1347346E+04  0.7818609E-02  0.8992839E-01
        2   -1    0    0  501    0  0.00000000000E+00  0.00000000000E+00  0.21557866510E+04  0.21557866510E+04  0.25500000920E-02 0.  1.
       -2   -1    0    0    0  501  0.00000000000E+00  0.00000000000E+00 -0.21051962751E+03  0.21051962752E+03  0.25500000920E-02 0. -1.
    10030    2    1    2    0    0  0.00000000000E+00  0.00000000000E+00  0.19452670235E+04  0.23663062786E+04  0.13473461363E+04 0.  0.
        2    1    3    3  502    0 -0.64424526945E+03 -0.19601858552E+03  0.10059633570E+04  0.12105525717E+04  0.25500000920E-02 0. -1.
       -2    1    3    3    0  502  0.64424526945E+03  0.19601858552E+03  0.93930366649E+03  0.11557537069E+04  0.25500000920E-02 0.  1.
</event>
<event>
 5   0  0.5812938E-04  0.1296671E+04  0.7818609E-02  0.9032209E-01
        1   -1    0    0  501    0  0.00000000000E+00  0.00000000000E+00  0.75813002795E+03  0.75813002796E+03  0.50400001928E-02 0.  1.
       -1   -1    0    0    0  501  0.00000000000E+00  0.00000000000E+00 -0.55444197311E+03  0.55444197313E+03  0.50400001928E-02 0. -1.
    10030    2    1    2    0    0  0.00000000000E+00  0.00000000000E+00  0.20368805483E+03  0.13125720011E+04  0.12966712900E+04 0.  0.
        5    1    3    3  502    0  0.17051019519E+03 -0.56604588099E+03 -0.16756880061E+03  0.61447787510E+03  0.46999998093E+01 0. -1.
       -5    1    3    3    0  502 -0.17051019519E+03  0.56604588099E+03  0.37125685544E+03  0.69809412600E+03  0.46999998093E+01 0.  1.
</event>
<event>
 5   0  0.1101619E-03  0.1298426E+04  0.7818609E-02  0.9030814E-01
        2   -1    0    0  501    0  0.00000000000E+00  0.00000000000E+00  0.32079946558E+03  0.32079946559E+03  0.25500000920E-02 0. -1.
       -2   -1    0    0    0  501  0.00000000000E+00  0.00000000000E+00 -0.13138346838E+04  0.13138346838E+04  0.25500000920E-02 0.  1.
    10030    2    1    2    0    0  0.00000000000E+00  0.00000000000E+00 -0.99303521822E+03  0.16346341494E+04  0.12984259154E+04 0.  0.
        1    1    3    3  502    0 -0.46451835152E+03  0.43484769459E+03 -0.65875743007E+03  0.91587726693E+03  0.50400001928E-02 0.  1.
       -1    1    3    3    0  502  0.46451835152E+03 -0.43484769459E+03 -0.33427778815E+03  0.71875688245E+03  0.50400001928E-02 0. -1.
</event>
<event>
 5   0  0.5766027E-04  0.1322411E+04  0.7818609E-02  0.9011979E-01
        1   -1    0    0  501    0  0.00000000000E+00  0.00000000000E+00  0.60324303737E+03  0.60324303739E+03  0.50400001928E-02 0. -1.
       -1   -1    0    0    0  501  0.00000000000E+00  0.00000000000E+00 -0.72473773725E+03  0.72473773727E+03  0.50400001928E-02 0.  1.
    10030    2    1    2    0    0  0.00000000000E+00  0.00000000000E+00 -0.12149469988E+03  0.13279807747E+04  0.13224114245E+04 0.  0.
        3    1    3    3  502    0  0.58291957612E+03 -0.14354722038E+03 -0.33902801639E+03  0.68944981167E+03  0.10100000352E+00 0.  1.
       -3    1    3    3    0  502 -0.58291957612E+03  0.14354722038E+03  0.21753331651E+03  0.63853096299E+03  0.10100000352E+00 0. -1.
</event>
<event>
 5   0  0.1101619E-03  0.1285863E+04  0.7818609E-02  0.9040852E-01
       -2   -1    0    0    0  501  0.00000000000E+00  0.00000000000E+00  0.21518659297E+03  0.21518659298E+03  0.25500000920E-02 0. -1.
        2   -1    0    0  501    0  0.00000000000E+00  0.00000000000E+00 -0.19209420427E+04  0.19209420427E+04  0.25500000920E-02 0.  1.
    10030    2    1    2    0    0  0.00000000000E+00  0.00000000000E+00 -0.17057554498E+04  0.21361286357E+04  0.12858630930E+04 0.  0.
        1    1    3    3  502    0  0.15411256273E+03  0.45791568107E+03 -0.15575328918E+04  0.16307501838E+04  0.50400001928E-02 0.  1.
       -1    1    3    3    0  502 -0.15411256273E+03 -0.45791568107E+03 -0.14822255801E+03  0.50537845195E+03  0.50400001928E-02 0. -1.
</event>
<event>
 5   0  0.5710383E-04  0.1293622E+04  0.7818609E-02  0.9034639E-01
       -1   -1    0    0    0  501  0.00000000000E+00  0.00000000000E+00  0.61612603622E+03  0.61612603624E+03  0.50400001928E-02 0.  1.
        1   -1    0    0  501    0  0.00000000000E+00  0.00000000000E+00 -0.67902387991E+03  0.67902387993E+03  0.50400001928E-02 0. -1.
    10030    2    1    2    0    0  0.00000000000E+00  0.00000000000E+00 -0.62897843690E+02  0.12951499162E+04  0.12936217247E+04 0.  0.
        1    1    3    3  502    0 -0.14564221314E+03  0.55028315589E+03  0.27606386310E+03  0.63264086371E+03  0.50400001928E-02 0.  1.
       -1    1    3    3    0  502  0.14564221314E+03 -0.55028315589E+03 -0.33896170679E+03  0.66250905246E+03  0.50400001928E-02 0. -1.
</event>
<event>
 5   0  0.1081574E-03  0.1313887E+04  0.7818609E-02  0.9018624E-01
       -2   -1    0    0    0  501  0.00000000000E+00  0.00000000000E+00  0.21960166835E+03  0.21960166836E+03  0.25500000920E-02 0. -1.
        2   -1    0    0  501    0  0.00000000000E+00  0.00000000000E+00 -0.19652628632E+04  0.19652628632E+04  0.25500000920E-02 0.  1.
    10030    2    1    2    0    0  0.00000000000E+00  0.00000000000E+00 -0.17456611949E+04  0.21848645316E+04  0.13138873674E+04 0.  0.
        5    1    3    3  502    0 -0.39058127047E+02  0.34146481012E+03 -0.18038014342E+04  0.18362585488E+04  0.46999998093E+01 0.  1.
       -5    1    3    3    0  502  0.39058127047E+02 -0.34146481012E+03  0.58140239328E+02  0.34860598284E+03  0.46999998093E+01 0. -1.
</event>
<event>
 5   0  0.5563545E-04  0.1301593E+04  0.7818609E-02  0.9028303E-01
       -1   -1    0    0    0  501  0.00000000000E+00  0.00000000000E+00  0.49969506458E+03  0.49969506461E+03  0.50400001928E-02 0.  1.
        1   -1    0    0  501    0  0.00000000000E+00  0.00000000000E+00 -0.84758857055E+03  0.84758857057E+03  0.50400001928E-02 0. -1.
    10030    2    1    2    0    0  0.00000000000E+00  0.00000000000E+00 -0.34789350597E+03  0.13472836352E+04  0.13015926022E+04 0.  0.
        2    1    3    3  502    0 -0.18941881826E+03  0.62204309387E+03 -0.14619658001E+03  0.66647621065E+03  0.25500000920E-02 0.  1.
       -2    1    3    3    0  502  0.18941881826E+03 -0.62204309387E+03 -0.20169692596E+03  0.68080742453E+03  0.25500000920E-02 0. -1.
</event>
<event>
 5   0  0.1046253E-03  0.1302800E+04  0.7818609E-02  0.9027347E-01
       -2   -1    0    0    0  501  0.00000000000E+00  0.00000000000E+00  0.48810982991E+03  0.48810982991E+03  0.25500000920E-02 0. -1.
        2   -1    0    0  501    0  0.00000000000E+00  0.00000000000E+00 -0.86931694511E+03  0.86931694512E+03  0.25500000920E-02 0.  1.
    10030    2    1    2    0    0  0.00000000000E+00  0.00000000000E+00 -0.38120711520E+03  0.13574267750E+04  0.13028002859E+04 0.  0.
        3    1    3    3  502    0  0.31522649426E+03 -0.52906855786E+03 -0.41173060975E+03  0.74081265297E+03  0.10100000352E+00 0. -1.
       -3    1    3    3    0  502 -0.31522649426E+03  0.52906855786E+03  0.30523494545E+02  0.61661412206E+03  0.10100000352E+00 0.  1.
</event>
<event>
 5   0  0.1031295E-03  0.1300216E+04  0.7818609E-02  0.9029394E-01
       -2   -1    0    0    0  501  0.00000000000E+00  0.00000000000E+00  0.35503941648E+03  0.35503941649E+03  0.25500000920E-02 0. -1.
        2   -1    0    0  501    0  0.00000000000E+00  0.00000000000E+00 -0.11904033271E+04  0.11904033271E+04  0.25500000920E-02 0.  1.
    10030    2    1    2    0    0  0.00000000000E+00  0.00000000000E+00 -0.83536391060E+03  0.15454427436E+04  0.13002155246E+04 0.  0.
        2    1    3    3  502    0  0.54223787751E+03  0.33899979471E+03 -0.55679103219E+03  0.84791451819E+03  0.25500000920E-02 0.  1.
       -2    1    3    3    0  502 -0.54223787751E+03 -0.33899979471E+03 -0.27857287841E+03  0.69752822539E+03  0.25500000920E-02 0. -1.
</event>
<event>
 5   0  0.5563545E-04  0.1296154E+04  0.7818609E-02  0.9032621E-01
       -1   -1    0    0    0  501  0.00000000000E+00  0.00000000000E+00  0.64837621102E+03  0.64837621104E+03  0.50400001928E-02 0. -1.
        1   -1    0    0  501    0  0.00000000000E+00  0.00000000000E+00 -0.64777763446E+03  0.64777763448E+03  0.50400001928E-02 0.  1.
    10030    2    1    2    0    0  0.00000000000E+00  0.00000000000E+00  0.59857656308E+00  0.12961538455E+04  0.12961537073E+04 0.  0.
        2    1    3    3  502    0 -0.59258323526E+03  0.47179062015E+02  0.25841334802E+03  0.64819612236E+03  0.25500000920E-02 0. -1.
       -2    1    3    3    0  502  0.59258323526E+03 -0.47179062015E+02 -0.25781477145E+03  0.64795772315E+03  0.25500000920E-02 0.  1.
</event>
<event>
 5   0  0.4012375E-04  0.1298626E+04  0.7818609E-02  0.9030656E-01
       -4   -1    0    0    0  501  0.00000000000E+00  0.00000000000E+00  0.98830946152E+03  0.98831027751E+03  0.12699999809E+01 0.  1.
        4   -1    0    0  501    0  0.00000000000E+00  0.00000000000E+00 -0.42659244586E+03  0.42659433630E+03  0.12699999809E+01 0. -1.
    10030    2    1    2    0    0  0.00000000000E+00  0.00000000000E+00  0.56171701566E+03  0.14149046138E+04  0.12986258355E+04 0.  0.
        2    1    3    3  502    0 -0.53929530439E+03 -0.51164466446E+02  0.67089253061E+03  0.86229578197E+03  0.25500000920E-02 0.  1.
       -2    1    3    3    0  502  0.53929530439E+03  0.51164466446E+02 -0.10917551495E+03  0.55260883185E+03  0.25500000920E-02 0. -1.
</event>
<event>
 5   0  0.1081574E-03  0.1263062E+04  0.7818609E-02  0.9059381E-01
       -2   -1    0    0    0  501  0.00000000000E+00  0.00000000000E+00  0.27823721622E+03  0.27823721623E+03  0.25500000920E-02 0. -1.
        2   -1    0    0  501    0  0.00000000000E+00  0.00000000000E+00 -0.14334227695E+04  0.14334227695E+04  0.25500000920E-02 0.  1.
    10030    2    1    2    0    0  0.00000000000E+00  0.00000000000E+00 -0.11551855533E+04  0.17116599857E+04  0.12630622488E+04 0.  0.
        5    1    3    3  502    0 -0.35376600488E+02  0.45499133157E+03 -0.11691364291E+04  0.12550580446E+04  0.46999998093E+01 0.  1.
       -5    1    3    3    0  502  0.35376600488E+02 -0.45499133157E+03  0.13950875788E+02  0.45660194109E+03  0.46999998093E+01 0. -1.
</event>
<event>
 5   0  0.1046253E-03  0.1301298E+04  0.7818609E-02  0.9028536E-01
       -2   -1    0    0    0  501  0.00000000000E+00  0.00000000000E+00  0.61948096716E+03  0.61948096717E+03  0.25500000920E-02 0. -1.
        2   -1    0    0  501    0  0.00000000000E+00  0.00000000000E+00 -0.68338534363E+03  0.68338534364E+03  0.25500000920E-02 0.  1.
    10030    2    1    2    0    0  0.00000000000E+00  0.00000000000E+00 -0.63904376471E+02  0.13028663108E+04  0.13012981420E+04 0.  0.
        3    1    3    3  502    0  0.20924643151E+03 -0.58648726033E+03 -0.22084015479E+03  0.66069793386E+03  0.10100000352E+00 0. -1.
       -3    1    3    3    0  502 -0.20924643151E+03  0.58648726033E+03  0.15693577832E+03  0.64216837695E+03  0.10100000352E+00 0.  1.
</event>
<event>
 5   0  0.1101619E-03  0.1297512E+04  0.7818609E-02  0.9031541E-01
        2   -1    0    0  501    0  0.00000000000E+00  0.00000000000E+00  0.72000154939E+03  0.72000154940E+03  0.25500000920E-02 0. -1.
       -2   -1    0    0    0  501  0.00000000000E+00  0.00000000000E+00 -0.58456007277E+03  0.58456007277E+03  0.25500000920E-02 0.  1.
    10030    2    1    2    0    0  0.00000000000E+00  0.00000000000E+00  0.13544147663E+03  0.13045616222E+04  0.12975117080E+04 0.  0.
        1    1    3    3  502    0  0.41535231822E+03  0.41112511365E+03 -0.21548818922E+03  0.62287765014E+03  0.50400001928E-02 0.  1.
       -1    1    3    3    0  502 -0.41535231822E+03 -0.41112511365E+03  0.35092966585E+03  0.68168397203E+03  0.50400001928E-02 0. -1.
</event>
<event>
 5   0  0.5812938E-04  0.1300569E+04  0.7818609E-02  0.9029114E-01
        1   -1    0    0  501    0  0.00000000000E+00  0.00000000000E+00  0.76662516262E+03  0.76662516264E+03  0.50400001928E-02 0. -1.
       -1   -1    0    0    0  501  0.00000000000E+00  0.00000000000E+00 -0.55159951982E+03  0.55159951985E+03  0.50400001928E-02 0.  1.
    10030    2    1    2    0    0  0.00000000000E+00  0.00000000000E+00  0.21502564280E+03  0.13182246825E+04  0.13005692163E+04 0.  0.
        5    1    3    3  502    0 -0.34519575560E+03  0.42057396400E+03 -0.25341874375E+03  0.60023805157E+03  0.46999998093E+01 0.  1.
       -5    1    3    3    0  502  0.34519575560E+03 -0.42057396400E+03  0.46844438655E+03  0.71798663091E+03  0.46999998093E+01 0. -1.
</event>
<event>
 5   0  0.5710383E-04  0.1382084E+04  0.7818609E-02  0.8966890E-01
       -1   -1    0    0    0  501  0.00000000000E+00  0.00000000000E+00  0.33324643463E+03  0.33324643467E+03  0.50400001928E-02 0. -1.
        1   -1    0    0  501    0  0.00000000000E+00  0.00000000000E+00 -0.14329909880E+04  0.14329909880E+04  0.50400001928E-02 0.  1.
    10030    2    1    2    0    0  0.00000000000E+00  0.00000000000E+00 -0.10997445534E+04  0.17662374227E+04  0.13820841330E+04 0.  0.
        1    1    3    3  502    0 -0.27489422689E+02 -0.38510774369E+03  0.18255766359E+03  0.42707252683E+03  0.50400001928E-02 0. -1.
       -1    1    3    3    0  502  0.27489422689E+02  0.38510774369E+03 -0.12823022169E+04  0.13391648958E+04  0.50400001928E-02 0.  1.
</event>
<event>
 5   0  0.4012375E-04  0.1295814E+04  0.7818609E-02  0.9032892E-01
       -3   -1    0    0    0  501  0.00000000000E+00  0.00000000000E+00  0.44375470778E+03  0.44375471927E+03  0.10100000352E+00 0.  1.
        3   -1    0    0  501    0  0.00000000000E+00  0.00000000000E+00 -0.94598046976E+03  0.94598047515E+03  0.10100000352E+00 0. -1.
    10030    2    1    2    0    0  0.00000000000E+00  0.00000000000E+00 -0.50222576198E+03  0.13897351944E+04  0.12958137191E+04 0.  0.
        3    1    3    3  502    0  0.90617999749E+02  0.52837824368E+02  0.43458721803E+03  0.44706768821E+03  0.10100000352E+00 0.  1.
       -3    1    3    3    0  502 -0.90617999749E+02 -0.52837824368E+02 -0.93681298001E+03  0.94266750622E+03  0.10100000352E+00 0. -1.
</event>
<event>
 5   0  0.1031295E-03  0.1378028E+04  0.7818609E-02  0.8969879E-01
        2   -1    0    0  501    0  0.00000000000E+00  0.00000000000E+00  0.97665900309E+03  0.97665900310E+03  0.25500000920E-02 0. -1.
       -2   -1    0    0    0  501  0.00000000000E+00  0.00000000000E+00 -0.48608586490E+03  0.48608586491E+03  0.25500000920E-02 0.  1.
    10030    2    1    2    0    0  0.00000000000E+00  0.00000000000E+00  0.49057313819E+03  0.14627448680E+04  0.13780277737E+04 0.  0.
        2    1    3    3  502    0  0.54218046643E+03 -0.43111282659E+02 -0.20370931246E+03  0.58078888149E+03  0.25500000920E-02 0.  1.
       -2    1    3    3    0  502 -0.54218046643E+03  0.43111282659E+02  0.69428245065E+03  0.88195598652E+03  0.25500000920E-02 0. -1.
</event>
<event>
 5   0  0.5563545E-04  0.1314752E+04  0.7818609E-02  0.9017948E-01
       -1   -1    0    0    0  501  0.00000000000E+00  0.00000000000E+00  0.60173296572E+03  0.60173296575E+03  0.50400001928E-02 0. -1.
        1   -1    0    0  501    0  0.00000000000E+00  0.00000000000E+00 -0.71816448709E+03  0.71816448711E+03  0.50400001928E-02 0.  1.
    10030    2    1    2    0    0  0.00000000000E+00  0.00000000000E+00 -0.11643152136E+03  0.13198974529E+04  0.13147520629E+04 0.  0.
        2    1    3    3  502    0 -0.31274340500E+03  0.45262973121E+03 -0.41943097650E+03  0.69181244207E+03  0.25500000920E-02 0.  1.
       -2    1    3    3    0  502  0.31274340500E+03 -0.45262973121E+03  0.30299945514E+03  0.62808501078E+03  0.25500000920E-02 0. -1.
</event>
<event>
 5   0  0.1046253E-03  0.1298674E+04  0.7818609E-02  0.9030617E-01
       -2   -1    0    0    0  501  0.00000000000E+00  0.00000000000E+00  0.16822643214E+03  0.16822643216E+03  0.25500000920E-02 0.  1.
        2   -1    0    0  501    0  0.00000000000E+00  0.00000000000E+00 -0.25063754273E+04  0.25063754273E+04  0.25500000920E-02 0. -1.
    10030    2    1    2    0    0  0.00000000000E+00  0.00000000000E+00 -0.23381489951E+04  0.26746018594E+04  0.12986740865E+04 0.  0.
        3    1    3    3  502    0 -0.45763421194E+03 -0.37906608375E+02 -0.21145843237E+04  0.21638698794E+04  0.10100000352E+00 0. -1.
       -3    1    3    3    0  502  0.45763421194E+03  0.37906608375E+02 -0.22356467146E+03  0.51073198003E+03  0.10100000352E+00 0.  1.
</event>
<event>
 5   0  0.1081574E-03  0.1301550E+04  0.7818609E-02  0.9028337E-01
       -2   -1    0    0    0  501  0.00000000000E+00  0.00000000000E+00  0.38081397867E+03  0.38081397868E+03  0.25500000920E-02 0. -1.
        2   -1    0    0  501    0  0.00000000000E+00  0.00000000000E+00 -0.11121135031E+04  0.11121135031E+04  0.25500000920E-02 0.  1.
    10030    2    1    2    0    0  0.00000000000E+00  0.00000000000E+00 -0.73129952445E+03  0.14929274818E+04  0.13015504107E+04 0.  0.
        5    1    3    3  502    0 -0.61009818499E+02 -0.13189074504E+03 -0.10932451343E+04  0.11028709717E+04  0.46999998093E+01 0.  1.
       -5    1    3    3    0  502  0.61009818499E+02  0.13189074504E+03  0.36194560985E+03  0.39005651009E+03  0.46999998093E+01 0. -1.
</event>
<event>
 5   0  0.4012375E-04  0.1299081E+04  0.7818609E-02  0.9030294E-01
       -3   -1    0    0    0  501  0.00000000000E+00  0.00000000000E+00  0.26803305966E+04  0.26803305985E+04  0.10100000352E+00 0. -1.
        3   -1    0    0  501    0  0.00000000000E+00  0.00000000000E+00 -0.15740704947E+03  0.15740708187E+03  0.10100000352E+00 0.  1.
    10030    2    1    2    0    0  0.00000000000E+00  0.00000000000E+00  0.25229235472E+04  0.28377376804E+04  0.12990811822E+04 0.  0.
        3    1    3    3  502    0 -0.19862433231E+03 -0.43738656066E+03  0.30643251518E+03  0.56978901831E+03  0.10100000352E+00 0.  1.
       -3    1    3    3    0  502  0.19862433231E+03  0.43738656066E+03  0.22164910320E+04  0.22679486621E+04  0.10100000352E+00 0. -1.
</event>
<event>
 5   0  0.5766027E-04  0.1297652E+04  0.7818609E-02  0.9031430E-01
       -1   -1    0    0    0  501  0.00000000000E+00  0.00000000000E+00  0.24357523898E+03  0.24357523904E+03  0.50400001928E-02 0. -1.
        1   -1    0    0  501    0  0.00000000000E+00  0.00000000000E+00 -0.17283154849E+04  0.17283154849E+04  0.50400001928E-02 0.  1.
    10030    2    1    2    0    0  0.00000000000E+00  0.00000000000E+00 -0.14847402459E+04  0.19718907239E+04  0.12976515053E+04 0.  0.
        3    1    3    3  502    0  0.87126150984E+02  0.42822859519E+03 -0.14711436802E+04  0.15346773061E+04  0.10100000352E+00 0.  1.
       -3    1    3    3    0  502 -0.87126150984E+02 -0.42822859519E+03 -0.13596565714E+02  0.43721341782E+03  0.10100000352E+00 0. -1.
</event>
<event>
 5   0  0.5812938E-04  0.1292877E+04  0.7818609E-02  0.9035233E-01
       -1   -1    0    0    0  501  0.00000000000E+00  0.00000000000E+00  0.30930266520E+03  0.30930266524E+03  0.50400001928E-02 0. -1.
        1   -1    0    0  501    0  0.00000000000E+00  0.00000000000E+00 -0.13510479889E+04  0.13510479890E+04  0.50400001928E-02 0.  1.
    10030    2    1    2    0    0  0.00000000000E+00  0.00000000000E+00 -0.10417453237E+04  0.16603506542E+04  0.12928770148E+04 0.  0.
        5    1    3    3  502    0 -0.32514050067E+03  0.25070943981E+03  0.12032840354E+03  0.42786982025E+03  0.46999998093E+01 0. -1.
       -5    1    3    3    0  502  0.32514050067E+03 -0.25070943981E+03 -0.11620737273E+04  0.12324808339E+04  0.46999998093E+01 0.  1.
</event>
<event>
 5   0  0.1101619E-03  0.1293903E+04  0.7818609E-02  0.9034414E-01
       -2   -1    0    0    0  501  0.00000000000E+00  0.00000000000E+00  0.51724904428E+03  0.51724904429E+03  0.25500000920E-02 0. -1.
        2   -1    0    0  501    0  0.00000000000E+00  0.00000000000E+00 -0.80917750258E+03  0.80917750259E+03  0.25500000920E-02 0.  1.
    10030    2    1    2    0    0  0.00000000000E+00  0.00000000000E+00 -0.29192845830E+03  0.13264265469E+04  0.12939030719E+04 0.  0.
        1    1    3    3  502    0  0.15386782971E+03 -0.41551673761E+03  0.33728361696E+03  0.55685698931E+03  0.50400001928E-02 0. -1.
       -1    1    3    3    0  502 -0.15386782971E+03  0.41551673761E+03 -0.62921207525E+03  0.76956955756E+03  0.50400001928E-02 0.  1.
</event>
<event>
 5   0  0.1103241E-03  0.1318010E+04  0.7818609E-02  0.9015404E-01
        2   -1    0    0  501    0  0.00000000000E+00  0.00000000000E+00  0.14734997788E+04  0.14734997788E+04  0.25500000920E-02 0.  1.
       -2   -1    0    0    0  501  0.00000000000E+00  0.00000000000E+00 -0.29473201362E+03  0.29473201363E+03  0.25500000920E-02 0. -1.
    10030    2    1    2    0    0  0.00000000000E+00  0.00000000000E+00  0.11787677652E+04  0.17682317925E+04  0.13180099497E+04 0.  0.
        4    1    3    3  502    0  0.47529673597E+02  0.26525079457E+03 -0.21743505380E+03  0.34626098454E+03  0.12699999809E+01 0. -1.
       -4    1    3    3    0  502 -0.47529673597E+02 -0.26525079457E+03  0.13962028190E+04  0.14219708079E+04  0.12699999809E+01 0.  1.
</event>
<event>
 5   0  0.5563545E-04  0.1294535E+04  0.7818609E-02  0.9033910E-01
        1   -1    0    0  501    0  0.00000000000E+00  0.00000000000E+00  0.79298126109E+03  0.79298126111E+03  0.50400001928E-02 0.  1.
       -1   -1    0    0    0  501  0.00000000000E+00  0.00000000000E+00 -0.52832909302E+03  0.52832909304E+03  0.50400001928E-02 0. -1.
    10030    2    1    2    0    0  0.00000000000E+00  0.00000000000E+00  0.26465216807E+03  0.13213103541E+04  0.12945347743E+04 0.  0.
        2    1    3    3  502    0  0.54961245305E+03 -0.20328252978E+03  0.41288864704E+03  0.71685052160E+03  0.25500000920E-02 0.  1.
       -2    1    3    3    0  502 -0.54961245305E+03  0.20328252978E+03 -0.14823647897E+03  0.60445983255E+03  0.25500000920E-02 0. -1.
</event>
<event>
 5   0  0.6006119E-04  0.1295254E+04  0.7818609E-02  0.9033337E-01
        1   -1    0    0  501    0  0.00000000000E+00  0.00000000000E+00  0.72560607942E+03  0.72560607943E+03  0.50400001928E-02 0.  1.
       -1   -1    0    0    0  501  0.00000000000E+00  0.00000000000E+00 -0.57802842539E+03  0.57802842542E+03  0.50400001928E-02 0. -1.
    10030    2    1    2    0    0  0.00000000000E+00  0.00000000000E+00  0.14757765402E+03  0.13036345048E+04  0.12952543218E+04 0.  0.
        4    1    3    3  502    0  0.33052527633E+03 -0.17128183802E+03  0.60715606529E+03  0.71219697194E+03  0.12699999809E+01 0.  1.
       -4    1    3    3    0  502 -0.33052527633E+03  0.17128183802E+03 -0.45957841127E+03  0.59143753291E+03  0.12699999809E+01 0. -1.
</event>
<event>
 5   0  0.1081574E-03  0.1294497E+04  0.7818609E-02  0.9033940E-01
        2   -1    0    0  501    0  0.00000000000E+00  0.00000000000E+00  0.10373898396E+04  0.10373898396E+04  0.25500000920E-02 0. -1.
       -2   -1    0    0    0  501  0.00000000000E+00  0.00000000000E+00 -0.40383163318E+03  0.40383163319E+03  0.25500000920E-02 0.  1.
    10030    2    1    2    0    0  0.00000000000E+00  0.00000000000E+00  0.63355820644E+03  0.14412214728E+04  0.12944973282E+04 0.  0.
        5    1    3    3  502    0 -0.12149343746E+03  0.58214760413E+03  0.60117762027E+03  0.84563178125E+03  0.46999998093E+01 0. -1.
       -5    1    3    3    0  502  0.12149343746E+03 -0.58214760413E+03  0.32380586166E+02  0.59558969157E+03  0.46999998093E+01 0.  1.
</event>
<event>
 5   0  0.5710383E-04  0.1319138E+04  0.7818609E-02  0.9014524E-01
        1   -1    0    0  501    0  0.00000000000E+00  0.00000000000E+00  0.14769222800E+04  0.14769222800E+04  0.50400001928E-02 0.  1.
       -1   -1    0    0    0  501  0.00000000000E+00  0.00000000000E+00 -0.29455272611E+03  0.29455272616E+03  0.50400001928E-02 0. -1.
    10030    2    1    2    0    0  0.00000000000E+00  0.00000000000E+00  0.11823695539E+04  0.17714750061E+04  0.13191383307E+04 0.  0.
        1    1    3    3  502    0  0.12507141244E+03  0.28863319062E+03  0.13696974827E+04  0.14053551762E+04  0.50400001928E-02 0.  1.
       -1    1    3    3    0  502 -0.12507141244E+03 -0.28863319062E+03 -0.18732792888E+03  0.36611982997E+03  0.50400001928E-02 0. -1.
</event>
<event>
 5   0  0.1081574E-03  0.1301201E+04  0.7818609E-02  0.9028613E-01
        2   -1    0    0  501    0  0.00000000000E+00  0.00000000000E+00  0.94598823733E+03  0.94598823734E+03  0.25500000920E-02 0.  1.
       -2   -1    0    0    0  501  0.00000000000E+00  0.00000000000E+00 -0.44744857360E+03  0.44744857361E+03  0.25500000920E-02 0. -1.
    10030    2    1    2    0    0  0.00000000000E+00  0.00000000000E+00  0.49853966373E+03  0.13934368109E+04  0.13012011181E+04 0.  0.
        5    1    3    3  502    0  0.24145330782E+03  0.95290416590E+01  0.89613093061E+03  0.92815043893E+03  0.46999998093E+01 0.  1.
       -5    1    3    3    0  502 -0.24145330782E+03 -0.95290416590E+01 -0.39759126688E+03  0.46528637202E+03  0.46999998093E+01 0. -1.
</event>
<event>
 5   0  0.5563545E-04  0.1291515E+04  0.7818609E-02  0.9036321E-01
        1   -1    0    0  501    0  0.00000000000E+00  0.00000000000E+00  0.11674996275E+04  0.11674996275E+04  0.50400001928E-02 0. -1.
       -1   -1    0    0    0  501  0.00000000000E+00  0.00000000000E+00 -0.35717582539E+03  0.35717582543E+03  0.50400001928E-02 0.  1.
    10030    2    1    2    0    0  0.00000000000E+00  0.00000000000E+00  0.81032380208E+03  0.15246754529E+04  0.12915148363E+04 0.  0.
        2    1    3    3  502    0 -0.20905382294E+03 -0.60428326620E+03  0.29864620982E+03  0.70572751494E+03  0.25500000920E-02 0.  1.
       -2    1    3    3    0  502  0.20905382294E+03  0.60428326620E+03  0.51167759226E+03  0.81894793798E+03  0.25500000920E-02 0. -1.
</event>
<event>
 5   0  0.1101619E-03  0.1301620E+04  0.7818609E-02  0.9028282E-01
        2   -1    0    0  501    0  0.00000000000E+00  0.00000000000E+00  0.17185043102E+04  0.17185043102E+04  0.25500000920E-02 0. -1.
       -2   -1    0    0    0  501  0.00000000000E+00  0.00000000000E+00 -0.24646631790E+03  0.24646631791E+03  0.25500000920E-02 0.  1.
    10030    2    1    2    0    0  0.00000000000E+00  0.00000000000E+00  0.14720379923E+04  0.19649706281E+04  0.13016196521E+04 0.  0.
        1    1    3    3  502    0 -0.10560078681E+03  0.27659038046E+03  0.16109559329E+04  0.16379355245E+04  0.50400001928E-02 0. -1.
       -1    1    3    3    0  502  0.10560078681E+03 -0.27659038046E+03 -0.13891794059E+03  0.32703510360E+03  0.50400001928E-02 0.  1.
</event>
<event>
 5   0  0.1031295E-03  0.1275564E+04  0.7818609E-02  0.9049171E-01
        2   -1    0    0  501    0  0.00000000000E+00  0.00000000000E+00  0.26639103500E+04  0.26639103500E+04  0.25500000920E-02 0.  1.
       -2   -1    0    0    0  501  0.00000000000E+00  0.00000000000E+00 -0.15269493033E+03  0.15269493035E+03  0.25500000920E-02 0. -1.
    10030    2    1    2    0    0  0.00000000000E+00  0.00000000000E+00  0.25112154197E+04  0.28166052803E+04  0.12755635701E+04 0.  0.
        2    1    3    3  502    0 -0.99030107754E+02  0.13897255170E+03  0.26125641553E+04  0.26181313561E+04  0.25500000920E-02 0.  1.
       -2    1    3    3    0  502  0.99030107754E+02 -0.13897255170E+03 -0.10134873564E+03  0.19847392421E+03  0.25500000920E-02 0. -1.
</event>
<event>
 5   0  0.5812938E-04  0.1308618E+04  0.7818609E-02  0.9022759E-01
        1   -1    0    0  501    0  0.00000000000E+00  0.00000000000E+00  0.53489603590E+03  0.53489603592E+03  0.50400001928E-02 0.  1.
       -1   -1    0    0    0  501  0.00000000000E+00  0.00000000000E+00 -0.80038027156E+03  0.80038027157E+03  0.50400001928E-02 0. -1.
    10030    2    1    2    0    0  0.00000000000E+00  0.00000000000E+00 -0.26548423566E+03  0.13352763075E+04  0.13086179496E+04 0.  0.
        5    1    3    3  502    0 -0.42181210211E+03 -0.39271839331E+03  0.18331774698E+03  0.60479804256E+03  0.46999998093E+01 0.  1.
       -5    1    3    3    0  502  0.42181210211E+03  0.39271839331E+03 -0.44880198264E+03  0.73047826494E+03  0.46999998093E+01 0. -1.
</event>
<event>
 5   0  0.6006119E-04  0.1294127E+04  0.7818609E-02  0.9034236E-01
       -1   -1    0    0    0  501  0.00000000000E+00  0.00000000000E+00  0.64464553607E+03  0.64464553609E+03  0.50400001928E-02 0. -1.
        1   -1    0    0  501    0  0.00000000000E+00  0.00000000000E+00 -0.64949023492E+03  0.64949023494E+03  0.50400001928E-02 0.  1.
    10030    2    1    2    0    0  0.00000000000E+00  0.00000000000E+00 -0.48446988444E+01  0.12941357710E+04  0.12941267027E+04 0.  0.
        4    1    3    3  502    0  0.55158027947E+03  0.33417938614E+03 -0.55079161207E+02  0.64726501042E+03  0.12699999809E+01 0.  1.
       -4    1    3    3    0  502 -0.55158027947E+03 -0.33417938614E+03  0.50234462363E+02  0.64687076061E+03  0.12699999809E+01 0. -1.
</event>
<event>
 5   0  0.4012375E-04  0.1350351E+04  0.7818609E-02  0.8990562E-01
        3   -1    0    0  501    0  0.00000000000E+00  0.00000000000E+00  0.90125240565E+03  0.90125241131E+03  0.10100000352E+00 0.  1.
       -3   -1    0    0    0  501  0.00000000000E+00  0.00000000000E+00 -0.50580946499E+03  0.50580947507E+03  0.10100000352E+00 0. -1.
    10030    2    1    2    0    0  0.00000000000E+00  0.00000000000E+00  0.39544294066E+03  0.14070618864E+04  0.13503510776E+04 0.  0.
        1    1    3    3  502    0 -0.14353522464E+03 -0.61504299973E+03  0.44645504885E+03  0.77343542904E+03  0.50400001928E-02 0.  1.
       -1    1    3    3    0  502  0.14353522464E+03  0.61504299973E+03 -0.51012108187E+02  0.63362645734E+03  0.50400001928E-02 0. -1.
</event>
<event>
 5   0  0.1103241E-03  0.1304054E+04  0.7818609E-02  0.9026357E-01
       -2   -1    0    0    0  501  0.00000000000E+00  0.00000000000E+00  0.24231214664E+03  0.24231214665E+03  0.25500000920E-02 0. -1.
        2   -1    0    0  501    0  0.00000000000E+00  0.00000000000E+00 -0.17545099291E+04  0.17545099291E+04  0.25500000920E-02 0.  1.
    10030    2    1    2    0    0  0.00000000000E+00  0.00000000000E+00 -0.15121977824E+04  0.19968220757E+04  0.13040537830E+04 0.  0.
        4    1    3    3  502    0  0.86996016359E+02  0.60539915964E+03 -0.11021088073E+04  0.12604451140E+04  0.12699999809E+01 0.  1.
       -4    1    3    3    0  502 -0.86996016359E+02 -0.60539915964E+03 -0.41008897514E+03  0.73637696174E+03  0.12699999809E+01 0. -1.
</event>
<event>
 5   0  0.1081574E-03  0.1246446E+04  0.7818609E-02  0.9073146E-01
        2   -1    0    0  501    0  0.00000000000E+00  0.00000000000E+00  0.14446958514E+04  0.14446958514E+04  0.25500000920E-02 0. -1.
       -2   -1    0    0    0  501  0.00000000000E+00  0.00000000000E+00 -0.26885045402E+03  0.26885045403E+03  0.25500000920E-02 0.  1.
    10030    2    1    2    0    0  0.00000000000E+00  0.00000000000E+00  0.11758453974E+04  0.17135463055E+04  0.12464463656E+04 0.  0.
        5    1    3    3  502    0  0.12471630953E+03 -0.36772002696E+03 -0.82204474815E+02  0.39692800577E+03  0.46999998093E+01 0.  1.
       -5    1    3    3    0  502 -0.12471630953E+03  0.36772002696E+03  0.12580498722E+04  0.13166182997E+04  0.46999998093E+01 0. -1.
</event>
<event>
 5   0  0.5710383E-04  0.1299188E+04  0.7818609E-02  0.9030209E-01
        1   -1    0    0  501    0  0.00000000000E+00  0.00000000000E+00  0.93158704457E+03  0.93158704459E+03  0.50400001928E-02 0. -1.
       -1   -1    0    0    0  501  0.00000000000E+00  0.00000000000E+00 -0.45296071840E+03  0.45296071843E+03  0.50400001928E-02 0.  1.
    10030    2    1    2    0    0  0.00000000000E+00  0.00000000000E+00  0.47862632617E+03  0.13845477630E+04  0.12991879571E+04 0.  0.
        1    1    3    3  502    0  0.56124194452E+03 -0.24667426616E+03  0.10418680872E+02  0.61314701566E+03  0.50400001928E-02 0. -1.
       -1    1    3    3    0  502 -0.56124194452E+03  0.24667426616E+03  0.46820764530E+03  0.77140074736E+03  0.50400001928E-02 0.  1.
</event>
<event>
 5   0  0.1103241E-03  0.1285412E+04  0.7818609E-02  0.9041214E-01
       -2   -1    0    0    0  501  0.00000000000E+00  0.00000000000E+00  0.68996521645E+03  0.68996521645E+03  0.25500000920E-02 0. -1.
        2   -1    0    0  501    0  0.00000000000E+00  0.00000000000E+00 -0.59868419454E+03  0.59868419455E+03  0.25500000920E-02 0.  1.
    10030    2    1    2    0    0  0.00000000000E+00  0.00000000000E+00  0.91281021910E+02  0.12886494110E+04  0.12854124161E+04 0.  0.
        4    1    3    3  502    0  0.26894073371E+03  0.55946196487E+03  0.21262180212E+03  0.65615276577E+03  0.12699999809E+01 0. -1.
       -4    1    3    3    0  502 -0.26894073371E+03 -0.55946196487E+03 -0.12134078021E+03  0.63249664523E+03  0.12699999809E+01 0.  1.
</event>
<event>
 5   0  0.4012375E-04  0.1284829E+04  0.7818609E-02  0.9041683E-01
        3   -1    0    0  501    0  0.00000000000E+00  0.00000000000E+00  0.57251845374E+03  0.57251846265E+03  0.10100000352E+00 0.  1.
       -3   -1    0    0    0  501  0.00000000000E+00  0.00000000000E+00 -0.72084403837E+03  0.72084404545E+03  0.10100000352E+00 0. -1.
    10030    2    1    2    0    0  0.00000000000E+00  0.00000000000E+00 -0.14832558464E+03  0.12933625081E+04  0.12848292098E+04 0.  0.
        1    1    3    3  502    0 -0.42426691878E+03 -0.22008601936E+03  0.35793891311E+03  0.59712690430E+03  0.50400001928E-02 0.  1.
       -1    1    3    3    0  502  0.42426691878E+03  0.22008601936E+03 -0.50626449775E+03  0.69623560380E+03  0.50400001928E-02 0. -1.
</event>
<event>
 5   0  0.5766027E-04  0.1300766E+04  0.7818609E-02  0.9028958E-01
       -1   -1    0    0    0  501  0.00000000000E+00  0.00000000000E+00  0.95866963959E+03  0.95866963960E+03  0.50400001928E-02 0.  1.
        1   -1    0    0  501    0  0.00000000000E+00  0.00000000000E+00 -0.44123466510E+03  0.44123466513E+03  0.50400001928E-02 0. -1.
    10030    2    1    2    0    0  0.00000000000E+00  0.00000000000E+00  0.51743497449E+03  0.13999043047E+04  0.13007663547E+04 0.  0.
        3    1    3    3  502    0  0.35947731540E+02  0.63925783781E+03  0.13574870087E+03  0.65450022352E+03  0.10100000352E+00 0. -1.
       -3    1    3    3    0  502 -0.35947731540E+02 -0.63925783781E+03  0.38168627362E+03  0.74540408121E+03  0.10100000352E+00 0.  1.
</event>
<event>
 5   0  0.5563545E-04  0.1319519E+04  0.7818609E-02  0.9014228E-01
       -1   -1    0    0    0  501  0.00000000000E+00  0.00000000000E+00  0.44077917929E+03  0.44077917931E+03  0.50400001928E-02 0.  1.
        1   -1    0    0  501    0  0.00000000000E+00  0.00000000000E+00 -0.98752993580E+03  0.98752993581E+03  0.50400001928E-02 0. -1.
    10030    2    1    2    0    0  0.00000000000E+00  0.00000000000E+00 -0.54675075651E+03  0.14283091151E+04  0.13195190558E+04 0.  0.
        2    1    3    3  502    0  0.83209760053E+02 -0.65095307595E+03 -0.19980989370E+03  0.68599399770E+03  0.25500000920E-02 0.  1.
       -2    1    3    3    0  502 -0.83209760053E+02  0.65095307595E+03 -0.34694086282E+03  0.74231511742E+03  0.25500000920E-02 0. -1.
</event>
<event>
 5   0  0.5563545E-04  0.1303109E+04  0.7818609E-02  0.9027104E-01
        1   -1    0    0  501    0  0.00000000000E+00  0.00000000000E+00  0.39677511902E+03  0.39677511905E+03  0.50400001928E-02 0.  1.
       -1   -1    0    0    0  501  0.00000000000E+00  0.00000000000E+00 -0.10699334552E+04  0.10699334553E+04  0.50400001928E-02 0. -1.
    10030    2    1    2    0    0  0.00000000000E+00  0.00000000000E+00 -0.67315833623E+03  0.14667085743E+04  0.13031085512E+04 0.  0.
        2    1    3    3  502    0 -0.33690055944E+03  0.46552445399E+03  0.90715266423E+01  0.57471497007E+03  0.25500000920E-02 0.  1.
       -2    1    3    3    0  502  0.33690055944E+03 -0.46552445399E+03 -0.68222986287E+03  0.89199360424E+03  0.25500000920E-02 0. -1.
</event>
<event>
 5   0  0.5710383E-04  0.1313704E+04  0.7818609E-02  0.9018768E-01
       -1   -1    0    0    0  501  0.00000000000E+00  0.00000000000E+00  0.32110636315E+03  0.32110636319E+03  0.50400001928E-02 0.  1.
        1   -1    0    0  501    0  0.00000000000E+00  0.00000000000E+00 -0.13436494576E+04  0.13436494576E+04  0.50400001928E-02 0. -1.
    10030    2    1    2    0    0  0.00000000000E+00  0.00000000000E+00 -0.10225430945E+04  0.16647558208E+04  0.13137037577E+04 0.  0.
        1    1    3    3  502    0 -0.50727127319E+03  0.38922734583E+03 -0.70191312835E+03  0.94947570328E+03  0.50400001928E-02 0. -1.
       -1    1    3    3    0  502  0.50727127319E+03 -0.38922734583E+03 -0.32062996612E+03  0.71528011754E+03  0.50400001928E-02 0.  1.
</event>
<event>
 5   0  0.5812938E-04  0.1327447E+04  0.7818609E-02  0.9008078E-01
        1   -1    0    0  501    0  0.00000000000E+00  0.00000000000E+00  0.15318576933E+04  0.15318576933E+04  0.50400001928E-02 0. -1.
       -1   -1    0    0    0  501  0.00000000000E+00  0.00000000000E+00 -0.28757826675E+03  0.28757826679E+03  0.50400001928E-02 0.  1.
    10030    2    1    2    0    0  0.00000000000E+00  0.00000000000E+00  0.12442794265E+04  0.18194359601E+04  0.13274471446E+04 0.  0.
        5    1    3    3  502    0  0.28839228276E+03 -0.59002908998E+03  0.75362325030E+03  0.99963719878E+03  0.46999998093E+01 0. -1.
       -5    1    3    3    0  502 -0.28839228276E+03  0.59002908998E+03  0.49065617624E+03  0.81979876132E+03  0.46999998093E+01 0.  1.
</event>
<event>
 5   0  0.5563545E-04  0.1287859E+04  0.7818609E-02  0.9039249E-01
       -1   -1    0    0    0  501  0.00000000000E+00  0.00000000000E+00  0.56093231606E+03  0.56093231608E+03  0.50400001928E-02 0.  1.
        1   -1    0    0  501    0  0.00000000000E+00  0.00000000000E+00 -0.73920726392E+03  0.73920726394E+03  0.50400001928E-02 0. -1.
    10030    2    1    2    0    0  0.00000000000E+00  0.00000000000E+00 -0.17827494786E+03  0.13001395800E+04  0.12878590647E+04 0.  0.
        2    1    3    3  502    0  0.42910712332E+02 -0.85228042976E+02 -0.73203024043E+03  0.73822315153E+03  0.25500000920E-02 0. -1.
       -2    1    3    3    0  502 -0.42910712332E+02  0.85228042976E+02  0.55375529257E+03  0.56191642848E+03  0.25500000920E-02 0.  1.
</event>
<event>
 5   0  0.1103241E-03  0.1301933E+04  0.7818609E-02  0.9028033E-01
       -2   -1    0    0    0  501  0.00000000000E+00  0.00000000000E+00  0.30942633408E+03  0.30942633409E+03  0.25500000920E-02 0. -1.
        2   -1    0    0  501    0  0.00000000000E+00  0.00000000000E+00 -0.13694945238E+04  0.13694945238E+04  0.25500000920E-02 0.  1.
    10030    2    1    2    0    0  0.00000000000E+00  0.00000000000E+00 -0.10600681897E+04  0.16789208579E+04  0.13019334393E+04 0.  0.
        4    1    3    3  502    0  0.20399251848E+03  0.31118616577E+03  0.15877220146E+03  0.40454913449E+03  0.12699999809E+01 0. -1.
       -4    1    3    3    0  502 -0.20399251848E+03 -0.31118616577E+03 -0.12188403912E+04  0.12743717234E+04  0.12699999809E+01 0.  1.
</event>
<event>
 5   0  0.1103241E-03  0.1299558E+04  0.7818609E-02  0.9029916E-01
        2   -1    0    0  501    0  0.00000000000E+00  0.00000000000E+00  0.25265952298E+04  0.25265952298E+04  0.25500000920E-02 0. -1.
       -2   -1    0    0    0  501  0.00000000000E+00  0.00000000000E+00 -0.16710726807E+03  0.16710726809E+03  0.25500000920E-02 0.  1.
    10030    2    1    2    0    0  0.00000000000E+00  0.00000000000E+00  0.23594879618E+04  0.26937024979E+04  0.12995575038E+04 0.  0.
        4    1    3    3  502    0  0.49242518999E+03  0.41796657625E+03  0.10327049913E+04  0.12180557616E+04  0.12699999809E+01 0.  1.
       -4    1    3    3    0  502 -0.49242518999E+03 -0.41796657625E+03  0.13267829705E+04  0.14756467363E+04  0.12699999809E+01 0. -1.
</event>
<event>
 5   0  0.1101619E-03  0.1294696E+04  0.7818609E-02  0.9033782E-01
       -2   -1    0    0    0  501  0.00000000000E+00  0.00000000000E+00  0.56315292075E+03  0.56315292076E+03  0.25500000920E-02 0. -1.
        2   -1    0    0  501    0  0.00000000000E+00  0.00000000000E+00 -0.74413093260E+03  0.74413093261E+03  0.25500000920E-02 0.  1.
    10030    2    1    2    0    0  0.00000000000E+00  0.00000000000E+00 -0.18097801185E+03  0.13072838534E+04  0.12946961159E+04 0.  0.
        1    1    3    3  502    0  0.30868196317E+03 -0.54883634154E+03  0.61149752228E+02  0.63264933131E+03  0.50400001928E-02 0. -1.
       -1    1    3    3    0  502 -0.30868196317E+03  0.54883634154E+03 -0.24212776407E+03  0.67463452205E+03  0.50400001928E-02 0.  1.
</event>
<event>
 5   0  0.6006119E-04  0.1292945E+04  0.7818609E-02  0.9035178E-01
       -1   -1    0    0    0  501  0.00000000000E+00  0.00000000000E+00  0.35612463771E+03  0.35612463775E+03  0.50400001928E-02 0. -1.
        1   -1    0    0  501    0  0.00000000000E+00  0.00000000000E+00 -0.11735408768E+04  0.11735408768E+04  0.50400001928E-02 0.  1.
    10030    2    1    2    0    0  0.00000000000E+00  0.00000000000E+00 -0.81741623908E+03  0.15296655146E+04  0.12929451955E+04 0.  0.
        4    1    3    3  502    0  0.21818839315E+03 -0.10181479118E+02  0.31114448668E+03  0.38016094212E+03  0.12699999809E+01 0. -1.
       -4    1    3    3    0  502 -0.21818839315E+03  0.10181479118E+02 -0.11285607258E+04  0.11495045724E+04  0.12699999809E+01 0.  1.
</event>
<event>
 5   0  0.6006119E-04  0.1273045E+04  0.7818609E-02  0.9051218E-01
        1   -1    0    0  501    0  0.00000000000E+00  0.00000000000E+00  0.85324394602E+03  0.85324394603E+03  0.50400001928E-02 0. -1.
       -1   -1    0    0    0  501  0.00000000000E+00  0.00000000000E+00 -0.47484767434E+03  0.47484767436E+03  0.50400001928E-02 0.  1.
    10030    2    1    2    0    0  0.00000000000E+00  0.00000000000E+00  0.37839627168E+03  0.13280916204E+04  0.12730450164E+04 0.  0.
        4    1    3    3  502    0  0.47033542634E+03  0.42748817176E+03  0.22530299058E+03  0.67433270774E+03  0.12699999809E+01 0.  1.
       -4    1    3    3    0  502 -0.47033542634E+03 -0.42748817176E+03  0.15309328111E+03  0.65375891266E+03  0.12699999809E+01 0. -1.
</event>
<event>
 5   0  0.1081574E-03  0.1304204E+04  0.7818609E-02  0.9026238E-01
        2   -1    0    0  501    0  0.00000000000E+00  0.00000000000E+00  0.41957972730E+03  0.41957972731E+03  0.25500000920E-02 0.  1.
       -2   -1    0    0    0  501  0.00000000000E+00  0.00000000000E+00 -0.10134836884E+04  0.10134836884E+04  0.25500000920E-02 0. -1.
    10030    2    1    2    0    0  0.00000000000E+00  0.00000000000E+00 -0.59390396110E+03  0.14330634157E+04  0.13042042932E+04 0.  0.
        5    1    3    3  502    0 -0.14532081016E+03 -0.20253954690E+03  0.36513917345E+03  0.44214150666E+03  0.46999998093E+01 0.  1.
       -5    1    3    3    0  502  0.14532081016E+03  0.20253954690E+03 -0.95904313455E+03  0.99092190906E+03  0.46999998093E+01 0. -1.
</event>
<event>
 5   0  0.5812938E-04  0.1254915E+04  0.7818609E-02  0.9066103E-01
        1   -1    0    0  501    0  0.00000000000E+00  0.00000000000E+00  0.11911700739E+04  0.11911700739E+04  0.50400001928E-02 0. -1.
       -1   -1    0    0    0  501  0.00000000000E+00  0.00000000000E+00 -0.33051769033E+03  0.33051769037E+03  0.50400001928E-02 0.  1.
    10030    2    1    2    0    0  0.00000000000E+00  0.00000000000E+00  0.86065238356E+03  0.15216877643E+04  0.12549147886E+04 0.  0.
        5    1    3    3  502    0 -0.67011594632E+02  0.26811665691E+03 -0.25271800883E+03  0.37452046341E+03  0.46999998093E+01 0.  1.
       -5    1    3    3    0  502  0.67011594632E+02 -0.26811665691E+03  0.11133703924E+04  0.11471673009E+04  0.46999998093E+01 0. -1.
</event>
<event>
 5   0  0.5812938E-04  0.1293626E+04  0.7818609E-02  0.9034635E-01
       -1   -1    0    0    0  501  0.00000000000E+00  0.00000000000E+00  0.62309934839E+03  0.62309934841E+03  0.50400001928E-02 0.  1.
        1   -1    0    0  501    0  0.00000000000E+00  0.00000000000E+00 -0.67142886378E+03  0.67142886380E+03  0.50400001928E-02 0. -1.
    10030    2    1    2    0    0  0.00000000000E+00  0.00000000000E+00 -0.48329515388E+02  0.12945282122E+04  0.12936257381E+04 0.  0.
        5    1    3    3  502    0 -0.60917964043E+03 -0.14560785155E+03 -0.18565675979E+03  0.65329319850E+03  0.46999998093E+01 0.  1.
       -5    1    3    3    0  502  0.60917964043E+03  0.14560785155E+03  0.13732724440E+03  0.64123501371E+03  0.46999998093E+01 0. -1.
</event>
<event>
 5   0  0.1031295E-03  0.1300701E+04  0.7818609E-02  0.9029010E-01
       -2   -1    0    0    0  501  0.00000000000E+00  0.00000000000E+00  0.46359847858E+03  0.46359847859E+03  0.25500000920E-02 0. -1.
        2   -1    0    0  501    0  0.00000000000E+00  0.00000000000E+00 -0.91233149034E+03  0.91233149034E+03  0.25500000920E-02 0.  1.
    10030    2    1    2    0    0  0.00000000000E+00  0.00000000000E+00 -0.44873301176E+03  0.13759299689E+04  0.13007005664E+04 0.  0.
        2    1    3    3  502    0 -0.12665395896E+03 -0.42176598181E+03 -0.73061416440E+03  0.85306789060E+03  0.25500000920E-02 0.  1.
       -2    1    3    3    0  502  0.12665395896E+03  0.42176598181E+03  0.28188115264E+03  0.52286207833E+03  0.25500000920E-02 0. -1.
</event>
<event>
 5   0  0.5766027E-04  0.1237585E+04  0.7818609E-02  0.9080580E-01
        1   -1    0    0  501    0  0.00000000000E+00  0.00000000000E+00  0.15770600191E+04  0.15770600191E+04  0.50400001928E-02 0. -1.
       -1   -1    0    0    0  501  0.00000000000E+00  0.00000000000E+00 -0.24279611410E+03  0.24279611415E+03  0.50400001928E-02 0.  1.
    10030    2    1    2    0    0  0.00000000000E+00  0.00000000000E+00  0.13342639050E+04  0.18198561332E+04  0.12375848163E+04 0.  0.
        3    1    3    3  502    0 -0.65324420827E+02 -0.98334073737E+02 -0.22608291524E+03  0.25504973001E+03  0.10100000352E+00 0.  1.
       -3    1    3    3    0  502  0.65324420827E+02  0.98334073737E+02  0.15603468202E+04  0.15648064032E+04  0.10100000352E+00 0. -1.
</event>
<event>
 5   0  0.1046253E-03  0.1305792E+04  0.7818609E-02  0.9024985E-01
        2   -1    0    0  501    0  0.00000000000E+00  0.00000000000E+00  0.12976589835E+04  0.12976589835E+04  0.25500000920E-02 0. -1.
       -2   -1    0    0    0  501  0.00000000000E+00  0.00000000000E+00 -0.32849407361E+03  0.32849407362E+03  0.25500000920E-02 0.  1.
    10030    2    1    2    0    0  0.00000000000E+00  0.00000000000E+00  0.96916490987E+03  0.16261530571E+04  0.13057921514E+04 0.  0.
        3    1    3    3  502    0  0.63962162486E+03 -0.11399125573E+03  0.56493762745E+03  0.86096710883E+03  0.10100000352E+00 0.  1.
       -3    1    3    3    0  502 -0.63962162486E+03  0.11399125573E+03  0.40422728242E+03  0.76518594827E+03  0.10100000352E+00 0. -1.
</event>
<event>
 5   0  0.4012375E-04  0.1306865E+04  0.7818609E-02  0.9024138E-01
       -3   -1    0    0    0  501  0.00000000000E+00  0.00000000000E+00  0.12777345322E+04  0.12777345362E+04  0.10100000352E+00 0. -1.
        3   -1    0    0  501    0  0.00000000000E+00  0.00000000000E+00 -0.33416510508E+03  0.33416512034E+03  0.10100000352E+00 0.  1.
    10030    2    1    2    0    0  0.00000000000E+00  0.00000000000E+00  0.94356942713E+03  0.16118996565E+04  0.13068654249E+04 0.  0.
        1    1    3    3  502    0 -0.47814818035E+03 -0.34708115338E+03  0.12757009724E+03  0.60445441444E+03  0.50400001928E-02 0.  1.
       -1    1    3    3    0  502  0.47814818035E+03  0.34708115338E+03  0.81599932989E+03  0.10074452421E+04  0.50400001928E-02 0. -1.
</event>
<event>
 5   0  0.1103241E-03  0.1296202E+04  0.7818609E-02  0.9032583E-01
        2   -1    0    0  501    0  0.00000000000E+00  0.00000000000E+00  0.90439457047E+03  0.90439457047E+03  0.25500000920E-02 0. -1.
       -2   -1    0    0    0  501  0.00000000000E+00  0.00000000000E+00 -0.46443741271E+03  0.46443741272E+03  0.25500000920E-02 0.  1.
    10030    2    1    2    0    0  0.00000000000E+00  0.00000000000E+00  0.43995715775E+03  0.13688319832E+04  0.12962016423E+04 0.  0.
        4    1    3    3  502    0  0.77367650756E+02  0.49474842276E+03 -0.21450088066E+03  0.54476967235E+03  0.12699999809E+01 0.  1.
       -4    1    3    3    0  502 -0.77367650756E+02 -0.49474842276E+03  0.65445803841E+03  0.82406231084E+03  0.12699999809E+01 0. -1.
</event>
<event>
 5   0  0.1103241E-03  0.1295018E+04  0.7818609E-02  0.9033525E-01
        2   -1    0    0  501    0  0.00000000000E+00  0.00000000000E+00  0.21612473512E+04  0.21612473512E+04  0.25500000920E-02 0. -1.
       -2   -1    0    0    0  501  0.00000000000E+00  0.00000000000E+00 -0.19399356716E+03  0.19399356717E+03  0.25500000920E-02 0.  1.
    10030    2    1    2    0    0  0.00000000000E+00  0.00000000000E+00  0.19672537841E+04  0.23552409184E+04  0.12950182751E+04 0.  0.
        4    1    3    3  502    0 -0.19803689974E+03  0.54401397928E+03  0.15110374032E+04  0.16181487787E+04  0.12699999809E+01 0. -1.
       -4    1    3    3    0  502  0.19803689974E+03 -0.54401397928E+03  0.45621638087E+03  0.73709213968E+03  0.12699999809E+01 0.  1.
</event>
<event>
 5   0  0.5563545E-04  0.1302246E+04  0.7818609E-02  0.9027786E-01
       -1   -1    0    0    0  501  0.00000000000E+00  0.00000000000E+00  0.48710845642E+03  0.48710845644E+03  0.50400001928E-02 0. -1.
        1   -1    0    0  501    0  0.00000000000E+00  0.00000000000E+00 -0.87036248455E+03  0.87036248456E+03  0.50400001928E-02 0.  1.
    10030    2    1    2    0    0  0.00000000000E+00  0.00000000000E+00 -0.38325402813E+03  0.13574709410E+04  0.13022456395E+04 0.  0.
        2    1    3    3  502    0 -0.31516489201E+03  0.27069429476E+03 -0.71424312054E+03  0.82628538993E+03  0.25500000920E-02 0.  1.
       -2    1    3    3    0  502  0.31516489201E+03 -0.27069429476E+03  0.33098909240E+03  0.53118555107E+03  0.25500000920E-02 0. -1.
</event>
<event>
 5   0  0.1101619E-03  0.1303448E+04  0.7818609E-02  0.9026835E-01
       -2   -1    0    0    0  501  0.00000000000E+00  0.00000000000E+00  0.58644315649E+03  0.58644315650E+03  0.25500000920E-02 0.  1.
        2   -1    0    0  501    0  0.00000000000E+00  0.00000000000E+00 -0.72427180287E+03  0.72427180288E+03  0.25500000920E-02 0. -1.
    10030    2    1    2    0    0  0.00000000000E+00  0.00000000000E+00 -0.13782864638E+03  0.13107149594E+04  0.13034481075E+04 0.  0.
        1    1    3    3  502    0 -0.16466011526E+03 -0.39257637410E+02  0.56395131882E+03  0.58880829281E+03  0.50400001928E-02 0.  1.
       -1    1    3    3    0  502  0.16466011526E+03  0.39257637410E+02 -0.70177996520E+03  0.72190666657E+03  0.50400001928E-02 0. -1.
</event>
<event>
 5   0  0.5710383E-04  0.1297692E+04  0.7818609E-02  0.9031397E-01
       -1   -1    0    0    0  501  0.00000000000E+00  0.00000000000E+00  0.17032004505E+04  0.17032004505E+04  0.50400001928E-02 0.  1.
        1   -1    0    0  501    0  0.00000000000E+00  0.00000000000E+00 -0.24718255503E+03  0.24718255508E+03  0.50400001928E-02 0. -1.
    10030    2    1    2    0    0  0.00000000000E+00  0.00000000000E+00  0.14560178955E+04  0.19503830056E+04  0.12976924738E+04 0.  0.
        1    1    3    3  502    0  0.49672879994E+02 -0.47810090013E+03  0.72962867478E+02  0.48618046626E+03  0.50400001928E-02 0. -1.
       -1    1    3    3    0  502 -0.49672879994E+02  0.47810090013E+03  0.13830550280E+04  0.14642025393E+04  0.50400001928E-02 0.  1.
</event>
<event>
 5   0  0.5812938E-04  0.1299569E+04  0.7818609E-02  0.9029907E-01
       -1   -1    0    0    0  501  0.00000000000E+00  0.00000000000E+00  0.46357759546E+03  0.46357759549E+03  0.50400001928E-02 0. -1.
        1   -1    0    0  501    0  0.00000000000E+00  0.00000000000E+00 -0.91078597646E+03  0.91078597647E+03  0.50400001928E-02 0.  1.
    10030    2    1    2    0    0  0.00000000000E+00  0.00000000000E+00 -0.44720838100E+03  0.13743635720E+04  0.12995691178E+04 0.  0.
        5    1    3    3  502    0  0.19188747928E+03  0.52242055702E+03  0.13103718097E+03  0.57178394162E+03  0.46999998093E+01 0.  1.
       -5    1    3    3    0  502 -0.19188747928E+03 -0.52242055702E+03 -0.57824556197E+03  0.80257963034E+03  0.46999998093E+01 0. -1.
</event>
<event>
 5   0  0.1101619E-03  0.1298172E+04  0.7818609E-02  0.9031016E-01
       -2   -1    0    0    0  501  0.00000000000E+00  0.00000000000E+00  0.48481118810E+03  0.48481118811E+03  0.25500000920E-02 0. -1.
        2   -1    0    0  501    0  0.00000000000E+00  0.00000000000E+00 -0.86902377229E+03  0.86902377229E+03  0.25500000920E-02 0.  1.
    10030    2    1    2    0    0  0.00000000000E+00  0.00000000000E+00 -0.38421258419E+03  0.13538349604E+04  0.12981717106E+04 0.  0.
        1    1    3    3  502    0 -0.35981117152E+03  0.53418527782E+03 -0.27614996374E+03  0.70076871555E+03  0.50400001928E-02 0.  1.
       -1    1    3    3    0  502  0.35981117152E+03 -0.53418527782E+03 -0.10806262045E+03  0.65306624485E+03  0.50400001928E-02 0. -1.
</event>
<event>
 5   0  0.5812938E-04  0.1288219E+04  0.7818609E-02  0.9038960E-01
       -1   -1    0    0    0  501  0.00000000000E+00  0.00000000000E+00  0.26195341223E+03  0.26195341228E+03  0.50400001928E-02 0.  1.
        1   -1    0    0  501    0  0.00000000000E+00  0.00000000000E+00 -0.15837818529E+04  0.15837818529E+04  0.50400001928E-02 0. -1.
    10030    2    1    2    0    0  0.00000000000E+00  0.00000000000E+00 -0.13218284407E+04  0.18457352652E+04  0.12882190197E+04 0.  0.
        5    1    3    3  502    0 -0.25052071295E+03  0.26204531136E+03  0.10186702247E+03  0.37659972529E+03  0.46999998093E+01 0.  1.
       -5    1    3    3    0  502  0.25052071295E+03 -0.26204531136E+03 -0.14236954632E+04  0.14691355399E+04  0.46999998093E+01 0. -1.
</event>
<event>
 5   0  0.5766027E-04  0.1243045E+04  0.7818609E-02  0.9075992E-01
       -1   -1    0    0    0  501  0.00000000000E+00  0.00000000000E+00  0.27135570386E+03  0.27135570390E+03  0.50400001928E-02 0.  1.
        1   -1    0    0  501    0  0.00000000000E+00  0.00000000000E+00 -0.14235561192E+04  0.14235561192E+04  0.50400001928E-02 0. -1.
    10030    2    1    2    0    0  0.00000000000E+00  0.00000000000E+00 -0.11522004153E+04  0.16949118231E+04  0.12430447663E+04 0.  0.
        3    1    3    3  502    0  0.12881076250E+03 -0.60391925252E+03 -0.67231641986E+03  0.91286365615E+03  0.10100000352E+00 0. -1.
       -3    1    3    3    0  502 -0.12881076250E+03  0.60391925252E+03 -0.47988399544E+03  0.78204816692E+03  0.10100000352E+00 0.  1.
</event>
<event>
 5   0  0.6006119E-04  0.1307917E+04  0.7818609E-02  0.9023310E-01
       -1   -1    0    0    0  501  0.00000000000E+00  0.00000000000E+00  0.27448927739E+03  0.27448927743E+03  0.50400001928E-02 0.  1.
        1   -1    0    0  501    0  0.00000000000E+00  0.00000000000E+00 -0.15580282329E+04  0.15580282329E+04  0.50400001928E-02 0. -1.
    10030    2    1    2    0    0  0.00000000000E+00  0.00000000000E+00 -0.12835389555E+04  0.18325175103E+04  0.13079174956E+04 0.  0.
        4    1    3    3  502    0  0.24273723987E+03 -0.20166242383E+03  0.16074324011E+03  0.35415971390E+03  0.12699999809E+01 0.  1.
       -4    1    3    3    0  502 -0.24273723987E+03  0.20166242383E+03 -0.14442821956E+04  0.14783577964E+04  0.12699999809E+01 0. -1.
</event>
<event>
 5   0  0.1081574E-03  0.1298668E+04  0.7818609E-02  0.9030622E-01
       -2   -1    0    0    0  501  0.00000000000E+00  0.00000000000E+00  0.26774331094E+03  0.26774331095E+03  0.25500000920E-02 0. -1.
        2   -1    0    0  501    0  0.00000000000E+00  0.00000000000E+00 -0.15747729413E+04  0.15747729413E+04  0.25500000920E-02 0.  1.
    10030    2    1    2    0    0  0.00000000000E+00  0.00000000000E+00 -0.13070296303E+04  0.18425162522E+04  0.12986684277E+04 0.  0.
        5    1    3    3  502    0 -0.43251523613E+03  0.47926613720E+03 -0.55473545719E+03  0.85118680512E+03  0.46999998093E+01 0.  1.
       -5    1    3    3    0  502  0.43251523613E+03 -0.47926613720E+03 -0.75229417315E+03  0.99132944711E+03  0.46999998093E+01 0. -1.
</event>
<event>
 5   0  0.1101619E-03  0.1300823E+04  0.7818609E-02  0.9028913E-01
        2   -1    0    0  501    0  0.00000000000E+00  0.00000000000E+00  0.91107951850E+03  0.91107951850E+03  0.25500000920E-02 0.  1.
       -2   -1    0    0    0  501  0.00000000000E+00  0.00000000000E+00 -0.46432314321E+03  0.46432314322E+03  0.25500000920E-02 0. -1.
    10030    2    1    2    0    0  0.00000000000E+00  0.00000000000E+00  0.44675637528E+03  0.13754026617E+04  0.13008232866E+04 0.  0.
        1    1    3    3  502    0  0.11536380641E+03 -0.16369457612E+03 -0.43091377357E+03  0.47517512810E+03  0.50400001928E-02 0. -1.
       -1    1    3    3    0  502 -0.11536380641E+03  0.16369457612E+03  0.87767014886E+03  0.90022753363E+03  0.50400001928E-02 0.  1.
</event>
<event>
 5   0  0.5563545E-04  0.1294989E+04  0.7818609E-02  0.9033549E-01
        1   -1    0    0  501    0  0.00000000000E+00  0.00000000000E+00  0.58418702394E+03  0.58418702396E+03  0.50400001928E-02 0.  1.
       -1   -1    0    0    0  501  0.00000000000E+00  0.00000000000E+00 -0.71766203833E+03  0.71766203834E+03  0.50400001928E-02 0. -1.
    10030    2    1    2    0    0  0.00000000000E+00  0.00000000000E+00 -0.13347501439E+03  0.13018490623E+04  0.12949885720E+04 0.  0.
        2    1    3    3  502    0 -0.30193338344E+03  0.77416171784E+01  0.50903148169E+03  0.59189251561E+03  0.25500000920E-02 0.  1.
       -2    1    3    3    0  502  0.30193338344E+03 -0.77416171784E+01 -0.64250649608E+03  0.70995654669E+03  0.25500000920E-02 0. -1.
</event>
<event>
 5   0  0.5812938E-04  0.1299500E+04  0.7818609E-02  0.9029962E-01
        1   -1    0    0  501    0  0.00000000000E+00  0.00000000000E+00  0.57911744119E+03  0.57911744121E+03  0.50400001928E-02 0.  1.
       -1   -1    0    0    0  501  0.00000000000E+00  0.00000000000E+00 -0.72899751979E+03  0.72899751981E+03  0.50400001928E-02 0. -1.
    10030    2    1    2    0    0  0.00000000000E+00  0.00000000000E+00 -0.14988007861E+03  0.13081149610E+04  0.12995001783E+04 0.  0.
        5    1    3    3  502    0  0.43966912472E+03  0.47146157891E+03 -0.15652129704E+03  0.66340482817E+03  0.46999998093E+01 0. -1.
       -5    1    3    3    0  502 -0.43966912472E+03 -0.47146157891E+03  0.66412184315E+01  0.64471013285E+03  0.46999998093E+01 0.  1.
</event>
<event>
 5   0  0.1046253E-03  0.1302251E+04  0.7818609E-02  0.9027782E-01
        2   -1    0    0  501    0  0.00000000000E+00  0.00000000000E+00  0.40374217972E+03  0.40374217973E+03  0.25500000920E-02 0.  1.
       -2   -1    0    0    0  501  0.00000000000E+00  0.00000000000E+00 -0.10500863668E+04  0.10500863668E+04  0.25500000920E-02 0. -1.
    10030    2    1    2    0    0  0.00000000000E+00  0.00000000000E+00 -0.64634418710E+03  0.14538285466E+04  0.13022506036E+04 0.  0.
        3    1    3    3  502    0 -0.28700254551E+03  0.39913808390E+02  0.32779412338E+03  0.43750722366E+03  0.10100000352E+00 0.  1.
       -3    1    3    3    0  502  0.28700254551E+03 -0.39913808390E+02 -0.97413831048E+03  0.10163213229E+04  0.10100000352E+00 0. -1.
</event>
<event>
 5   0  0.1101619E-03  0.1183298E+04  0.7818609E-02  0.9127603E-01
       -2   -1    0    0    0  501  0.00000000000E+00  0.00000000000E+00  0.51271213895E+03  0.51271213896E+03  0.25500000920E-02 0. -1.
        2   -1    0    0  501    0  0.00000000000E+00  0.00000000000E+00 -0.68273885888E+03  0.68273885889E+03  0.25500000920E-02 0.  1.
    10030    2    1    2    0    0  0.00000000000E+00  0.00000000000E+00 -0.17002671993E+03  0.11954509978E+04  0.11832979349E+04 0.  0.
        1    1    3    3  502    0  0.48910897753E+03  0.32523183385E+03 -0.15677217753E+03  0.60793161896E+03  0.50400001928E-02 0.  1.
       -1    1    3    3    0  502 -0.48910897753E+03 -0.32523183385E+03 -0.13254542405E+02  0.58751937889E+03  0.50400001928E-02 0. -1.
</event>
<event>
 5   0  0.4012375E-04  0.1294377E+04  0.7818609E-02  0.9034036E-01
       -3   -1    0    0    0  501  0.00000000000E+00  0.00000000000E+00  0.66876109123E+03  0.66876109885E+03  0.10100000352E+00 0.  1.
        3   -1    0    0  501    0  0.00000000000E+00  0.00000000000E+00 -0.62631160437E+03  0.62631161251E+03  0.10100000352E+00 0. -1.
    10030    2    1    2    0    0  0.00000000000E+00  0.00000000000E+00  0.42449486856E+02  0.12950727114E+04  0.12943768264E+04 0.  0.
        5    1    3    3  502    0  0.17409436321E+03 -0.38281912828E+02  0.64369778837E+03  0.66793958178E+03  0.46999998093E+01 0.  1.
       -5    1    3    3    0  502 -0.17409436321E+03  0.38281912828E+02 -0.60124830152E+03  0.62713312959E+03  0.46999998093E+01 0. -1.
</event>
<event>
 5   0  0.5812938E-04  0.1306736E+04  0.7818609E-02  0.9024240E-01
        1   -1    0    0  501    0  0.00000000000E+00  0.00000000000E+00  0.11927717895E+04  0.11927717895E+04  0.50400001928E-02 0.  1.
       -1   -1    0    0    0  501  0.00000000000E+00  0.00000000000E+00 -0.35789731490E+03  0.35789731494E+03  0.50400001928E-02 0. -1.
    10030    2    1    2    0    0  0.00000000000E+00  0.00000000000E+00  0.83487447460E+03  0.15506691044E+04  0.13067361184E+04 0.  0.
        5    1    3    3  502    0 -0.19866301525E+03  0.47546523130E+03  0.89408063890E+03  0.10319575857E+04  0.46999998093E+01 0.  1.
       -5    1    3    3    0  502  0.19866301525E+03 -0.47546523130E+03 -0.59206164299E+02  0.51871151876E+03  0.46999998093E+01 0. -1.
</event>
<event>
 5   0  0.5563545E-04  0.1272553E+04  0.7818609E-02  0.9051618E-01
       -1   -1    0    0    0  501  0.00000000000E+00  0.00000000000E+00  0.61817933889E+03  0.61817933891E+03  0.50400001928E-02 0. -1.
        1   -1    0    0  501    0  0.00000000000E+00  0.00000000000E+00 -0.65490382047E+03  0.65490382049E+03  0.50400001928E-02 0.  1.
    10030    2    1    2    0    0  0.00000000000E+00  0.00000000000E+00 -0.36724481583E+02  0.12730831594E+04  0.12725533557E+04 0.  0.
        2    1    3    3  502    0  0.99943793737E+02  0.17816604062E+03 -0.62120428223E+03  0.65393169384E+03  0.25500000920E-02 0.  1.
       -2    1    3    3    0  502 -0.99943793737E+02 -0.17816604062E+03  0.58447980065E+03  0.61915146556E+03  0.25500000920E-02 0. -1.
</event>
<event>
 5   0  0.5812938E-04  0.1304271E+04  0.7818609E-02  0.9026185E-01
        1   -1    0    0  501    0  0.00000000000E+00  0.00000000000E+00  0.77212283728E+03  0.77212283730E+03  0.50400001928E-02 0.  1.
       -1   -1    0    0    0  501  0.00000000000E+00  0.00000000000E+00 -0.55079408741E+03  0.55079408743E+03  0.50400001928E-02 0. -1.
    10030    2    1    2    0    0  0.00000000000E+00  0.00000000000E+00  0.22132874987E+03  0.13229169247E+04  0.13042709742E+04 0.  0.
        5    1    3    3  502    0  0.10386623176E+03 -0.45929154543E+03 -0.34691884372E+03  0.58490314748E+03  0.46999998093E+01 0. -1.
       -5    1    3    3    0  502 -0.10386623176E+03  0.45929154543E+03  0.56824759359E+03  0.73801377726E+03  0.46999998093E+01 0.  1.
</event>
<event>
 5   0  0.5563545E-04  0.1276324E+04  0.7818609E-02  0.9048554E-01
        1   -1    0    0  501    0  0.00000000000E+00  0.00000000000E+00  0.15052184821E+04  0.15052184821E+04  0.50400001928E-02 0.  1.
       -1   -1    0    0    0  501  0.00000000000E+00  0.00000000000E+00 -0.27055908645E+03  0.27055908650E+03  0.50400001928E-02 0. -1.
    10030    2    1    2    0    0  0.00000000000E+00  0.00000000000E+00  0.12346593956E+04  0.17757775686E+04  0.12763236854E+04 0.  0.
        2    1    3    3  502    0  0.23282848393E+03 -0.58534564070E+03  0.75929854415E+03  0.98659662536E+03  0.25500000920E-02 0.  1.
       -2    1    3    3    0  502 -0.23282848393E+03  0.58534564070E+03  0.47536085148E+03  0.78918094322E+03  0.25500000920E-02 0. -1.
</event>
<event>
 5   0  0.5812938E-04  0.1235796E+04  0.7818609E-02  0.9082089E-01
       -1   -1    0    0    0  501  0.00000000000E+00  0.00000000000E+00  0.33873959814E+03  0.33873959818E+03  0.50400001928E-02 0. -1.
        1   -1    0    0  501    0  0.00000000000E+00  0.00000000000E+00 -0.11271132683E+04  0.11271132684E+04  0.50400001928E-02 0.  1.
    10030    2    1    2    0    0  0.00000000000E+00  0.00000000000E+00 -0.78837367020E+03  0.14658528665E+04  0.12357959307E+04 0.  0.
        5    1    3    3  502    0 -0.56755523266E+03  0.24402320084E+03 -0.40660141014E+03  0.73960331354E+03  0.46999998093E+01 0. -1.
       -5    1    3    3    0  502  0.56755523266E+03 -0.24402320084E+03 -0.38177226006E+03  0.72624955299E+03  0.46999998093E+01 0.  1.
</event>
<event>
 5   0  0.5563545E-04  0.1310342E+04  0.7818609E-02  0.9021404E-01
       -1   -1    0    0    0  501  0.00000000000E+00  0.00000000000E+00  0.19747999982E+03  0.19747999988E+03  0.50400001928E-02 0. -1.
        1   -1    0    0  501    0  0.00000000000E+00  0.00000000000E+00 -0.21736319138E+04  0.21736319138E+04  0.50400001928E-02 0.  1.
    10030    2    1    2    0    0  0.00000000000E+00  0.00000000000E+00 -0.19761519139E+04  0.23711119136E+04  0.13103416806E+04 0.  0.
        2    1    3    3  502    0  0.30951986483E+03  0.31179543399E+03 -0.18675740890E+04  0.19185546427E+04  0.25500000920E-02 0.  1.
       -2    1    3    3    0  502 -0.30951986483E+03 -0.31179543399E+03 -0.10857782499E+03  0.45255727092E+03  0.25500000920E-02 0. -1.
</event>
<event>
 5   0  0.1046253E-03  0.1299031E+04  0.7818609E-02  0.9030334E-01
       -2   -1    0    0    0  501  0.00000000000E+00  0.00000000000E+00  0.11160921943E+04  0.11160921943E+04  0.25500000920E-02 0.  1.
        2   -1    0    0  501    0  0.00000000000E+00  0.00000000000E+00 -0.37798868109E+03  0.37798868109E+03  0.25500000920E-02 0. -1.
    10030    2    1    2    0    0  0.00000000000E+00  0.00000000000E+00  0.73810351323E+03  0.14940808754E+04  0.12990307410E+04 0.  0.
        3    1    3    3  502    0 -0.21639813977E+03 -0.11620662967E+03  0.10606146715E+04  0.10886852747E+04  0.10100000352E+00 0.  1.
       -3    1    3    3    0  502  0.21639813977E+03  0.11620662967E+03 -0.32251115828E+03  0.40539560073E+03  0.10100000352E+00 0. -1.
</event>
<event>
 5   0  0.1031295E-03  0.1302644E+04  0.7818609E-02  0.9027471E-01
       -2   -1    0    0    0  501  0.00000000000E+00  0.00000000000E+00  0.59921820539E+03  0.59921820540E+03  0.25500000920E-02 0. -1.
        2   -1    0    0  501    0  0.00000000000E+00  0.00000000000E+00 -0.70795665294E+03  0.70795665294E+03  0.25500000920E-02 0.  1.
    10030    2    1    2    0    0  0.00000000000E+00  0.00000000000E+00 -0.10873844755E+03  0.13071748583E+04  0.13026442570E+04 0.  0.
        2    1    3    3  502    0  0.44839601782E+03 -0.45506253930E+03  0.72877214286E+02  0.64300232647E+03  0.25500000920E-02 0. -1.
       -2    1    3    3    0  502 -0.44839601782E+03  0.45506253930E+03 -0.18161566183E+03  0.66417253188E+03  0.25500000920E-02 0.  1.
</event>
<event>
 5   0  0.1101619E-03  0.1302155E+04  0.7818609E-02  0.9027858E-01
       -2   -1    0    0    0  501  0.00000000000E+00  0.00000000000E+00  0.61071163996E+03  0.61071163996E+03  0.25500000920E-02 0.  1.
        2   -1    0    0  501    0  0.00000000000E+00  0.00000000000E+00 -0.69411091666E+03  0.69411091666E+03  0.25500000920E-02 0. -1.
    10030    2    1    2    0    0  0.00000000000E+00  0.00000000000E+00 -0.83399276702E+02  0.13048225566E+04  0.13021545473E+04 0.  0.
        1    1    3    3  502    0 -0.29982862888E+03 -0.28864494142E+03 -0.54341354156E+03  0.68447891573E+03  0.50400001928E-02 0. -1.
       -1    1    3    3    0  502  0.29982862888E+03  0.28864494142E+03  0.46001426486E+03  0.62034364090E+03  0.50400001928E-02 0.  1.
</event>
<event>
 5   0  0.5563545E-04  0.1300371E+04  0.7818609E-02  0.9029271E-01
        1   -1    0    0  501    0  0.00000000000E+00  0.00000000000E+00  0.82971216793E+03  0.82971216794E+03  0.50400001928E-02 0.  1.
       -1   -1    0    0    0  501  0.00000000000E+00  0.00000000000E+00 -0.50950344244E+03  0.50950344247E+03  0.50400001928E-02 0. -1.
    10030    2    1    2    0    0  0.00000000000E+00  0.00000000000E+00  0.32020872549E+03  0.13392156104E+04  0.13003710329E+04 0.  0.
        2    1    3    3  502    0 -0.81035069349E+02  0.35207397479E+03  0.71682462118E+03  0.80272056391E+03  0.25500000920E-02 0.  1.
       -2    1    3    3    0  502  0.81035069349E+02 -0.35207397479E+03 -0.39661589570E+03  0.53649504650E+03  0.25500000920E-02 0. -1.
</event>
<event>
 5   0  0.1103241E-03  0.1300431E+04  0.7818609E-02  0.9029224E-01
       -2   -1    0    0    0  501  0.00000000000E+00  0.00000000000E+00  0.84656553574E+03  0.84656553574E+03  0.25500000920E-02 0. -1.
        2   -1    0    0  501    0  0.00000000000E+00  0.00000000000E+00 -0.49940624537E+03  0.49940624538E+03  0.25500000920E-02 0.  1.
    10030    2    1    2    0    0  0.00000000000E+00  0.00000000000E+00  0.34715929037E+03  0.13459717811E+04  0.13004308758E+04 0.  0.
        4    1    3    3  502    0  0.61440641668E+03  0.19876680526E+03  0.94924843141E+02  0.65269887887E+03  0.12699999809E+01 0.  1.
       -4    1    3    3    0  502 -0.61440641668E+03 -0.19876680526E+03  0.25223444723E+03  0.69327290225E+03  0.12699999809E+01 0. -1.
</event>
<event>
 5   0  0.5710383E-04  0.1299637E+04  0.7818609E-02  0.9029853E-01
        1   -1    0    0  501    0  0.00000000000E+00  0.00000000000E+00  0.13822373040E+04  0.13822373040E+04  0.50400001928E-02 0.  1.
       -1   -1    0    0    0  501  0.00000000000E+00  0.00000000000E+00 -0.30549339481E+03  0.30549339485E+03  0.50400001928E-02 0. -1.
    10030    2    1    2    0    0  0.00000000000E+00  0.00000000000E+00  0.10767439092E+04  0.16877306988E+04  0.12996374363E+04 0.  0.
        1    1    3    3  502    0  0.27229545184E+03  0.56738778484E+03  0.32820999136E+03  0.70978553799E+03  0.50400001928E-02 0. -1.
       -1    1    3    3    0  502 -0.27229545184E+03 -0.56738778484E+03  0.74853391780E+03  0.97794516084E+03  0.50400001928E-02 0.  1.
</event>
<event>
 5   0  0.6006119E-04  0.1296785E+04  0.7818609E-02  0.9032119E-01
        1   -1    0    0  501    0  0.00000000000E+00  0.00000000000E+00  0.17053948419E+03  0.17053948427E+03  0.50400001928E-02 0.  1.
       -1   -1    0    0    0  501  0.00000000000E+00  0.00000000000E+00 -0.24651919614E+04  0.24651919614E+04  0.50400001928E-02 0. -1.
    10030    2    1    2    0    0  0.00000000000E+00  0.00000000000E+00 -0.22946524772E+04  0.26357314457E+04  0.12967845860E+04 0.  0.
        4    1    3    3  502    0  0.87555619890E+02  0.64223666121E+03 -0.11811562647E+04  0.13473179470E+04  0.12699999809E+01 0.  1.
       -4    1    3    3    0  502 -0.87555619890E+02 -0.64223666121E+03 -0.11134962125E+04  0.12884134987E+04  0.12699999809E+01 0. -1.
</event>
<event>
 5   0  0.1046253E-03  0.1312093E+04  0.7818609E-02  0.9020030E-01
        2   -1    0    0  501    0  0.00000000000E+00  0.00000000000E+00  0.81249130547E+03  0.81249130548E+03  0.25500000920E-02 0. -1.
       -2   -1    0    0    0  501  0.00000000000E+00  0.00000000000E+00 -0.52972502304E+03  0.52972502305E+03  0.25500000920E-02 0.  1.
    10030    2    1    2    0    0  0.00000000000E+00  0.00000000000E+00  0.28276628243E+03  0.13422163285E+04  0.13120929472E+04 0.  0.
        3    1    3    3  502    0  0.48166500994E+03 -0.36929833633E+03  0.39612752501E+03  0.72477546129E+03  0.10100000352E+00 0.  1.
       -3    1    3    3    0  502 -0.48166500994E+03  0.36929833633E+03 -0.11336124257E+03  0.61744086724E+03  0.10100000352E+00 0. -1.
</event>
<event>
 5   0  0.5812938E-04  0.1298218E+04  0.7818609E-02  0.9030979E-01
       -1   -1    0    0    0  501  0.00000000000E+00  0.00000000000E+00  0.96087017809E+03  0.96087017811E+03  0.50400001928E-02 0. -1.
        1   -1    0    0  501    0  0.00000000000E+00  0.00000000000E+00 -0.43850120919E+03  0.43850120921E+03  0.50400001928E-02 0.  1.
    10030    2    1    2    0    0  0.00000000000E+00  0.00000000000E+00  0.52236896891E+03  0.13993713873E+04  0.12982183715E+04 0.  0.
        5    1    3    3  502    0  0.37874965761E+03  0.19418775925E+03 -0.26706123782E+03  0.50249774500E+03  0.46999998093E+01 0.  1.
       -5    1    3    3    0  502 -0.37874965761E+03 -0.19418775925E+03  0.78943020673E+03  0.89687364232E+03  0.46999998093E+01 0. -1.
</event>
<event>
 5   0  0.1046253E-03  0.1295693E+04  0.7818609E-02  0.9032988E-01
        2   -1    0    0  501    0  0.00000000000E+00  0.00000000000E+00  0.12181904997E+04  0.12181904997E+04  0.25500000920E-02 0. -1.
       -2   -1    0    0    0  501  0.00000000000E+00  0.00000000000E+00 -0.34453162208E+03  0.34453162209E+03  0.25500000920E-02 0.  1.
    10030    2    1    2    0    0  0.00000000000E+00  0.00000000000E+00  0.87365887764E+03  0.15627221218E+04  0.12956930946E+04 0.  0.
        3    1    3    3  502    0  0.32717270941E+03  0.53058852807E+03  0.64965889862E+03  0.90034596832E+03  0.10100000352E+00 0. -1.
       -3    1    3    3    0  502 -0.32717270941E+03 -0.53058852807E+03  0.22399997901E+03  0.66237615348E+03  0.10100000352E+00 0.  1.
</event>
<event>
 5   0  0.6006119E-04  0.1298029E+04  0.7818609E-02  0.9031130E-01
        1   -1    0    0  501    0  0.00000000000E+00  0.00000000000E+00  0.17995171173E+04  0.17995171173E+04  0.50400001928E-02 0. -1.
       -1   -1    0    0    0  501  0.00000000000E+00  0.00000000000E+00 -0.23407364922E+03  0.23407364928E+03  0.50400001928E-02 0.  1.
    10030    2    1    2    0    0  0.00000000000E+00  0.00000000000E+00  0.15654434681E+04  0.20335907666E+04  0.12980285645E+04 0.  0.
        4    1    3    3  502    0 -0.28655594712E+02  0.87334022473E+00 -0.23307920379E+03  0.23483916618E+03  0.12699999809E+01 0.  1.
       -4    1    3    3    0  502  0.28655594712E+02 -0.87334022473E+00  0.17985226719E+04  0.17987516004E+04  0.12699999809E+01 0. -1.
</event>
<event>
 5   0  0.5812938E-04  0.1376232E+04  0.7818609E-02  0.8971205E-01
        1   -1    0    0  501    0  0.00000000000E+00  0.00000000000E+00  0.10709252906E+04  0.10709252906E+04  0.50400001928E-02 0.  1.
       -1   -1    0    0    0  501  0.00000000000E+00  0.00000000000E+00 -0.44214413588E+03  0.44214413591E+03  0.50400001928E-02 0. -1.
    10030    2    1    2    0    0  0.00000000000E+00  0.00000000000E+00  0.62878115470E+03  0.15130694265E+04  0.13762315753E+04 0.  0.
        5    1    3    3  502    0 -0.43233936714E+03  0.51526727664E+03  0.47395392809E+03  0.82284391637E+03  0.46999998093E+01 0.  1.
       -5    1    3    3    0  502  0.43233936714E+03 -0.51526727664E+03  0.15482722661E+03  0.69022551014E+03  0.46999998093E+01 0. -1.
</event>
<event>
 5   0  0.1081574E-03  0.1310957E+04  0.7818609E-02  0.9020921E-01
        2   -1    0    0  501    0  0.00000000000E+00  0.00000000000E+00  0.53187421581E+03  0.53187421582E+03  0.25500000920E-02 0. -1.
       -2   -1    0    0    0  501  0.00000000000E+00  0.00000000000E+00 -0.80780787252E+03  0.80780787252E+03  0.25500000920E-02 0.  1.
    10030    2    1    2    0    0  0.00000000000E+00  0.00000000000E+00 -0.27593365670E+03  0.13396820883E+04  0.13109571751E+04 0.  0.
        5    1    3    3  502    0  0.42575548630E+02 -0.63812848513E+03 -0.28467233798E+03  0.70005790538E+03  0.46999998093E+01 0.  1.
       -5    1    3    3    0  502 -0.42575548630E+02  0.63812848513E+03  0.87386812706E+01  0.63962418296E+03  0.46999998093E+01 0. -1.
</event>
<event>
 5   0  0.5710383E-04  0.1286319E+04  0.7818609E-02  0.9040485E-01
        1   -1    0    0  501    0  0.00000000000E+00  0.00000000000E+00  0.10781407891E+04  0.10781407891E+04  0.50400001928E-02 0.  1.
       -1   -1    0    0    0  501  0.00000000000E+00  0.00000000000E+00 -0.38367387266E+03  0.38367387269E+03  0.50400001928E-02 0. -1.
    10030    2    1    2    0    0  0.00000000000E+00  0.00000000000E+00  0.69446691647E+03  0.14618146618E+04  0.12863194811E+04 0.  0.
        1    1    3    3  502    0 -0.11688545986E+03 -0.60901881202E+03  0.15341155949E+03  0.63882801342E+03  0.50400001928E-02 0. -1.
       -1    1    3    3    0  502  0.11688545986E+03  0.60901881202E+03  0.54105535697E+03  0.82298664841E+03  0.50400001928E-02 0.  1.
</event>
<event>
 5   0  0.1081574E-03  0.1302707E+04  0.7818609E-02  0.9027421E-01
        2   -1    0    0  501    0  0.00000000000E+00  0.00000000000E+00  0.58380962828E+03  0.58380962829E+03  0.25500000920E-02 0. -1.
       -2   -1    0    0    0  501  0.00000000000E+00  0.00000000000E+00 -0.72671174126E+03  0.72671174126E+03  0.25500000920E-02 0.  1.
    10030    2    1    2    0    0  0.00000000000E+00  0.00000000000E+00 -0.14290211297E+03  0.13105213695E+04  0.13027068919E+04 0.  0.
        5    1    3    3  502    0 -0.45171462883E+03  0.71286293440E+02  0.39513213505E+03  0.60438343432E+03  0.46999998093E+01 0. -1.
       -5    1    3    3    0  502  0.45171462883E+03 -0.71286293440E+02 -0.53803424802E+03  0.70613793523E+03  0.46999998093E+01 0.  1.
</event>
<event>
 5   0  0.5563545E-04  0.1301623E+04  0.7818609E-02  0.9028279E-01
       -1   -1    0    0    0  501  0.00000000000E+00  0.00000000000E+00  0.47141977629E+03  0.47141977632E+03  0.50400001928E-02 0.  1.
        1   -1    0    0  501    0  0.00000000000E+00  0.00000000000E+00 -0.89846861025E+03  0.89846861026E+03  0.50400001928E-02 0. -1.
    10030    2    1    2    0    0  0.00000000000E+00  0.00000000000E+00 -0.42704883395E+03  0.13698883866E+04  0.13016234037E+04 0.  0.
        2    1    3    3  502    0 -0.38076698057E+03 -0.20910671700E+03 -0.72355018718E+03  0.84393956298E+03  0.25500000920E-02 0. -1.
       -2    1    3    3    0  502  0.38076698057E+03  0.20910671700E+03  0.29650135322E+03  0.52594882361E+03  0.25500000920E-02 0.  1.
</event>
<event>
 5   0  0.5766027E-04  0.1303696E+04  0.7818609E-02  0.9026639E-01
       -1   -1    0    0    0  501  0.00000000000E+00  0.00000000000E+00  0.29716096620E+03  0.29716096624E+03  0.50400001928E-02 0. -1.
        1   -1    0    0  501    0  0.00000000000E+00  0.00000000000E+00 -0.14298845360E+04  0.14298845360E+04  0.50400001928E-02 0.  1.
    10030    2    1    2    0    0  0.00000000000E+00  0.00000000000E+00 -0.11327235698E+04  0.17270455023E+04  0.13036960847E+04 0.  0.
        3    1    3    3  502    0  0.76507069326E+02  0.27776758617E+02  0.29040274284E+03  0.30159350660E+03  0.10100000352E+00 0. -1.
       -3    1    3    3    0  502 -0.76507069326E+02 -0.27776758617E+02 -0.14231263127E+04  0.14254519957E+04  0.10100000352E+00 0.  1.
</event>
<event>
 5   0  0.5812938E-04  0.1296851E+04  0.7818609E-02  0.9032066E-01
       -1   -1    0    0    0  501  0.00000000000E+00  0.00000000000E+00  0.11491552713E+04  0.11491552713E+04  0.50400001928E-02 0. -1.
        1   -1    0    0  501    0  0.00000000000E+00  0.00000000000E+00 -0.36588239582E+03  0.36588239585E+03  0.50400001928E-02 0.  1.
    10030    2    1    2    0    0  0.00000000000E+00  0.00000000000E+00  0.78327287545E+03  0.15150376671E+04  0.12968510845E+04 0.  0.
        5    1    3    3  502    0 -0.54003438091E+03  0.20917819220E+03  0.73231700381E+03  0.93365032679E+03  0.46999998093E+01 0. -1.
       -5    1    3    3    0  502  0.54003438091E+03 -0.20917819220E+03  0.50955871638E+02  0.58138734034E+03  0.46999998093E+01 0.  1.
</event>
<event>
 5   0  0.1031295E-03  0.1297981E+04  0.7818609E-02  0.9031168E-01
        2   -1    0    0  501    0  0.00000000000E+00  0.00000000000E+00  0.10855055967E+04  0.10855055967E+04  0.25500000920E-02 0. -1.
       -2   -1    0    0    0  501  0.00000000000E+00  0.00000000000E+00 -0.38801166369E+03  0.38801166370E+03  0.25500000920E-02 0.  1.
    10030    2    1    2    0    0  0.00000000000E+00  0.00000000000E+00  0.69749393303E+03  0.14735172604E+04  0.12979812519E+04 0.  0.
        2    1    3    3  502    0 -0.50047137671E+02 -0.25884747781E+03  0.10219746092E+04  0.10554330082E+04  0.25500000920E-02 0. -1.
       -2    1    3    3    0  502  0.50047137671E+02  0.25884747781E+03 -0.32448067621E+03  0.41808425227E+03  0.25500000920E-02 0.  1.
</event>
<event>
 5   0  0.1101619E-03  0.1303697E+04  0.7818609E-02  0.9026639E-01
       -2   -1    0    0    0  501  0.00000000000E+00  0.00000000000E+00  0.32716891384E+03  0.32716891385E+03  0.25500000920E-02 0.  1.
        2   -1    0    0  501    0  0.00000000000E+00  0.00000000000E+00 -0.12987364323E+04  0.12987364323E+04  0.25500000920E-02 0. -1.
    10030    2    1    2    0    0  0.00000000000E+00  0.00000000000E+00 -0.97156751848E+03  0.16259053462E+04  0.13036965720E+04 0.  0.
        1    1    3    3  502    0  0.54393354076E+03  0.99749160910E+01 -0.37949197268E+02  0.54534698799E+03  0.50400001928E-02 0.  1.
       -1    1    3    3    0  502 -0.54393354076E+03 -0.99749160910E+01 -0.93361832121E+03  0.10805583582E+04  0.50400001928E-02 0. -1.
</event>
<event>
 5   0  0.5710383E-04  0.1287351E+04  0.7818609E-02  0.9039656E-01
       -1   -1    0    0    0  501  0.00000000000E+00  0.00000000000E+00  0.29967414218E+03  0.29967414223E+03  0.50400001928E-02 0.  1.
        1   -1    0    0  501    0  0.00000000000E+00  0.00000000000E+00 -0.13825623330E+04  0.13825623330E+04  0.50400001928E-02 0. -1.
    10030    2    1    2    0    0  0.00000000000E+00  0.00000000000E+00 -0.10828881908E+04  0.16822364752E+04  0.12873510495E+04 0.  0.
        1    1    3    3  502    0 -0.66912269999E+02 -0.63698073080E+03 -0.62508050113E+03  0.89495661135E+03  0.50400001928E-02 0.  1.
       -1    1    3    3    0  502  0.66912269999E+02  0.63698073080E+03 -0.45780768965E+03  0.78727986384E+03  0.50400001928E-02 0. -1.
</event>
<event>
 5   0  0.5766027E-04  0.1303991E+04  0.7818609E-02  0.9026406E-01
        1   -1    0    0  501    0  0.00000000000E+00  0.00000000000E+00  0.90821843281E+03  0.90821843283E+03  0.50400001928E-02 0.  1.
       -1   -1    0    0    0  501  0.00000000000E+00  0.00000000000E+00 -0.46805697826E+03  0.46805697829E+03  0.50400001928E-02 0. -1.
    10030    2    1    2    0    0  0.00000000000E+00  0.00000000000E+00  0.44016145455E+03  0.13762754111E+04  0.13039907596E+04 0.  0.
        3    1    3    3  502    0 -0.30216056129E+03  0.53229129346E+03 -0.17011386161E+02  0.61231072451E+03  0.10100000352E+00 0.  1.
       -3    1    3    3    0  502  0.30216056129E+03 -0.53229129346E+03  0.45717284072E+03  0.76396468660E+03  0.10100000352E+00 0. -1.
</event>
<event>
 5   0  0.5766027E-04  0.1304663E+04  0.7818609E-02  0.9025876E-01
        1   -1    0    0  501    0  0.00000000000E+00  0.00000000000E+00  0.13555849758E+04  0.13555849758E+04  0.50400001928E-02 0. -1.
       -1   -1    0    0    0  501  0.00000000000E+00  0.00000000000E+00 -0.31391338086E+03  0.31391338090E+03  0.50400001928E-02 0.  1.
    10030    2    1    2    0    0  0.00000000000E+00  0.00000000000E+00  0.10416715949E+04  0.16694983567E+04  0.13046628114E+04 0.  0.
        3    1    3    3  502    0 -0.21471038205E+03 -0.60252258653E+03  0.68472081682E+03  0.93700406756E+03  0.10100000352E+00 0. -1.
       -3    1    3    3    0  502  0.21471038205E+03  0.60252258653E+03  0.35695077813E+03  0.73249428916E+03  0.10100000352E+00 0.  1.
</event>
<event>
 5   0  0.5563545E-04  0.1294207E+04  0.7818609E-02  0.9034171E-01
       -1   -1    0    0    0  501  0.00000000000E+00  0.00000000000E+00  0.58020984929E+03  0.58020984931E+03  0.50400001928E-02 0. -1.
        1   -1    0    0  501    0  0.00000000000E+00  0.00000000000E+00 -0.72170993529E+03  0.72170993531E+03  0.50400001928E-02 0.  1.
    10030    2    1    2    0    0  0.00000000000E+00  0.00000000000E+00 -0.14150008600E+03  0.13019197846E+04  0.12942074220E+04 0.  0.
        2    1    3    3  502    0 -0.22020936999E+03  0.58244651314E+03 -0.24788772376E+03  0.67021222825E+03  0.25500000920E-02 0.  1.
       -2    1    3    3    0  502  0.22020936999E+03 -0.58244651314E+03  0.10638763775E+03  0.63170755637E+03  0.25500000920E-02 0. -1.
</event>
<event>
 5   0  0.1101619E-03  0.1308222E+04  0.7818609E-02  0.9023070E-01
       -2   -1    0    0    0  501  0.00000000000E+00  0.00000000000E+00  0.63797974256E+03  0.63797974257E+03  0.25500000920E-02 0. -1.
        2   -1    0    0  501    0  0.00000000000E+00  0.00000000000E+00 -0.67065059844E+03  0.67065059845E+03  0.25500000920E-02 0.  1.
    10030    2    1    2    0    0  0.00000000000E+00  0.00000000000E+00 -0.32670855877E+02  0.13086303410E+04  0.13082224523E+04 0.  0.
        1    1    3    3  502    0  0.21941224264E+03  0.25582194676E+03  0.54444162279E+03  0.64031498602E+03  0.50400001928E-02 0. -1.
       -1    1    3    3    0  502 -0.21941224264E+03 -0.25582194676E+03 -0.57711247867E+03  0.66831535500E+03  0.50400001928E-02 0.  1.
</event>
<event>
 5   0  0.1046253E-03  0.1282748E+04  0.7818609E-02  0.9043359E-01
       -2   -1    0    0    0  501  0.00000000000E+00  0.00000000000E+00  0.33362751895E+03  0.33362751896E+03  0.25500000920E-02 0.  1.
        2   -1    0    0  501    0  0.00000000000E+00  0.00000000000E+00 -0.12329939016E+04  0.12329939016E+04  0.25500000920E-02 0. -1.
    10030    2    1    2    0    0  0.00000000000E+00  0.00000000000E+00 -0.89936638266E+03  0.15666214206E+04  0.12827481378E+04 0.  0.
        3    1    3    3  502    0  0.20307254212E+03  0.30221311437E+02 -0.11917768985E+04  0.12093320351E+04  0.10100000352E+00 0. -1.
       -3    1    3    3    0  502 -0.20307254212E+03 -0.30221311437E+02  0.29241051584E+03  0.35728938551E+03  0.10100000352E+00 0.  1.
</event>
<event>
 5   0  0.5766027E-04  0.1292047E+04  0.7818609E-02  0.9035896E-01
       -1   -1    0    0    0  501  0.00000000000E+00  0.00000000000E+00  0.20000659643E+03  0.20000659649E+03  0.50400001928E-02 0. -1.
        1   -1    0    0  501    0  0.00000000000E+00  0.00000000000E+00 -0.20866621396E+04  0.20866621396E+04  0.50400001928E-02 0.  1.
    10030    2    1    2    0    0  0.00000000000E+00  0.00000000000E+00 -0.18866555432E+04  0.22866687361E+04  0.12920467368E+04 0.  0.
        3    1    3    3  502    0 -0.47939623352E+03  0.43270696513E+03 -0.91318308174E+03  0.11184629709E+04  0.10100000352E+00 0. -1.
       -3    1    3    3    0  502  0.47939623352E+03 -0.43270696513E+03 -0.97347246147E+03  0.11682057652E+04  0.10100000352E+00 0.  1.
</event>
<event>
 5   0  0.1103241E-03  0.1302731E+04  0.7818609E-02  0.9027402E-01
        2   -1    0    0  501    0  0.00000000000E+00  0.00000000000E+00  0.61017834592E+03  0.61017834593E+03  0.25500000920E-02 0.  1.
       -2   -1    0    0    0  501  0.00000000000E+00  0.00000000000E+00 -0.69533275165E+03  0.69533275165E+03  0.25500000920E-02 0. -1.
    10030    2    1    2    0    0  0.00000000000E+00  0.00000000000E+00 -0.85154405723E+02  0.13055110976E+04  0.13027309596E+04 0.  0.
        4    1    3    3  502    0  0.41334388589E+03 -0.41444276901E+03 -0.32894812771E+03  0.67143462855E+03  0.12699999809E+01 0. -1.
       -4    1    3    3    0  502 -0.41334388589E+03  0.41444276901E+03  0.24379372199E+03  0.63407646903E+03  0.12699999809E+01 0.  1.
</event>
<event>
 5   0  0.5766027E-04  0.1297365E+04  0.7818609E-02  0.9031657E-01
       -1   -1    0    0    0  501  0.00000000000E+00  0.00000000000E+00  0.69865992250E+03  0.69865992252E+03  0.50400001928E-02 0. -1.
        1   -1    0    0  501    0  0.00000000000E+00  0.00000000000E+00 -0.60228019148E+03  0.60228019150E+03  0.50400001928E-02 0.  1.
    10030    2    1    2    0    0  0.00000000000E+00  0.00000000000E+00  0.96379731024E+02  0.13009401140E+04  0.12973650711E+04 0.  0.
        3    1    3    3  502    0  0.30190903295E+03  0.16556386006E+03  0.59945796169E+03  0.69131057708E+03  0.10100000352E+00 0. -1.
       -3    1    3    3    0  502 -0.30190903295E+03 -0.16556386006E+03 -0.50307823067E+03  0.60962953694E+03  0.10100000352E+00 0.  1.
</event>
<event>
 5   0  0.5766027E-04  0.1294370E+04  0.7818609E-02  0.9034041E-01
        1   -1    0    0  501    0  0.00000000000E+00  0.00000000000E+00  0.55688911911E+03  0.55688911913E+03  0.50400001928E-02 0.  1.
       -1   -1    0    0    0  501  0.00000000000E+00  0.00000000000E+00 -0.75212214964E+03  0.75212214965E+03  0.50400001928E-02 0. -1.
    10030    2    1    2    0    0  0.00000000000E+00  0.00000000000E+00 -0.19523303053E+03  0.13090112688E+04  0.12943703356E+04 0.  0.
        3    1    3    3  502    0  0.18738140532E+03 -0.52927127462E+03  0.22790752555E+03  0.60595521583E+03  0.10100000352E+00 0.  1.
       -3    1    3    3    0  502 -0.18738140532E+03  0.52927127462E+03 -0.42314055608E+03  0.70305605295E+03  0.10100000352E+00 0. -1.
</event>
<event>
 5   0  0.1081574E-03  0.1295985E+04  0.7818609E-02  0.9032755E-01
       -2   -1    0    0    0  501  0.00000000000E+00  0.00000000000E+00  0.27652048509E+03  0.27652048510E+03  0.25500000920E-02 0. -1.
        2   -1    0    0  501    0  0.00000000000E+00  0.00000000000E+00 -0.15184922850E+04  0.15184922850E+04  0.25500000920E-02 0.  1.
    10030    2    1    2    0    0  0.00000000000E+00  0.00000000000E+00 -0.12419717999E+04  0.17950127701E+04  0.12959849123E+04 0.  0.
        5    1    3    3  502    0  0.81066185848E+02 -0.17947821198E+03 -0.14760136723E+04  0.14891012746E+04  0.46999998093E+01 0.  1.
       -5    1    3    3    0  502 -0.81066185848E+02  0.17947821198E+03  0.23404187240E+03  0.30591149553E+03  0.46999998093E+01 0. -1.
</event>
<event>
 5   0  0.6006119E-04  0.1301141E+04  0.7818609E-02  0.9028661E-01
        1   -1    0    0  501    0  0.00000000000E+00  0.00000000000E+00  0.40588975451E+03  0.40588975454E+03  0.50400001928E-02 0. -1.
       -1   -1    0    0    0  501  0.00000000000E+00  0.00000000000E+00 -0.10427517104E+04  0.10427517104E+04  0.50400001928E-02 0.  1.
    10030    2    1    2    0    0  0.00000000000E+00  0.00000000000E+00 -0.63686195586E+03  0.14486414649E+04  0.13011414001E+04 0.  0.
        4    1    3    3  502    0  0.53968718255E+03  0.12116568584E+03  0.62880888952E+02  0.55668572600E+03  0.12699999809E+01 0. -1.
       -4    1    3    3    0  502 -0.53968718255E+03 -0.12116568584E+03 -0.69974284481E+03  0.89195573893E+03  0.12699999809E+01 0.  1.
</event>
<event>
 5   0  0.5766027E-04  0.1308024E+04  0.7818609E-02  0.9023226E-01
        1   -1    0    0  501    0  0.00000000000E+00  0.00000000000E+00  0.70466590291E+03  0.70466590292E+03  0.50400001928E-02 0. -1.
       -1   -1    0    0    0  501  0.00000000000E+00  0.00000000000E+00 -0.60699895638E+03  0.60699895640E+03  0.50400001928E-02 0.  1.
    10030    2    1    2    0    0  0.00000000000E+00  0.00000000000E+00  0.97666946525E+02  0.13116648593E+04  0.13080236507E+04 0.  0.
        3    1    3    3  502    0  0.21551424965E+03  0.61607170166E+03  0.90671602537E+02  0.65894770892E+03  0.10100000352E+00 0. -1.
       -3    1    3    3    0  502 -0.21551424965E+03 -0.61607170166E+03  0.69953439880E+01  0.65271715040E+03  0.10100000352E+00 0.  1.
</event>
<event>
 5   0  0.1031295E-03  0.1297715E+04  0.7818609E-02  0.9031379E-01
       -2   -1    0    0    0  501  0.00000000000E+00  0.00000000000E+00  0.27262645698E+03  0.27262645700E+03  0.25500000920E-02 0. -1.
        2   -1    0    0  501    0  0.00000000000E+00  0.00000000000E+00 -0.15442969873E+04  0.15442969873E+04  0.25500000920E-02 0.  1.
    10030    2    1    2    0    0  0.00000000000E+00  0.00000000000E+00 -0.12716705303E+04  0.18169234443E+04  0.12977152479E+04 0.  0.
        2    1    3    3  502    0  0.19566390991E+03 -0.46664116251E+03 -0.12045180418E+04  0.13064846165E+04  0.25500000920E-02 0.  1.
       -2    1    3    3    0  502 -0.19566390991E+03  0.46664116251E+03 -0.67152488527E+02  0.51043882778E+03  0.25500000920E-02 0. -1.
</event>
<event>
 5   0  0.6006119E-04  0.1306772E+04  0.7818609E-02  0.9024212E-01
       -1   -1    0    0    0  501  0.00000000000E+00  0.00000000000E+00  0.79650635968E+03  0.79650635970E+03  0.50400001928E-02 0. -1.
        1   -1    0    0  501    0  0.00000000000E+00  0.00000000000E+00 -0.53598203877E+03  0.53598203880E+03  0.50400001928E-02 0.  1.
    10030    2    1    2    0    0  0.00000000000E+00  0.00000000000E+00  0.26052432091E+03  0.13324883985E+04  0.13067717514E+04 0.  0.
        4    1    3    3  502    0  0.28950783018E+03  0.50825278499E+01  0.72751142428E+03  0.78301666725E+03  0.12699999809E+01 0. -1.
       -4    1    3    3    0  502 -0.28950783018E+03 -0.50825278499E+01 -0.46698710337E+03  0.54947173125E+03  0.12699999809E+01 0.  1.
</event>
<event>
 5   0  0.1101619E-03  0.1306495E+04  0.7818609E-02  0.9024431E-01
        2   -1    0    0  501    0  0.00000000000E+00  0.00000000000E+00  0.11334381833E+04  0.11334381833E+04  0.25500000920E-02 0.  1.
       -2   -1    0    0    0  501  0.00000000000E+00  0.00000000000E+00 -0.37649345263E+03  0.37649345264E+03  0.25500000920E-02 0. -1.
    10030    2    1    2    0    0  0.00000000000E+00  0.00000000000E+00  0.75694473071E+03  0.15099316360E+04  0.13064946307E+04 0.  0.
        1    1    3    3  502    0 -0.48269209051E+03  0.36725606386E+03  0.65886865932E+03  0.89553145167E+03  0.50400001928E-02 0.  1.
       -1    1    3    3    0  502  0.48269209051E+03 -0.36725606386E+03  0.98076071392E+02  0.61440018432E+03  0.50400001928E-02 0. -1.
</event>
<event>
 5   0  0.5563545E-04  0.1297342E+04  0.7818609E-02  0.9031675E-01
        1   -1    0    0  501    0  0.00000000000E+00  0.00000000000E+00  0.16640308491E+04  0.16640308491E+04  0.50400001928E-02 0. -1.
       -1   -1    0    0    0  501  0.00000000000E+00  0.00000000000E+00 -0.25286442364E+03  0.25286442369E+03  0.50400001928E-02 0.  1.
    10030    2    1    2    0    0  0.00000000000E+00  0.00000000000E+00  0.14111664254E+04  0.19168952728E+04  0.12973422087E+04 0.  0.
        2    1    3    3  502    0  0.22570995396E+03  0.39474396847E+03  0.13891126722E+04  0.14616435270E+04  0.25500000920E-02 0. -1.
       -2    1    3    3    0  502 -0.22570995396E+03 -0.39474396847E+03  0.22053753200E+02  0.45525174574E+03  0.25500000920E-02 0.  1.
</event>
<event>
 5   0  0.6006119E-04  0.1303598E+04  0.7818609E-02  0.9026716E-01
       -1   -1    0    0    0  501  0.00000000000E+00  0.00000000000E+00  0.77239167904E+03  0.77239167906E+03  0.50400001928E-02 0. -1.
        1   -1    0    0  501    0  0.00000000000E+00  0.00000000000E+00 -0.55003465533E+03  0.55003465536E+03  0.50400001928E-02 0.  1.
    10030    2    1    2    0    0  0.00000000000E+00  0.00000000000E+00  0.22235702371E+03  0.13224263344E+04  0.13035983906E+04 0.  0.
        4    1    3    3  502    0  0.48162076543E+03  0.81257438323E+02 -0.32665591603E+03  0.58759427614E+03  0.12699999809E+01 0. -1.
       -4    1    3    3    0  502 -0.48162076543E+03 -0.81257438323E+02  0.54901293974E+03  0.73483205828E+03  0.12699999809E+01 0.  1.
</event>
<event>
 5   0  0.1046253E-03  0.1306520E+04  0.7818609E-02  0.9024411E-01
       -2   -1    0    0    0  501  0.00000000000E+00  0.00000000000E+00  0.37855949627E+03  0.37855949628E+03  0.25500000920E-02 0. -1.
        2   -1    0    0  501    0  0.00000000000E+00  0.00000000000E+00 -0.11272956521E+04  0.11272956521E+04  0.25500000920E-02 0.  1.
    10030    2    1    2    0    0  0.00000000000E+00  0.00000000000E+00 -0.74873615579E+03  0.15058551483E+04  0.13065197652E+04 0.  0.
        3    1    3    3  502    0  0.31000258228E+03 -0.57224780553E+03 -0.43935617057E+03  0.78524073173E+03  0.10100000352E+00 0.  1.
       -3    1    3    3    0  502 -0.31000258228E+03  0.57224780553E+03 -0.30937998522E+03  0.72061441660E+03  0.10100000352E+00 0. -1.
</event>
<event>
 5   0  0.5766027E-04  0.1295681E+04  0.7818609E-02  0.9032997E-01
        1   -1    0    0  501    0  0.00000000000E+00  0.00000000000E+00  0.13613927001E+04  0.13613927001E+04  0.50400001928E-02 0. -1.
       -1   -1    0    0    0  501  0.00000000000E+00  0.00000000000E+00 -0.30828544765E+03  0.30828544769E+03  0.50400001928E-02 0.  1.
    10030    2    1    2    0    0  0.00000000000E+00  0.00000000000E+00  0.10531072524E+04  0.16696781478E+04  0.12956813775E+04 0.  0.
        3    1    3    3  502    0  0.54862906652E+03  0.13009792232E+03  0.11543989314E+03  0.57553948705E+03  0.10100000352E+00 0. -1.
       -3    1    3    3    0  502 -0.54862906652E+03 -0.13009792232E+03  0.93766735928E+03  0.10941386607E+04  0.10100000352E+00 0.  1.
</event>
<event>
 5   0  0.1031295E-03  0.1210768E+04  0.7818609E-02  0.9103483E-01
        2   -1    0    0  501    0  0.00000000000E+00  0.00000000000E+00  0.15351632528E+04  0.15351632528E+04  0.25500000920E-02 0.  1.
       -2   -1    0    0    0  501  0.00000000000E+00  0.00000000000E+00 -0.23873005945E+03  0.23873005947E+03  0.25500000920E-02 0. -1.
    10030    2    1    2    0    0  0.00000000000E+00  0.00000000000E+00  0.12964331934E+04  0.17738933123E+04  0.12107677145E+04 0.  0.
        2    1    3    3  502    0  0.40680941873E+03 -0.43654309563E+03  0.49861985575E+03  0.77761528925E+03  0.25500000920E-02 0. -1.
       -2    1    3    3    0  502 -0.40680941873E+03  0.43654309563E+03  0.79781333763E+03  0.99627802305E+03  0.25500000920E-02 0.  1.
</event>
<event>
 5   0  0.1046253E-03  0.1295736E+04  0.7818609E-02  0.9032954E-01
       -2   -1    0    0    0  501  0.00000000000E+00  0.00000000000E+00  0.69578594862E+03  0.69578594863E+03  0.25500000920E-02 0.  1.
        2   -1    0    0  501    0  0.00000000000E+00  0.00000000000E+00 -0.60324987924E+03  0.60324987924E+03  0.25500000920E-02 0. -1.
    10030    2    1    2    0    0  0.00000000000E+00  0.00000000000E+00  0.92536069385E+02  0.12990358279E+04  0.12957357593E+04 0.  0.
        3    1    3    3  502    0 -0.57019282772E+03 -0.26273293828E+02 -0.26098049493E+03  0.62763124180E+03  0.10100000352E+00 0. -1.
       -3    1    3    3    0  502  0.57019282772E+03  0.26273293828E+02  0.35351656432E+03  0.67140458607E+03  0.10100000352E+00 0.  1.
</event>
<event>
 5   0  0.1031295E-03  0.1295997E+04  0.7818609E-02  0.9032746E-01
        2   -1    0    0  501    0  0.00000000000E+00  0.00000000000E+00  0.47354737619E+03  0.47354737620E+03  0.25500000920E-02 0. -1.
       -2   -1    0    0    0  501  0.00000000000E+00  0.00000000000E+00 -0.88671612488E+03  0.88671612488E+03  0.25500000920E-02 0.  1.
    10030    2    1    2    0    0  0.00000000000E+00  0.00000000000E+00 -0.41316874868E+03  0.13602635011E+04  0.12959970592E+04 0.  0.
        2    1    3    3  502    0  0.16935061323E+03 -0.27265368832E+03 -0.79742195240E+03  0.85959376111E+03  0.25500000920E-02 0.  1.
       -2    1    3    3    0  502 -0.16935061323E+03  0.27265368832E+03  0.38425320372E+03  0.50066973998E+03  0.25500000920E-02 0. -1.
</event>
<event>
 5   0  0.1031295E-03  0.1314289E+04  0.7818609E-02  0.9018310E-01
       -2   -1    0    0    0  501  0.00000000000E+00  0.00000000000E+00  0.38176623793E+03  0.38176623794E+03  0.25500000920E-02 0.  1.
        2   -1    0    0  501    0  0.00000000000E+00  0.00000000000E+00 -0.11311612890E+04  0.11311612890E+04  0.25500000920E-02 0. -1.
    10030    2    1    2    0    0  0.00000000000E+00  0.00000000000E+00 -0.74939505103E+03  0.15129275269E+04  0.13142894503E+04 0.  0.
        2    1    3    3  502    0  0.60590876094E+03 -0.19367100361E+03 -0.56456645725E+03  0.85051112214E+03  0.25500000920E-02 0.  1.
       -2    1    3    3    0  502 -0.60590876094E+03  0.19367100361E+03 -0.18482859378E+03  0.66241640477E+03  0.25500000920E-02 0. -1.
</event>
<event>
 5   0  0.5812938E-04  0.1297564E+04  0.7818609E-02  0.9031499E-01
        1   -1    0    0  501    0  0.00000000000E+00  0.00000000000E+00  0.11298894649E+04  0.11298894649E+04  0.50400001928E-02 0. -1.
       -1   -1    0    0    0  501  0.00000000000E+00  0.00000000000E+00 -0.37253024018E+03  0.37253024021E+03  0.50400001928E-02 0.  1.
    10030    2    1    2    0    0  0.00000000000E+00  0.00000000000E+00  0.75735922470E+03  0.15024197051E+04  0.12975638616E+04 0.  0.
        5    1    3    3  502    0 -0.64007802899E+03 -0.81952282607E+02  0.45617823284E+03  0.79027636301E+03  0.46999998093E+01 0. -1.
       -5    1    3    3    0  502  0.64007802899E+03  0.81952282607E+02  0.30118099187E+03  0.71214334209E+03  0.46999998093E+01 0.  1.
</event>
<event>
 5   0  0.6006119E-04  0.1292779E+04  0.7818609E-02  0.9035311E-01
       -1   -1    0    0    0  501  0.00000000000E+00  0.00000000000E+00  0.36916799823E+03  0.36916799826E+03  0.50400001928E-02 0. -1.
        1   -1    0    0  501    0  0.00000000000E+00  0.00000000000E+00 -0.11317859044E+04  0.11317859044E+04  0.50400001928E-02 0.  1.
    10030    2    1    2    0    0  0.00000000000E+00  0.00000000000E+00 -0.76261790616E+03  0.15009539027E+04  0.12927786149E+04 0.  0.
        4    1    3    3  502    0 -0.33467634962E+03  0.42192779052E+03  0.33726484610E+02  0.53960208308E+03  0.12699999809E+01 0. -1.
       -4    1    3    3    0  502  0.33467634962E+03 -0.42192779052E+03 -0.79634439077E+03  0.96135181958E+03  0.12699999809E+01 0.  1.
</event>
<event>
 5   0  0.1031295E-03  0.1275776E+04  0.7818609E-02  0.9048999E-01
        2   -1    0    0  501    0  0.00000000000E+00  0.00000000000E+00  0.83007337852E+03  0.83007337852E+03  0.25500000920E-02 0. -1.
       -2   -1    0    0    0  501  0.00000000000E+00  0.00000000000E+00 -0.49019899111E+03  0.49019899112E+03  0.25500000920E-02 0.  1.
    10030    2    1    2    0    0  0.00000000000E+00  0.00000000000E+00  0.33987438741E+03  0.13202723696E+04  0.12757760504E+04 0.  0.
        2    1    3    3  502    0  0.29791010588E+03 -0.32580852876E+03 -0.30655579210E+03  0.53747379683E+03  0.25500000920E-02 0.  1.
       -2    1    3    3    0  502 -0.29791010588E+03  0.32580852876E+03  0.64643017951E+03  0.78279857281E+03  0.25500000920E-02 0. -1.
</event>
<event>
 5   0  0.1031295E-03  0.1309370E+04  0.7818609E-02  0.9022168E-01
       -2   -1    0    0    0  501  0.00000000000E+00  0.00000000000E+00  0.37919315957E+03  0.37919315958E+03  0.25500000920E-02 0.  1.
        2   -1    0    0  501    0  0.00000000000E+00  0.00000000000E+00 -0.11303273258E+04  0.11303273258E+04  0.25500000920E-02 0. -1.
    10030    2    1    2    0    0  0.00000000000E+00  0.00000000000E+00 -0.75113416624E+03  0.15095204854E+04  0.13093699096E+04 0.  0.
        2    1    3    3  502    0 -0.52233616669E+03 -0.37124944054E+03 -0.22110458380E+03  0.67790003328E+03  0.25500000920E-02 0.  1.
       -2    1    3    3    0  502  0.52233616669E+03  0.37124944054E+03 -0.53002958244E+03  0.83162045213E+03  0.25500000920E-02 0. -1.
</event>
<event>
 5   0  0.4012375E-04  0.1349146E+04  0.7818609E-02  0.8991475E-01
       -3   -1    0    0    0  501  0.00000000000E+00  0.00000000000E+00  0.23647469017E+03  0.23647471174E+03  0.10100000352E+00 0. -1.
        3   -1    0    0  501    0  0.00000000000E+00  0.00000000000E+00 -0.19243006106E+04  0.19243006133E+04  0.10100000352E+00 0.  1.
    10030    2    1    2    0    0  0.00000000000E+00  0.00000000000E+00 -0.16878259205E+04  0.21607753250E+04  0.13491455323E+04 0.  0.
        4    1    3    3  502    0 -0.24090595665E+03 -0.71645854954E+02 -0.18465096149E+04  0.18635364711E+04  0.12699999809E+01 0.  1.
       -4    1    3    3    0  502  0.24090595665E+03  0.71645854954E+02  0.15868369442E+03  0.29723885388E+03  0.12699999809E+01 0. -1.
</event>
<event>
 5   0  0.1046253E-03  0.1211626E+04  0.7818609E-02  0.9102741E-01
       -2   -1    0    0    0  501  0.00000000000E+00  0.00000000000E+00  0.63885602626E+03  0.63885602626E+03  0.25500000920E-02 0.  1.
        2   -1    0    0  501    0  0.00000000000E+00  0.00000000000E+00 -0.57447924936E+03  0.57447924937E+03  0.25500000920E-02 0. -1.
    10030    2    1    2    0    0  0.00000000000E+00  0.00000000000E+00  0.64376776896E+02  0.12133352756E+04  0.12116262302E+04 0.  0.
        3    1    3    3  502    0  0.44318648264E+03 -0.16542533009E+03  0.41117924458E+03  0.62677602029E+03  0.10100000352E+00 0.  1.
       -3    1    3    3    0  502 -0.44318648264E+03  0.16542533009E+03 -0.34680246769E+03  0.58655925534E+03  0.10100000352E+00 0. -1.
</event>
<event>
 5   0  0.5563545E-04  0.1316437E+04  0.7818609E-02  0.9016631E-01
       -1   -1    0    0    0  501  0.00000000000E+00  0.00000000000E+00  0.68344364904E+03  0.68344364906E+03  0.50400001928E-02 0.  1.
        1   -1    0    0  501    0  0.00000000000E+00  0.00000000000E+00 -0.63392457102E+03  0.63392457104E+03  0.50400001928E-02 0. -1.
    10030    2    1    2    0    0  0.00000000000E+00  0.00000000000E+00  0.49519078022E+02  0.13173682201E+04  0.13164371949E+04 0.  0.
        2    1    3    3  502    0  0.17820882728E+03 -0.27187532948E+02  0.65825873076E+03  0.68249696315E+03  0.25500000920E-02 0.  1.
       -2    1    3    3    0  502 -0.17820882728E+03  0.27187532948E+02 -0.60873965274E+03  0.63487125695E+03  0.25500000920E-02 0. -1.
</event>
<event>
 5   0  0.5710383E-04  0.1300865E+04  0.7818609E-02  0.9028880E-01
        1   -1    0    0  501    0  0.00000000000E+00  0.00000000000E+00  0.19885031862E+04  0.19885031862E+04  0.50400001928E-02 0.  1.
       -1   -1    0    0    0  501  0.00000000000E+00  0.00000000000E+00 -0.21275409985E+03  0.21275409991E+03  0.50400001928E-02 0. -1.
    10030    2    1    2    0    0  0.00000000000E+00  0.00000000000E+00  0.17757490864E+04  0.22012572861E+04  0.13008646440E+04 0.  0.
        1    1    3    3  502    0  0.38097505898E+03 -0.26059885308E+03  0.16633303968E+04  0.17261870602E+04  0.50400001928E-02 0.  1.
       -1    1    3    3    0  502 -0.38097505898E+03  0.26059885308E+03  0.11241868957E+03  0.47507022594E+03  0.50400001928E-02 0. -1.
</event>
<event>
 5   0  0.1031295E-03  0.1279339E+04  0.7818609E-02  0.9046112E-01
       -2   -1    0    0    0  501  0.00000000000E+00  0.00000000000E+00  0.56235922040E+03  0.56235922041E+03  0.25500000920E-02 0. -1.
        2   -1    0    0  501    0  0.00000000000E+00  0.00000000000E+00 -0.72760767840E+03  0.72760767840E+03  0.25500000920E-02 0.  1.
    10030    2    1    2    0    0  0.00000000000E+00  0.00000000000E+00 -0.16524845799E+03  0.12899668988E+04  0.12793387148E+04 0.  0.
        2    1    3    3  502    0  0.43247558678E+03 -0.14600462208E+02 -0.55763082574E+03  0.70583315626E+03  0.25500000920E-02 0.  1.
       -2    1    3    3    0  502 -0.43247558678E+03  0.14600462208E+02  0.39238236775E+03  0.58413374255E+03  0.25500000920E-02 0. -1.
</event>
<event>
 5   0  0.1081574E-03  0.1302197E+04  0.7818609E-02  0.9027825E-01
       -2   -1    0    0    0  501  0.00000000000E+00  0.00000000000E+00  0.42352237980E+03  0.42352237981E+03  0.25500000920E-02 0.  1.
        2   -1    0    0  501    0  0.00000000000E+00  0.00000000000E+00 -0.10009602395E+04  0.10009602395E+04  0.25500000920E-02 0. -1.
    10030    2    1    2    0    0  0.00000000000E+00  0.00000000000E+00 -0.57743785970E+03  0.14244826193E+04  0.13021967021E+04 0.  0.
        5    1    3    3  502    0 -0.47080808622E+03 -0.40030621441E+03 -0.64530210176E+02  0.62136266171E+03  0.46999998093E+01 0.  1.
       -5    1    3    3    0  502  0.47080808622E+03  0.40030621441E+03 -0.51290764952E+03  0.80311995760E+03  0.46999998093E+01 0. -1.
</event>
<event>
 5   0  0.4012375E-04  0.1306827E+04  0.7818609E-02  0.9024169E-01
       -4   -1    0    0    0  501  0.00000000000E+00  0.00000000000E+00  0.11450029080E+04  0.11450036123E+04  0.12699999809E+01 0. -1.
        4   -1    0    0  501    0  0.00000000000E+00  0.00000000000E+00 -0.37287846244E+03  0.37288062520E+03  0.12699999809E+01 0.  1.
    10030    2    1    2    0    0  0.00000000000E+00  0.00000000000E+00  0.77212444556E+03  0.15178842375E+04  0.13068268436E+04 0.  0.
        5    1    3    3  502    0  0.57746210317E+03 -0.27634174250E+03  0.23417692205E+03  0.68168039437E+03  0.46999998093E+01 0. -1.
       -5    1    3    3    0  502 -0.57746210317E+03  0.27634174250E+03  0.53794752351E+03  0.83620384315E+03  0.46999998093E+01 0.  1.
</event>
<event>
 5   0  0.5812938E-04  0.1304522E+04  0.7818609E-02  0.9025987E-01
        1   -1    0    0  501    0  0.00000000000E+00  0.00000000000E+00  0.38895542102E+03  0.38895542105E+03  0.50400001928E-02 0.  1.
       -1   -1    0    0    0  501  0.00000000000E+00  0.00000000000E+00 -0.10938130241E+04  0.10938130241E+04  0.50400001928E-02 0. -1.
    10030    2    1    2    0    0  0.00000000000E+00  0.00000000000E+00 -0.70485760309E+03  0.14827684452E+04  0.13045221429E+04 0.  0.
        5    1    3    3  502    0  0.31236496452E+03 -0.47186551251E+03 -0.72108054849E+03  0.91662870366E+03  0.46999998093E+01 0. -1.
       -5    1    3    3    0  502 -0.31236496452E+03  0.47186551251E+03  0.16222945406E+02  0.56613974151E+03  0.46999998093E+01 0.  1.
</event>
<event>
 5   0  0.1103241E-03  0.1303809E+04  0.7818609E-02  0.9026550E-01
        2   -1    0    0  501    0  0.00000000000E+00  0.00000000000E+00  0.13729061897E+04  0.13729061897E+04  0.25500000920E-02 0. -1.
       -2   -1    0    0    0  501  0.00000000000E+00  0.00000000000E+00 -0.30954728145E+03  0.30954728146E+03  0.25500000920E-02 0.  1.
    10030    2    1    2    0    0  0.00000000000E+00  0.00000000000E+00  0.10633589083E+04  0.16824534712E+04  0.13038088491E+04 0.  0.
        4    1    3    3  502    0 -0.33677435932E+03  0.33887687567E+03  0.11040232696E+04  0.12029644628E+04  0.12699999809E+01 0. -1.
       -4    1    3    3    0  502  0.33677435932E+03 -0.33887687567E+03 -0.40664361383E+02  0.47948900837E+03  0.12699999809E+01 0.  1.
</event>
<event>
 5   0  0.5766027E-04  0.1300555E+04  0.7818609E-02  0.9029125E-01
       -1   -1    0    0    0  501  0.00000000000E+00  0.00000000000E+00  0.83000034340E+03  0.83000034341E+03  0.50400001928E-02 0. -1.
        1   -1    0    0  501    0  0.00000000000E+00  0.00000000000E+00 -0.50947081253E+03  0.50947081255E+03  0.50400001928E-02 0.  1.
    10030    2    1    2    0    0  0.00000000000E+00  0.00000000000E+00  0.32052953087E+03  0.13394711560E+04  0.13005551882E+04 0.  0.
        3    1    3    3  502    0 -0.49549141519E+02 -0.63268888584E+03  0.14209558204E+02  0.63478521205E+03  0.10100000352E+00 0. -1.
       -3    1    3    3    0  502  0.49549141519E+02  0.63268888584E+03  0.30631997267E+03  0.70468594391E+03  0.10100000352E+00 0.  1.
</event>
<event>
 5   0  0.5563545E-04  0.1296081E+04  0.7818609E-02  0.9032678E-01
        1   -1    0    0  501    0  0.00000000000E+00  0.00000000000E+00  0.11838700543E+04  0.11838700543E+04  0.50400001928E-02 0. -1.
       -1   -1    0    0    0  501  0.00000000000E+00  0.00000000000E+00 -0.35473212521E+03  0.35473212525E+03  0.50400001928E-02 0.  1.
    10030    2    1    2    0    0  0.00000000000E+00  0.00000000000E+00  0.82913792909E+03  0.15386021796E+04  0.12960813869E+04 0.  0.
        2    1    3    3  502    0 -0.56713966045E+03 -0.31279291798E+03  0.38883459099E+03  0.75543308317E+03  0.25500000920E-02 0. -1.
       -2    1    3    3    0  502  0.56713966045E+03  0.31279291798E+03  0.44030333811E+03  0.78316909639E+03  0.25500000920E-02 0.  1.
</event>
<event>
 5   0  0.1031295E-03  0.1274535E+04  0.7818609E-02  0.9050007E-01
        2   -1    0    0  501    0  0.00000000000E+00  0.00000000000E+00  0.88508556171E+03  0.88508556171E+03  0.25500000920E-02 0.  1.
       -2   -1    0    0    0  501  0.00000000000E+00  0.00000000000E+00 -0.45883654402E+03  0.45883654403E+03  0.25500000920E-02 0. -1.
    10030    2    1    2    0    0  0.00000000000E+00  0.00000000000E+00  0.42624901769E+03  0.13439221057E+04  0.12745345822E+04 0.  0.
        2    1    3    3  502    0  0.33575682040E+02  0.32642599058E+03  0.78915107069E+03  0.85465821597E+03  0.25500000920E-02 0.  1.
       -2    1    3    3    0  502 -0.33575682040E+02 -0.32642599058E+03 -0.36290205300E+03  0.48926388977E+03  0.25500000920E-02 0. -1.
</event>
<event>
 5   0  0.1081574E-03  0.1290567E+04  0.7818609E-02  0.9037079E-01
        2   -1    0    0  501    0  0.00000000000E+00  0.00000000000E+00  0.60326505627E+03  0.60326505628E+03  0.25500000920E-02 0. -1.
       -2   -1    0    0    0  501  0.00000000000E+00  0.00000000000E+00 -0.69022907604E+03  0.69022907605E+03  0.25500000920E-02 0.  1.
    10030    2    1    2    0    0  0.00000000000E+00  0.00000000000E+00 -0.86964019770E+02  0.12934941323E+04  0.12905674448E+04 0.  0.
        5    1    3    3  502    0 -0.50374223027E+03  0.38756203252E+03 -0.15512774918E+03  0.65425321717E+03  0.46999998093E+01 0.  1.
       -5    1    3    3    0  502  0.50374223027E+03 -0.38756203252E+03  0.68163729410E+02  0.63924091516E+03  0.46999998093E+01 0. -1.
</event>
<event>
 5   0  0.6006119E-04  0.1294622E+04  0.7818609E-02  0.9033841E-01
        1   -1    0    0  501    0  0.00000000000E+00  0.00000000000E+00  0.12763875944E+04  0.12763875944E+04  0.50400001928E-02 0.  1.
       -1   -1    0    0    0  501  0.00000000000E+00  0.00000000000E+00 -0.32827928007E+03  0.32827928011E+03  0.50400001928E-02 0. -1.
    10030    2    1    2    0    0  0.00000000000E+00  0.00000000000E+00  0.94810831432E+03  0.16046668745E+04  0.12946221080E+04 0.  0.
        4    1    3    3  502    0 -0.10030501115E+03 -0.62069638522E+03  0.28329844451E+03  0.68962650721E+03  0.12699999809E+01 0. -1.
       -4    1    3    3    0  502  0.10030501115E+03  0.62069638522E+03  0.66480986981E+03  0.91504036730E+03  0.12699999809E+01 0.  1.
</event>
<event>
 5   0  0.1081574E-03  0.1315659E+04  0.7818609E-02  0.9017239E-01
        2   -1    0    0  501    0  0.00000000000E+00  0.00000000000E+00  0.68520594397E+03  0.68520594397E+03  0.25500000920E-02 0.  1.
       -2   -1    0    0    0  501  0.00000000000E+00  0.00000000000E+00 -0.63154672005E+03  0.63154672006E+03  0.25500000920E-02 0. -1.
    10030    2    1    2    0    0  0.00000000000E+00  0.00000000000E+00  0.53659223918E+02  0.13167526640E+04  0.13156588714E+04 0.  0.
        5    1    3    3  502    0  0.12643370734E+03  0.49591421970E+03 -0.38679484928E+03  0.64152064743E+03  0.46999998093E+01 0. -1.
       -5    1    3    3    0  502 -0.12643370734E+03 -0.49591421970E+03  0.44045407320E+03  0.67523201660E+03  0.46999998093E+01 0.  1.
</event>
<event>
 5   0  0.5766027E-04  0.1302663E+04  0.7818609E-02  0.9027456E-01
       -1   -1    0    0    0  501  0.00000000000E+00  0.00000000000E+00  0.61777438944E+03  0.61777438946E+03  0.50400001928E-02 0.  1.
        1   -1    0    0  501    0  0.00000000000E+00  0.00000000000E+00 -0.68671115867E+03  0.68671115869E+03  0.50400001928E-02 0. -1.
    10030    2    1    2    0    0  0.00000000000E+00  0.00000000000E+00 -0.68936769235E+02  0.13044855481E+04  0.13026627603E+04 0.  0.
        3    1    3    3  502    0  0.14339875868E+03 -0.20370647883E+03  0.56818184060E+03  0.62039515448E+03  0.10100000352E+00 0.  1.
       -3    1    3    3    0  502 -0.14339875868E+03  0.20370647883E+03 -0.63711860984E+03  0.68409039367E+03  0.10100000352E+00 0. -1.
</event>
<event>
 5   0  0.1031295E-03  0.1250379E+04  0.7818609E-02  0.9069868E-01
        2   -1    0    0  501    0  0.00000000000E+00  0.00000000000E+00  0.19545339586E+03  0.19545339588E+03  0.25500000920E-02 0. -1.
       -2   -1    0    0    0  501  0.00000000000E+00  0.00000000000E+00 -0.19997699554E+04  0.19997699555E+04  0.25500000920E-02 0.  1.
    10030    2    1    2    0    0  0.00000000000E+00  0.00000000000E+00 -0.18043165596E+04  0.21952233513E+04  0.12503788686E+04 0.  0.
        2    1    3    3  502    0  0.16583464352E+03  0.46453616379E+03 -0.22773664269E+03  0.54328533469E+03  0.25500000920E-02 0. -1.
       -2    1    3    3    0  502 -0.16583464352E+03 -0.46453616379E+03 -0.15765799169E+04  0.16519380166E+04  0.25500000920E-02 0.  1.
</event>
<event>
 5   0  0.1046253E-03  0.1298853E+04  0.7818609E-02  0.9030475E-01
        2   -1    0    0  501    0  0.00000000000E+00  0.00000000000E+00  0.99189238552E+03  0.99189238553E+03  0.25500000920E-02 0.  1.
       -2   -1    0    0    0  501  0.00000000000E+00  0.00000000000E+00 -0.42520202715E+03  0.42520202715E+03  0.25500000920E-02 0. -1.
    10030    2    1    2    0    0  0.00000000000E+00  0.00000000000E+00  0.56669035838E+03  0.14170944127E+04  0.12988528062E+04 0.  0.
        3    1    3    3  502    0 -0.47291059658E+03  0.22410701822E+03 -0.13622320386E+03  0.54076349678E+03  0.10100000352E+00 0. -1.
       -3    1    3    3    0  502  0.47291059658E+03 -0.22410701822E+03  0.70291356224E+03  0.87633091590E+03  0.10100000352E+00 0.  1.
</event>
<event>
 5   0  0.1101619E-03  0.1305413E+04  0.7818609E-02  0.9025284E-01
       -2   -1    0    0    0  501  0.00000000000E+00  0.00000000000E+00  0.45405971831E+03  0.45405971831E+03  0.25500000920E-02 0.  1.
        2   -1    0    0  501    0  0.00000000000E+00  0.00000000000E+00 -0.93825917386E+03  0.93825917386E+03  0.25500000920E-02 0. -1.
    10030    2    1    2    0    0  0.00000000000E+00  0.00000000000E+00 -0.48419945555E+03  0.13923188922E+04  0.13054128790E+04 0.  0.
        1    1    3    3  502    0 -0.10242456828E+03 -0.39285083083E+03 -0.78720453280E+03  0.88572769176E+03  0.50400001928E-02 0. -1.
       -1    1    3    3    0  502  0.10242456828E+03  0.39285083083E+03  0.30300507725E+03  0.50659120041E+03  0.50400001928E-02 0.  1.
</event>
<event>
 5   0  0.5710383E-04  0.1293510E+04  0.7818609E-02  0.9034727E-01
        1   -1    0    0  501    0  0.00000000000E+00  0.00000000000E+00  0.65828897417E+03  0.65828897419E+03  0.50400001928E-02 0. -1.
       -1   -1    0    0    0  501  0.00000000000E+00  0.00000000000E+00 -0.63542355870E+03  0.63542355872E+03  0.50400001928E-02 0.  1.
    10030    2    1    2    0    0  0.00000000000E+00  0.00000000000E+00  0.22865415476E+02  0.12937125329E+04  0.12935104524E+04 0.  0.
        1    1    3    3  502    0 -0.15390340482E+03 -0.46581878827E+03 -0.41008173205E+03  0.63940630941E+03  0.50400001928E-02 0.  1.
       -1    1    3    3    0  502  0.15390340482E+03  0.46581878827E+03  0.43294714753E+03  0.65430622349E+03  0.50400001928E-02 0. -1.
</event>
<event>
 5   0  0.1046253E-03  0.1298283E+04  0.7818609E-02  0.9030928E-01
        2   -1    0    0  501    0  0.00000000000E+00  0.00000000000E+00  0.94277626737E+03  0.94277626737E+03  0.25500000920E-02 0. -1.
       -2   -1    0    0    0  501  0.00000000000E+00  0.00000000000E+00 -0.44696128918E+03  0.44696128919E+03  0.25500000920E-02 0.  1.
    10030    2    1    2    0    0  0.00000000000E+00  0.00000000000E+00  0.49581497818E+03  0.13897375566E+04  0.12982827055E+04 0.  0.
        3    1    3    3  502    0 -0.50315108275E+03 -0.37765707702E+03  0.76641282579E+02  0.63376634204E+03  0.10100000352E+00 0. -1.
       -3    1    3    3    0  502  0.50315108275E+03  0.37765707702E+03  0.41917369560E+03  0.75597121452E+03  0.10100000352E+00 0.  1.
</event>
<event>
 5   0  0.6006119E-04  0.1227541E+04  0.7818609E-02  0.9089086E-01
        1   -1    0    0  501    0  0.00000000000E+00  0.00000000000E+00  0.85970719959E+03  0.85970719960E+03  0.50400001928E-02 0. -1.
       -1   -1    0    0    0  501  0.00000000000E+00  0.00000000000E+00 -0.43818882197E+03  0.43818882200E+03  0.50400001928E-02 0.  1.
    10030    2    1    2    0    0  0.00000000000E+00  0.00000000000E+00  0.42151837762E+03  0.12978960216E+04  0.12275407693E+04 0.  0.
        4    1    3    3  502    0  0.19787834688E+03  0.50530860540E+03 -0.92415055665E+02  0.55048595102E+03  0.12699999809E+01 0. -1.
       -4    1    3    3    0  502 -0.19787834688E+03 -0.50530860540E+03  0.51393343328E+03  0.74741007058E+03  0.12699999809E+01 0.  1.
</event>
<event>
 5   0  0.1081574E-03  0.1297589E+04  0.7818609E-02  0.9031479E-01
        2   -1    0    0  501    0  0.00000000000E+00  0.00000000000E+00  0.99607763164E+03  0.99607763164E+03  0.25500000920E-02 0. -1.
       -2   -1    0    0    0  501  0.00000000000E+00  0.00000000000E+00 -0.42259172980E+03  0.42259172981E+03  0.25500000920E-02 0.  1.
    10030    2    1    2    0    0  0.00000000000E+00  0.00000000000E+00  0.57348590184E+03  0.14186693614E+04  0.12975887937E+04 0.  0.
        5    1    3    3  502    0 -0.34575129056E+03  0.29879916780E+03  0.79024508301E+03  0.91287144704E+03  0.46999998093E+01 0. -1.
       -5    1    3    3    0  502  0.34575129056E+03 -0.29879916780E+03 -0.21675918117E+03  0.50579791441E+03  0.46999998093E+01 0.  1.
</event>
<event>
 5   0  0.6006119E-04  0.1296780E+04  0.7818609E-02  0.9032122E-01
        1   -1    0    0  501    0  0.00000000000E+00  0.00000000000E+00  0.69858671049E+03  0.69858671051E+03  0.50400001928E-02 0.  1.
       -1   -1    0    0    0  501  0.00000000000E+00  0.00000000000E+00 -0.60180029444E+03  0.60180029446E+03  0.50400001928E-02 0. -1.
    10030    2    1    2    0    0  0.00000000000E+00  0.00000000000E+00  0.96786416051E+02  0.13003870050E+04  0.12967801480E+04 0.  0.
        4    1    3    3  502    0 -0.36538079494E+03  0.63693258877E+02  0.58170712225E+03  0.68988748758E+03  0.12699999809E+01 0.  1.
       -4    1    3    3    0  502  0.36538079494E+03 -0.63693258877E+02 -0.48492070620E+03  0.61049951740E+03  0.12699999809E+01 0. -1.
</event>
<event>
 5   0  0.5766027E-04  0.1310474E+04  0.7818609E-02  0.9021300E-01
       -1   -1    0    0    0  501  0.00000000000E+00  0.00000000000E+00  0.34973122478E+03  0.34973122482E+03  0.50400001928E-02 0.  1.
        1   -1    0    0  501    0  0.00000000000E+00  0.00000000000E+00 -0.12276154069E+04  0.12276154069E+04  0.50400001928E-02 0. -1.
    10030    2    1    2    0    0  0.00000000000E+00  0.00000000000E+00 -0.87788418215E+03  0.15773466318E+04  0.13104738683E+04 0.  0.
        3    1    3    3  502    0 -0.29141725209E+03  0.22543538966E+03  0.21324114114E+03  0.42569581183E+03  0.10100000352E+00 0.  1.
       -3    1    3    3    0  502  0.29141725209E+03 -0.22543538966E+03 -0.10911253233E+04  0.11516508199E+04  0.10100000352E+00 0. -1.
</event>
<event>
 5   0  0.1101619E-03  0.1295231E+04  0.7818609E-02  0.9033355E-01
        2   -1    0    0  501    0  0.00000000000E+00  0.00000000000E+00  0.14816012672E+04  0.14816012672E+04  0.25500000920E-02 0. -1.
       -2   -1    0    0    0  501  0.00000000000E+00  0.00000000000E+00 -0.28307619183E+03  0.28307619184E+03  0.25500000920E-02 0.  1.
    10030    2    1    2    0    0  0.00000000000E+00  0.00000000000E+00  0.11985250753E+04  0.17646774590E+04  0.12952313222E+04 0.  0.
        1    1    3    3  502    0  0.33345092624E+03 -0.31846247143E+03 -0.20308851680E+02  0.46154123911E+03  0.50400001928E-02 0.  1.
       -1    1    3    3    0  502 -0.33345092624E+03  0.31846247143E+03  0.12188339270E+04  0.13031362199E+04  0.50400001928E-02 0. -1.
</event>
<event>
 5   0  0.1103241E-03  0.1137113E+04  0.7818609E-02  0.9169755E-01
       -2   -1    0    0    0  501  0.00000000000E+00  0.00000000000E+00  0.24420073752E+03  0.24420073753E+03  0.25500000920E-02 0. -1.
        2   -1    0    0  501    0  0.00000000000E+00  0.00000000000E+00 -0.13237331858E+04  0.13237331858E+04  0.25500000920E-02 0.  1.
    10030    2    1    2    0    0  0.00000000000E+00  0.00000000000E+00 -0.10795324483E+04  0.15679339234E+04  0.11371132226E+04 0.  0.
        4    1    3    3  502    0  0.19892309728E+03  0.25112622142E+02 -0.12733651187E+04  0.12890544522E+04  0.12699999809E+01 0.  1.
       -4    1    3    3    0  502 -0.19892309728E+03 -0.25112622142E+02  0.19383267036E+03  0.27887947114E+03  0.12699999809E+01 0. -1.
</event>
<event>
 5   0  0.1046253E-03  0.1288811E+04  0.7818609E-02  0.9038485E-01
        2   -1    0    0  501    0  0.00000000000E+00  0.00000000000E+00  0.46670579753E+03  0.46670579754E+03  0.25500000920E-02 0.  1.
       -2   -1    0    0    0  501  0.00000000000E+00  0.00000000000E+00 -0.88976513147E+03  0.88976513147E+03  0.25500000920E-02 0. -1.
    10030    2    1    2    0    0  0.00000000000E+00  0.00000000000E+00 -0.42305933394E+03  0.13564709290E+04  0.12888111503E+04 0.  0.
        3    1    3    3  502    0 -0.26822847526E+03 -0.47694851791E+03  0.14667870332E+03  0.56651659807E+03  0.10100000352E+00 0.  1.
       -3    1    3    3    0  502  0.26822847526E+03  0.47694851791E+03 -0.56973803725E+03  0.78995433094E+03  0.10100000352E+00 0. -1.
</event>
<event>
 5   0  0.5563545E-04  0.1292399E+04  0.7818609E-02  0.9035615E-01
        1   -1    0    0  501    0  0.00000000000E+00  0.00000000000E+00  0.32206251010E+04  0.32206251010E+04  0.50400001928E-02 0.  1.
       -1   -1    0    0    0  501  0.00000000000E+00  0.00000000000E+00 -0.12965609623E+03  0.12965609633E+03  0.50400001928E-02 0. -1.
    10030    2    1    2    0    0  0.00000000000E+00  0.00000000000E+00  0.30909690048E+04  0.33502811974E+04  0.12923988211E+04 0.  0.
        2    1    3    3  502    0  0.28900389001E+03 -0.56714239046E+03  0.18341497322E+04  0.19414631029E+04  0.25500000920E-02 0.  1.
       -2    1    3    3    0  502 -0.28900389001E+03  0.56714239046E+03  0.12568192726E+04  0.14088180945E+04  0.25500000920E-02 0. -1.
</event>
<event>
 5   0  0.5563545E-04  0.1447049E+04  0.7818609E-02  0.8920449E-01
        1   -1    0    0  501    0  0.00000000000E+00  0.00000000000E+00  0.19240794821E+04  0.19240794821E+04  0.50400001928E-02 0.  1.
       -1   -1    0    0    0  501  0.00000000000E+00  0.00000000000E+00 -0.27207173373E+03  0.27207173378E+03  0.50400001928E-02 0. -1.
    10030    2    1    2    0    0  0.00000000000E+00  0.00000000000E+00  0.16520077484E+04  0.21961512159E+04  0.14470489150E+04 0.  0.
        2    1    3    3  502    0 -0.48183135254E+03  0.50122952336E+03  0.52210788599E+03  0.86947635505E+03  0.25500000920E-02 0.  1.
       -2    1    3    3    0  502  0.48183135254E+03 -0.50122952336E+03  0.11298998624E+04  0.13266748608E+04  0.25500000920E-02 0. -1.
</event>
<event>
 5   0  0.1081574E-03  0.1300380E+04  0.7818609E-02  0.9029264E-01
        2   -1    0    0  501    0  0.00000000000E+00  0.00000000000E+00  0.73750315245E+03  0.73750315245E+03  0.25500000920E-02 0. -1.
       -2   -1    0    0    0  501  0.00000000000E+00  0.00000000000E+00 -0.57321387100E+03  0.57321387101E+03  0.25500000920E-02 0.  1.
    10030    2    1    2    0    0  0.00000000000E+00  0.00000000000E+00  0.16428928145E+03  0.13107170235E+04  0.13003800012E+04 0.  0.
        5    1    3    3  502    0 -0.13977933691E+03  0.63103968759E+03  0.15324327162E+03  0.66427023163E+03  0.46999998093E+01 0.  1.
       -5    1    3    3    0  502  0.13977933691E+03 -0.63103968759E+03  0.11046009827E+02  0.64644679183E+03  0.46999998093E+01 0. -1.
</event>
<event>
 5   0  0.5710383E-04  0.1289417E+04  0.7818609E-02  0.9038000E-01
        1   -1    0    0  501    0  0.00000000000E+00  0.00000000000E+00  0.33489466745E+03  0.33489466749E+03  0.50400001928E-02 0. -1.
       -1   -1    0    0    0  501  0.00000000000E+00  0.00000000000E+00 -0.12411344810E+04  0.12411344810E+04  0.50400001928E-02 0.  1.
    10030    2    1    2    0    0  0.00000000000E+00  0.00000000000E+00 -0.90623981358E+03  0.15760291485E+04  0.12894174178E+04 0.  0.
        1    1    3    3  502    0 -0.29891313206E+03  0.47706365773E+03 -0.69101143716E+02  0.56719816831E+03  0.50400001928E-02 0. -1.
       -1    1    3    3    0  502  0.29891313206E+03 -0.47706365773E+03 -0.83713866986E+03  0.10088309802E+04  0.50400001928E-02 0.  1.
</event>
<event>
 5   0  0.1046253E-03  0.1301204E+04  0.7818609E-02  0.9028611E-01
        2   -1    0    0  501    0  0.00000000000E+00  0.00000000000E+00  0.75607279839E+03  0.75607279839E+03  0.25500000920E-02 0.  1.
       -2   -1    0    0    0  501  0.00000000000E+00  0.00000000000E+00 -0.55984381281E+03  0.55984381282E+03  0.25500000920E-02 0. -1.
    10030    2    1    2    0    0  0.00000000000E+00  0.00000000000E+00  0.19622898558E+03  0.13159166112E+04  0.13012035632E+04 0.  0.
        3    1    3    3  502    0 -0.41621543119E+03 -0.39040163826E+03 -0.21788293050E+03  0.61083688979E+03  0.10100000352E+00 0. -1.
       -3    1    3    3    0  502  0.41621543119E+03  0.39040163826E+03  0.41411191607E+03  0.70507972142E+03  0.10100000352E+00 0.  1.
</event>
<event>
 5   0  0.5563545E-04  0.1296679E+04  0.7818609E-02  0.9032203E-01
       -1   -1    0    0    0  501  0.00000000000E+00  0.00000000000E+00  0.33956948937E+03  0.33956948941E+03  0.50400001928E-02 0.  1.
        1   -1    0    0  501    0  0.00000000000E+00  0.00000000000E+00 -0.12378728235E+04  0.12378728235E+04  0.50400001928E-02 0. -1.
    10030    2    1    2    0    0  0.00000000000E+00  0.00000000000E+00 -0.89830333408E+03  0.15774423129E+04  0.12966785918E+04 0.  0.
        2    1    3    3  502    0  0.49330171329E+03  0.20587481910E+03 -0.89549017607E+03  0.10428967719E+04  0.25500000920E-02 0. -1.
       -2    1    3    3    0  502 -0.49330171329E+03 -0.20587481910E+03 -0.28131580095E+01  0.53454554094E+03  0.25500000920E-02 0.  1.
</event>
<event>
 5   0  0.6006119E-04  0.1298203E+04  0.7818609E-02  0.9030992E-01
       -1   -1    0    0    0  501  0.00000000000E+00  0.00000000000E+00  0.24933510540E+03  0.24933510545E+03  0.50400001928E-02 0. -1.
        1   -1    0    0  501    0  0.00000000000E+00  0.00000000000E+00 -0.16898245745E+04  0.16898245745E+04  0.50400001928E-02 0.  1.
    10030    2    1    2    0    0  0.00000000000E+00  0.00000000000E+00 -0.14404894691E+04  0.19391596800E+04  0.12982027399E+04 0.  0.
        4    1    3    3  502    0 -0.37274505278E+03 -0.38319127767E+03 -0.17028448779E+03  0.56104620963E+03  0.12699999809E+01 0. -1.
       -4    1    3    3    0  502  0.37274505278E+03  0.38319127767E+03 -0.12702049814E+04  0.13781134704E+04  0.12699999809E+01 0.  1.
</event>
<event>
 5   0  0.5812938E-04  0.1303381E+04  0.7818609E-02  0.9026888E-01
        1   -1    0    0  501    0  0.00000000000E+00  0.00000000000E+00  0.33515205119E+03  0.33515205123E+03  0.50400001928E-02 0. -1.
       -1   -1    0    0    0  501  0.00000000000E+00  0.00000000000E+00 -0.12671884994E+04  0.12671884994E+04  0.50400001928E-02 0.  1.
    10030    2    1    2    0    0  0.00000000000E+00  0.00000000000E+00 -0.93203644816E+03  0.16023405506E+04  0.13033814865E+04 0.  0.
        5    1    3    3  502    0 -0.31489517629E+02 -0.29842187084E+03 -0.11771772176E+04  0.12148314674E+04  0.46999998093E+01 0.  1.
       -5    1    3    3    0  502  0.31489517629E+02  0.29842187084E+03  0.24514076940E+03  0.38750908316E+03  0.46999998093E+01 0. -1.
</event>
<event>
 5   0  0.1103241E-03  0.1309277E+04  0.7818609E-02  0.9022241E-01
       -2   -1    0    0    0  501  0.00000000000E+00  0.00000000000E+00  0.61737326265E+03  0.61737326266E+03  0.25500000920E-02 0.  1.
        2   -1    0    0  501    0  0.00000000000E+00  0.00000000000E+00 -0.69415273234E+03  0.69415273235E+03  0.25500000920E-02 0. -1.
    10030    2    1    2    0    0  0.00000000000E+00  0.00000000000E+00 -0.76779469689E+02  0.13115259950E+04  0.13092766509E+04 0.  0.
        4    1    3    3  502    0  0.59403160307E+03 -0.21351619616E+03 -0.21214381645E+03  0.66593492417E+03  0.12699999809E+01 0. -1.
       -4    1    3    3    0  502 -0.59403160307E+03  0.21351619616E+03  0.13536434676E+03  0.64559107084E+03  0.12699999809E+01 0.  1.
</event>
<event>
 5   0  0.5812938E-04  0.1303632E+04  0.7818609E-02  0.9026690E-01
        1   -1    0    0  501    0  0.00000000000E+00  0.00000000000E+00  0.40098965985E+03  0.40098965988E+03  0.50400001928E-02 0.  1.
       -1   -1    0    0    0  501  0.00000000000E+00  0.00000000000E+00 -0.10595383150E+04  0.10595383150E+04  0.50400001928E-02 0. -1.
    10030    2    1    2    0    0  0.00000000000E+00  0.00000000000E+00 -0.65854865515E+03  0.14605279749E+04  0.13036317096E+04 0.  0.
        5    1    3    3  502    0  0.71782204345E+02  0.47366664895E+03  0.16587748279E+03  0.50700119180E+03  0.46999998093E+01 0.  1.
       -5    1    3    3    0  502 -0.71782204345E+02 -0.47366664895E+03 -0.82442613794E+03  0.95352678310E+03  0.46999998093E+01 0. -1.
</event>
<event>
 5   0  0.1031295E-03  0.1298909E+04  0.7818609E-02  0.9030430E-01
       -2   -1    0    0    0  501  0.00000000000E+00  0.00000000000E+00  0.60121935686E+03  0.60121935686E+03  0.25500000920E-02 0.  1.
        2   -1    0    0  501    0  0.00000000000E+00  0.00000000000E+00 -0.70155988312E+03  0.70155988313E+03  0.25500000920E-02 0. -1.
    10030    2    1    2    0    0  0.00000000000E+00  0.00000000000E+00 -0.10034052627E+03  0.13027792400E+04  0.12989093606E+04 0.  0.
        2    1    3    3  502    0  0.69058267908E+02  0.64577171011E+03 -0.49055293580E+02  0.65130374464E+03  0.25500000920E-02 0.  1.
       -2    1    3    3    0  502 -0.69058267908E+02 -0.64577171011E+03 -0.51285232687E+02  0.65147549535E+03  0.25500000920E-02 0. -1.
</event>
<event>
 5   0  0.5563545E-04  0.1280143E+04  0.7818609E-02  0.9045462E-01
       -1   -1    0    0    0  501  0.00000000000E+00  0.00000000000E+00  0.60530731306E+03  0.60530731308E+03  0.50400001928E-02 0.  1.
        1   -1    0    0  501    0  0.00000000000E+00  0.00000000000E+00 -0.67683258111E+03  0.67683258113E+03  0.50400001928E-02 0. -1.
    10030    2    1    2    0    0  0.00000000000E+00  0.00000000000E+00 -0.71525268056E+02  0.12821398942E+04  0.12801432906E+04 0.  0.
        2    1    3    3  502    0 -0.24914852926E+03  0.17952669293E+03  0.52670643657E+03  0.60969213004E+03  0.25500000920E-02 0.  1.
       -2    1    3    3    0  502  0.24914852926E+03 -0.17952669293E+03 -0.59823170462E+03  0.67244776417E+03  0.25500000920E-02 0. -1.
</event>
<event>
 5   0  0.5710383E-04  0.1301168E+04  0.7818609E-02  0.9028639E-01
       -1   -1    0    0    0  501  0.00000000000E+00  0.00000000000E+00  0.12577881123E+04  0.12577881123E+04  0.50400001928E-02 0. -1.
        1   -1    0    0  501    0  0.00000000000E+00  0.00000000000E+00 -0.33651100519E+03  0.33651100522E+03  0.50400001928E-02 0.  1.
    10030    2    1    2    0    0  0.00000000000E+00  0.00000000000E+00  0.92127710711E+03  0.15942991175E+04  0.13011680015E+04 0.  0.
        1    1    3    3  502    0 -0.53860234236E+03 -0.27527780229E+03  0.16710923919E+03  0.62753155257E+03  0.50400001928E-02 0.  1.
       -1    1    3    3    0  502  0.53860234236E+03  0.27527780229E+03  0.75416786792E+03  0.96676756496E+03  0.50400001928E-02 0. -1.
</event>
<event>
 5   0  0.1031295E-03  0.1301022E+04  0.7818609E-02  0.9028755E-01
       -2   -1    0    0    0  501  0.00000000000E+00  0.00000000000E+00  0.23439498181E+03  0.23439498183E+03  0.25500000920E-02 0.  1.
        2   -1    0    0  501    0  0.00000000000E+00  0.00000000000E+00 -0.18053480043E+04  0.18053480043E+04  0.25500000920E-02 0. -1.
    10030    2    1    2    0    0  0.00000000000E+00  0.00000000000E+00 -0.15709530225E+04  0.20397429862E+04  0.13010219255E+04 0.  0.
        2    1    3    3  502    0  0.40364757834E+03 -0.44611660050E+03 -0.39758247310E+03  0.72112634930E+03  0.25500000920E-02 0. -1.
       -2    1    3    3    0  502 -0.40364757834E+03  0.44611660050E+03 -0.11733705494E+04  0.13186166369E+04  0.25500000920E-02 0.  1.
</event>
<event>
 5   0  0.1101619E-03  0.1308377E+04  0.7818609E-02  0.9022948E-01
       -2   -1    0    0    0  501  0.00000000000E+00  0.00000000000E+00  0.49937792137E+03  0.49937792138E+03  0.25500000920E-02 0. -1.
        2   -1    0    0  501    0  0.00000000000E+00  0.00000000000E+00 -0.85699169561E+03  0.85699169561E+03  0.25500000920E-02 0.  1.
    10030    2    1    2    0    0  0.00000000000E+00  0.00000000000E+00 -0.35761377423E+03  0.13563696170E+04  0.13083772110E+04 0.  0.
        1    1    3    3  502    0  0.41594641893E+03  0.58128106653E+02 -0.69877487319E+03  0.81527702263E+03  0.50400001928E-02 0.  1.
       -1    1    3    3    0  502 -0.41594641893E+03 -0.58128106653E+02  0.34116109896E+03  0.54109259436E+03  0.50400001928E-02 0. -1.
</event>
<event>
 5   0  0.5563545E-04  0.1308090E+04  0.7818609E-02  0.9023174E-01
       -1   -1    0    0    0  501  0.00000000000E+00  0.00000000000E+00  0.13017769138E+04  0.13017769139E+04  0.50400001928E-02 0. -1.
        1   -1    0    0  501    0  0.00000000000E+00  0.00000000000E+00 -0.32860863504E+03  0.32860863508E+03  0.50400001928E-02 0.  1.
    10030    2    1    2    0    0  0.00000000000E+00  0.00000000000E+00  0.97316827881E+03  0.16303855489E+04  0.13080904171E+04 0.  0.
        2    1    3    3  502    0  0.44632349730E+03  0.32129650474E+03  0.92784530923E+03  0.10785791700E+04  0.25500000920E-02 0. -1.
       -2    1    3    3    0  502 -0.44632349730E+03 -0.32129650474E+03  0.45322969580E+02  0.55180637889E+03  0.25500000920E-02 0.  1.
</event>
<event>
 5   0  0.5710383E-04  0.1302191E+04  0.7818609E-02  0.9027830E-01
       -1   -1    0    0    0  501  0.00000000000E+00  0.00000000000E+00  0.49763097494E+03  0.49763097497E+03  0.50400001928E-02 0. -1.
        1   -1    0    0  501    0  0.00000000000E+00  0.00000000000E+00 -0.85188637547E+03  0.85188637549E+03  0.50400001928E-02 0.  1.
    10030    2    1    2    0    0  0.00000000000E+00  0.00000000000E+00 -0.35425540053E+03  0.13495173505E+04  0.13021905354E+04 0.  0.
        1    1    3    3  502    0 -0.42312814177E+03 -0.22805548052E+03 -0.63226837242E+03  0.79423549489E+03  0.50400001928E-02 0.  1.
       -1    1    3    3    0  502  0.42312814177E+03  0.22805548052E+03  0.27801297189E+03  0.55528185557E+03  0.50400001928E-02 0. -1.
</event>
<event>
 5   0  0.6006119E-04  0.1314766E+04  0.7818609E-02  0.9017937E-01
        1   -1    0    0  501    0  0.00000000000E+00  0.00000000000E+00  0.15260911280E+04  0.15260911280E+04  0.50400001928E-02 0. -1.
       -1   -1    0    0    0  501  0.00000000000E+00  0.00000000000E+00 -0.28317583478E+03  0.28317583482E+03  0.50400001928E-02 0.  1.
    10030    2    1    2    0    0  0.00000000000E+00  0.00000000000E+00  0.12429152933E+04  0.18092669629E+04  0.13147655748E+04 0.  0.
        4    1    3    3  502    0  0.64785748968E+02 -0.40566797046E+03 -0.84780788077E+02  0.41946762742E+03  0.12699999809E+01 0.  1.
       -4    1    3    3    0  502 -0.64785748968E+02  0.40566797046E+03  0.13276960813E+04  0.13897993355E+04  0.12699999809E+01 0. -1.
</event>
<event>
 5   0  0.1103241E-03  0.1299505E+04  0.7818609E-02  0.9029957E-01
       -2   -1    0    0    0  501  0.00000000000E+00  0.00000000000E+00  0.59485057054E+03  0.59485057054E+03  0.25500000920E-02 0.  1.
        2   -1    0    0  501    0  0.00000000000E+00  0.00000000000E+00 -0.70972204481E+03  0.70972204482E+03  0.25500000920E-02 0. -1.
    10030    2    1    2    0    0  0.00000000000E+00  0.00000000000E+00 -0.11487147428E+03  0.13045726154E+04  0.12995053879E+04 0.  0.
        4    1    3    3  502    0  0.62143878667E+02 -0.54625120627E+02  0.58953918050E+03  0.59531825413E+03  0.12699999809E+01 0.  1.
       -4    1    3    3    0  502 -0.62143878667E+02  0.54625120627E+02 -0.70441065478E+03  0.70925436123E+03  0.12699999809E+01 0. -1.
</event>
<event>
 5   0  0.5766027E-04  0.1335394E+04  0.7818609E-02  0.9001959E-01
       -1   -1    0    0    0  501  0.00000000000E+00  0.00000000000E+00  0.95874835628E+03  0.95874835629E+03  0.50400001928E-02 0. -1.
        1   -1    0    0  501    0  0.00000000000E+00  0.00000000000E+00 -0.46500154440E+03  0.46500154443E+03  0.50400001928E-02 0.  1.
    10030    2    1    2    0    0  0.00000000000E+00  0.00000000000E+00  0.49374681187E+03  0.14237499007E+04  0.13353942734E+04 0.  0.
        3    1    3    3  502    0 -0.16009789337E+03 -0.72518227072E+02 -0.43989642847E+03  0.47370782841E+03  0.10100000352E+00 0.  1.
       -3    1    3    3    0  502  0.16009789337E+03  0.72518227072E+02  0.93364324034E+03  0.95004207231E+03  0.10100000352E+00 0. -1.
</event>
<event>
 5   0  0.5710383E-04  0.1273223E+04  0.7818609E-02  0.9051074E-01
       -1   -1    0    0    0  501  0.00000000000E+00  0.00000000000E+00  0.67369680520E+03  0.67369680522E+03  0.50400001928E-02 0.  1.
        1   -1    0    0  501    0  0.00000000000E+00  0.00000000000E+00 -0.60156719232E+03  0.60156719234E+03  0.50400001928E-02 0. -1.
    10030    2    1    2    0    0  0.00000000000E+00  0.00000000000E+00  0.72129612881E+02  0.12752639976E+04  0.12732225188E+04 0.  0.
        1    1    3    3  502    0  0.21709729968E+03 -0.44702172633E+03 -0.36246037693E+03  0.61509120154E+03  0.50400001928E-02 0. -1.
       -1    1    3    3    0  502 -0.21709729968E+03  0.44702172633E+03  0.43458998981E+03  0.66017279602E+03  0.50400001928E-02 0.  1.
</event>
<event>
 5   0  0.5710383E-04  0.1299511E+04  0.7818609E-02  0.9029953E-01
       -1   -1    0    0    0  501  0.00000000000E+00  0.00000000000E+00  0.23026792797E+03  0.23026792803E+03  0.50400001928E-02 0. -1.
        1   -1    0    0  501    0  0.00000000000E+00  0.00000000000E+00 -0.18334392073E+04  0.18334392073E+04  0.50400001928E-02 0.  1.
    10030    2    1    2    0    0  0.00000000000E+00  0.00000000000E+00 -0.16031712793E+04  0.20637071354E+04  0.12995110579E+04 0.  0.
        1    1    3    3  502    0  0.11336690374E+03 -0.45878839564E+03 -0.93438219697E+02  0.48173597308E+03  0.50400001928E-02 0. -1.
       -1    1    3    3    0  502 -0.11336690374E+03  0.45878839564E+03 -0.15097330596E+04  0.15819711623E+04  0.50400001928E-02 0.  1.
</event>
<event>
 5   0  0.1103241E-03  0.1302864E+04  0.7818609E-02  0.9027297E-01
       -2   -1    0    0    0  501  0.00000000000E+00  0.00000000000E+00  0.28982540035E+03  0.28982540036E+03  0.25500000920E-02 0. -1.
        2   -1    0    0  501    0  0.00000000000E+00  0.00000000000E+00 -0.14642051936E+04  0.14642051936E+04  0.25500000920E-02 0.  1.
    10030    2    1    2    0    0  0.00000000000E+00  0.00000000000E+00 -0.11743797933E+04  0.17540305940E+04  0.13028643159E+04 0.  0.
        4    1    3    3  502    0 -0.16342215139E+02 -0.54534157304E+03 -0.10663960831E+04  0.11978592230E+04  0.12699999809E+01 0.  1.
       -4    1    3    3    0  502  0.16342215139E+02  0.54534157304E+03 -0.10798371017E+03  0.55617137093E+03  0.12699999809E+01 0. -1.
</event>
<event>
 5   0  0.1046253E-03  0.1319248E+04  0.7818609E-02  0.9014439E-01
        2   -1    0    0  501    0  0.00000000000E+00  0.00000000000E+00  0.65098697190E+03  0.65098697191E+03  0.25500000920E-02 0. -1.
       -2   -1    0    0    0  501  0.00000000000E+00  0.00000000000E+00 -0.66837540809E+03  0.66837540810E+03  0.25500000920E-02 0.  1.
    10030    2    1    2    0    0  0.00000000000E+00  0.00000000000E+00 -0.17388436188E+02  0.13193623800E+04  0.13192477902E+04 0.  0.
        3    1    3    3  502    0  0.32992642961E+03  0.49298171791E+03 -0.29720021019E+03  0.66348353279E+03  0.10100000352E+00 0.  1.
       -3    1    3    3    0  502 -0.32992642961E+03 -0.49298171791E+03  0.27981177400E+03  0.65587884721E+03  0.10100000352E+00 0. -1.
</event>
<event>
 5   0  0.1081574E-03  0.1304348E+04  0.7818609E-02  0.9026124E-01
       -2   -1    0    0    0  501  0.00000000000E+00  0.00000000000E+00  0.31679024321E+03  0.31679024322E+03  0.25500000920E-02 0. -1.
        2   -1    0    0  501    0  0.00000000000E+00  0.00000000000E+00 -0.13426259889E+04  0.13426259889E+04  0.25500000920E-02 0.  1.
    10030    2    1    2    0    0  0.00000000000E+00  0.00000000000E+00 -0.10258357457E+04  0.16594162321E+04  0.13043478272E+04 0.  0.
        5    1    3    3  502    0 -0.26491688150E+03 -0.55735948260E+03 -0.24460877285E+03  0.66384191545E+03  0.46999998093E+01 0.  1.
       -5    1    3    3    0  502  0.26491688150E+03  0.55735948260E+03 -0.78122697284E+03  0.99557431668E+03  0.46999998093E+01 0. -1.
</event>
<event>
 5   0  0.1046253E-03  0.1296440E+04  0.7818609E-02  0.9032393E-01
        2   -1    0    0  501    0  0.00000000000E+00  0.00000000000E+00  0.12251575827E+04  0.12251575827E+04  0.25500000920E-02 0. -1.
       -2   -1    0    0    0  501  0.00000000000E+00  0.00000000000E+00 -0.34296754820E+03  0.34296754821E+03  0.25500000920E-02 0.  1.
    10030    2    1    2    0    0  0.00000000000E+00  0.00000000000E+00  0.88219003449E+03  0.15681251309E+04  0.12964401911E+04 0.  0.
        3    1    3    3  502    0 -0.10687045347E+03  0.26043819309E+03  0.11473591742E+04  0.11813900419E+04  0.10100000352E+00 0. -1.
       -3    1    3    3    0  502  0.10687045347E+03 -0.26043819309E+03 -0.26516913969E+03  0.38673508904E+03  0.10100000352E+00 0.  1.
</event>
<event>
 5   0  0.5812938E-04  0.1304331E+04  0.7818609E-02  0.9026138E-01
       -1   -1    0    0    0  501  0.00000000000E+00  0.00000000000E+00  0.22891232413E+03  0.22891232418E+03  0.50400001928E-02 0. -1.
        1   -1    0    0  501    0  0.00000000000E+00  0.00000000000E+00 -0.18580018815E+04  0.18580018815E+04  0.50400001928E-02 0.  1.
    10030    2    1    2    0    0  0.00000000000E+00  0.00000000000E+00 -0.16290895574E+04  0.20869142057E+04  0.13043305240E+04 0.  0.
        5    1    3    3  502    0  0.10956023328E+03 -0.42620932568E+03 -0.44486941244E+02  0.44233359804E+03  0.46999998093E+01 0. -1.
       -5    1    3    3    0  502 -0.10956023328E+03  0.42620932568E+03 -0.15846026161E+04  0.16445806076E+04  0.46999998093E+01 0.  1.
</event>
<event>
 5   0  0.1081574E-03  0.1285859E+04  0.7818609E-02  0.9040855E-01
        2   -1    0    0  501    0  0.00000000000E+00  0.00000000000E+00  0.30959769147E+04  0.30959769147E+04  0.25500000920E-02 0.  1.
       -2   -1    0    0    0  501  0.00000000000E+00  0.00000000000E+00 -0.13351471083E+03  0.13351471086E+03  0.25500000920E-02 0. -1.
    10030    2    1    2    0    0  0.00000000000E+00  0.00000000000E+00  0.29624622038E+04  0.32294916255E+04  0.12858591875E+04 0.  0.
        5    1    3    3  502    0  0.28488187599E+02 -0.59594575556E+03  0.20828150526E+04  0.21665879982E+04  0.46999998093E+01 0.  1.
       -5    1    3    3    0  502 -0.28488187599E+02  0.59594575556E+03  0.87964715121E+03  0.10629036273E+04  0.46999998093E+01 0. -1.
</event>
<event>
 5   0  0.1031295E-03  0.1294961E+04  0.7818609E-02  0.9033571E-01
        2   -1    0    0  501    0  0.00000000000E+00  0.00000000000E+00  0.22866892742E+04  0.22866892742E+04  0.25500000920E-02 0.  1.
       -2   -1    0    0    0  501  0.00000000000E+00  0.00000000000E+00 -0.18333524108E+03  0.18333524110E+03  0.25500000920E-02 0. -1.
    10030    2    1    2    0    0  0.00000000000E+00  0.00000000000E+00  0.21033540331E+04  0.24700245153E+04  0.12949605853E+04 0.  0.
        2    1    3    3  502    0 -0.40303339718E+03  0.94806146586E+01  0.20180879101E+04  0.20579612762E+04  0.25500000920E-02 0.  1.
       -2    1    3    3    0  502  0.40303339718E+03 -0.94806146586E+01  0.85266122992E+02  0.41206323912E+03  0.25500000920E-02 0. -1.
</event>
<event>
 5   0  0.1081574E-03  0.1302756E+04  0.7818609E-02  0.9027383E-01
       -2   -1    0    0    0  501  0.00000000000E+00  0.00000000000E+00  0.35243722620E+03  0.35243722620E+03  0.25500000920E-02 0.  1.
        2   -1    0    0  501    0  0.00000000000E+00  0.00000000000E+00 -0.12038827539E+04  0.12038827539E+04  0.25500000920E-02 0. -1.
    10030    2    1    2    0    0  0.00000000000E+00  0.00000000000E+00 -0.85144552769E+03  0.15563199801E+04  0.13027556923E+04 0.  0.
        5    1    3    3  502    0  0.16770148804E+02 -0.57718985324E+03 -0.65659838302E+02  0.58117352739E+03  0.46999998093E+01 0.  1.
       -5    1    3    3    0  502 -0.16770148804E+02  0.57718985324E+03 -0.78578568938E+03  0.97514645270E+03  0.46999998093E+01 0. -1.
</event>
<event>
 5   0  0.5710383E-04  0.1287108E+04  0.7818609E-02  0.9039852E-01
        1   -1    0    0  501    0  0.00000000000E+00  0.00000000000E+00  0.56623476679E+03  0.56623476681E+03  0.50400001928E-02 0. -1.
       -1   -1    0    0    0  501  0.00000000000E+00  0.00000000000E+00 -0.73143088043E+03  0.73143088045E+03  0.50400001928E-02 0.  1.
    10030    2    1    2    0    0  0.00000000000E+00  0.00000000000E+00 -0.16519611365E+03  0.12976656473E+04  0.12871077562E+04 0.  0.
        1    1    3    3  502    0 -0.15590565360E+03 -0.40723887208E+03 -0.55977898659E+03  0.70957916092E+03  0.50400001928E-02 0.  1.
       -1    1    3    3    0  502  0.15590565360E+03  0.40723887208E+03  0.39458287295E+03  0.58808648634E+03  0.50400001928E-02 0. -1.
</event>
<event>
 5   0  0.1031295E-03  0.1303112E+04  0.7818609E-02  0.9027101E-01
        2   -1    0    0  501    0  0.00000000000E+00  0.00000000000E+00  0.10278590523E+04  0.10278590523E+04  0.25500000920E-02 0.  1.
       -2   -1    0    0    0  501  0.00000000000E+00  0.00000000000E+00 -0.41301893115E+03  0.41301893116E+03  0.25500000920E-02 0. -1.
    10030    2    1    2    0    0  0.00000000000E+00  0.00000000000E+00  0.61484012111E+03  0.14408779834E+04  0.13031120399E+04 0.  0.
        2    1    3    3  502    0  0.48598327726E+03  0.56507273852E+02  0.78320441352E+03  0.92346194894E+03  0.25500000920E-02 0.  1.
       -2    1    3    3    0  502 -0.48598327726E+03 -0.56507273852E+02 -0.16836429241E+03  0.51741603449E+03  0.25500000920E-02 0. -1.
</event>
<event>
 5   0  0.5812938E-04  0.1294689E+04  0.7818609E-02  0.9033787E-01
        1   -1    0    0  501    0  0.00000000000E+00  0.00000000000E+00  0.97831603302E+03  0.97831603303E+03  0.50400001928E-02 0.  1.
       -1   -1    0    0    0  501  0.00000000000E+00  0.00000000000E+00 -0.42834318821E+03  0.42834318824E+03  0.50400001928E-02 0. -1.
    10030    2    1    2    0    0  0.00000000000E+00  0.00000000000E+00  0.54997284481E+03  0.14066592213E+04  0.12946891653E+04 0.  0.
        5    1    3    3  502    0 -0.59966125720E+03  0.21607727934E+03  0.39766729392E+03  0.75129513554E+03  0.46999998093E+01 0.  1.
       -5    1    3    3    0  502  0.59966125720E+03 -0.21607727934E+03  0.15230555089E+03  0.65536408573E+03  0.46999998093E+01 0. -1.
</event>
<event>
 5   0  0.5766027E-04  0.1289270E+04  0.7818609E-02  0.9038118E-01
       -1   -1    0    0    0  501  0.00000000000E+00  0.00000000000E+00  0.31593290891E+03  0.31593290895E+03  0.50400001928E-02 0.  1.
        1   -1    0    0  501    0  0.00000000000E+00  0.00000000000E+00 -0.13153244787E+04  0.13153244787E+04  0.50400001928E-02 0. -1.
    10030    2    1    2    0    0  0.00000000000E+00  0.00000000000E+00 -0.99939156979E+03  0.16312573877E+04  0.12892700086E+04 0.  0.
        3    1    3    3  502    0 -0.18646257287E+03 -0.14355435945E+03  0.25964597227E+03  0.35041716042E+03  0.10100000352E+00 0.  1.
       -3    1    3    3    0  502  0.18646257287E+03  0.14355435945E+03 -0.12590375421E+04  0.12808402272E+04  0.10100000352E+00 0. -1.
</event>
<event>
 5   0  0.1103241E-03  0.1295904E+04  0.7818609E-02  0.9032820E-01
        2   -1    0    0  501    0  0.00000000000E+00  0.00000000000E+00  0.12193886891E+04  0.12193886891E+04  0.25500000920E-02 0.  1.
       -2   -1    0    0    0  501  0.00000000000E+00  0.00000000000E+00 -0.34430514015E+03  0.34430514016E+03  0.25500000920E-02 0. -1.
    10030    2    1    2    0    0  0.00000000000E+00  0.00000000000E+00  0.87508354897E+03  0.15636938293E+04  0.12959039988E+04 0.  0.
        4    1    3    3  502    0  0.32272551237E+02  0.29839840017E+03 -0.25536681045E+03  0.39407733196E+03  0.12699999809E+01 0. -1.
       -4    1    3    3    0  502 -0.32272551237E+02 -0.29839840017E+03  0.11304503594E+04  0.11696164973E+04  0.12699999809E+01 0.  1.
</event>
<event>
 5   0  0.5766027E-04  0.1302419E+04  0.7818609E-02  0.9027649E-01
        1   -1    0    0  501    0  0.00000000000E+00  0.00000000000E+00  0.15041963776E+04  0.15041963776E+04  0.50400001928E-02 0. -1.
       -1   -1    0    0    0  501  0.00000000000E+00  0.00000000000E+00 -0.28192710779E+03  0.28192710783E+03  0.50400001928E-02 0.  1.
    10030    2    1    2    0    0  0.00000000000E+00  0.00000000000E+00  0.12222692698E+04  0.17861234855E+04  0.13024188794E+04 0.  0.
        3    1    3    3  502    0  0.60908320430E+03 -0.51106506193E+02  0.30301574983E+03  0.68221168238E+03  0.10100000352E+00 0. -1.
       -3    1    3    3    0  502 -0.60908320430E+03  0.51106506193E+02  0.91925352002E+03  0.11039118031E+04  0.10100000352E+00 0.  1.
</event>
<event>
 5   0  0.6006119E-04  0.1308183E+04  0.7818609E-02  0.9023101E-01
       -1   -1    0    0    0  501  0.00000000000E+00  0.00000000000E+00  0.76708597031E+03  0.76708597033E+03  0.50400001928E-02 0.  1.
        1   -1    0    0  501    0  0.00000000000E+00  0.00000000000E+00 -0.55774154245E+03  0.55774154247E+03  0.50400001928E-02 0. -1.
    10030    2    1    2    0    0  0.00000000000E+00  0.00000000000E+00  0.20934442787E+03  0.13248275128E+04  0.13081830335E+04 0.  0.
        4    1    3    3  502    0  0.50099848657E+03 -0.38074481862E+03 -0.76115212853E+02  0.63384638438E+03  0.12699999809E+01 0. -1.
       -4    1    3    3    0  502 -0.50099848657E+03  0.38074481862E+03  0.28545964072E+03  0.69098112842E+03  0.12699999809E+01 0.  1.
</event>
<event>
 5   0  0.5766027E-04  0.1301106E+04  0.7818609E-02  0.9028688E-01
        1   -1    0    0  501    0  0.00000000000E+00  0.00000000000E+00  0.87428712207E+03  0.87428712208E+03  0.50400001928E-02 0. -1.
       -1   -1    0    0    0  501  0.00000000000E+00  0.00000000000E+00 -0.48407372335E+03  0.48407372338E+03  0.50400001928E-02 0.  1.
    10030    2    1    2    0    0  0.00000000000E+00  0.00000000000E+00  0.39021339871E+03  0.13583608455E+04  0.13011063331E+04 0.  0.
        3    1    3    3  502    0 -0.64974594489E+03 -0.32146165104E+02  0.19931436741E+03  0.68038915048E+03  0.10100000352E+00 0.  1.
       -3    1    3    3    0  502  0.64974594489E+03  0.32146165104E+02  0.19089903130E+03  0.67797169498E+03  0.10100000352E+00 0. -1.
</event>
<event>
 5   0  0.1081574E-03  0.1307015E+04  0.7818609E-02  0.9024020E-01
        2   -1    0    0  501    0  0.00000000000E+00  0.00000000000E+00  0.58851341040E+03  0.58851341041E+03  0.25500000920E-02 0. -1.
       -2   -1    0    0    0  501  0.00000000000E+00  0.00000000000E+00 -0.72567985804E+03  0.72567985805E+03  0.25500000920E-02 0.  1.
    10030    2    1    2    0    0  0.00000000000E+00  0.00000000000E+00 -0.13716644764E+03  0.13141932685E+04  0.13070154217E+04 0.  0.
        5    1    3    3  502    0  0.64982899647E+02 -0.43698257212E+03  0.41559389914E+03  0.60656155877E+03  0.46999998093E+01 0. -1.
       -5    1    3    3    0  502 -0.64982899647E+02  0.43698257212E+03 -0.55276034678E+03  0.70763170968E+03  0.46999998093E+01 0.  1.
</event>
<event>
 5   0  0.6006119E-04  0.1318895E+04  0.7818609E-02  0.9014714E-01
       -1   -1    0    0    0  501  0.00000000000E+00  0.00000000000E+00  0.20022325411E+03  0.20022325417E+03  0.50400001928E-02 0.  1.
        1   -1    0    0  501    0  0.00000000000E+00  0.00000000000E+00 -0.21719289799E+04  0.21719289799E+04  0.50400001928E-02 0. -1.
    10030    2    1    2    0    0  0.00000000000E+00  0.00000000000E+00 -0.19717057258E+04  0.23721522341E+04  0.13188945191E+04 0.  0.
        4    1    3    3  502    0  0.43661263227E+03 -0.48722488902E+03 -0.83698868343E+03  0.10623419187E+04  0.12699999809E+01 0. -1.
       -4    1    3    3    0  502 -0.43661263227E+03  0.48722488902E+03 -0.11347170424E+04  0.13098103154E+04  0.12699999809E+01 0.  1.
</event>
<event>
 5   0  0.5812938E-04  0.1299803E+04  0.7818609E-02  0.9029721E-01
       -1   -1    0    0    0  501  0.00000000000E+00  0.00000000000E+00  0.78502972847E+03  0.78502972848E+03  0.50400001928E-02 0. -1.
        1   -1    0    0  501    0  0.00000000000E+00  0.00000000000E+00 -0.53803327472E+03  0.53803327475E+03  0.50400001928E-02 0.  1.
    10030    2    1    2    0    0  0.00000000000E+00  0.00000000000E+00  0.24699645374E+03  0.13230630032E+04  0.12998032399E+04 0.  0.
        5    1    3    3  502    0  0.61952694488E+03 -0.17490168296E+02  0.32252330790E+03  0.69868656460E+03  0.46999998093E+01 0. -1.
       -5    1    3    3    0  502 -0.61952694488E+03  0.17490168296E+02 -0.75526854154E+02  0.62437643863E+03  0.46999998093E+01 0.  1.
</event>
<event>
 5   0  0.1081574E-03  0.1222709E+04  0.7818609E-02  0.9093208E-01
        2   -1    0    0  501    0  0.00000000000E+00  0.00000000000E+00  0.64049930396E+03  0.64049930396E+03  0.25500000920E-02 0. -1.
       -2   -1    0    0    0  501  0.00000000000E+00  0.00000000000E+00 -0.58353623190E+03  0.58353623191E+03  0.25500000920E-02 0.  1.
    10030    2    1    2    0    0  0.00000000000E+00  0.00000000000E+00  0.56963072057E+02  0.12240355359E+04  0.12227093692E+04 0.  0.
        5    1    3    3  502    0  0.48604209020E+03 -0.36291338509E+03 -0.47689240687E+02  0.60847300039E+03  0.46999998093E+01 0. -1.
       -5    1    3    3    0  502 -0.48604209020E+03  0.36291338509E+03  0.10465231274E+03  0.61556253548E+03  0.46999998093E+01 0.  1.
</event>
<event>
 5   0  0.5812938E-04  0.1303364E+04  0.7818609E-02  0.9026902E-01
        1   -1    0    0  501    0  0.00000000000E+00  0.00000000000E+00  0.53903881137E+03  0.53903881140E+03  0.50400001928E-02 0. -1.
       -1   -1    0    0    0  501  0.00000000000E+00  0.00000000000E+00 -0.78786389098E+03  0.78786389100E+03  0.50400001928E-02 0.  1.
    10030    2    1    2    0    0  0.00000000000E+00  0.00000000000E+00 -0.24882507960E+03  0.13269027024E+04  0.13033636720E+04 0.  0.
        5    1    3    3  502    0 -0.47483047283E+03 -0.44172451513E+00  0.32996970413E+03  0.57824412552E+03  0.46999998093E+01 0. -1.
       -5    1    3    3    0  502  0.47483047283E+03  0.44172451513E+00 -0.57879478374E+03  0.74865857688E+03  0.46999998093E+01 0.  1.
</event>
<event>
 5   0  0.1103241E-03  0.1303230E+04  0.7818609E-02  0.9027008E-01
       -2   -1    0    0    0  501  0.00000000000E+00  0.00000000000E+00  0.60809220937E+03  0.60809220938E+03  0.25500000920E-02 0.  1.
        2   -1    0    0  501    0  0.00000000000E+00  0.00000000000E+00 -0.69825286178E+03  0.69825286179E+03  0.25500000920E-02 0. -1.
    10030    2    1    2    0    0  0.00000000000E+00  0.00000000000E+00 -0.90160652409E+02  0.13063450712E+04  0.13032300264E+04 0.  0.
        4    1    3    3  502    0  0.15381073175E+03 -0.11183287860E+03  0.57965587133E+03  0.61005481394E+03  0.12699999809E+01 0.  1.
       -4    1    3    3    0  502 -0.15381073175E+03  0.11183287860E+03 -0.66981652374E+03  0.69629025723E+03  0.12699999809E+01 0. -1.
</event>
<event>
 5   0  0.6006119E-04  0.1316468E+04  0.7818609E-02  0.9016607E-01
       -1   -1    0    0    0  501  0.00000000000E+00  0.00000000000E+00  0.11255488948E+04  0.11255488948E+04  0.50400001928E-02 0.  1.
        1   -1    0    0  501    0  0.00000000000E+00  0.00000000000E+00 -0.38494298032E+03  0.38494298035E+03  0.50400001928E-02 0. -1.
    10030    2    1    2    0    0  0.00000000000E+00  0.00000000000E+00  0.74060591449E+03  0.15104918752E+04  0.13164682238E+04 0.  0.
        4    1    3    3  502    0 -0.29746875276E+03  0.19114425428E+03 -0.26672319896E+03  0.44290705862E+03  0.12699999809E+01 0. -1.
       -4    1    3    3    0  502  0.29746875276E+03 -0.19114425428E+03  0.10073291135E+04  0.10675848165E+04  0.12699999809E+01 0.  1.
</event>
<event>
 5   0  0.5563545E-04  0.1301307E+04  0.7818609E-02  0.9028529E-01
       -1   -1    0    0    0  501  0.00000000000E+00  0.00000000000E+00  0.54561495717E+03  0.54561495720E+03  0.50400001928E-02 0. -1.
        1   -1    0    0  501    0  0.00000000000E+00  0.00000000000E+00 -0.77591386114E+03  0.77591386116E+03  0.50400001928E-02 0.  1.
    10030    2    1    2    0    0  0.00000000000E+00  0.00000000000E+00 -0.23029890397E+03  0.13215288184E+04  0.13013073552E+04 0.  0.
        2    1    3    3  502    0  0.54668251813E+01  0.64436539285E+02 -0.77264216768E+03  0.77534371285E+03  0.25500000920E-02 0.  1.
       -2    1    3    3    0  502 -0.54668251813E+01 -0.64436539285E+02  0.54234326371E+03  0.54618510550E+03  0.25500000920E-02 0. -1.
</event>
<event>
 5   0  0.5766027E-04  0.1317031E+04  0.7818609E-02  0.9016167E-01
        1   -1    0    0  501    0  0.00000000000E+00  0.00000000000E+00  0.13051012904E+04  0.13051012904E+04  0.50400001928E-02 0. -1.
       -1   -1    0    0    0  501  0.00000000000E+00  0.00000000000E+00 -0.33226765128E+03  0.33226765132E+03  0.50400001928E-02 0.  1.
    10030    2    1    2    0    0  0.00000000000E+00  0.00000000000E+00  0.97283363912E+03  0.16373689417E+04  0.13170314202E+04 0.  0.
        3    1    3    3  502    0  0.23208138426E+03 -0.61390530768E+03  0.41945044281E+03  0.77889677101E+03  0.10100000352E+00 0.  1.
       -3    1    3    3    0  502 -0.23208138426E+03  0.61390530768E+03  0.55338319631E+03  0.85847217071E+03  0.10100000352E+00 0. -1.
</event>
<event>
 5   0  0.1046253E-03  0.1300720E+04  0.7818609E-02  0.9028994E-01
       -2   -1    0    0    0  501  0.00000000000E+00  0.00000000000E+00  0.13957596121E+04  0.13957596121E+04  0.25500000920E-02 0. -1.
        2   -1    0    0  501    0  0.00000000000E+00  0.00000000000E+00 -0.30303816434E+03  0.30303816435E+03  0.25500000920E-02 0.  1.
    10030    2    1    2    0    0  0.00000000000E+00  0.00000000000E+00  0.10927214478E+04  0.16987977765E+04  0.13007204630E+04 0.  0.
        3    1    3    3  502    0 -0.46975153236E+03  0.44573999026E+03  0.62491661427E+03  0.89992856720E+03  0.10100000352E+00 0. -1.
       -3    1    3    3    0  502  0.46975153236E+03 -0.44573999026E+03  0.46780483352E+03  0.79886920928E+03  0.10100000352E+00 0.  1.
</event>
<event>
 5   0  0.5563545E-04  0.1259681E+04  0.7818609E-02  0.9062164E-01
        1   -1    0    0  501    0  0.00000000000E+00  0.00000000000E+00  0.13777174784E+04  0.13777174784E+04  0.50400001928E-02 0.  1.
       -1   -1    0    0    0  501  0.00000000000E+00  0.00000000000E+00 -0.28793924398E+03  0.28793924403E+03  0.50400001928E-02 0. -1.
    10030    2    1    2    0    0  0.00000000000E+00  0.00000000000E+00  0.10897782344E+04  0.16656567224E+04  0.12596807996E+04 0.  0.
        2    1    3    3  502    0  0.90483216877E+02  0.38295621155E+03 -0.10539576188E+03  0.40737076371E+03  0.25500000920E-02 0. -1.
       -2    1    3    3    0  502 -0.90483216877E+02 -0.38295621155E+03  0.11951739963E+04  0.12582859587E+04  0.25500000920E-02 0.  1.
</event>
<event>
 5   0  0.4012375E-04  0.1300580E+04  0.7818609E-02  0.9029105E-01
        3   -1    0    0  501    0  0.00000000000E+00  0.00000000000E+00  0.47465727733E+03  0.47465728808E+03  0.10100000352E+00 0.  1.
       -3   -1    0    0    0  501  0.00000000000E+00  0.00000000000E+00 -0.89091027368E+03  0.89091027940E+03  0.10100000352E+00 0. -1.
    10030    2    1    2    0    0  0.00000000000E+00  0.00000000000E+00 -0.41625299635E+03  0.13655675675E+04  0.13005799569E+04 0.  0.
        3    1    3    3  502    0 -0.16761035765E+02 -0.53144500592E+03 -0.60121629778E+03  0.80260561520E+03  0.10100000352E+00 0. -1.
       -3    1    3    3    0  502  0.16761035765E+02  0.53144500592E+03  0.18496330143E+03  0.56296195228E+03  0.10100000352E+00 0.  1.
</event>
<event>
 5   0  0.5563545E-04  0.1297404E+04  0.7818609E-02  0.9031626E-01
        1   -1    0    0  501    0  0.00000000000E+00  0.00000000000E+00  0.16595200184E+04  0.16595200184E+04  0.50400001928E-02 0. -1.
       -1   -1    0    0    0  501  0.00000000000E+00  0.00000000000E+00 -0.25357596989E+03  0.25357596994E+03  0.50400001928E-02 0.  1.
    10030    2    1    2    0    0  0.00000000000E+00  0.00000000000E+00  0.14059440485E+04  0.19130959884E+04  0.12974041749E+04 0.  0.
        2    1    3    3  502    0 -0.18855691764E+03 -0.12554706902E+03 -0.19335786876E+03  0.29783056114E+03  0.25500000920E-02 0.  1.
       -2    1    3    3    0  502  0.18855691764E+03  0.12554706902E+03  0.15993019173E+04  0.16152654272E+04  0.25500000920E-02 0. -1.
</event>
<event>
 5   0  0.1081574E-03  0.1284967E+04  0.7818609E-02  0.9041572E-01
        2   -1    0    0  501    0  0.00000000000E+00  0.00000000000E+00  0.16927209824E+04  0.16927209824E+04  0.25500000920E-02 0.  1.
       -2   -1    0    0    0  501  0.00000000000E+00  0.00000000000E+00 -0.24385883875E+03  0.24385883876E+03  0.25500000920E-02 0. -1.
    10030    2    1    2    0    0  0.00000000000E+00  0.00000000000E+00  0.14488621436E+04  0.19365798211E+04  0.12849668838E+04 0.  0.
        5    1    3    3  502    0  0.22659572220E+03  0.27251503894E+03  0.15320379450E+04  0.15725051424E+04  0.46999998093E+01 0.  1.
       -5    1    3    3    0  502 -0.22659572220E+03 -0.27251503894E+03 -0.83175801423E+02  0.36407467875E+03  0.46999998093E+01 0. -1.
</event>
<event>
 5   0  0.1103241E-03  0.1298591E+04  0.7818609E-02  0.9030683E-01
        2   -1    0    0  501    0  0.00000000000E+00  0.00000000000E+00  0.12893412107E+04  0.12893412107E+04  0.25500000920E-02 0.  1.
       -2   -1    0    0    0  501  0.00000000000E+00  0.00000000000E+00 -0.32697684775E+03  0.32697684776E+03  0.25500000920E-02 0. -1.
    10030    2    1    2    0    0  0.00000000000E+00  0.00000000000E+00  0.96236436293E+03  0.16163180585E+04  0.12985911208E+04 0.  0.
        4    1    3    3  502    0  0.64633778789E+03 -0.35126798190E+02  0.54460768654E+03  0.84592291206E+03  0.12699999809E+01 0.  1.
       -4    1    3    3    0  502 -0.64633778789E+03  0.35126798190E+02  0.41775667640E+03  0.77039514639E+03  0.12699999809E+01 0. -1.
</event>
<event>
 5   0  0.5563545E-04  0.1284943E+04  0.7818609E-02  0.9041591E-01
       -1   -1    0    0    0  501  0.00000000000E+00  0.00000000000E+00  0.39973597980E+03  0.39973597983E+03  0.50400001928E-02 0.  1.
        1   -1    0    0  501    0  0.00000000000E+00  0.00000000000E+00 -0.10326063096E+04  0.10326063097E+04  0.50400001928E-02 0. -1.
    10030    2    1    2    0    0  0.00000000000E+00  0.00000000000E+00 -0.63287032984E+03  0.14323422895E+04  0.12849434150E+04 0.  0.
        2    1    3    3  502    0  0.94976100976E+01  0.30320171554E+03 -0.94774865212E+03  0.99511255268E+03  0.25500000920E-02 0. -1.
       -2    1    3    3    0  502 -0.94976100976E+01 -0.30320171554E+03  0.31487832227E+03  0.43722973680E+03  0.25500000920E-02 0.  1.
</event>
<event>
 5   0  0.5710383E-04  0.1239883E+04  0.7818609E-02  0.9078646E-01
        1   -1    0    0  501    0  0.00000000000E+00  0.00000000000E+00  0.15224118249E+04  0.15224118249E+04  0.50400001928E-02 0. -1.
       -1   -1    0    0    0  501  0.00000000000E+00  0.00000000000E+00 -0.25244646540E+03  0.25244646545E+03  0.50400001928E-02 0.  1.
    10030    2    1    2    0    0  0.00000000000E+00  0.00000000000E+00  0.12699653595E+04  0.17748582904E+04  0.12398830334E+04 0.  0.
        1    1    3    3  502    0  0.35495079641E+03 -0.49165913830E+03  0.81946335976E+03  0.10194307108E+04  0.50400001928E-02 0. -1.
       -1    1    3    3    0  502 -0.35495079641E+03  0.49165913830E+03  0.45050199977E+03  0.75542757956E+03  0.50400001928E-02 0.  1.
</event>
<event>
 5   0  0.5766027E-04  0.1298593E+04  0.7818609E-02  0.9030681E-01
        1   -1    0    0  501    0  0.00000000000E+00  0.00000000000E+00  0.81714266860E+03  0.81714266862E+03  0.50400001928E-02 0.  1.
       -1   -1    0    0    0  501  0.00000000000E+00  0.00000000000E+00 -0.51592715089E+03  0.51592715092E+03  0.50400001928E-02 0. -1.
    10030    2    1    2    0    0  0.00000000000E+00  0.00000000000E+00  0.30121551771E+03  0.13330698195E+04  0.12985932218E+04 0.  0.
        3    1    3    3  502    0 -0.41364213955E+03  0.18156519649E+03  0.62938081286E+03  0.77471669531E+03  0.10100000352E+00 0.  1.
       -3    1    3    3    0  502  0.41364213955E+03 -0.18156519649E+03 -0.32816529516E+03  0.55835312423E+03  0.10100000352E+00 0. -1.
</event>
<event>
 5   0  0.1031295E-03  0.1272634E+04  0.7818609E-02  0.9051553E-01
       -2   -1    0    0    0  501  0.00000000000E+00  0.00000000000E+00  0.21765045417E+03  0.21765045418E+03  0.25500000920E-02 0.  1.
        2   -1    0    0  501    0  0.00000000000E+00  0.00000000000E+00 -0.18603177709E+04  0.18603177709E+04  0.25500000920E-02 0. -1.
    10030    2    1    2    0    0  0.00000000000E+00  0.00000000000E+00 -0.16426673168E+04  0.20779682251E+04  0.12726335022E+04 0.  0.
        2    1    3    3  502    0  0.61110528730E+03 -0.14403191646E+03 -0.65240182551E+03  0.90544078053E+03  0.25500000920E-02 0.  1.
       -2    1    3    3    0  502 -0.61110528730E+03  0.14403191646E+03 -0.99026549126E+03  0.11725274446E+04  0.25500000920E-02 0. -1.
</event>
<event>
 5   0  0.5710383E-04  0.1296817E+04  0.7818609E-02  0.9032093E-01
       -1   -1    0    0    0  501  0.00000000000E+00  0.00000000000E+00  0.10397809461E+04  0.10397809462E+04  0.50400001928E-02 0.  1.
        1   -1    0    0  501    0  0.00000000000E+00  0.00000000000E+00 -0.40434817132E+03  0.40434817135E+03  0.50400001928E-02 0. -1.
    10030    2    1    2    0    0  0.00000000000E+00  0.00000000000E+00  0.63543277483E+03  0.14441291175E+04  0.12968169095E+04 0.  0.
        1    1    3    3  502    0  0.47087076263E+02  0.64337339962E+03  0.39062924256E+03  0.75414702099E+03  0.50400001928E-02 0.  1.
       -1    1    3    3    0  502 -0.47087076263E+02 -0.64337339962E+03  0.24480353226E+03  0.68998209652E+03  0.50400001928E-02 0. -1.
</event>
<event>
 5   0  0.1081574E-03  0.1301053E+04  0.7818609E-02  0.9028731E-01
        2   -1    0    0  501    0  0.00000000000E+00  0.00000000000E+00  0.33871560274E+03  0.33871560275E+03  0.25500000920E-02 0. -1.
       -2   -1    0    0    0  501  0.00000000000E+00  0.00000000000E+00 -0.12493805524E+04  0.12493805524E+04  0.25500000920E-02 0.  1.
    10030    2    1    2    0    0  0.00000000000E+00  0.00000000000E+00 -0.91066494969E+03  0.15880961552E+04  0.13010529380E+04 0.  0.
        5    1    3    3  502    0 -0.11869758239E+03  0.58331045812E+03 -0.13511376566E+03  0.61042446403E+03  0.46999998093E+01 0. -1.
       -5    1    3    3    0  502  0.11869758239E+03 -0.58331045812E+03 -0.77555118403E+03  0.97767169115E+03  0.46999998093E+01 0.  1.
</event>
<event>
 5   0  0.5766027E-04  0.1300882E+04  0.7818609E-02  0.9028866E-01
       -1   -1    0    0    0  501  0.00000000000E+00  0.00000000000E+00  0.56993152877E+03  0.56993152879E+03  0.50400001928E-02 0. -1.
        1   -1    0    0  501    0  0.00000000000E+00  0.00000000000E+00 -0.74232285502E+03  0.74232285504E+03  0.50400001928E-02 0.  1.
    10030    2    1    2    0    0  0.00000000000E+00  0.00000000000E+00 -0.17239132625E+03  0.13122543838E+04  0.13008815467E+04 0.  0.
        3    1    3    3  502    0  0.46490375620E+03 -0.41376871951E+03 -0.27688035570E+03  0.68117750796E+03  0.10100000352E+00 0.  1.
       -3    1    3    3    0  502 -0.46490375620E+03  0.41376871951E+03  0.10448902945E+03  0.63107687587E+03  0.10100000352E+00 0. -1.
</event>
<event>
 5   0  0.1031295E-03  0.1299048E+04  0.7818609E-02  0.9030321E-01
       -2   -1    0    0    0  501  0.00000000000E+00  0.00000000000E+00  0.27781621047E+03  0.27781621048E+03  0.25500000920E-02 0. -1.
        2   -1    0    0  501    0  0.00000000000E+00  0.00000000000E+00 -0.15185626973E+04  0.15185626973E+04  0.25500000920E-02 0.  1.
    10030    2    1    2    0    0  0.00000000000E+00  0.00000000000E+00 -0.12407464868E+04  0.17963789078E+04  0.12990478574E+04 0.  0.
        2    1    3    3  502    0  0.28924525252E+03 -0.36348342334E+03  0.74104355272E+01  0.46458360895E+03  0.25500000920E-02 0. -1.
       -2    1    3    3    0  502 -0.28924525252E+03  0.36348342334E+03 -0.12481569224E+04  0.13317952988E+04  0.25500000920E-02 0.  1.
</event>
<event>
 5   0  0.4012375E-04  0.1289171E+04  0.7818609E-02  0.9038197E-01
       -3   -1    0    0    0  501  0.00000000000E+00  0.00000000000E+00  0.14246168449E+04  0.14246168485E+04  0.10100000352E+00 0.  1.
        3   -1    0    0  501    0  0.00000000000E+00  0.00000000000E+00 -0.29165068703E+03  0.29165070452E+03  0.10100000352E+00 0. -1.
    10030    2    1    2    0    0  0.00000000000E+00  0.00000000000E+00  0.11329661579E+04  0.17162675530E+04  0.12891710510E+04 0.  0.
        4    1    3    3  502    0 -0.32331227174E+03 -0.42492410478E+03  0.85744260985E+02  0.54078185165E+03  0.12699999809E+01 0. -1.
       -4    1    3    3    0  502  0.32331227174E+03  0.42492410478E+03  0.10472218969E+04  0.11754857014E+04  0.12699999809E+01 0.  1.
</event>
<event>
 5   0  0.1081574E-03  0.1312484E+04  0.7818609E-02  0.9019723E-01
       -2   -1    0    0    0  501  0.00000000000E+00  0.00000000000E+00  0.71327519689E+03  0.71327519689E+03  0.25500000920E-02 0. -1.
        2   -1    0    0  501    0  0.00000000000E+00  0.00000000000E+00 -0.60376908616E+03  0.60376908617E+03  0.25500000920E-02 0.  1.
    10030    2    1    2    0    0  0.00000000000E+00  0.00000000000E+00  0.10950611072E+03  0.13170442831E+04  0.13124839257E+04 0.  0.
        5    1    3    3  502    0  0.17362052942E+03  0.17167144545E+03  0.66598050578E+03  0.70934286314E+03  0.46999998093E+01 0. -1.
       -5    1    3    3    0  502 -0.17362052942E+03 -0.17167144545E+03 -0.55647439506E+03  0.60770141992E+03  0.46999998093E+01 0.  1.
</event>
<event>
 5   0  0.5710383E-04  0.1298466E+04  0.7818609E-02  0.9030783E-01
        1   -1    0    0  501    0  0.00000000000E+00  0.00000000000E+00  0.30590904777E+03  0.30590904782E+03  0.50400001928E-02 0.  1.
       -1   -1    0    0    0  501  0.00000000000E+00  0.00000000000E+00 -0.13778709451E+04  0.13778709451E+04  0.50400001928E-02 0. -1.
    10030    2    1    2    0    0  0.00000000000E+00  0.00000000000E+00 -0.10719618974E+04  0.16837799930E+04  0.12984655387E+04 0.  0.
        1    1    3    3  502    0 -0.42581619626E+03 -0.44594592853E+03 -0.79956186925E+03  0.10096961855E+04  0.50400001928E-02 0. -1.
       -1    1    3    3    0  502  0.42581619626E+03  0.44594592853E+03 -0.27240002810E+03  0.67408380748E+03  0.50400001928E-02 0.  1.
</event>
<event>
 5   0  0.5563545E-04  0.1299611E+04  0.7818609E-02  0.9029873E-01
       -1   -1    0    0    0  501  0.00000000000E+00  0.00000000000E+00  0.48721202872E+03  0.48721202875E+03  0.50400001928E-02 0. -1.
        1   -1    0    0  501    0  0.00000000000E+00  0.00000000000E+00 -0.86666046148E+03  0.86666046150E+03  0.50400001928E-02 0.  1.
    10030    2    1    2    0    0  0.00000000000E+00  0.00000000000E+00 -0.37944843276E+03  0.13538724902E+04  0.12996113291E+04 0.  0.
        2    1    3    3  502    0  0.47982013555E+03 -0.26966856428E+03  0.17009346713E+03  0.57609051772E+03  0.25500000920E-02 0. -1.
       -2    1    3    3    0  502 -0.47982013555E+03  0.26966856428E+03 -0.54954189990E+03  0.77778197253E+03  0.25500000920E-02 0.  1.
</event>
<event>
 5   0  0.1046253E-03  0.1295590E+04  0.7818609E-02  0.9033069E-01
        2   -1    0    0  501    0  0.00000000000E+00  0.00000000000E+00  0.23347897178E+03  0.23347897179E+03  0.25500000920E-02 0. -1.
       -2   -1    0    0    0  501  0.00000000000E+00  0.00000000000E+00 -0.17973289815E+04  0.17973289815E+04  0.25500000920E-02 0.  1.
    10030    2    1    2    0    0  0.00000000000E+00  0.00000000000E+00 -0.15638500097E+04  0.20308079533E+04  0.12955902478E+04 0.  0.
        3    1    3    3  502    0 -0.56517085819E+02 -0.51896077014E+03 -0.18069171154E+03  0.55241647944E+03  0.10100000352E+00 0. -1.
       -3    1    3    3    0  502  0.56517085819E+02  0.51896077014E+03 -0.13831582981E+04  0.14783914738E+04  0.10100000352E+00 0.  1.
</event>
<event>
 5   0  0.5766027E-04  0.1303636E+04  0.7818609E-02  0.9026686E-01
       -1   -1    0    0    0  501  0.00000000000E+00  0.00000000000E+00  0.58955424171E+03  0.58955424173E+03  0.50400001928E-02 0.  1.
        1   -1    0    0  501    0  0.00000000000E+00  0.00000000000E+00 -0.72065788804E+03  0.72065788806E+03  0.50400001928E-02 0. -1.
    10030    2    1    2    0    0  0.00000000000E+00  0.00000000000E+00 -0.13110364633E+03  0.13102121298E+04  0.13036363216E+04 0.  0.
        3    1    3    3  502    0  0.28630696892E+03 -0.17330764497E+03 -0.62771185477E+03  0.71135743693E+03  0.10100000352E+00 0. -1.
       -3    1    3    3    0  502 -0.28630696892E+03  0.17330764497E+03  0.49660820844E+03  0.59885469285E+03  0.10100000352E+00 0.  1.
</event>
<event>
 5   0  0.1101619E-03  0.1295531E+04  0.7818609E-02  0.9033116E-01
        2   -1    0    0  501    0  0.00000000000E+00  0.00000000000E+00  0.52840001001E+03  0.52840001001E+03  0.25500000920E-02 0. -1.
       -2   -1    0    0    0  501  0.00000000000E+00  0.00000000000E+00 -0.79409599925E+03  0.79409599925E+03  0.25500000920E-02 0.  1.
    10030    2    1    2    0    0  0.00000000000E+00  0.00000000000E+00 -0.26569598924E+03  0.13224960093E+04  0.12955312948E+04 0.  0.
        1    1    3    3  502    0 -0.36536304064E+03  0.21980889445E+02 -0.67841250175E+03  0.77085461244E+03  0.50400001928E-02 0.  1.
       -1    1    3    3    0  502  0.36536304064E+03 -0.21980889445E+02  0.41271651251E+03  0.55164139682E+03  0.50400001928E-02 0. -1.
</event>
<event>
 5   0  0.5710383E-04  0.1303959E+04  0.7818609E-02  0.9026432E-01
        1   -1    0    0  501    0  0.00000000000E+00  0.00000000000E+00  0.96633184304E+03  0.96633184305E+03  0.50400001928E-02 0.  1.
       -1   -1    0    0    0  501  0.00000000000E+00  0.00000000000E+00 -0.43988726546E+03  0.43988726549E+03  0.50400001928E-02 0. -1.
    10030    2    1    2    0    0  0.00000000000E+00  0.00000000000E+00  0.52644457758E+03  0.14062191085E+04  0.13039586987E+04 0.  0.
        1    1    3    3  502    0  0.41765476044E+02 -0.64579447123E+03  0.34869857746E+03  0.73510921094E+03  0.50400001928E-02 0.  1.
       -1    1    3    3    0  502 -0.41765476044E+02  0.64579447123E+03  0.17774600012E+03  0.67110989760E+03  0.50400001928E-02 0. -1.
</event>
<event>
 5   0  0.1031295E-03  0.1299010E+04  0.7818609E-02  0.9030350E-01
        2   -1    0    0  501    0  0.00000000000E+00  0.00000000000E+00  0.18290707829E+04  0.18290707829E+04  0.25500000920E-02 0. -1.
       -2   -1    0    0    0  501  0.00000000000E+00  0.00000000000E+00 -0.23064000604E+03  0.23064000605E+03  0.25500000920E-02 0.  1.
    10030    2    1    2    0    0  0.00000000000E+00  0.00000000000E+00  0.15984307768E+04  0.20597107889E+04  0.12990102331E+04 0.  0.
        2    1    3    3  502    0  0.34475496141E+03  0.18411420628E+03 -0.23316678163E+02  0.39153249145E+03  0.25500000920E-02 0.  1.
       -2    1    3    3    0  502 -0.34475496141E+03 -0.18411420628E+03  0.16217474550E+04  0.16681782975E+04  0.25500000920E-02 0. -1.
</event>
<event>
 5   0  0.5766027E-04  0.1284791E+04  0.7818609E-02  0.9041714E-01
       -1   -1    0    0    0  501  0.00000000000E+00  0.00000000000E+00  0.22375957375E+03  0.22375957381E+03  0.50400001928E-02 0. -1.
        1   -1    0    0  501    0  0.00000000000E+00  0.00000000000E+00 -0.18442650442E+04  0.18442650442E+04  0.50400001928E-02 0.  1.
    10030    2    1    2    0    0  0.00000000000E+00  0.00000000000E+00 -0.16205054705E+04  0.20680246181E+04  0.12847909717E+04 0.  0.
        3    1    3    3  502    0 -0.26218063489E+03 -0.14476850150E+03  0.10450884089E+03  0.31720452765E+03  0.10100000352E+00 0. -1.
       -3    1    3    3    0  502  0.26218063489E+03  0.14476850150E+03 -0.17250143114E+04  0.17508200904E+04  0.10100000352E+00 0.  1.
</event>
<event>
 5   0  0.1103241E-03  0.1294639E+04  0.7818609E-02  0.9033828E-01
        2   -1    0    0  501    0  0.00000000000E+00  0.00000000000E+00  0.13960359334E+04  0.13960359334E+04  0.25500000920E-02 0. -1.
       -2   -1    0    0    0  501  0.00000000000E+00  0.00000000000E+00 -0.30015152049E+03  0.30015152050E+03  0.25500000920E-02 0.  1.
    10030    2    1    2    0    0  0.00000000000E+00  0.00000000000E+00  0.10958844129E+04  0.16961874539E+04  0.12946386493E+04 0.  0.
        4    1    3    3  502    0 -0.28927863172E+02 -0.60939358901E+03  0.83144439490E+03  0.10312607635E+04  0.12699999809E+01 0. -1.
       -4    1    3    3    0  502  0.28927863172E+02  0.60939358901E+03  0.26444001802E+03  0.66492669042E+03  0.12699999809E+01 0.  1.
</event>
<event>
 5   0  0.1101619E-03  0.1289646E+04  0.7818609E-02  0.9037816E-01
        2   -1    0    0  501    0  0.00000000000E+00  0.00000000000E+00  0.16526435486E+04  0.16526435486E+04  0.25500000920E-02 0.  1.
       -2   -1    0    0    0  501  0.00000000000E+00  0.00000000000E+00 -0.25159504574E+03  0.25159504575E+03  0.25500000920E-02 0. -1.
    10030    2    1    2    0    0  0.00000000000E+00  0.00000000000E+00  0.14010485028E+04  0.19042385943E+04  0.12896463534E+04 0.  0.
        1    1    3    3  502    0  0.38054533227E+03 -0.47231111373E+03  0.10236997227E+04  0.11898964914E+04  0.50400001928E-02 0. -1.
       -1    1    3    3    0  502 -0.38054533227E+03  0.47231111373E+03  0.37734878016E+03  0.71434210290E+03  0.50400001928E-02 0.  1.
</event>
<event>
 5   0  0.5766027E-04  0.1285282E+04  0.7818609E-02  0.9041319E-01
       -1   -1    0    0    0  501  0.00000000000E+00  0.00000000000E+00  0.47161929170E+03  0.47161929173E+03  0.50400001928E-02 0. -1.
        1   -1    0    0  501    0  0.00000000000E+00  0.00000000000E+00 -0.87567980560E+03  0.87567980561E+03  0.50400001928E-02 0.  1.
    10030    2    1    2    0    0  0.00000000000E+00  0.00000000000E+00 -0.40406051390E+03  0.13472990973E+04  0.12852820542E+04 0.  0.
        3    1    3    3  502    0  0.48295985270E+03  0.86065864050E+02  0.23312669632E+03  0.54314419725E+03  0.10100000352E+00 0. -1.
       -3    1    3    3    0  502 -0.48295985270E+03 -0.86065864050E+02 -0.63718721022E+03  0.80415490009E+03  0.10100000352E+00 0.  1.
</event>
<event>
 5   0  0.5812938E-04  0.1293135E+04  0.7818609E-02  0.9035027E-01
       -1   -1    0    0    0  501  0.00000000000E+00  0.00000000000E+00  0.55090837816E+03  0.55090837819E+03  0.50400001928E-02 0.  1.
        1   -1    0    0  501    0  0.00000000000E+00  0.00000000000E+00 -0.75883640899E+03  0.75883640900E+03  0.50400001928E-02 0. -1.
    10030    2    1    2    0    0  0.00000000000E+00  0.00000000000E+00 -0.20792803082E+03  0.13097447872E+04  0.12931346958E+04 0.  0.
        5    1    3    3  502    0  0.20956896677E+03  0.39463540905E+03 -0.57726824263E+03  0.73001162447E+03  0.46999998093E+01 0. -1.
       -5    1    3    3    0  502 -0.20956896677E+03 -0.39463540905E+03  0.36934021181E+03  0.57973316272E+03  0.46999998093E+01 0.  1.
</event>
<event>
 5   0  0.5766027E-04  0.1275425E+04  0.7818609E-02  0.9049283E-01
       -1   -1    0    0    0  501  0.00000000000E+00  0.00000000000E+00  0.55984672485E+03  0.55984672488E+03  0.50400001928E-02 0.  1.
        1   -1    0    0  501    0  0.00000000000E+00  0.00000000000E+00 -0.72640831246E+03  0.72640831248E+03  0.50400001928E-02 0. -1.
    10030    2    1    2    0    0  0.00000000000E+00  0.00000000000E+00 -0.16656158761E+03  0.12862550374E+04  0.12754251286E+04 0.  0.
        3    1    3    3  502    0  0.63100108137E+03  0.88434469332E+02 -0.56707779280E+02  0.63968648766E+03  0.10100000352E+00 0.  1.
       -3    1    3    3    0  502 -0.63100108137E+03 -0.88434469332E+02 -0.10985380833E+03  0.64656854970E+03  0.10100000352E+00 0. -1.
</event>
<event>
 5   0  0.5812938E-04  0.1298826E+04  0.7818609E-02  0.9030497E-01
       -1   -1    0    0    0  501  0.00000000000E+00  0.00000000000E+00  0.26164409433E+03  0.26164409438E+03  0.50400001928E-02 0.  1.
        1   -1    0    0  501    0  0.00000000000E+00  0.00000000000E+00 -0.16118732923E+04  0.16118732923E+04  0.50400001928E-02 0. -1.
    10030    2    1    2    0    0  0.00000000000E+00  0.00000000000E+00 -0.13502291979E+04  0.18735173867E+04  0.12988258202E+04 0.  0.
        5    1    3    3  502    0  0.64801875348E+03 -0.36481373012E+02 -0.64431719206E+03  0.91456324517E+03  0.46999998093E+01 0. -1.
       -5    1    3    3    0  502 -0.64801875348E+03  0.36481373012E+02 -0.70591200587E+03  0.95895414148E+03  0.46999998093E+01 0.  1.
</event>
<event>
 5   0  0.1031295E-03  0.1321998E+04  0.7818609E-02  0.9012300E-01
        2   -1    0    0  501    0  0.00000000000E+00  0.00000000000E+00  0.57693954852E+03  0.57693954852E+03  0.25500000920E-02 0. -1.
       -2   -1    0    0    0  501  0.00000000000E+00  0.00000000000E+00 -0.75730620117E+03  0.75730620117E+03  0.25500000920E-02 0.  1.
    10030    2    1    2    0    0  0.00000000000E+00  0.00000000000E+00 -0.18036665265E+03  0.13342457497E+04  0.13219983325E+04 0.  0.
        2    1    3    3  502    0 -0.23615978263E+03 -0.28274537356E+02  0.53225462284E+03  0.58298016770E+03  0.25500000920E-02 0. -1.
       -2    1    3    3    0  502  0.23615978263E+03  0.28274537356E+02 -0.71262127549E+03  0.75126558199E+03  0.25500000920E-02 0.  1.
</event>
<event>
 5   0  0.5766027E-04  0.1291632E+04  0.7818609E-02  0.9036228E-01
       -1   -1    0    0    0  501  0.00000000000E+00  0.00000000000E+00  0.43174253881E+03  0.43174253884E+03  0.50400001928E-02 0. -1.
        1   -1    0    0  501    0  0.00000000000E+00  0.00000000000E+00 -0.96603457277E+03  0.96603457278E+03  0.50400001928E-02 0.  1.
    10030    2    1    2    0    0  0.00000000000E+00  0.00000000000E+00 -0.53429203396E+03  0.13977771116E+04  0.12916318656E+04 0.  0.
        3    1    3    3  502    0 -0.16090109560E+03  0.61260087307E+02  0.40644967191E+03  0.44141058762E+03  0.10100000352E+00 0. -1.
       -3    1    3    3    0  502  0.16090109560E+03 -0.61260087307E+02 -0.94074170587E+03  0.95636652400E+03  0.10100000352E+00 0.  1.
</event>
<event>
 5   0  0.1101619E-03  0.1322430E+04  0.7818609E-02  0.9011964E-01
       -2   -1    0    0    0  501  0.00000000000E+00  0.00000000000E+00  0.22396652505E+03  0.22396652506E+03  0.25500000920E-02 0.  1.
        2   -1    0    0  501    0  0.00000000000E+00  0.00000000000E+00 -0.19521020700E+04  0.19521020700E+04  0.25500000920E-02 0. -1.
    10030    2    1    2    0    0  0.00000000000E+00  0.00000000000E+00 -0.17281355449E+04  0.21760685951E+04  0.13224303644E+04 0.  0.
        1    1    3    3  502    0 -0.17512934665E+03  0.49767604966E+03 -0.20822680188E+03  0.56719497486E+03  0.50400001928E-02 0. -1.
       -1    1    3    3    0  502  0.17512934665E+03 -0.49767604966E+03 -0.15199087431E+04  0.16088736202E+04  0.50400001928E-02 0.  1.
</event>
<event>
 5   0  0.1103241E-03  0.1292088E+04  0.7818609E-02  0.9035863E-01
       -2   -1    0    0    0  501  0.00000000000E+00  0.00000000000E+00  0.88335732812E+03  0.88335732812E+03  0.25500000920E-02 0. -1.
        2   -1    0    0  501    0  0.00000000000E+00  0.00000000000E+00 -0.47248502405E+03  0.47248502406E+03  0.25500000920E-02 0.  1.
    10030    2    1    2    0    0  0.00000000000E+00  0.00000000000E+00  0.41087230407E+03  0.13558423522E+04  0.12920884001E+04 0.  0.
        4    1    3    3  502    0  0.15259066586E+03  0.23363518679E+03 -0.40598189599E+03  0.49263802593E+03  0.12699999809E+01 0.  1.
       -4    1    3    3    0  502 -0.15259066586E+03 -0.23363518679E+03  0.81685420006E+03  0.86320432626E+03  0.12699999809E+01 0. -1.
</event>
<event>
 5   0  0.5766027E-04  0.1304737E+04  0.7818609E-02  0.9025817E-01
        1   -1    0    0  501    0  0.00000000000E+00  0.00000000000E+00  0.64425140333E+03  0.64425140335E+03  0.50400001928E-02 0. -1.
       -1   -1    0    0    0  501  0.00000000000E+00  0.00000000000E+00 -0.66058769695E+03  0.66058769697E+03  0.50400001928E-02 0.  1.
    10030    2    1    2    0    0  0.00000000000E+00  0.00000000000E+00 -0.16336293621E+02  0.13048391003E+04  0.13047368329E+04 0.  0.
        3    1    3    3  502    0  0.40597681140E+03  0.52360334241E+02 -0.51617032707E+03  0.65877962381E+03  0.10100000352E+00 0.  1.
       -3    1    3    3    0  502 -0.40597681140E+03 -0.52360334241E+02  0.49983403345E+03  0.64605947651E+03  0.10100000352E+00 0. -1.
</event>
<event>
 5   0  0.1046253E-03  0.1313116E+04  0.7818609E-02  0.9019228E-01
        2   -1    0    0  501    0  0.00000000000E+00  0.00000000000E+00  0.11554911618E+04  0.11554911619E+04  0.25500000920E-02 0.  1.
       -2   -1    0    0    0  501  0.00000000000E+00  0.00000000000E+00 -0.37306064792E+03  0.37306064793E+03  0.25500000920E-02 0. -1.
    10030    2    1    2    0    0  0.00000000000E+00  0.00000000000E+00  0.78243051393E+03  0.15285518098E+04  0.13131158083E+04 0.  0.
        3    1    3    3  502    0  0.13759075839E+03  0.28790380805E+03 -0.27672713057E+03  0.42237155974E+03  0.10100000352E+00 0. -1.
       -3    1    3    3    0  502 -0.13759075839E+03 -0.28790380805E+03  0.10591576445E+04  0.11061802500E+04  0.10100000352E+00 0.  1.
</event>
<event>
 5   0  0.1046253E-03  0.1298466E+04  0.7818609E-02  0.9030782E-01
       -2   -1    0    0    0  501  0.00000000000E+00  0.00000000000E+00  0.58768911049E+03  0.58768911050E+03  0.25500000920E-02 0.  1.
        2   -1    0    0  501    0  0.00000000000E+00  0.00000000000E+00 -0.71722235962E+03  0.71722235962E+03  0.25500000920E-02 0. -1.
    10030    2    1    2    0    0  0.00000000000E+00  0.00000000000E+00 -0.12953324913E+03  0.13049114701E+04  0.12984664348E+04 0.  0.
        3    1    3    3  502    0 -0.29617785322E+03  0.16349316255E+03 -0.62164017007E+03  0.70773430480E+03  0.10100000352E+00 0. -1.
       -3    1    3    3    0  502  0.29617785322E+03 -0.16349316255E+03  0.49210692095E+03  0.59717716532E+03  0.10100000352E+00 0.  1.
</event>
<event>
 5   0  0.5563545E-04  0.1302408E+04  0.7818609E-02  0.9027658E-01
        1   -1    0    0  501    0  0.00000000000E+00  0.00000000000E+00  0.10500077172E+04  0.10500077172E+04  0.50400001928E-02 0. -1.
       -1   -1    0    0    0  501  0.00000000000E+00  0.00000000000E+00 -0.40386975205E+03  0.40386975208E+03  0.50400001928E-02 0.  1.
    10030    2    1    2    0    0  0.00000000000E+00  0.00000000000E+00  0.64613796512E+03  0.14538774693E+04  0.13024075498E+04 0.  0.
        2    1    3    3  502    0 -0.61042889579E+03  0.18927117315E+03  0.46258121135E+03  0.78894131018E+03  0.25500000920E-02 0. -1.
       -2    1    3    3    0  502  0.61042889579E+03 -0.18927117315E+03  0.18355675377E+03  0.66493615909E+03  0.25500000920E-02 0.  1.
</event>
<event>
 5   0  0.5812938E-04  0.1272632E+04  0.7818609E-02  0.9051554E-01
       -1   -1    0    0    0  501  0.00000000000E+00  0.00000000000E+00  0.24917282723E+03  0.24917282728E+03  0.50400001928E-02 0.  1.
        1   -1    0    0  501    0  0.00000000000E+00  0.00000000000E+00 -0.16249688976E+04  0.16249688976E+04  0.50400001928E-02 0. -1.
    10030    2    1    2    0    0  0.00000000000E+00  0.00000000000E+00 -0.13757960703E+04  0.18741417249E+04  0.12726320669E+04 0.  0.
        5    1    3    3  502    0 -0.23488257651E+03 -0.20233247489E+02 -0.15582539162E+04  0.15759938345E+04  0.46999998093E+01 0. -1.
       -5    1    3    3    0  502  0.23488257651E+03  0.20233247489E+02  0.18245784582E+03  0.29814789040E+03  0.46999998093E+01 0.  1.
</event>
<event>
 5   0  0.5710383E-04  0.1292228E+04  0.7818609E-02  0.9035751E-01
       -1   -1    0    0    0  501  0.00000000000E+00  0.00000000000E+00  0.34632118737E+03  0.34632118740E+03  0.50400001928E-02 0. -1.
        1   -1    0    0  501    0  0.00000000000E+00  0.00000000000E+00 -0.12054218944E+04  0.12054218944E+04  0.50400001928E-02 0.  1.
    10030    2    1    2    0    0  0.00000000000E+00  0.00000000000E+00 -0.85910070705E+03  0.15517430818E+04  0.12922277536E+04 0.  0.
        1    1    3    3  502    0 -0.52628428469E+03  0.14127592303E+03 -0.12655318422E+02  0.54506347506E+03  0.50400001928E-02 0. -1.
       -1    1    3    3    0  502  0.52628428469E+03 -0.14127592303E+03 -0.84644538863E+03  0.10066796068E+04  0.50400001928E-02 0.  1.
</event>
<event>
 5   0  0.1081574E-03  0.1321443E+04  0.7818609E-02  0.9012731E-01
        2   -1    0    0  501    0  0.00000000000E+00  0.00000000000E+00  0.11692769876E+04  0.11692769876E+04  0.25500000920E-02 0. -1.
       -2   -1    0    0    0  501  0.00000000000E+00  0.00000000000E+00 -0.37335291637E+03  0.37335291638E+03  0.25500000920E-02 0.  1.
    10030    2    1    2    0    0  0.00000000000E+00  0.00000000000E+00  0.79592407121E+03  0.15426299040E+04  0.13214431102E+04 0.  0.
        5    1    3    3  502    0 -0.32077939996E+03 -0.45627169949E+03  0.81143245717E+03  0.98464613428E+03  0.46999998093E+01 0. -1.
       -5    1    3    3    0  502  0.32077939996E+03  0.45627169949E+03 -0.15508385958E+02  0.55798376968E+03  0.46999998093E+01 0.  1.
</event>
<event>
 5   0  0.1046253E-03  0.1308055E+04  0.7818609E-02  0.9023202E-01
        2   -1    0    0  501    0  0.00000000000E+00  0.00000000000E+00  0.17302164643E+04  0.17302164643E+04  0.25500000920E-02 0.  1.
       -2   -1    0    0    0  501  0.00000000000E+00  0.00000000000E+00 -0.24722462877E+03  0.24722462878E+03  0.25500000920E-02 0. -1.
    10030    2    1    2    0    0  0.00000000000E+00  0.00000000000E+00  0.14829918355E+04  0.19774410930E+04  0.13080552329E+04 0.  0.
        3    1    3    3  502    0  0.62415228116E+03 -0.11905704261E+03  0.50724204084E+03  0.81304068020E+03  0.10100000352E+00 0. -1.
       -3    1    3    3    0  502 -0.62415228116E+03  0.11905704261E+03  0.97574979465E+03  0.11644004128E+04  0.10100000352E+00 0.  1.
</event>
<event>
 5   0  0.1103241E-03  0.1293282E+04  0.7818609E-02  0.9034910E-01
       -2   -1    0    0    0  501  0.00000000000E+00  0.00000000000E+00  0.34182209346E+03  0.34182209347E+03  0.25500000920E-02 0. -1.
        2   -1    0    0  501    0  0.00000000000E+00  0.00000000000E+00 -0.12232814578E+04  0.12232814578E+04  0.25500000920E-02 0.  1.
    10030    2    1    2    0    0  0.00000000000E+00  0.00000000000E+00 -0.88145936432E+03  0.15651035513E+04  0.12932820710E+04 0.  0.
        4    1    3    3  502    0  0.51119443061E+03  0.35024582396E+03 -0.66437117212E+03  0.90850566885E+03  0.12699999809E+01 0.  1.
       -4    1    3    3    0  502 -0.51119443061E+03 -0.35024582396E+03 -0.21708819220E+03  0.65659788241E+03  0.12699999809E+01 0. -1.
</event>
<event>
 5   0  0.1046253E-03  0.1312990E+04  0.7818609E-02  0.9019327E-01
       -2   -1    0    0    0  501  0.00000000000E+00  0.00000000000E+00  0.82325455478E+03  0.82325455478E+03  0.25500000920E-02 0. -1.
        2   -1    0    0  501    0  0.00000000000E+00  0.00000000000E+00 -0.52351435482E+03  0.52351435483E+03  0.25500000920E-02 0.  1.
    10030    2    1    2    0    0  0.00000000000E+00  0.00000000000E+00  0.29974019995E+03  0.13467689096E+04  0.13129898356E+04 0.  0.
        3    1    3    3  502    0  0.12253913854E+03 -0.64427478189E+03  0.11944676103E+03  0.66661336169E+03  0.10100000352E+00 0. -1.
       -3    1    3    3    0  502 -0.12253913854E+03  0.64427478189E+03  0.18029343892E+03  0.68015554793E+03  0.10100000352E+00 0.  1.
</event>
<event>
 5   0  0.5812938E-04  0.1293707E+04  0.7818609E-02  0.9034571E-01
       -1   -1    0    0    0  501  0.00000000000E+00  0.00000000000E+00  0.60604329335E+03  0.60604329337E+03  0.50400001928E-02 0.  1.
        1   -1    0    0  501    0  0.00000000000E+00  0.00000000000E+00 -0.69041144663E+03  0.69041144665E+03  0.50400001928E-02 0. -1.
    10030    2    1    2    0    0  0.00000000000E+00  0.00000000000E+00 -0.84368153281E+02  0.12964547400E+04  0.12937066544E+04 0.  0.
        5    1    3    3  502    0  0.13309771816E+03  0.56977887757E+03  0.23414458802E+03  0.63024499205E+03  0.46999998093E+01 0.  1.
       -5    1    3    3    0  502 -0.13309771816E+03 -0.56977887757E+03 -0.31851274131E+03  0.66620974796E+03  0.46999998093E+01 0. -1.
</event>
<event>
 5   0  0.6006119E-04  0.1292616E+04  0.7818609E-02  0.9035441E-01
       -1   -1    0    0    0  501  0.00000000000E+00  0.00000000000E+00  0.35032493680E+03  0.35032493683E+03  0.50400001928E-02 0. -1.
        1   -1    0    0  501    0  0.00000000000E+00  0.00000000000E+00 -0.11923617227E+04  0.11923617227E+04  0.50400001928E-02 0.  1.
    10030    2    1    2    0    0  0.00000000000E+00  0.00000000000E+00 -0.84203678594E+03  0.15426866596E+04  0.12926160222E+04 0.  0.
        4    1    3    3  502    0  0.26847425722E+03 -0.53058046718E+03 -0.72322185633E+03  0.93629350383E+03  0.12699999809E+01 0. -1.
       -4    1    3    3    0  502 -0.26847425722E+03  0.53058046718E+03 -0.11881492962E+03  0.60639315575E+03  0.12699999809E+01 0.  1.
</event>
<event>
 5   0  0.5812938E-04  0.1301710E+04  0.7818609E-02  0.9028210E-01
        1   -1    0    0  501    0  0.00000000000E+00  0.00000000000E+00  0.45692783872E+03  0.45692783875E+03  0.50400001928E-02 0.  1.
       -1   -1    0    0    0  501  0.00000000000E+00  0.00000000000E+00 -0.92708813356E+03  0.92708813357E+03  0.50400001928E-02 0. -1.
    10030    2    1    2    0    0  0.00000000000E+00  0.00000000000E+00 -0.47016029484E+03  0.13840159723E+04  0.13017102246E+04 0.  0.
        5    1    3    3  502    0  0.29498802806E+03 -0.21984999702E+03  0.33574441440E+03  0.49809472963E+03  0.46999998093E+01 0.  1.
       -5    1    3    3    0  502 -0.29498802806E+03  0.21984999702E+03 -0.80590470924E+03  0.88592124269E+03  0.46999998093E+01 0. -1.
</event>
<event>
 5   0  0.6006119E-04  0.1301753E+04  0.7818609E-02  0.9028176E-01
       -1   -1    0    0    0  501  0.00000000000E+00  0.00000000000E+00  0.47632587204E+03  0.47632587207E+03  0.50400001928E-02 0. -1.
        1   -1    0    0  501    0  0.00000000000E+00  0.00000000000E+00 -0.88939152469E+03  0.88939152471E+03  0.50400001928E-02 0.  1.
    10030    2    1    2    0    0  0.00000000000E+00  0.00000000000E+00 -0.41306565265E+03  0.13657173968E+04  0.13017529621E+04 0.  0.
        4    1    3    3  502    0 -0.63430583900E+03 -0.60005424927E+02 -0.34608791431E+03  0.72506758702E+03  0.12699999809E+01 0.  1.
       -4    1    3    3    0  502  0.63430583900E+03  0.60005424927E+02 -0.66977738340E+02  0.64064980976E+03  0.12699999809E+01 0. -1.
</event>
<event>
 5   0  0.1046253E-03  0.1301248E+04  0.7818609E-02  0.9028576E-01
       -2   -1    0    0    0  501  0.00000000000E+00  0.00000000000E+00  0.30118972813E+03  0.30118972814E+03  0.25500000920E-02 0. -1.
        2   -1    0    0  501    0  0.00000000000E+00  0.00000000000E+00 -0.14054644141E+04  0.14054644142E+04  0.25500000920E-02 0.  1.
    10030    2    1    2    0    0  0.00000000000E+00  0.00000000000E+00 -0.11042746860E+04  0.17066541423E+04  0.13012477778E+04 0.  0.
        3    1    3    3  502    0 -0.61517225387E+03  0.94884897346E+01 -0.82969255641E+03  0.10329165899E+04  0.10100000352E+00 0.  1.
       -3    1    3    3    0  502  0.61517225387E+03 -0.94884897346E+01 -0.27458212961E+03  0.67373755237E+03  0.10100000352E+00 0. -1.
</event>
<event>
 5   0  0.5766027E-04  0.1301258E+04  0.7818609E-02  0.9028568E-01
       -1   -1    0    0    0  501  0.00000000000E+00  0.00000000000E+00  0.41517590885E+03  0.41517590888E+03  0.50400001928E-02 0.  1.
        1   -1    0    0  501    0  0.00000000000E+00  0.00000000000E+00 -0.10196111285E+04  0.10196111285E+04  0.50400001928E-02 0. -1.
    10030    2    1    2    0    0  0.00000000000E+00  0.00000000000E+00 -0.60443521964E+03  0.14347870374E+04  0.13012578176E+04 0.  0.
        3    1    3    3  502    0 -0.15310606934E+03  0.63217460629E+03 -0.31900365750E+03  0.72446500606E+03  0.10100000352E+00 0. -1.
       -3    1    3    3    0  502  0.15310606934E+03 -0.63217460629E+03 -0.28543156214E+03  0.71032203132E+03  0.10100000352E+00 0.  1.
</event>
<event>
 5   0  0.4012375E-04  0.1299443E+04  0.7818609E-02  0.9030007E-01
       -4   -1    0    0    0  501  0.00000000000E+00  0.00000000000E+00  0.93842231707E+03  0.93842317644E+03  0.12699999809E+01 0. -1.
        4   -1    0    0  501    0  0.00000000000E+00  0.00000000000E+00 -0.44983631424E+03  0.44983810700E+03  0.12699999809E+01 0.  1.
    10030    2    1    2    0    0  0.00000000000E+00  0.00000000000E+00  0.48858600283E+03  0.13882612834E+04  0.12994433843E+04 0.  0.
        4    1    3    3  502    0 -0.15418159702E+03  0.58048319914E+03  0.50902840361E+03  0.78730187217E+03  0.12699999809E+01 0. -1.
       -4    1    3    3    0  502  0.15418159702E+03 -0.58048319914E+03 -0.20442400781E+02  0.60095941127E+03  0.12699999809E+01 0.  1.
</event>
<event>
 5   0  0.1046253E-03  0.1302524E+04  0.7818609E-02  0.9027566E-01
       -2   -1    0    0    0  501  0.00000000000E+00  0.00000000000E+00  0.35744706315E+03  0.35744706316E+03  0.25500000920E-02 0.  1.
        2   -1    0    0  501    0  0.00000000000E+00  0.00000000000E+00 -0.11865874872E+04  0.11865874872E+04  0.25500000920E-02 0. -1.
    10030    2    1    2    0    0  0.00000000000E+00  0.00000000000E+00 -0.82914042403E+03  0.15440345503E+04  0.13025240305E+04 0.  0.
        3    1    3    3  502    0 -0.24877124238E+03  0.54726512438E+03 -0.11760967439E+03  0.61255064534E+03  0.10100000352E+00 0.  1.
       -3    1    3    3    0  502  0.24877124238E+03 -0.54726512438E+03 -0.71153074964E+03  0.93148390501E+03  0.10100000352E+00 0. -1.
</event>
<event>
 5   0  0.5766027E-04  0.1299225E+04  0.7818609E-02  0.9030180E-01
       -1   -1    0    0    0  501  0.00000000000E+00  0.00000000000E+00  0.11959687121E+04  0.11959687121E+04  0.50400001928E-02 0. -1.
        1   -1    0    0  501    0  0.00000000000E+00  0.00000000000E+00 -0.35284908352E+03  0.35284908355E+03  0.50400001928E-02 0.  1.
    10030    2    1    2    0    0  0.00000000000E+00  0.00000000000E+00  0.84311962861E+03  0.15488177957E+04  0.12992250983E+04 0.  0.
        3    1    3    3  502    0  0.18029235882E+03 -0.40016539304E+03 -0.14935802144E+03  0.46362215780E+03  0.10100000352E+00 0.  1.
       -3    1    3    3    0  502 -0.18029235882E+03  0.40016539304E+03  0.99247765005E+03  0.10851956379E+04  0.10100000352E+00 0. -1.
</event>
<event>
 5   0  0.1103241E-03  0.1305044E+04  0.7818609E-02  0.9025575E-01
       -2   -1    0    0    0  501  0.00000000000E+00  0.00000000000E+00  0.38401625724E+03  0.38401625725E+03  0.25500000920E-02 0.  1.
        2   -1    0    0  501    0  0.00000000000E+00  0.00000000000E+00 -0.11087676842E+04  0.11087676842E+04  0.25500000920E-02 0. -1.
    10030    2    1    2    0    0  0.00000000000E+00  0.00000000000E+00 -0.72475142693E+03  0.14927839414E+04  0.13050437789E+04 0.  0.
        4    1    3    3  502    0 -0.63500612902E+03 -0.10795391175E+03 -0.24297337236E+03  0.68842174830E+03  0.12699999809E+01 0.  1.
       -4    1    3    3    0  502  0.63500612902E+03  0.10795391175E+03 -0.48177805456E+03  0.80436219312E+03  0.12699999809E+01 0. -1.
</event>
<event>
 5   0  0.4012375E-04  0.1301704E+04  0.7818609E-02  0.9028215E-01
        4   -1    0    0  501    0  0.00000000000E+00  0.00000000000E+00  0.95078588103E+03  0.95078672922E+03  0.12699999809E+01 0. -1.
       -4   -1    0    0    0  501  0.00000000000E+00  0.00000000000E+00 -0.44553266397E+03  0.44553447405E+03  0.12699999809E+01 0.  1.
    10030    2    1    2    0    0  0.00000000000E+00  0.00000000000E+00  0.50525321705E+03  0.13963212033E+04  0.13017035336E+04 0.  0.
        1    1    3    3  502    0  0.12314144493E+02 -0.25284070118E+03  0.89581705751E+03  0.93089648129E+03  0.50400001928E-02 0. -1.
       -1    1    3    3    0  502 -0.12314144493E+02  0.25284070118E+03 -0.39056384046E+03  0.46542472198E+03  0.50400001928E-02 0.  1.
</event>
<event>
 5   0  0.5563545E-04  0.1299465E+04  0.7818609E-02  0.9029989E-01
        1   -1    0    0  501    0  0.00000000000E+00  0.00000000000E+00  0.16195921354E+04  0.16195921354E+04  0.50400001928E-02 0.  1.
       -1   -1    0    0    0  501  0.00000000000E+00  0.00000000000E+00 -0.26065366247E+03  0.26065366252E+03  0.50400001928E-02 0. -1.
    10030    2    1    2    0    0  0.00000000000E+00  0.00000000000E+00  0.13589384729E+04  0.18802457979E+04  0.12994654622E+04 0.  0.
        2    1    3    3  502    0  0.68569530230E+02  0.21746536184E+03 -0.20085858669E+03  0.30387026168E+03  0.25500000920E-02 0. -1.
       -2    1    3    3    0  502 -0.68569530230E+02 -0.21746536184E+03  0.15597970596E+04  0.15763755362E+04  0.25500000920E-02 0.  1.
</event>
<event>
 5   0  0.6006119E-04  0.1305402E+04  0.7818609E-02  0.9025293E-01
       -1   -1    0    0    0  501  0.00000000000E+00  0.00000000000E+00  0.43124358923E+03  0.43124358926E+03  0.50400001928E-02 0.  1.
        1   -1    0    0  501    0  0.00000000000E+00  0.00000000000E+00 -0.98788338758E+03  0.98788338759E+03  0.50400001928E-02 0. -1.
    10030    2    1    2    0    0  0.00000000000E+00  0.00000000000E+00 -0.55663979835E+03  0.14191269769E+04  0.13054016667E+04 0.  0.
        4    1    3    3  502    0  0.80800650633E+02 -0.35448490962E+03  0.31096325871E+03  0.47842246755E+03  0.12699999809E+01 0.  1.
       -4    1    3    3    0  502 -0.80800650633E+02  0.35448490962E+03 -0.86760305706E+03  0.94070450930E+03  0.12699999809E+01 0. -1.
</event>
<event>
 5   0  0.5766027E-04  0.1314508E+04  0.7818609E-02  0.9018139E-01
        1   -1    0    0  501    0  0.00000000000E+00  0.00000000000E+00  0.40706614062E+03  0.40706614065E+03  0.50400001928E-02 0.  1.
       -1   -1    0    0    0  501  0.00000000000E+00  0.00000000000E+00 -0.10612100635E+04  0.10612100636E+04  0.50400001928E-02 0. -1.
    10030    2    1    2    0    0  0.00000000000E+00  0.00000000000E+00 -0.65414392292E+03  0.14682762042E+04  0.13145077938E+04 0.  0.
        3    1    3    3  502    0  0.20653684821E+03 -0.60738738745E+03 -0.48663086871E+03  0.80522451570E+03  0.10100000352E+00 0.  1.
       -3    1    3    3    0  502 -0.20653684821E+03  0.60738738745E+03 -0.16751305421E+03  0.66305168851E+03  0.10100000352E+00 0. -1.
</event>
<event>
 5   0  0.5812938E-04  0.1296804E+04  0.7818609E-02  0.9032103E-01
       -1   -1    0    0    0  501  0.00000000000E+00  0.00000000000E+00  0.36250169064E+03  0.36250169068E+03  0.50400001928E-02 0.  1.
        1   -1    0    0  501    0  0.00000000000E+00  0.00000000000E+00 -0.11597889922E+04  0.11597889922E+04  0.50400001928E-02 0. -1.
    10030    2    1    2    0    0  0.00000000000E+00  0.00000000000E+00 -0.79728730159E+03  0.15222906829E+04  0.12968044887E+04 0.  0.
        5    1    3    3  502    0 -0.45770236835E+03  0.25645034661E+03 -0.84586686325E+03  0.99537484327E+03  0.46999998093E+01 0. -1.
       -5    1    3    3    0  502  0.45770236835E+03 -0.25645034661E+03  0.48579561652E+02  0.52691583966E+03  0.46999998093E+01 0.  1.
</event>
<event>
 5   0  0.1046253E-03  0.1331308E+04  0.7818609E-02  0.9005099E-01
        2   -1    0    0  501    0  0.00000000000E+00  0.00000000000E+00  0.32994010891E+03  0.32994010892E+03  0.25500000920E-02 0. -1.
       -2   -1    0    0    0  501  0.00000000000E+00  0.00000000000E+00 -0.13429569673E+04  0.13429569673E+04  0.25500000920E-02 0.  1.
    10030    2    1    2    0    0  0.00000000000E+00  0.00000000000E+00 -0.10130168584E+04  0.16728970762E+04  0.13313081808E+04 0.  0.
        3    1    3    3  502    0 -0.64259697948E+03 -0.16023749240E+03 -0.42232286074E+03  0.78547026736E+03  0.10100000352E+00 0.  1.
       -3    1    3    3    0  502  0.64259697948E+03  0.16023749240E+03 -0.59069399761E+03  0.88742680883E+03  0.10100000352E+00 0. -1.
</event>
<event>
 5   0  0.5710383E-04  0.1308056E+04  0.7818609E-02  0.9023201E-01
        1   -1    0    0  501    0  0.00000000000E+00  0.00000000000E+00  0.11293429035E+04  0.11293429035E+04  0.50400001928E-02 0.  1.
       -1   -1    0    0    0  501  0.00000000000E+00  0.00000000000E+00 -0.37876229026E+03  0.37876229029E+03  0.50400001928E-02 0. -1.
    10030    2    1    2    0    0  0.00000000000E+00  0.00000000000E+00  0.75058061326E+03  0.15081051938E+04  0.13080558163E+04 0.  0.
        1    1    3    3  502    0 -0.21344512420E+03 -0.12022538331E+03  0.10744486169E+04  0.11020221387E+04  0.50400001928E-02 0.  1.
       -1    1    3    3    0  502  0.21344512420E+03  0.12022538331E+03 -0.32386800364E+03  0.40608305510E+03  0.50400001928E-02 0. -1.
</event>
<event>
 5   0  0.1101619E-03  0.1291678E+04  0.7818609E-02  0.9036191E-01
        2   -1    0    0  501    0  0.00000000000E+00  0.00000000000E+00  0.12104817490E+04  0.12104817490E+04  0.25500000920E-02 0.  1.
       -2   -1    0    0    0  501  0.00000000000E+00  0.00000000000E+00 -0.34458015579E+03  0.34458015580E+03  0.25500000920E-02 0. -1.
    10030    2    1    2    0    0  0.00000000000E+00  0.00000000000E+00  0.86590159319E+03  0.15550619048E+04  0.12916779624E+04 0.  0.
        1    1    3    3  502    0 -0.28388651875E+01  0.61223509611E+03  0.68046486324E+03  0.91535364870E+03  0.50400001928E-02 0.  1.
       -1    1    3    3    0  502  0.28388651875E+01 -0.61223509611E+03  0.18543672995E+03  0.63970825608E+03  0.50400001928E-02 0. -1.
</event>
<event>
 5   0  0.5766027E-04  0.1301360E+04  0.7818609E-02  0.9028488E-01
        1   -1    0    0  501    0  0.00000000000E+00  0.00000000000E+00  0.23371315331E+04  0.23371315331E+04  0.50400001928E-02 0. -1.
       -1   -1    0    0    0  501  0.00000000000E+00  0.00000000000E+00 -0.18115551561E+03  0.18115551568E+03  0.50400001928E-02 0.  1.
    10030    2    1    2    0    0  0.00000000000E+00  0.00000000000E+00  0.21559760174E+04  0.25182870487E+04  0.13013597013E+04 0.  0.
        3    1    3    3  502    0 -0.19526496532E+03  0.61175872514E+03  0.12810107079E+04  0.14329569388E+04  0.10100000352E+00 0. -1.
       -3    1    3    3    0  502  0.19526496532E+03 -0.61175872514E+03  0.87496530954E+03  0.10853301099E+04  0.10100000352E+00 0.  1.
</event>
<event>
 5   0  0.5563545E-04  0.1301372E+04  0.7818609E-02  0.9028478E-01
       -1   -1    0    0    0  501  0.00000000000E+00  0.00000000000E+00  0.44294254385E+03  0.44294254387E+03  0.50400001928E-02 0. -1.
        1   -1    0    0  501    0  0.00000000000E+00  0.00000000000E+00 -0.95586291565E+03  0.95586291566E+03  0.50400001928E-02 0.  1.
    10030    2    1    2    0    0  0.00000000000E+00  0.00000000000E+00 -0.51292037180E+03  0.13988054595E+04  0.13013721243E+04 0.  0.
        2    1    3    3  502    0 -0.47491131597E+03 -0.19926585185E+03  0.17098768534E+03  0.54266419293E+03  0.25500000920E-02 0. -1.
       -2    1    3    3    0  502  0.47491131597E+03  0.19926585185E+03 -0.68390805714E+03  0.85614126660E+03  0.25500000920E-02 0.  1.
</event>
<event>
 5   0  0.5812938E-04  0.1280258E+04  0.7818609E-02  0.9045369E-01
        1   -1    0    0  501    0  0.00000000000E+00  0.00000000000E+00  0.10872087625E+04  0.10872087625E+04  0.50400001928E-02 0.  1.
       -1   -1    0    0    0  501  0.00000000000E+00  0.00000000000E+00 -0.37689646181E+03  0.37689646184E+03  0.50400001928E-02 0. -1.
    10030    2    1    2    0    0  0.00000000000E+00  0.00000000000E+00  0.71031230066E+03  0.14641052243E+04  0.12802579988E+04 0.  0.
        5    1    3    3  502    0 -0.62462565831E+03  0.10733616948E+02  0.51473109721E+03  0.80947057760E+03  0.46999998093E+01 0.  1.
       -5    1    3    3    0  502  0.62462565831E+03 -0.10733616948E+02  0.19558120345E+03  0.65463464673E+03  0.46999998093E+01 0. -1.
</event>
<event>
 5   0  0.1081574E-03  0.1305341E+04  0.7818609E-02  0.9025341E-01
       -2   -1    0    0    0  501  0.00000000000E+00  0.00000000000E+00  0.12011576218E+04  0.12011576218E+04  0.25500000920E-02 0. -1.
        2   -1    0    0  501    0  0.00000000000E+00  0.00000000000E+00 -0.35463999115E+03  0.35463999116E+03  0.25500000920E-02 0.  1.
    10030    2    1    2    0    0  0.00000000000E+00  0.00000000000E+00  0.84651763062E+03  0.15557976129E+04  0.13053406120E+04 0.  0.
        5    1    3    3  502    0 -0.40483699628E+03  0.30843249297E+03 -0.63708871825E+02  0.51293713711E+03  0.46999998093E+01 0.  1.
       -5    1    3    3    0  502  0.40483699628E+03 -0.30843249297E+03  0.91022650244E+03  0.10428604758E+04  0.46999998093E+01 0. -1.
</event>
<event>
 5   0  0.1081574E-03  0.1302955E+04  0.7818609E-02  0.9027225E-01
        2   -1    0    0  501    0  0.00000000000E+00  0.00000000000E+00  0.17998925590E+04  0.17998925590E+04  0.25500000920E-02 0. -1.
       -2   -1    0    0    0  501  0.00000000000E+00  0.00000000000E+00 -0.23580470446E+03  0.23580470447E+03  0.25500000920E-02 0.  1.
    10030    2    1    2    0    0  0.00000000000E+00  0.00000000000E+00  0.15640878545E+04  0.20356972635E+04  0.13029553069E+04 0.  0.
        5    1    3    3  502    0  0.35585693686E+03  0.50000703378E+03  0.11234845179E+04  0.12801877774E+04  0.46999998093E+01 0. -1.
       -5    1    3    3    0  502 -0.35585693686E+03 -0.50000703378E+03  0.44060333663E+03  0.75550948610E+03  0.46999998093E+01 0.  1.
</event>
<event>
 5   0  0.1081574E-03  0.1301334E+04  0.7818609E-02  0.9028508E-01
        2   -1    0    0  501    0  0.00000000000E+00  0.00000000000E+00  0.52299892190E+03  0.52299892191E+03  0.25500000920E-02 0.  1.
       -2   -1    0    0    0  501  0.00000000000E+00  0.00000000000E+00 -0.80949943412E+03  0.80949943412E+03  0.25500000920E-02 0. -1.
    10030    2    1    2    0    0  0.00000000000E+00  0.00000000000E+00 -0.28650051222E+03  0.13324983560E+04  0.13013336718E+04 0.  0.
        5    1    3    3  502    0 -0.46451520941E+03  0.29745460828E+03  0.21011074099E+03  0.59027301924E+03  0.46999998093E+01 0.  1.
       -5    1    3    3    0  502  0.46451520941E+03 -0.29745460828E+03 -0.49661125321E+03  0.74222533679E+03  0.46999998093E+01 0. -1.
</event>
<event>
 5   0  0.6006119E-04  0.1301186E+04  0.7818609E-02  0.9028625E-01
        1   -1    0    0  501    0  0.00000000000E+00  0.00000000000E+00  0.72484886973E+03  0.72484886975E+03  0.50400001928E-02 0.  1.
       -1   -1    0    0    0  501  0.00000000000E+00  0.00000000000E+00 -0.58394384297E+03  0.58394384299E+03  0.50400001928E-02 0. -1.
    10030    2    1    2    0    0  0.00000000000E+00  0.00000000000E+00  0.14090502676E+03  0.13087927127E+04  0.13011856664E+04 0.  0.
        4    1    3    3  502    0 -0.20099059409E+03  0.23874305235E+03  0.64464357192E+03  0.71621394267E+03  0.12699999809E+01 0.  1.
       -4    1    3    3    0  502  0.20099059409E+03 -0.23874305235E+03 -0.50373854516E+03  0.59257877007E+03  0.12699999809E+01 0. -1.
</event>
<event>
 5   0  0.1031295E-03  0.1298135E+04  0.7818609E-02  0.9031045E-01
       -2   -1    0    0    0  501  0.00000000000E+00  0.00000000000E+00  0.58611106561E+03  0.58611106561E+03  0.25500000920E-02 0.  1.
        2   -1    0    0  501    0  0.00000000000E+00  0.00000000000E+00 -0.71878640802E+03  0.71878640802E+03  0.25500000920E-02 0. -1.
    10030    2    1    2    0    0  0.00000000000E+00  0.00000000000E+00 -0.13267534241E+03  0.13048974736E+04  0.12981350739E+04 0.  0.
        2    1    3    3  502    0  0.40883173781E+03 -0.29292133477E+03 -0.47877049707E+03  0.69438281018E+03  0.25500000920E-02 0. -1.
       -2    1    3    3    0  502 -0.40883173781E+03  0.29292133477E+03  0.34609515466E+03  0.61051466345E+03  0.25500000920E-02 0.  1.
</event>
<event>
 5   0  0.1046253E-03  0.1297689E+04  0.7818609E-02  0.9031400E-01
        2   -1    0    0  501    0  0.00000000000E+00  0.00000000000E+00  0.92639929463E+03  0.92639929463E+03  0.25500000920E-02 0. -1.
       -2   -1    0    0    0  501  0.00000000000E+00  0.00000000000E+00 -0.45444675193E+03  0.45444675194E+03  0.25500000920E-02 0.  1.
    10030    2    1    2    0    0  0.00000000000E+00  0.00000000000E+00  0.47195254270E+03  0.13808460466E+04  0.12976889465E+04 0.  0.
        3    1    3    3  502    0  0.13434931776E+03  0.56761424641E+03  0.53837651452E+03  0.79377890719E+03  0.10100000352E+00 0. -1.
       -3    1    3    3    0  502 -0.13434931776E+03 -0.56761424641E+03 -0.66423971824E+02  0.58706713938E+03  0.10100000352E+00 0.  1.
</event>
<event>
 5   0  0.5710383E-04  0.1288000E+04  0.7818609E-02  0.9039135E-01
        1   -1    0    0  501    0  0.00000000000E+00  0.00000000000E+00  0.42103694508E+03  0.42103694511E+03  0.50400001928E-02 0.  1.
       -1   -1    0    0    0  501  0.00000000000E+00  0.00000000000E+00 -0.98503534373E+03  0.98503534375E+03  0.50400001928E-02 0. -1.
    10030    2    1    2    0    0  0.00000000000E+00  0.00000000000E+00 -0.56399839865E+03  0.14060722889E+04  0.12880004223E+04 0.  0.
        1    1    3    3  502    0 -0.61248050188E+03 -0.56976615017E+02 -0.49015526976E+03  0.78653092014E+03  0.50400001928E-02 0.  1.
       -1    1    3    3    0  502  0.61248050188E+03  0.56976615017E+02 -0.73843128887E+02  0.61954136872E+03  0.50400001928E-02 0. -1.
</event>
<event>
 5   0  0.1046253E-03  0.1304369E+04  0.7818609E-02  0.9026108E-01
        2   -1    0    0  501    0  0.00000000000E+00  0.00000000000E+00  0.17483374152E+04  0.17483374152E+04  0.25500000920E-02 0. -1.
       -2   -1    0    0    0  501  0.00000000000E+00  0.00000000000E+00 -0.24328508036E+03  0.24328508037E+03  0.25500000920E-02 0.  1.
    10030    2    1    2    0    0  0.00000000000E+00  0.00000000000E+00  0.15050523349E+04  0.19916224956E+04  0.13043686727E+04 0.  0.
        3    1    3    3  502    0  0.52157466969E+03  0.61512855801E+02  0.16211177825E+03  0.54964006981E+03  0.10100000352E+00 0.  1.
       -3    1    3    3    0  502 -0.52157466969E+03 -0.61512855801E+02  0.13429405566E+04  0.14419824258E+04  0.10100000352E+00 0. -1.
</event>
<event>
 5   0  0.6006119E-04  0.1409031E+04  0.7818609E-02  0.8947307E-01
        1   -1    0    0  501    0  0.00000000000E+00  0.00000000000E+00  0.11433787829E+04  0.11433787829E+04  0.50400001928E-02 0.  1.
       -1   -1    0    0    0  501  0.00000000000E+00  0.00000000000E+00 -0.43410135194E+03  0.43410135197E+03  0.50400001928E-02 0. -1.
    10030    2    1    2    0    0  0.00000000000E+00  0.00000000000E+00  0.70927743092E+03  0.15774801348E+04  0.14090312636E+04 0.  0.
        4    1    3    3  502    0 -0.66348439834E+02 -0.67018108928E+03  0.12303574697E+03  0.68460515323E+03  0.12699999809E+01 0. -1.
       -4    1    3    3    0  502  0.66348439834E+02  0.67018108928E+03  0.58624168395E+03  0.89287498161E+03  0.12699999809E+01 0.  1.
</event>
<event>
 5   0  0.1081574E-03  0.1332905E+04  0.7818609E-02  0.9003871E-01
        2   -1    0    0  501    0  0.00000000000E+00  0.00000000000E+00  0.16540990294E+04  0.16540990294E+04  0.25500000920E-02 0.  1.
       -2   -1    0    0    0  501  0.00000000000E+00  0.00000000000E+00 -0.26852017485E+03  0.26852017487E+03  0.25500000920E-02 0. -1.
    10030    2    1    2    0    0  0.00000000000E+00  0.00000000000E+00  0.13855788545E+04  0.19226192043E+04  0.13329050388E+04 0.  0.
        5    1    3    3  502    0 -0.42159536079E+03  0.15466705244E+03 -0.17483325751E+02  0.44943553712E+03  0.46999998093E+01 0. -1.
       -5    1    3    3    0  502  0.42159536079E+03 -0.15466705244E+03  0.14030621803E+04  0.14731836671E+04  0.46999998093E+01 0.  1.
</event>
<event>
 5   0  0.5766027E-04  0.1307394E+04  0.7818609E-02  0.9023722E-01
       -1   -1    0    0    0  501  0.00000000000E+00  0.00000000000E+00  0.41582565468E+03  0.41582565471E+03  0.50400001928E-02 0. -1.
        1   -1    0    0  501    0  0.00000000000E+00  0.00000000000E+00 -0.10276415085E+04  0.10276415085E+04  0.50400001928E-02 0.  1.
    10030    2    1    2    0    0  0.00000000000E+00  0.00000000000E+00 -0.61181585378E+03  0.14434671632E+04  0.13073939009E+04 0.  0.
        3    1    3    3  502    0 -0.22853705533E+03  0.93278573021E+02 -0.97420880515E+03  0.10049939722E+04  0.10100000352E+00 0.  1.
       -3    1    3    3    0  502  0.22853705533E+03 -0.93278573021E+02  0.36239295137E+03  0.43847319102E+03  0.10100000352E+00 0. -1.
</event>
<event>
 5   0  0.1031295E-03  0.1301747E+04  0.7818609E-02  0.9028181E-01
        2   -1    0    0  501    0  0.00000000000E+00  0.00000000000E+00  0.90454003770E+03  0.90454003771E+03  0.25500000920E-02 0. -1.
       -2   -1    0    0    0  501  0.00000000000E+00  0.00000000000E+00 -0.46834441057E+03  0.46834441058E+03  0.25500000920E-02 0.  1.
    10030    2    1    2    0    0  0.00000000000E+00  0.00000000000E+00  0.43619562713E+03  0.13728844483E+04  0.13017469352E+04 0.  0.
        2    1    3    3  502    0  0.51083344744E+02  0.29969983840E+03  0.82505355509E+03  0.87928543148E+03  0.25500000920E-02 0. -1.
       -2    1    3    3    0  502 -0.51083344744E+02 -0.29969983840E+03 -0.38885792796E+03  0.49359901680E+03  0.25500000920E-02 0.  1.
</event>
<event>
 5   0  0.5812938E-04  0.1307245E+04  0.7818609E-02  0.9023840E-01
        1   -1    0    0  501    0  0.00000000000E+00  0.00000000000E+00  0.11461753705E+04  0.11461753705E+04  0.50400001928E-02 0.  1.
       -1   -1    0    0    0  501  0.00000000000E+00  0.00000000000E+00 -0.37273714597E+03  0.37273714600E+03  0.50400001928E-02 0. -1.
    10030    2    1    2    0    0  0.00000000000E+00  0.00000000000E+00  0.77343822453E+03  0.15189125165E+04  0.13072446388E+04 0.  0.
        5    1    3    3  502    0 -0.35657762201E+03 -0.12842735981E+03 -0.23200565602E+03  0.44439835923E+03  0.46999998093E+01 0. -1.
       -5    1    3    3    0  502  0.35657762201E+03  0.12842735981E+03  0.10054438806E+04  0.10745141573E+04  0.46999998093E+01 0.  1.
</event>
<event>
 5   0  0.5563545E-04  0.1454803E+04  0.7818609E-02  0.8915078E-01
       -1   -1    0    0    0  501  0.00000000000E+00  0.00000000000E+00  0.51023828657E+03  0.51023828659E+03  0.50400001928E-02 0. -1.
        1   -1    0    0  501    0  0.00000000000E+00  0.00000000000E+00 -0.10369915922E+04  0.10369915922E+04  0.50400001928E-02 0.  1.
    10030    2    1    2    0    0  0.00000000000E+00  0.00000000000E+00 -0.52675330566E+03  0.15472298788E+04  0.14548028227E+04 0.  0.
        2    1    3    3  502    0 -0.21283550510E+03 -0.39686543648E+03  0.34415235949E+03  0.56678212168E+03  0.25500000920E-02 0. -1.
       -2    1    3    3    0  502  0.21283550510E+03  0.39686543648E+03 -0.87090566515E+03  0.98044775715E+03  0.25500000920E-02 0.  1.
</event>
<event>
 5   0  0.5812938E-04  0.1301055E+04  0.7818609E-02  0.9028729E-01
       -1   -1    0    0    0  501  0.00000000000E+00  0.00000000000E+00  0.35706998362E+03  0.35706998366E+03  0.50400001928E-02 0. -1.
        1   -1    0    0  501    0  0.00000000000E+00  0.00000000000E+00 -0.11851632849E+04  0.11851632849E+04  0.50400001928E-02 0.  1.
    10030    2    1    2    0    0  0.00000000000E+00  0.00000000000E+00 -0.82809330127E+03  0.15422332686E+04  0.13010553174E+04 0.  0.
        5    1    3    3  502    0 -0.45360491386E+03  0.43813850415E+03 -0.60311752006E+03  0.87263715237E+03  0.46999998093E+01 0.  1.
       -5    1    3    3    0  502  0.45360491386E+03 -0.43813850415E+03 -0.22497578121E+03  0.66959611619E+03  0.46999998093E+01 0. -1.
</event>
<event>
 5   0  0.1081574E-03  0.1333479E+04  0.7818609E-02  0.9003429E-01
       -2   -1    0    0    0  501  0.00000000000E+00  0.00000000000E+00  0.11130087524E+04  0.11130087524E+04  0.25500000920E-02 0.  1.
        2   -1    0    0  501    0  0.00000000000E+00  0.00000000000E+00 -0.39940522330E+03  0.39940522331E+03  0.25500000920E-02 0. -1.
    10030    2    1    2    0    0  0.00000000000E+00  0.00000000000E+00  0.71360352907E+03  0.15124139757E+04  0.13334789227E+04 0.  0.
        5    1    3    3  502    0 -0.27353488006E+02  0.34539649661E+03 -0.28925912522E+03  0.45137554729E+03  0.46999998093E+01 0. -1.
       -5    1    3    3    0  502  0.27353488006E+02 -0.34539649661E+03  0.10028626543E+04  0.10610384284E+04  0.46999998093E+01 0.  1.
</event>
<event>
 5   0  0.5812938E-04  0.1299517E+04  0.7818609E-02  0.9029949E-01
        1   -1    0    0  501    0  0.00000000000E+00  0.00000000000E+00  0.14692246244E+04  0.14692246244E+04  0.50400001928E-02 0. -1.
       -1   -1    0    0    0  501  0.00000000000E+00  0.00000000000E+00 -0.28735284922E+03  0.28735284927E+03  0.50400001928E-02 0.  1.
    10030    2    1    2    0    0  0.00000000000E+00  0.00000000000E+00  0.11818717752E+04  0.17565774737E+04  0.12995166517E+04 0.  0.
        5    1    3    3  502    0 -0.49280935336E+03 -0.19503673581E+03  0.82893094171E+02  0.53646411076E+03  0.46999998093E+01 0.  1.
       -5    1    3    3    0  502  0.49280935336E+03  0.19503673581E+03  0.10989786810E+04  0.12201133629E+04  0.46999998093E+01 0. -1.
</event>
<event>
 5   0  0.1101619E-03  0.1314158E+04  0.7818609E-02  0.9018412E-01
        2   -1    0    0  501    0  0.00000000000E+00  0.00000000000E+00  0.14981877169E+04  0.14981877169E+04  0.25500000920E-02 0.  1.
       -2   -1    0    0    0  501  0.00000000000E+00  0.00000000000E+00 -0.28818344310E+03  0.28818344311E+03  0.25500000920E-02 0. -1.
    10030    2    1    2    0    0  0.00000000000E+00  0.00000000000E+00  0.12100042738E+04  0.17863711600E+04  0.13141581255E+04 0.  0.
        1    1    3    3  502    0 -0.62574934337E+03 -0.49069475508E+01  0.87743310823E+03  0.10777175782E+04  0.50400001928E-02 0.  1.
       -1    1    3    3    0  502  0.62574934337E+03  0.49069475508E+01  0.33257116556E+03  0.70865358183E+03  0.50400001928E-02 0. -1.
</event>
<event>
 5   0  0.1081574E-03  0.1304906E+04  0.7818609E-02  0.9025683E-01
       -2   -1    0    0    0  501  0.00000000000E+00  0.00000000000E+00  0.52826708501E+03  0.52826708502E+03  0.25500000920E-02 0.  1.
        2   -1    0    0  501    0  0.00000000000E+00  0.00000000000E+00 -0.80583335130E+03  0.80583335130E+03  0.25500000920E-02 0. -1.
    10030    2    1    2    0    0  0.00000000000E+00  0.00000000000E+00 -0.27756626629E+03  0.13341004363E+04  0.13049064878E+04 0.  0.
        5    1    3    3  502    0  0.19953011286E+03  0.24114281621E+03 -0.72405097207E+03  0.78881811839E+03  0.46999998093E+01 0. -1.
       -5    1    3    3    0  502 -0.19953011286E+03 -0.24114281621E+03  0.44648470578E+03  0.54528231793E+03  0.46999998093E+01 0.  1.
</event>
<event>
 5   0  0.1081574E-03  0.1303167E+04  0.7818609E-02  0.9027058E-01
       -2   -1    0    0    0  501  0.00000000000E+00  0.00000000000E+00  0.47430625753E+03  0.47430625753E+03  0.25500000920E-02 0. -1.
        2   -1    0    0  501    0  0.00000000000E+00  0.00000000000E+00 -0.89511965056E+03  0.89511965056E+03  0.25500000920E-02 0.  1.
    10030    2    1    2    0    0  0.00000000000E+00  0.00000000000E+00 -0.42081339303E+03  0.13694259081E+04  0.13031666839E+04 0.  0.
        5    1    3    3  502    0 -0.43876791125E+03 -0.46143037375E+03 -0.35564960898E+03  0.72934491438E+03  0.46999998093E+01 0.  1.
       -5    1    3    3    0  502  0.43876791125E+03  0.46143037375E+03 -0.65163784050E+02  0.64008099371E+03  0.46999998093E+01 0. -1.
</event>
<event>
 5   0  0.5812938E-04  0.1324269E+04  0.7818609E-02  0.9010538E-01
        1   -1    0    0  501    0  0.00000000000E+00  0.00000000000E+00  0.15264402391E+04  0.15264402391E+04  0.50400001928E-02 0. -1.
       -1   -1    0    0    0  501  0.00000000000E+00  0.00000000000E+00 -0.28721879700E+03  0.28721879705E+03  0.50400001928E-02 0.  1.
    10030    2    1    2    0    0  0.00000000000E+00  0.00000000000E+00  0.12392214421E+04  0.18136590361E+04  0.13242693521E+04 0.  0.
        5    1    3    3  502    0 -0.11895226782E+02  0.30421131857E+03  0.14248740744E+04  0.14570429784E+04  0.46999998093E+01 0. -1.
       -5    1    3    3    0  502  0.11895226782E+02 -0.30421131857E+03 -0.18565263236E+03  0.35661605778E+03  0.46999998093E+01 0.  1.
</event>
<event>
 5   0  0.5812938E-04  0.1303208E+04  0.7818609E-02  0.9027025E-01
        1   -1    0    0  501    0  0.00000000000E+00  0.00000000000E+00  0.20047797084E+04  0.20047797084E+04  0.50400001928E-02 0. -1.
       -1   -1    0    0    0  501  0.00000000000E+00  0.00000000000E+00 -0.21178764190E+03  0.21178764196E+03  0.50400001928E-02 0.  1.
    10030    2    1    2    0    0  0.00000000000E+00  0.00000000000E+00  0.17929920665E+04  0.22165673504E+04  0.13032076842E+04 0.  0.
        5    1    3    3  502    0 -0.46295470495E+03 -0.42750291455E+02  0.16729709704E+04  0.17363780130E+04  0.46999998093E+01 0. -1.
       -5    1    3    3    0  502  0.46295470495E+03  0.42750291455E+02  0.12002109615E+03  0.48018933742E+03  0.46999998093E+01 0.  1.
</event>
<event>
 5   0  0.1081574E-03  0.1295001E+04  0.7818609E-02  0.9033539E-01
        2   -1    0    0  501    0  0.00000000000E+00  0.00000000000E+00  0.68355432113E+03  0.68355432113E+03  0.25500000920E-02 0. -1.
       -2   -1    0    0    0  501  0.00000000000E+00  0.00000000000E+00 -0.61334864067E+03  0.61334864068E+03  0.25500000920E-02 0.  1.
    10030    2    1    2    0    0  0.00000000000E+00  0.00000000000E+00  0.70205680456E+02  0.12969029618E+04  0.12950013339E+04 0.  0.
        5    1    3    3  502    0 -0.39081196267E+03  0.22946614627E+03  0.49821710484E+03  0.67352139980E+03  0.46999998093E+01 0. -1.
       -5    1    3    3    0  502  0.39081196267E+03 -0.22946614627E+03 -0.42801142438E+03  0.62338156200E+03  0.46999998093E+01 0.  1.
</event>
<event>
 5   0  0.6006119E-04  0.1305446E+04  0.7818609E-02  0.9025258E-01
        1   -1    0    0  501    0  0.00000000000E+00  0.00000000000E+00  0.20574670599E+04  0.20574670599E+04  0.50400001928E-02 0. -1.
       -1   -1    0    0    0  501  0.00000000000E+00  0.00000000000E+00 -0.20707358533E+03  0.20707358539E+03  0.50400001928E-02 0.  1.
    10030    2    1    2    0    0  0.00000000000E+00  0.00000000000E+00  0.18503934746E+04  0.22645406453E+04  0.13054456417E+04 0.  0.
        4    1    3    3  502    0 -0.63304309505E+03 -0.99849584339E+02  0.71040365825E+03  0.95675935859E+03  0.12699999809E+01 0.  1.
       -4    1    3    3    0  502  0.63304309505E+03  0.99849584339E+02  0.11399898163E+04  0.13077812867E+04  0.12699999809E+01 0. -1.
</event>
<event>
 5   0  0.1101619E-03  0.1311530E+04  0.7818609E-02  0.9020471E-01
       -2   -1    0    0    0  501  0.00000000000E+00  0.00000000000E+00  0.91592798065E+03  0.91592798065E+03  0.25500000920E-02 0. -1.
        2   -1    0    0  501    0  0.00000000000E+00  0.00000000000E+00 -0.46949982830E+03  0.46949982831E+03  0.25500000920E-02 0.  1.
    10030    2    1    2    0    0  0.00000000000E+00  0.00000000000E+00  0.44642815235E+03  0.13854278090E+04  0.13115304490E+04 0.  0.
        1    1    3    3  502    0  0.64254234808E+03  0.32580106230E+02  0.35727369641E+03  0.73591210519E+03  0.50400001928E-02 0. -1.
       -1    1    3    3    0  502 -0.64254234808E+03 -0.32580106230E+02  0.89154455942E+02  0.64951570377E+03  0.50400001928E-02 0.  1.
</event>
<event>
 5   0  0.5812938E-04  0.1288992E+04  0.7818609E-02  0.9038341E-01
        1   -1    0    0  501    0  0.00000000000E+00  0.00000000000E+00  0.13042382843E+04  0.13042382843E+04  0.50400001928E-02 0. -1.
       -1   -1    0    0    0  501  0.00000000000E+00  0.00000000000E+00 -0.31848084578E+03  0.31848084582E+03  0.50400001928E-02 0.  1.
    10030    2    1    2    0    0  0.00000000000E+00  0.00000000000E+00  0.98575743856E+03  0.16227191302E+04  0.12889917175E+04 0.  0.
        5    1    3    3  502    0  0.39737800719E+03  0.49148355690E+03  0.65155806130E+03  0.90775292043E+03  0.46999998093E+01 0. -1.
       -5    1    3    3    0  502 -0.39737800719E+03 -0.49148355690E+03  0.33419937726E+03  0.71496620973E+03  0.46999998093E+01 0.  1.
</event>
<event>
 5   0  0.5710383E-04  0.1303255E+04  0.7818609E-02  0.9026988E-01
        1   -1    0    0  501    0  0.00000000000E+00  0.00000000000E+00  0.74329923336E+03  0.74329923337E+03  0.50400001928E-02 0. -1.
       -1   -1    0    0    0  501  0.00000000000E+00  0.00000000000E+00 -0.57126150152E+03  0.57126150154E+03  0.50400001928E-02 0.  1.
    10030    2    1    2    0    0  0.00000000000E+00  0.00000000000E+00  0.17203773183E+03  0.13145607349E+04  0.13032547505E+04 0.  0.
        1    1    3    3  502    0 -0.55766370876E+03  0.73714566135E+02 -0.24576564900E+03  0.61385943308E+03  0.50400001928E-02 0.  1.
       -1    1    3    3    0  502  0.55766370876E+03 -0.73714566135E+02  0.41780338084E+03  0.70070130184E+03  0.50400001928E-02 0. -1.
</event>
<event>
 5   0  0.5710383E-04  0.1298125E+04  0.7818609E-02  0.9031053E-01
       -1   -1    0    0    0  501  0.00000000000E+00  0.00000000000E+00  0.73794301196E+03  0.73794301198E+03  0.50400001928E-02 0. -1.
        1   -1    0    0  501    0  0.00000000000E+00  0.00000000000E+00 -0.57088724928E+03  0.57088724930E+03  0.50400001928E-02 0.  1.
    10030    2    1    2    0    0  0.00000000000E+00  0.00000000000E+00  0.16705576269E+03  0.13088302613E+04  0.12981251962E+04 0.  0.
        1    1    3    3  502    0  0.62499282895E+03 -0.15126911011E+03  0.17248172351E+03  0.66576897260E+03  0.50400001928E-02 0. -1.
       -1    1    3    3    0  502 -0.62499282895E+03  0.15126911011E+03 -0.54259608248E+01  0.64306128867E+03  0.50400001928E-02 0.  1.
</event>
<event>
 5   0  0.6006119E-04  0.1270202E+04  0.7818609E-02  0.9053534E-01
        1   -1    0    0  501    0  0.00000000000E+00  0.00000000000E+00  0.31285910116E+03  0.31285910120E+03  0.50400001928E-02 0.  1.
       -1   -1    0    0    0  501  0.00000000000E+00  0.00000000000E+00 -0.12892499071E+04  0.12892499071E+04  0.50400001928E-02 0. -1.
    10030    2    1    2    0    0  0.00000000000E+00  0.00000000000E+00 -0.97639080597E+03  0.16021090083E+04  0.12702024518E+04 0.  0.
        4    1    3    3  502    0 -0.41341713370E+03  0.32707262742E+03 -0.93495587546E+03  0.10733286226E+04  0.12699999809E+01 0. -1.
       -4    1    3    3    0  502  0.41341713370E+03 -0.32707262742E+03 -0.41434930517E+02  0.52878038580E+03  0.12699999809E+01 0.  1.
</event>
<event>
 5   0  0.1103241E-03  0.1300862E+04  0.7818609E-02  0.9028882E-01
        2   -1    0    0  501    0  0.00000000000E+00  0.00000000000E+00  0.25806795254E+04  0.25806795254E+04  0.25500000920E-02 0.  1.
       -2   -1    0    0    0  501  0.00000000000E+00  0.00000000000E+00 -0.16393385311E+03  0.16393385313E+03  0.25500000920E-02 0. -1.
    10030    2    1    2    0    0  0.00000000000E+00  0.00000000000E+00  0.24167456723E+04  0.27446133785E+04  0.13008623882E+04 0.  0.
        4    1    3    3  502    0  0.43315718397E+03 -0.95983171359E+02  0.20487490957E+03  0.48868523272E+03  0.12699999809E+01 0. -1.
       -4    1    3    3    0  502 -0.43315718397E+03  0.95983171359E+02  0.22118707627E+04  0.22559281458E+04  0.12699999809E+01 0.  1.
</event>
<event>
 5   0  0.1046253E-03  0.1291893E+04  0.7818609E-02  0.9036019E-01
       -2   -1    0    0    0  501  0.00000000000E+00  0.00000000000E+00  0.40620608531E+03  0.40620608532E+03  0.25500000920E-02 0. -1.
        2   -1    0    0  501    0  0.00000000000E+00  0.00000000000E+00 -0.10271806707E+04  0.10271806707E+04  0.25500000920E-02 0.  1.
    10030    2    1    2    0    0  0.00000000000E+00  0.00000000000E+00 -0.62097458534E+03  0.14333867560E+04  0.12918932450E+04 0.  0.
        3    1    3    3  502    0  0.48158986741E+02 -0.56704674862E+03  0.28573059897E+02  0.56980499566E+03  0.10100000352E+00 0. -1.
       -3    1    3    3    0  502 -0.48158986741E+02  0.56704674862E+03 -0.64954764524E+03  0.86358176032E+03  0.10100000352E+00 0.  1.
</event>
<event>
 5   0  0.6006119E-04  0.1302823E+04  0.7818609E-02  0.9027330E-01
       -1   -1    0    0    0  501  0.00000000000E+00  0.00000000000E+00  0.74416508738E+03  0.74416508740E+03  0.50400001928E-02 0. -1.
        1   -1    0    0  501    0  0.00000000000E+00  0.00000000000E+00 -0.57021847164E+03  0.57021847166E+03  0.50400001928E-02 0.  1.
    10030    2    1    2    0    0  0.00000000000E+00  0.00000000000E+00  0.17394661574E+03  0.13143835591E+04  0.13028225954E+04 0.  0.
        4    1    3    3  502    0  0.63218919657E+03 -0.12756822005E+03  0.17942840179E+03  0.66942736372E+03  0.12699999809E+01 0.  1.
       -4    1    3    3    0  502 -0.63218919657E+03  0.12756822005E+03 -0.54817860516E+01  0.64495619534E+03  0.12699999809E+01 0. -1.
</event>
<event>
 5   0  0.1081574E-03  0.1308931E+04  0.7818609E-02  0.9022513E-01
        2   -1    0    0  501    0  0.00000000000E+00  0.00000000000E+00  0.14625043094E+04  0.14625043094E+04  0.25500000920E-02 0.  1.
       -2   -1    0    0    0  501  0.00000000000E+00  0.00000000000E+00 -0.29287093903E+03  0.29287093904E+03  0.25500000920E-02 0. -1.
    10030    2    1    2    0    0  0.00000000000E+00  0.00000000000E+00  0.11696333704E+04  0.17553752485E+04  0.13089308774E+04 0.  0.
        5    1    3    3  502    0 -0.14875146211E+03  0.25941966900E+03 -0.19586597631E+03  0.35750682905E+03  0.46999998093E+01 0. -1.
       -5    1    3    3    0  502  0.14875146211E+03 -0.25941966900E+03  0.13654993467E+04  0.13978684194E+04  0.46999998093E+01 0.  1.
</event>
<event>
 5   0  0.1046253E-03  0.1318705E+04  0.7818609E-02  0.9014862E-01
        2   -1    0    0  501    0  0.00000000000E+00  0.00000000000E+00  0.45896761294E+03  0.45896761295E+03  0.25500000920E-02 0. -1.
       -2   -1    0    0    0  501  0.00000000000E+00  0.00000000000E+00 -0.94722550270E+03  0.94722550270E+03  0.25500000920E-02 0.  1.
    10030    2    1    2    0    0  0.00000000000E+00  0.00000000000E+00 -0.48825788976E+03  0.14061931157E+04  0.13187051648E+04 0.  0.
        3    1    3    3  502    0  0.61085713308E+03  0.37146624394E+02 -0.50580613350E+03  0.79395602122E+03  0.10100000352E+00 0.  1.
       -3    1    3    3    0  502 -0.61085713308E+03 -0.37146624394E+02  0.17548243742E+02  0.61223709443E+03  0.10100000352E+00 0. -1.
</event>
<event>
 5   0  0.1103241E-03  0.1301277E+04  0.7818609E-02  0.9028553E-01
       -2   -1    0    0    0  501  0.00000000000E+00  0.00000000000E+00  0.72726328464E+03  0.72726328465E+03  0.25500000920E-02 0.  1.
        2   -1    0    0  501    0  0.00000000000E+00  0.00000000000E+00 -0.58208737131E+03  0.58208737132E+03  0.25500000920E-02 0. -1.
    10030    2    1    2    0    0  0.00000000000E+00  0.00000000000E+00  0.14517591333E+03  0.13093506560E+04  0.13012774856E+04 0.  0.
        4    1    3    3  502    0 -0.26074371905E+02 -0.38657863661E+03  0.59852210009E+03  0.71298894265E+03  0.12699999809E+01 0.  1.
       -4    1    3    3    0  502  0.26074371905E+02  0.38657863661E+03 -0.45334618676E+03  0.59636171331E+03  0.12699999809E+01 0. -1.
</event>
<event>
 5   0  0.1031295E-03  0.1315108E+04  0.7818609E-02  0.9017669E-01
       -2   -1    0    0    0  501  0.00000000000E+00  0.00000000000E+00  0.17956948433E+03  0.17956948435E+03  0.25500000920E-02 0.  1.
        2   -1    0    0  501    0  0.00000000000E+00  0.00000000000E+00 -0.24078562094E+04  0.24078562094E+04  0.25500000920E-02 0. -1.
    10030    2    1    2    0    0  0.00000000000E+00  0.00000000000E+00 -0.22282867250E+04  0.25874256937E+04  0.13151083573E+04 0.  0.
        2    1    3    3  502    0  0.56610043343E+02 -0.38808059494E+03 -0.21525575183E+04  0.21879933992E+04  0.25500000920E-02 0. -1.
       -2    1    3    3    0  502 -0.56610043343E+02  0.38808059494E+03 -0.75729206743E+02  0.39943229456E+03  0.25500000920E-02 0.  1.
</event>
<event>
 5   0  0.1031295E-03  0.1299084E+04  0.7818609E-02  0.9030292E-01
       -2   -1    0    0    0  501  0.00000000000E+00  0.00000000000E+00  0.10929181422E+04  0.10929181422E+04  0.25500000920E-02 0.  1.
        2   -1    0    0  501    0  0.00000000000E+00  0.00000000000E+00 -0.38603493098E+03  0.38603493099E+03  0.25500000920E-02 0. -1.
    10030    2    1    2    0    0  0.00000000000E+00  0.00000000000E+00  0.70688321120E+03  0.14789530732E+04  0.12990836456E+04 0.  0.
        2    1    3    3  502    0  0.32511140574E+02 -0.35462724878E+03 -0.26499103794E+03  0.44388929930E+03  0.25500000920E-02 0. -1.
       -2    1    3    3    0  502 -0.32511140574E+02  0.35462724878E+03  0.97187424914E+03  0.10350637739E+04  0.25500000920E-02 0.  1.
</event>
<event>
 5   0  0.1031295E-03  0.1301269E+04  0.7818609E-02  0.9028559E-01
        2   -1    0    0  501    0  0.00000000000E+00  0.00000000000E+00  0.63116988633E+03  0.63116988634E+03  0.25500000920E-02 0. -1.
       -2   -1    0    0    0  501  0.00000000000E+00  0.00000000000E+00 -0.67069952908E+03  0.67069952908E+03  0.25500000920E-02 0.  1.
    10030    2    1    2    0    0  0.00000000000E+00  0.00000000000E+00 -0.39529642747E+02  0.13018694154E+04  0.13012691429E+04 0.  0.
        2    1    3    3  502    0  0.59590146046E+03 -0.73048864663E+02 -0.27066060520E+03  0.65855284558E+03  0.25500000920E-02 0.  1.
       -2    1    3    3    0  502 -0.59590146046E+03  0.73048864663E+02  0.23113096246E+03  0.64331656984E+03  0.25500000920E-02 0. -1.
</event>
<event>
 5   0  0.1046253E-03  0.1299672E+04  0.7818609E-02  0.9029825E-01
        2   -1    0    0  501    0  0.00000000000E+00  0.00000000000E+00  0.12787112243E+04  0.12787112243E+04  0.25500000920E-02 0. -1.
       -2   -1    0    0    0  501  0.00000000000E+00  0.00000000000E+00 -0.33024429872E+03  0.33024429872E+03  0.25500000920E-02 0.  1.
    10030    2    1    2    0    0  0.00000000000E+00  0.00000000000E+00  0.94846692563E+03  0.16089555231E+04  0.12996724073E+04 0.  0.
        3    1    3    3  502    0 -0.25702493823E+03  0.49741567420E+03  0.65885498639E+02  0.56375977237E+03  0.10100000352E+00 0.  1.
       -3    1    3    3    0  502  0.25702493823E+03 -0.49741567420E+03  0.88258142699E+03  0.10451957507E+04  0.10100000352E+00 0. -1.
</event>
<event>
 5   0  0.1103241E-03  0.1305580E+04  0.7818609E-02  0.9025152E-01
       -2   -1    0    0    0  501  0.00000000000E+00  0.00000000000E+00  0.41579089417E+03  0.41579089417E+03  0.25500000920E-02 0.  1.
        2   -1    0    0  501    0  0.00000000000E+00  0.00000000000E+00 -0.10248777667E+04  0.10248777667E+04  0.25500000920E-02 0. -1.
    10030    2    1    2    0    0  0.00000000000E+00  0.00000000000E+00 -0.60908687250E+03  0.14406686608E+04  0.13055800903E+04 0.  0.
        4    1    3    3  502    0 -0.21715119307E+03  0.27433487837E+03 -0.91267359996E+03  0.97744001305E+03  0.12699999809E+01 0. -1.
       -4    1    3    3    0  502  0.21715119307E+03 -0.27433487837E+03  0.30358672746E+03  0.46322864779E+03  0.12699999809E+01 0.  1.
</event>
<event>
 5   0  0.1101619E-03  0.1293593E+04  0.7818609E-02  0.9034661E-01
       -2   -1    0    0    0  501  0.00000000000E+00  0.00000000000E+00  0.57568274601E+03  0.57568274601E+03  0.25500000920E-02 0.  1.
        2   -1    0    0  501    0  0.00000000000E+00  0.00000000000E+00 -0.72669490853E+03  0.72669490853E+03  0.25500000920E-02 0. -1.
    10030    2    1    2    0    0  0.00000000000E+00  0.00000000000E+00 -0.15101216252E+03  0.13023776545E+04  0.12935930124E+04 0.  0.
        1    1    3    3  502    0  0.16658434885E+03  0.10520706519E+03 -0.69574716155E+03  0.72310648226E+03  0.50400001928E-02 0. -1.
       -1    1    3    3    0  502 -0.16658434885E+03 -0.10520706519E+03  0.54473499903E+03  0.57927117229E+03  0.50400001928E-02 0.  1.
</event>
<event>
 5   0  0.5710383E-04  0.1291768E+04  0.7818609E-02  0.9036118E-01
       -1   -1    0    0    0  501  0.00000000000E+00  0.00000000000E+00  0.29684351151E+03  0.29684351155E+03  0.50400001928E-02 0.  1.
        1   -1    0    0  501    0  0.00000000000E+00  0.00000000000E+00 -0.14053412205E+04  0.14053412205E+04  0.50400001928E-02 0. -1.
    10030    2    1    2    0    0  0.00000000000E+00  0.00000000000E+00 -0.11084977090E+04  0.17021847321E+04  0.12917684356E+04 0.  0.
        1    1    3    3  502    0 -0.34401936060E+03 -0.46642077551E+03 -0.17859846307E+03  0.60646110455E+03  0.50400001928E-02 0.  1.
       -1    1    3    3    0  502  0.34401936060E+03  0.46642077551E+03 -0.92989924593E+03  0.10957236275E+04  0.50400001928E-02 0. -1.
</event>
<event>
 5   0  0.5766027E-04  0.1307785E+04  0.7818609E-02  0.9023414E-01
       -1   -1    0    0    0  501  0.00000000000E+00  0.00000000000E+00  0.36942124188E+03  0.36942124191E+03  0.50400001928E-02 0.  1.
        1   -1    0    0  501    0  0.00000000000E+00  0.00000000000E+00 -0.11574201480E+04  0.11574201480E+04  0.50400001928E-02 0. -1.
    10030    2    1    2    0    0  0.00000000000E+00  0.00000000000E+00 -0.78799890614E+03  0.15268413899E+04  0.13077852859E+04 0.  0.
        3    1    3    3  502    0  0.25732829146E+03  0.59614951317E+03 -0.48415814526E+03  0.80995136364E+03  0.10100000352E+00 0.  1.
       -3    1    3    3    0  502 -0.25732829146E+03 -0.59614951317E+03 -0.30384076088E+03  0.71689002630E+03  0.10100000352E+00 0. -1.
</event>
<event>
 5   0  0.5710383E-04  0.1320864E+04  0.7818609E-02  0.9013182E-01
        1   -1    0    0  501    0  0.00000000000E+00  0.00000000000E+00  0.11956795138E+04  0.11956795138E+04  0.50400001928E-02 0.  1.
       -1   -1    0    0    0  501  0.00000000000E+00  0.00000000000E+00 -0.36478850119E+03  0.36478850122E+03  0.50400001928E-02 0. -1.
    10030    2    1    2    0    0  0.00000000000E+00  0.00000000000E+00  0.83089101258E+03  0.15604680150E+04  0.13208635626E+04 0.  0.
        1    1    3    3  502    0 -0.55895542762E+01 -0.62657573373E+03  0.66196418088E+03  0.91149600658E+03  0.50400001928E-02 0.  1.
       -1    1    3    3    0  502  0.55895542762E+01  0.62657573373E+03  0.16892683171E+03  0.64897200842E+03  0.50400001928E-02 0. -1.
</event>
<event>
 5   0  0.1103241E-03  0.1302447E+04  0.7818609E-02  0.9027627E-01
        2   -1    0    0  501    0  0.00000000000E+00  0.00000000000E+00  0.13296122772E+04  0.13296122772E+04  0.25500000920E-02 0. -1.
       -2   -1    0    0    0  501  0.00000000000E+00  0.00000000000E+00 -0.31895912101E+03  0.31895912102E+03  0.25500000920E-02 0.  1.
    10030    2    1    2    0    0  0.00000000000E+00  0.00000000000E+00  0.10106531562E+04  0.16485713982E+04  0.13024468714E+04 0.  0.
        4    1    3    3  502    0 -0.33193171724E+03  0.32710635984E+03 -0.70433771191E+02  0.47131705314E+03  0.12699999809E+01 0.  1.
       -4    1    3    3    0  502  0.33193171724E+03 -0.32710635984E+03  0.10810869273E+04  0.11772543450E+04  0.12699999809E+01 0. -1.
</event>
<event>
 5   0  0.1031295E-03  0.1302586E+04  0.7818609E-02  0.9027517E-01
       -2   -1    0    0    0  501  0.00000000000E+00  0.00000000000E+00  0.10152104834E+04  0.10152104834E+04  0.25500000920E-02 0. -1.
        2   -1    0    0  501    0  0.00000000000E+00  0.00000000000E+00 -0.41782723829E+03  0.41782723830E+03  0.25500000920E-02 0.  1.
    10030    2    1    2    0    0  0.00000000000E+00  0.00000000000E+00  0.59738324511E+03  0.14330377217E+04  0.13025860318E+04 0.  0.
        2    1    3    3  502    0  0.12325910021E+03  0.62222858041E+03  0.46120619770E+03  0.78426549642E+03  0.25500000920E-02 0.  1.
       -2    1    3    3    0  502 -0.12325910021E+03 -0.62222858041E+03  0.13617704741E+03  0.64877222529E+03  0.25500000920E-02 0. -1.
</event>
<event>
 5   0  0.1031295E-03  0.1294530E+04  0.7818609E-02  0.9033914E-01
       -2   -1    0    0    0  501  0.00000000000E+00  0.00000000000E+00  0.95653950064E+03  0.95653950064E+03  0.25500000920E-02 0. -1.
        2   -1    0    0  501    0  0.00000000000E+00  0.00000000000E+00 -0.43798712943E+03  0.43798712944E+03  0.25500000920E-02 0.  1.
    10030    2    1    2    0    0  0.00000000000E+00  0.00000000000E+00  0.51855237121E+03  0.13945266301E+04  0.12945300152E+04 0.  0.
        2    1    3    3  502    0  0.60622002444E+03 -0.15013035220E+03  0.44244007434E+03  0.76537249759E+03  0.25500000920E-02 0. -1.
       -2    1    3    3    0  502 -0.60622002444E+03  0.15013035220E+03  0.76112296871E+02  0.62915413249E+03  0.25500000920E-02 0.  1.
</event>
<event>
 5   0  0.1101619E-03  0.1295893E+04  0.7818609E-02  0.9032828E-01
       -2   -1    0    0    0  501  0.00000000000E+00  0.00000000000E+00  0.69990797310E+03  0.69990797311E+03  0.25500000920E-02 0. -1.
        2   -1    0    0  501    0  0.00000000000E+00  0.00000000000E+00 -0.59984272975E+03  0.59984272976E+03  0.25500000920E-02 0.  1.
    10030    2    1    2    0    0  0.00000000000E+00  0.00000000000E+00  0.10006524335E+03  0.12997507029E+04  0.12958930653E+04 0.  0.
        1    1    3    3  502    0 -0.13514815343E+03 -0.62399181100E+03  0.16083276300E+03  0.65840563580E+03  0.50400001928E-02 0. -1.
       -1    1    3    3    0  502  0.13514815343E+03  0.62399181100E+03 -0.60767519649E+02  0.64134506706E+03  0.50400001928E-02 0.  1.
</event>
<event>
 5   0  0.1081574E-03  0.1273969E+04  0.7818609E-02  0.9050467E-01
        2   -1    0    0  501    0  0.00000000000E+00  0.00000000000E+00  0.75678739411E+03  0.75678739412E+03  0.25500000920E-02 0.  1.
       -2   -1    0    0    0  501  0.00000000000E+00  0.00000000000E+00 -0.53614695479E+03  0.53614695479E+03  0.25500000920E-02 0. -1.
    10030    2    1    2    0    0  0.00000000000E+00  0.00000000000E+00  0.22064043933E+03  0.12929343489E+04  0.12739690056E+04 0.  0.
        5    1    3    3  502    0  0.42704259709E+03 -0.21714150209E+03  0.53634470133E+03  0.71916864524E+03  0.46999998093E+01 0.  1.
       -5    1    3    3    0  502 -0.42704259709E+03  0.21714150209E+03 -0.31570426200E+03  0.57376570367E+03  0.46999998093E+01 0. -1.
</event>
<event>
 5   0  0.5563545E-04  0.1286906E+04  0.7818609E-02  0.9040014E-01
        1   -1    0    0  501    0  0.00000000000E+00  0.00000000000E+00  0.10931768316E+04  0.10931768316E+04  0.50400001928E-02 0.  1.
       -1   -1    0    0    0  501  0.00000000000E+00  0.00000000000E+00 -0.37874156257E+03  0.37874156260E+03  0.50400001928E-02 0. -1.
    10030    2    1    2    0    0  0.00000000000E+00  0.00000000000E+00  0.71443526900E+03  0.14719183942E+04  0.12869055931E+04 0.  0.
        2    1    3    3  502    0  0.41016541019E+03  0.49272029787E+03  0.29433604884E+03  0.70543792448E+03  0.25500000920E-02 0.  1.
       -2    1    3    3    0  502 -0.41016541019E+03 -0.49272029787E+03  0.42009922016E+03  0.76648046970E+03  0.25500000920E-02 0. -1.
</event>
<event>
 5   0  0.5766027E-04  0.1300972E+04  0.7818609E-02  0.9028794E-01
       -1   -1    0    0    0  501  0.00000000000E+00  0.00000000000E+00  0.41719731566E+03  0.41719731569E+03  0.50400001928E-02 0.  1.
        1   -1    0    0  501    0  0.00000000000E+00  0.00000000000E+00 -0.10142258827E+04  0.10142258827E+04  0.50400001928E-02 0. -1.
    10030    2    1    2    0    0  0.00000000000E+00  0.00000000000E+00 -0.59702856704E+03  0.14314231984E+04  0.13009724298E+04 0.  0.
        3    1    3    3  502    0  0.58904121402E+03  0.68550867382E+02 -0.43823365514E+01  0.59303287287E+03  0.10100000352E+00 0.  1.
       -3    1    3    3    0  502 -0.58904121402E+03 -0.68550867382E+02 -0.59264623049E+03  0.83839032554E+03  0.10100000352E+00 0. -1.
</event>
<event>
 5   0  0.5710383E-04  0.1295151E+04  0.7818609E-02  0.9033420E-01
        1   -1    0    0  501    0  0.00000000000E+00  0.00000000000E+00  0.22697467954E+04  0.22697467954E+04  0.50400001928E-02 0.  1.
       -1   -1    0    0    0  501  0.00000000000E+00  0.00000000000E+00 -0.18475796254E+03  0.18475796261E+03  0.50400001928E-02 0. -1.
    10030    2    1    2    0    0  0.00000000000E+00  0.00000000000E+00  0.20849888328E+04  0.24545047580E+04  0.12951506375E+04 0.  0.
        1    1    3    3  502    0 -0.57393242115E+03 -0.26085806709E+03  0.13230050340E+04  0.14655332393E+04  0.50400001928E-02 0.  1.
       -1    1    3    3    0  502  0.57393242115E+03  0.26085806709E+03  0.76198379879E+03  0.98897151873E+03  0.50400001928E-02 0. -1.
</event>
<event>
 5   0  0.5563545E-04  0.1300761E+04  0.7818609E-02  0.9028962E-01
        1   -1    0    0  501    0  0.00000000000E+00  0.00000000000E+00  0.50142364152E+03  0.50142364154E+03  0.50400001928E-02 0.  1.
       -1   -1    0    0    0  501  0.00000000000E+00  0.00000000000E+00 -0.84358813673E+03  0.84358813674E+03  0.50400001928E-02 0. -1.
    10030    2    1    2    0    0  0.00000000000E+00  0.00000000000E+00 -0.34216449521E+03  0.13450117783E+04  0.13007613701E+04 0.  0.
        2    1    3    3  502    0 -0.25055154826E+03 -0.58408799838E+03 -0.31383740618E+03  0.70882211147E+03  0.25500000920E-02 0. -1.
       -2    1    3    3    0  502  0.25055154826E+03  0.58408799838E+03 -0.28327089030E+02  0.63618966682E+03  0.25500000920E-02 0.  1.
</event>
<event>
 5   0  0.1046253E-03  0.1242429E+04  0.7818609E-02  0.9076508E-01
        2   -1    0    0  501    0  0.00000000000E+00  0.00000000000E+00  0.10996484328E+04  0.10996484328E+04  0.25500000920E-02 0. -1.
       -2   -1    0    0    0  501  0.00000000000E+00  0.00000000000E+00 -0.35093714362E+03  0.35093714363E+03  0.25500000920E-02 0.  1.
    10030    2    1    2    0    0  0.00000000000E+00  0.00000000000E+00  0.74871128921E+03  0.14505855765E+04  0.12424290402E+04 0.  0.
        3    1    3    3  502    0 -0.18575095975E+03 -0.39818245728E+02 -0.31619126111E+03  0.36887102833E+03  0.10100000352E+00 0.  1.
       -3    1    3    3    0  502  0.18575095975E+03  0.39818245728E+02  0.10649025503E+04  0.10817145481E+04  0.10100000352E+00 0. -1.
</event>
<event>
 5   0  0.5563545E-04  0.1310025E+04  0.7818609E-02  0.9021653E-01
        1   -1    0    0  501    0  0.00000000000E+00  0.00000000000E+00  0.21665275703E+04  0.21665275703E+04  0.50400001928E-02 0. -1.
       -1   -1    0    0    0  501  0.00000000000E+00  0.00000000000E+00 -0.19803183344E+03  0.19803183350E+03  0.50400001928E-02 0.  1.
    10030    2    1    2    0    0  0.00000000000E+00  0.00000000000E+00  0.19684957369E+04  0.23645594039E+04  0.13100250792E+04 0.  0.
        2    1    3    3  502    0  0.10908857100E+03 -0.51772667197E+03  0.28728484492E+03  0.60205797505E+03  0.25500000920E-02 0.  1.
       -2    1    3    3    0  502 -0.10908857100E+03  0.51772667197E+03  0.16812108920E+04  0.17625014288E+04  0.25500000920E-02 0. -1.
</event>
<event>
 5   0  0.1081574E-03  0.1292796E+04  0.7818609E-02  0.9035298E-01
        2   -1    0    0  501    0  0.00000000000E+00  0.00000000000E+00  0.10655158630E+04  0.10655158630E+04  0.25500000920E-02 0. -1.
       -2   -1    0    0    0  501  0.00000000000E+00  0.00000000000E+00 -0.39213898844E+03  0.39213898845E+03  0.25500000920E-02 0.  1.
    10030    2    1    2    0    0  0.00000000000E+00  0.00000000000E+00  0.67337687452E+03  0.14576548514E+04  0.12927959045E+04 0.  0.
        5    1    3    3  502    0 -0.24902408858E+03 -0.53168380819E+03  0.64155223957E+03  0.86966202325E+03  0.46999998093E+01 0. -1.
       -5    1    3    3    0  502  0.24902408858E+03  0.53168380819E+03  0.31824634946E+02  0.58799282816E+03  0.46999998093E+01 0.  1.
</event>
<event>
 5   0  0.1101619E-03  0.1301709E+04  0.7818609E-02  0.9028211E-01
        2   -1    0    0  501    0  0.00000000000E+00  0.00000000000E+00  0.43917404156E+03  0.43917404156E+03  0.25500000920E-02 0. -1.
       -2   -1    0    0    0  501  0.00000000000E+00  0.00000000000E+00 -0.96456440962E+03  0.96456440962E+03  0.25500000920E-02 0.  1.
    10030    2    1    2    0    0  0.00000000000E+00  0.00000000000E+00 -0.52539036806E+03  0.14037384512E+04  0.13017091075E+04 0.  0.
        1    1    3    3  502    0  0.52100998059E+03 -0.10776008985E+03  0.14158700476E+03  0.55055473550E+03  0.50400001928E-02 0.  1.
       -1    1    3    3    0  502 -0.52100998059E+03  0.10776008985E+03 -0.66697737282E+03  0.85318371569E+03  0.50400001928E-02 0. -1.
</event>
<event>
 5   0  0.5812938E-04  0.1304478E+04  0.7818609E-02  0.9026021E-01
        1   -1    0    0  501    0  0.00000000000E+00  0.00000000000E+00  0.97639836174E+03  0.97639836175E+03  0.50400001928E-02 0. -1.
       -1   -1    0    0    0  501  0.00000000000E+00  0.00000000000E+00 -0.43569904359E+03  0.43569904362E+03  0.50400001928E-02 0.  1.
    10030    2    1    2    0    0  0.00000000000E+00  0.00000000000E+00  0.54069931815E+03  0.14120974054E+04  0.13044781829E+04 0.  0.
        5    1    3    3  502    0  0.17103792012E+03  0.73647501639E+02 -0.40629137550E+03  0.44695939012E+03  0.46999998093E+01 0.  1.
       -5    1    3    3    0  502 -0.17103792012E+03 -0.73647501639E+02  0.94699069365E+03  0.96513801525E+03  0.46999998093E+01 0. -1.
</event>
<event>
 5   0  0.5766027E-04  0.1308022E+04  0.7818609E-02  0.9023228E-01
        1   -1    0    0  501    0  0.00000000000E+00  0.00000000000E+00  0.91786033653E+03  0.91786033655E+03  0.50400001928E-02 0. -1.
       -1   -1    0    0    0  501  0.00000000000E+00  0.00000000000E+00 -0.46600824366E+03  0.46600824368E+03  0.50400001928E-02 0.  1.
    10030    2    1    2    0    0  0.00000000000E+00  0.00000000000E+00  0.45185209288E+03  0.13838685802E+04  0.13080221456E+04 0.  0.
        3    1    3    3  502    0  0.34499966261E+03  0.44515013187E+03  0.57769164326E+03  0.80679058745E+03  0.10100000352E+00 0. -1.
       -3    1    3    3    0  502 -0.34499966261E+03 -0.44515013187E+03 -0.12583955039E+03  0.57707799278E+03  0.10100000352E+00 0.  1.
</event>
<event>
 5   0  0.6006119E-04  0.1305318E+04  0.7818609E-02  0.9025359E-01
       -1   -1    0    0    0  501  0.00000000000E+00  0.00000000000E+00  0.67343500614E+03  0.67343500616E+03  0.50400001928E-02 0. -1.
        1   -1    0    0  501    0  0.00000000000E+00  0.00000000000E+00 -0.63252356054E+03  0.63252356056E+03  0.50400001928E-02 0.  1.
    10030    2    1    2    0    0  0.00000000000E+00  0.00000000000E+00  0.40911445605E+02  0.13059585667E+04  0.13053175980E+04 0.  0.
        4    1    3    3  502    0 -0.20163672701E+03 -0.57210513986E+03 -0.22049491450E+03  0.64543108149E+03  0.12699999809E+01 0. -1.
       -4    1    3    3    0  502  0.20163672701E+03  0.57210513986E+03  0.26140636011E+03  0.66052748523E+03  0.12699999809E+01 0.  1.
</event>
<event>
 5   0  0.5812938E-04  0.1306344E+04  0.7818609E-02  0.9024550E-01
        1   -1    0    0  501    0  0.00000000000E+00  0.00000000000E+00  0.10574730539E+04  0.10574730539E+04  0.50400001928E-02 0.  1.
       -1   -1    0    0    0  501  0.00000000000E+00  0.00000000000E+00 -0.40344614775E+03  0.40344614778E+03  0.50400001928E-02 0. -1.
    10030    2    1    2    0    0  0.00000000000E+00  0.00000000000E+00  0.65402690613E+03  0.14609192017E+04  0.13063436454E+04 0.  0.
        5    1    3    3  502    0  0.21529057078E+02 -0.51229406838E+03  0.77949053281E+03  0.93302534453E+03  0.46999998093E+01 0.  1.
       -5    1    3    3    0  502 -0.21529057078E+02  0.51229406838E+03 -0.12546362668E+03  0.52789385715E+03  0.46999998093E+01 0. -1.
</event>
<event>
 5   0  0.1031295E-03  0.1300824E+04  0.7818609E-02  0.9028912E-01
       -2   -1    0    0    0  501  0.00000000000E+00  0.00000000000E+00  0.27583031446E+03  0.27583031447E+03  0.25500000920E-02 0. -1.
        2   -1    0    0  501    0  0.00000000000E+00  0.00000000000E+00 -0.15336815116E+04  0.15336815116E+04  0.25500000920E-02 0.  1.
    10030    2    1    2    0    0  0.00000000000E+00  0.00000000000E+00 -0.12578511972E+04  0.18095118261E+04  0.13008241290E+04 0.  0.
        2    1    3    3  502    0  0.28679147174E+03 -0.13570603463E+03 -0.14187315568E+04  0.14537760165E+04  0.25500000920E-02 0.  1.
       -2    1    3    3    0  502 -0.28679147174E+03  0.13570603463E+03  0.16088035960E+03  0.35573580957E+03  0.25500000920E-02 0. -1.
</event>
<event>
 5   0  0.5563545E-04  0.1344683E+04  0.7818609E-02  0.8994863E-01
       -1   -1    0    0    0  501  0.00000000000E+00  0.00000000000E+00  0.33958759571E+03  0.33958759575E+03  0.50400001928E-02 0. -1.
        1   -1    0    0  501    0  0.00000000000E+00  0.00000000000E+00 -0.13311529292E+04  0.13311529292E+04  0.50400001928E-02 0.  1.
    10030    2    1    2    0    0  0.00000000000E+00  0.00000000000E+00 -0.99156533344E+03  0.16707405249E+04  0.13446828961E+04 0.  0.
        2    1    3    3  502    0 -0.62702620845E+03  0.22238273511E+03 -0.37514647303E+03  0.76377406554E+03  0.25500000920E-02 0.  1.
       -2    1    3    3    0  502  0.62702620845E+03 -0.22238273511E+03 -0.61641886041E+03  0.90696645938E+03  0.25500000920E-02 0. -1.
</event>
<event>
 5   0  0.1081574E-03  0.1303359E+04  0.7818609E-02  0.9026905E-01
        2   -1    0    0  501    0  0.00000000000E+00  0.00000000000E+00  0.39687229351E+03  0.39687229351E+03  0.25500000920E-02 0. -1.
       -2   -1    0    0    0  501  0.00000000000E+00  0.00000000000E+00 -0.10700834310E+04  0.10700834311E+04  0.25500000920E-02 0.  1.
    10030    2    1    2    0    0  0.00000000000E+00  0.00000000000E+00 -0.67321113754E+03  0.14669557246E+04  0.13033594524E+04 0.  0.
        5    1    3    3  502    0 -0.12847626909E+03 -0.56509592413E+03 -0.11616143273E+01  0.57953687935E+03  0.46999998093E+01 0. -1.
       -5    1    3    3    0  502  0.12847626909E+03  0.56509592413E+03 -0.67204952322E+03  0.88741884521E+03  0.46999998093E+01 0.  1.
</event>
<event>
 5   0  0.5710383E-04  0.1307990E+04  0.7818609E-02  0.9023253E-01
        1   -1    0    0  501    0  0.00000000000E+00  0.00000000000E+00  0.10646979502E+04  0.10646979503E+04  0.50400001928E-02 0. -1.
       -1   -1    0    0    0  501  0.00000000000E+00  0.00000000000E+00 -0.40171931342E+03  0.40171931346E+03  0.50400001928E-02 0.  1.
    10030    2    1    2    0    0  0.00000000000E+00  0.00000000000E+00  0.66297863682E+03  0.14664172637E+04  0.13079904122E+04 0.  0.
        1    1    3    3  502    0 -0.29193118392E+02  0.50692046399E+03  0.79358914583E+03  0.94212755367E+03  0.50400001928E-02 0. -1.
       -1    1    3    3    0  502  0.29193118392E+02 -0.50692046399E+03 -0.13061050901E+03  0.52428971005E+03  0.50400001928E-02 0.  1.
</event>
<event>
 5   0  0.1046253E-03  0.1319234E+04  0.7818609E-02  0.9014450E-01
        2   -1    0    0  501    0  0.00000000000E+00  0.00000000000E+00  0.10429766268E+04  0.10429766268E+04  0.25500000920E-02 0.  1.
       -2   -1    0    0    0  501  0.00000000000E+00  0.00000000000E+00 -0.41716616355E+03  0.41716616355E+03  0.25500000920E-02 0. -1.
    10030    2    1    2    0    0  0.00000000000E+00  0.00000000000E+00  0.62581046329E+03  0.14601427904E+04  0.13192339566E+04 0.  0.
        3    1    3    3  502    0 -0.59012216627E+03  0.28962732399E+03  0.37318722828E+03  0.75590798083E+03  0.10100000352E+00 0.  1.
       -3    1    3    3    0  502  0.59012216627E+03 -0.28962732399E+03  0.25262323501E+03  0.70423480956E+03  0.10100000352E+00 0. -1.
</event>
<event>
 5   0  0.1081574E-03  0.1300352E+04  0.7818609E-02  0.9029286E-01
       -2   -1    0    0    0  501  0.00000000000E+00  0.00000000000E+00  0.50751431307E+03  0.50751431308E+03  0.25500000920E-02 0. -1.
        2   -1    0    0  501    0  0.00000000000E+00  0.00000000000E+00 -0.83293943566E+03  0.83293943567E+03  0.25500000920E-02 0.  1.
    10030    2    1    2    0    0  0.00000000000E+00  0.00000000000E+00 -0.32542512259E+03  0.13404537487E+04  0.13003517763E+04 0.  0.
        5    1    3    3  502    0  0.89277700978E+02  0.34494852569E+03  0.39788455610E+03  0.53412938811E+03  0.46999998093E+01 0.  1.
       -5    1    3    3    0  502 -0.89277700978E+02 -0.34494852569E+03 -0.72330967869E+03  0.80632436063E+03  0.46999998093E+01 0. -1.
</event>
<event>
 5   0  0.1081574E-03  0.1295968E+04  0.7818609E-02  0.9032769E-01
        2   -1    0    0  501    0  0.00000000000E+00  0.00000000000E+00  0.12368536152E+04  0.12368536152E+04  0.25500000920E-02 0. -1.
       -2   -1    0    0    0  501  0.00000000000E+00  0.00000000000E+00 -0.33947704759E+03  0.33947704760E+03  0.25500000920E-02 0.  1.
    10030    2    1    2    0    0  0.00000000000E+00  0.00000000000E+00  0.89737656757E+03  0.15763306628E+04  0.12959682304E+04 0.  0.
        5    1    3    3  502    0  0.25304139047E+03 -0.25393996301E+03  0.11052225589E+04  0.11619184329E+04  0.46999998093E+01 0. -1.
       -5    1    3    3    0  502 -0.25304139047E+03  0.25393996301E+03 -0.20784599133E+03  0.41441222981E+03  0.46999998093E+01 0.  1.
</event>
<event>
 5   0  0.1046253E-03  0.1309699E+04  0.7818609E-02  0.9021909E-01
        2   -1    0    0  501    0  0.00000000000E+00  0.00000000000E+00  0.13681846004E+04  0.13681846004E+04  0.25500000920E-02 0. -1.
       -2   -1    0    0    0  501  0.00000000000E+00  0.00000000000E+00 -0.31342847528E+03  0.31342847529E+03  0.25500000920E-02 0.  1.
    10030    2    1    2    0    0  0.00000000000E+00  0.00000000000E+00  0.10547561251E+04  0.16816130757E+04  0.13096992223E+04 0.  0.
        3    1    3    3  502    0 -0.50125681054E+03 -0.32192959193E+03  0.17826375179E+03  0.62183199312E+03  0.10100000352E+00 0.  1.
       -3    1    3    3    0  502  0.50125681054E+03  0.32192959193E+03  0.87649237330E+03  0.10597810825E+04  0.10100000352E+00 0. -1.
</event>
<event>
 5   0  0.5710383E-04  0.1314418E+04  0.7818609E-02  0.9018209E-01
       -1   -1    0    0    0  501  0.00000000000E+00  0.00000000000E+00  0.90250752637E+03  0.90250752638E+03  0.50400001928E-02 0. -1.
        1   -1    0    0  501    0  0.00000000000E+00  0.00000000000E+00 -0.47858158840E+03  0.47858158842E+03  0.50400001928E-02 0.  1.
    10030    2    1    2    0    0  0.00000000000E+00  0.00000000000E+00  0.42392593797E+03  0.13810891148E+04  0.13144177198E+04 0.  0.
        1    1    3    3  502    0  0.49603587555E+03  0.27610416797E+03  0.55987513057E+03  0.79733635516E+03  0.50400001928E-02 0.  1.
       -1    1    3    3    0  502 -0.49603587555E+03 -0.27610416797E+03 -0.13594919260E+03  0.58375275964E+03  0.50400001928E-02 0. -1.
</event>
<event>
 5   0  0.5563545E-04  0.1300758E+04  0.7818609E-02  0.9028964E-01
       -1   -1    0    0    0  501  0.00000000000E+00  0.00000000000E+00  0.96986810013E+03  0.96986810014E+03  0.50400001928E-02 0. -1.
        1   -1    0    0  501    0  0.00000000000E+00  0.00000000000E+00 -0.43613434298E+03  0.43613434300E+03  0.50400001928E-02 0.  1.
    10030    2    1    2    0    0  0.00000000000E+00  0.00000000000E+00  0.53373375715E+03  0.14060024431E+04  0.13007579124E+04 0.  0.
        2    1    3    3  502    0  0.56186549301E+03  0.83921772652E+02 -0.75386029915E+02  0.57307831025E+03  0.25500000920E-02 0.  1.
       -2    1    3    3    0  502 -0.56186549301E+03 -0.83921772652E+02  0.60911978707E+03  0.83292413290E+03  0.25500000920E-02 0. -1.
</event>
<event>
 5   0  0.5812938E-04  0.1284942E+04  0.7818609E-02  0.9041593E-01
        1   -1    0    0  501    0  0.00000000000E+00  0.00000000000E+00  0.93932898329E+03  0.93932898330E+03  0.50400001928E-02 0.  1.
       -1   -1    0    0    0  501  0.00000000000E+00  0.00000000000E+00 -0.43942932492E+03  0.43942932495E+03  0.50400001928E-02 0. -1.
    10030    2    1    2    0    0  0.00000000000E+00  0.00000000000E+00  0.49989965837E+03  0.13787583083E+04  0.12849415567E+04 0.  0.
        5    1    3    3  502    0 -0.44196857745E+03 -0.41016386145E+03  0.48789743674E+03  0.77565238056E+03  0.46999998093E+01 0.  1.
       -5    1    3    3    0  502  0.44196857745E+03  0.41016386145E+03  0.12002221623E+02  0.60310592769E+03  0.46999998093E+01 0. -1.
</event>
<event>
 5   0  0.1031295E-03  0.1304568E+04  0.7818609E-02  0.9025950E-01
       -2   -1    0    0    0  501  0.00000000000E+00  0.00000000000E+00  0.53474221744E+03  0.53474221744E+03  0.25500000920E-02 0.  1.
        2   -1    0    0  501    0  0.00000000000E+00  0.00000000000E+00 -0.79566293703E+03  0.79566293704E+03  0.25500000920E-02 0. -1.
    10030    2    1    2    0    0  0.00000000000E+00  0.00000000000E+00 -0.26092071960E+03  0.13304051545E+04  0.13045682248E+04 0.  0.
        2    1    3    3  502    0 -0.47864948953E+03  0.42105377484E+03 -0.27133728292E+03  0.69283153525E+03  0.25500000920E-02 0. -1.
       -2    1    3    3    0  502  0.47864948953E+03 -0.42105377484E+03  0.10416563322E+02  0.63757361923E+03  0.25500000920E-02 0.  1.
</event>
<event>
 5   0  0.5766027E-04  0.1341412E+04  0.7818609E-02  0.8997354E-01
       -1   -1    0    0    0  501  0.00000000000E+00  0.00000000000E+00  0.40838783370E+03  0.40838783373E+03  0.50400001928E-02 0. -1.
        1   -1    0    0  501    0  0.00000000000E+00  0.00000000000E+00 -0.11015183810E+04  0.11015183810E+04  0.50400001928E-02 0.  1.
    10030    2    1    2    0    0  0.00000000000E+00  0.00000000000E+00 -0.69313054733E+03  0.15099062148E+04  0.13414122490E+04 0.  0.
        3    1    3    3  502    0 -0.63296786490E+03  0.20973412788E+03 -0.42781191842E+03  0.79224981548E+03  0.10100000352E+00 0. -1.
       -3    1    3    3    0  502  0.63296786490E+03 -0.20973412788E+03 -0.26531862891E+03  0.71765639929E+03  0.10100000352E+00 0.  1.
</event>
<event>
 5   0  0.6006119E-04  0.1305032E+04  0.7818609E-02  0.9025585E-01
        1   -1    0    0  501    0  0.00000000000E+00  0.00000000000E+00  0.78815100397E+03  0.78815100399E+03  0.50400001928E-02 0. -1.
       -1   -1    0    0    0  501  0.00000000000E+00  0.00000000000E+00 -0.54022249237E+03  0.54022249239E+03  0.50400001928E-02 0.  1.
    10030    2    1    2    0    0  0.00000000000E+00  0.00000000000E+00  0.24792851160E+03  0.13283734964E+04  0.13050316468E+04 0.  0.
        4    1    3    3  502    0  0.51747228803E+03 -0.17373703203E+03  0.48786835494E+03  0.73210605094E+03  0.12699999809E+01 0. -1.
       -4    1    3    3    0  502 -0.51747228803E+03  0.17373703203E+03 -0.23993984334E+03  0.59626744544E+03  0.12699999809E+01 0.  1.
</event>
<event>
 5   0  0.1103241E-03  0.1332479E+04  0.7818609E-02  0.9004198E-01
       -2   -1    0    0    0  501  0.00000000000E+00  0.00000000000E+00  0.24649398902E+03  0.24649398904E+03  0.25500000920E-02 0.  1.
        2   -1    0    0  501    0  0.00000000000E+00  0.00000000000E+00 -0.18007549961E+04  0.18007549961E+04  0.25500000920E-02 0. -1.
    10030    2    1    2    0    0  0.00000000000E+00  0.00000000000E+00 -0.15542610071E+04  0.20472489851E+04  0.13324793165E+04 0.  0.
        4    1    3    3  502    0  0.25906240067E+03 -0.61366594464E+03 -0.79742349362E+03  0.10390308273E+04  0.12699999809E+01 0. -1.
       -4    1    3    3    0  502 -0.25906240067E+03  0.61366594464E+03 -0.75683751344E+03  0.10082181578E+04  0.12699999809E+01 0.  1.
</event>
<event>
 5   0  0.4012375E-04  0.1285545E+04  0.7818609E-02  0.9041107E-01
        3   -1    0    0  501    0  0.00000000000E+00  0.00000000000E+00  0.91142833374E+03  0.91142833934E+03  0.10100000352E+00 0.  1.
       -3   -1    0    0    0  501  0.00000000000E+00  0.00000000000E+00 -0.45330686964E+03  0.45330688089E+03  0.10100000352E+00 0. -1.
    10030    2    1    2    0    0  0.00000000000E+00  0.00000000000E+00  0.45812146410E+03  0.13647352202E+04  0.12855453883E+04 0.  0.
        5    1    3    3  502    0  0.76153141351E+02 -0.63316151499E+03  0.31426591200E+03  0.71096973103E+03  0.46999998093E+01 0. -1.
       -5    1    3    3    0  502 -0.76153141351E+02  0.63316151499E+03  0.14385555211E+03  0.65376548920E+03  0.46999998093E+01 0.  1.
</event>
<event>
 5   0  0.6006119E-04  0.1295250E+04  0.7818609E-02  0.9033341E-01
        1   -1    0    0  501    0  0.00000000000E+00  0.00000000000E+00  0.81155201080E+03  0.81155201081E+03  0.50400001928E-02 0.  1.
       -1   -1    0    0    0  501  0.00000000000E+00  0.00000000000E+00 -0.51680979718E+03  0.51680979720E+03  0.50400001928E-02 0. -1.
    10030    2    1    2    0    0  0.00000000000E+00  0.00000000000E+00  0.29474221362E+03  0.13283618080E+04  0.12952498294E+04 0.  0.
        4    1    3    3  502    0 -0.19042775822E+03 -0.40580862117E+03 -0.33198887129E+03  0.55781860105E+03  0.12699999809E+01 0. -1.
       -4    1    3    3    0  502  0.19042775822E+03  0.40580862117E+03  0.62673108491E+03  0.77054320697E+03  0.12699999809E+01 0.  1.
</event>
<event>
 5   0  0.6006119E-04  0.1359890E+04  0.7818609E-02  0.8983375E-01
       -1   -1    0    0    0  501  0.00000000000E+00  0.00000000000E+00  0.50372108765E+03  0.50372108767E+03  0.50400001928E-02 0.  1.
        1   -1    0    0  501    0  0.00000000000E+00  0.00000000000E+00 -0.91782033197E+03  0.91782033198E+03  0.50400001928E-02 0. -1.
    10030    2    1    2    0    0  0.00000000000E+00  0.00000000000E+00 -0.41409924432E+03  0.14215414197E+04  0.13598903719E+04 0.  0.
        4    1    3    3  502    0  0.54472115718E+03 -0.35401446858E+03 -0.41683792294E+03  0.77188266592E+03  0.12699999809E+01 0. -1.
       -4    1    3    3    0  502 -0.54472115718E+03  0.35401446858E+03  0.27386786122E+01  0.64965875374E+03  0.12699999809E+01 0.  1.
</event>
<event>
 5   0  0.5710383E-04  0.1291082E+04  0.7818609E-02  0.9036667E-01
        1   -1    0    0  501    0  0.00000000000E+00  0.00000000000E+00  0.72495683610E+03  0.72495683612E+03  0.50400001928E-02 0.  1.
       -1   -1    0    0    0  501  0.00000000000E+00  0.00000000000E+00 -0.57482511411E+03  0.57482511413E+03  0.50400001928E-02 0. -1.
    10030    2    1    2    0    0  0.00000000000E+00  0.00000000000E+00  0.15013172199E+03  0.12997819503E+04  0.12910823306E+04 0.  0.
        1    1    3    3  502    0 -0.45393658330E+03  0.42675250246E+03  0.24516374120E+03  0.66953818415E+03  0.50400001928E-02 0.  1.
       -1    1    3    3    0  502  0.45393658330E+03 -0.42675250246E+03 -0.95032019203E+02  0.63024376610E+03  0.50400001928E-02 0. -1.
</event>
<event>
 5   0  0.1101619E-03  0.1254288E+04  0.7818609E-02  0.9066622E-01
        2   -1    0    0  501    0  0.00000000000E+00  0.00000000000E+00  0.18427874235E+04  0.18427874235E+04  0.25500000920E-02 0.  1.
       -2   -1    0    0    0  501  0.00000000000E+00  0.00000000000E+00 -0.21343204480E+03  0.21343204481E+03  0.25500000920E-02 0. -1.
    10030    2    1    2    0    0  0.00000000000E+00  0.00000000000E+00  0.16293553787E+04  0.20562194683E+04  0.12542884643E+04 0.  0.
        1    1    3    3  502    0 -0.72805668782E+02  0.10102361815E+03  0.18223167607E+04  0.18265663999E+04  0.50400001928E-02 0.  1.
       -1    1    3    3    0  502  0.72805668782E+02 -0.10102361815E+03 -0.19296138205E+03  0.22965306838E+03  0.50400001928E-02 0. -1.
</event>
<event>
 5   0  0.5766027E-04  0.1301550E+04  0.7818609E-02  0.9028337E-01
        1   -1    0    0  501    0  0.00000000000E+00  0.00000000000E+00  0.16912713825E+04  0.16912713825E+04  0.50400001928E-02 0. -1.
       -1   -1    0    0    0  501  0.00000000000E+00  0.00000000000E+00 -0.25040813766E+03  0.25040813772E+03  0.50400001928E-02 0.  1.
    10030    2    1    2    0    0  0.00000000000E+00  0.00000000000E+00  0.14408632448E+04  0.19416795202E+04  0.13015500255E+04 0.  0.
        3    1    3    3  502    0  0.31597495226E+03  0.44312930374E+03  0.12527093797E+04  0.13658274233E+04  0.10100000352E+00 0. -1.
       -3    1    3    3    0  502 -0.31597495226E+03 -0.44312930374E+03  0.18815386517E+03  0.57585209687E+03  0.10100000352E+00 0.  1.
</event>
<event>
 5   0  0.1031295E-03  0.1310563E+04  0.7818609E-02  0.9021231E-01
       -2   -1    0    0    0  501  0.00000000000E+00  0.00000000000E+00  0.32395348179E+03  0.32395348180E+03  0.25500000920E-02 0. -1.
        2   -1    0    0  501    0  0.00000000000E+00  0.00000000000E+00 -0.13254791426E+04  0.13254791426E+04  0.25500000920E-02 0.  1.
    10030    2    1    2    0    0  0.00000000000E+00  0.00000000000E+00 -0.10015256608E+04  0.16494326244E+04  0.13105626018E+04 0.  0.
        2    1    3    3  502    0  0.96073970263E+02 -0.33211654002E+03  0.19982236378E+03  0.39932515697E+03  0.25500000920E-02 0. -1.
       -2    1    3    3    0  502 -0.96073970263E+02  0.33211654002E+03 -0.12013480246E+04  0.12501074674E+04  0.25500000920E-02 0.  1.
</event>
<event>
 5   0  0.1046253E-03  0.1313536E+04  0.7818609E-02  0.9018899E-01
        2   -1    0    0  501    0  0.00000000000E+00  0.00000000000E+00  0.86420511787E+03  0.86420511787E+03  0.25500000920E-02 0.  1.
       -2   -1    0    0    0  501  0.00000000000E+00  0.00000000000E+00 -0.49912259158E+03  0.49912259159E+03  0.25500000920E-02 0. -1.
    10030    2    1    2    0    0  0.00000000000E+00  0.00000000000E+00  0.36508252629E+03  0.13633277095E+04  0.13135361405E+04 0.  0.
        3    1    3    3  502    0  0.44622433584E+03  0.11527866261E+02  0.68256583955E+03  0.81556433537E+03  0.10100000352E+00 0.  1.
       -3    1    3    3    0  502 -0.44622433584E+03 -0.11527866261E+02 -0.31748331327E+03  0.54776337409E+03  0.10100000352E+00 0. -1.
</event>
<event>
 5   0  0.4012375E-04  0.1305239E+04  0.7818609E-02  0.9025421E-01
       -3   -1    0    0    0  501  0.00000000000E+00  0.00000000000E+00  0.29527888741E+03  0.29527890468E+03  0.10100000352E+00 0.  1.
        3   -1    0    0  501    0  0.00000000000E+00  0.00000000000E+00 -0.14424071980E+04  0.14424072015E+04  0.10100000352E+00 0. -1.
    10030    2    1    2    0    0  0.00000000000E+00  0.00000000000E+00 -0.11471283106E+04  0.17376861062E+04  0.13052393048E+04 0.  0.
        4    1    3    3  502    0 -0.25283028498E+03 -0.11311348821E+03  0.21314452090E+03  0.34949966224E+03  0.12699999809E+01 0.  1.
       -4    1    3    3    0  502  0.25283028498E+03  0.11311348821E+03 -0.13602728315E+04  0.13881864440E+04  0.12699999809E+01 0. -1.
</event>
<event>
 5   0  0.5812938E-04  0.1296954E+04  0.7818609E-02  0.9031984E-01
        1   -1    0    0  501    0  0.00000000000E+00  0.00000000000E+00  0.17122774830E+04  0.17122774830E+04  0.50400001928E-02 0. -1.
       -1   -1    0    0    0  501  0.00000000000E+00  0.00000000000E+00 -0.24559238600E+03  0.24559238605E+03  0.50400001928E-02 0.  1.
    10030    2    1    2    0    0  0.00000000000E+00  0.00000000000E+00  0.14666850970E+04  0.19578698690E+04  0.12969538351E+04 0.  0.
        5    1    3    3  502    0 -0.11152306675E+03  0.63623588836E+03  0.64706149686E+03  0.91429982543E+03  0.46999998093E+01 0. -1.
       -5    1    3    3    0  502  0.11152306675E+03 -0.63623588836E+03  0.81962360010E+03  0.10435700436E+04  0.46999998093E+01 0.  1.
</event>
<event>
 5   0  0.1103241E-03  0.1302197E+04  0.7818609E-02  0.9027825E-01
       -2   -1    0    0    0  501  0.00000000000E+00  0.00000000000E+00  0.39374746895E+03  0.39374746896E+03  0.25500000920E-02 0.  1.
        2   -1    0    0  501    0  0.00000000000E+00  0.00000000000E+00 -0.10766528488E+04  0.10766528488E+04  0.25500000920E-02 0. -1.
    10030    2    1    2    0    0  0.00000000000E+00  0.00000000000E+00 -0.68290537987E+03  0.14704003178E+04  0.13021971190E+04 0.  0.
        4    1    3    3  502    0  0.47168935752E+03 -0.36637735511E+03 -0.48728878804E+02  0.59924897402E+03  0.12699999809E+01 0.  1.
       -4    1    3    3    0  502 -0.47168935752E+03  0.36637735511E+03 -0.63417650107E+03  0.87115134377E+03  0.12699999809E+01 0. -1.
</event>
<event>
 5   0  0.1103241E-03  0.1295839E+04  0.7818609E-02  0.9032872E-01
       -2   -1    0    0    0  501  0.00000000000E+00  0.00000000000E+00  0.52531667491E+03  0.52531667492E+03  0.25500000920E-02 0. -1.
        2   -1    0    0  501    0  0.00000000000E+00  0.00000000000E+00 -0.79913611718E+03  0.79913611718E+03  0.25500000920E-02 0.  1.
    10030    2    1    2    0    0  0.00000000000E+00  0.00000000000E+00 -0.27381944227E+03  0.13244527921E+04  0.12958387676E+04 0.  0.
        4    1    3    3  502    0 -0.64031103954E+03  0.80809969580E+01 -0.23775133246E+03  0.68307454854E+03  0.12699999809E+01 0.  1.
       -4    1    3    3    0  502  0.64031103954E+03 -0.80809969580E+01 -0.36068109810E+02  0.64137824356E+03  0.12699999809E+01 0. -1.
</event>
<event>
 5   0  0.1031295E-03  0.1301457E+04  0.7818609E-02  0.9028410E-01
       -2   -1    0    0    0  501  0.00000000000E+00  0.00000000000E+00  0.27172209978E+03  0.27172209979E+03  0.25500000920E-02 0.  1.
        2   -1    0    0  501    0  0.00000000000E+00  0.00000000000E+00 -0.15583857183E+04  0.15583857183E+04  0.25500000920E-02 0. -1.
    10030    2    1    2    0    0  0.00000000000E+00  0.00000000000E+00 -0.12866636185E+04  0.18301078181E+04  0.13014573979E+04 0.  0.
        2    1    3    3  502    0  0.21160028864E+03  0.54135623994E+03 -0.23189770230E+03  0.62579373999E+03  0.25500000920E-02 0.  1.
       -2    1    3    3    0  502 -0.21160028864E+03 -0.54135623994E+03 -0.10547659162E+04  0.12043140781E+04  0.25500000920E-02 0. -1.
</event>
<event>
 5   0  0.5812938E-04  0.1242816E+04  0.7818609E-02  0.9076184E-01
        1   -1    0    0  501    0  0.00000000000E+00  0.00000000000E+00  0.10662723917E+04  0.10662723917E+04  0.50400001928E-02 0. -1.
       -1   -1    0    0    0  501  0.00000000000E+00  0.00000000000E+00 -0.36214761254E+03  0.36214761257E+03  0.50400001928E-02 0.  1.
    10030    2    1    2    0    0  0.00000000000E+00  0.00000000000E+00  0.70412477912E+03  0.14284200042E+04  0.12428161586E+04 0.  0.
        5    1    3    3  502    0  0.16522139482E+03  0.54638867480E+03  0.69859372008E+02  0.57510096080E+03  0.46999998093E+01 0.  1.
       -5    1    3    3    0  502 -0.16522139482E+03 -0.54638867480E+03  0.63426540711E+03  0.85331904345E+03  0.46999998093E+01 0. -1.
</event>
<event>
 5   0  0.1046253E-03  0.1332470E+04  0.7818609E-02  0.9004205E-01
        2   -1    0    0  501    0  0.00000000000E+00  0.00000000000E+00  0.87938278138E+03  0.87938278138E+03  0.25500000920E-02 0. -1.
       -2   -1    0    0    0  501  0.00000000000E+00  0.00000000000E+00 -0.50475041571E+03  0.50475041571E+03  0.25500000920E-02 0.  1.
    10030    2    1    2    0    0  0.00000000000E+00  0.00000000000E+00  0.37463236567E+03  0.13841331971E+04  0.13324696236E+04 0.  0.
        3    1    3    3  502    0 -0.45388647457E+03 -0.21728185229E+03 -0.26624166332E+03  0.56930568996E+03  0.10100000352E+00 0.  1.
       -3    1    3    3    0  502  0.45388647457E+03  0.21728185229E+03  0.64087402900E+03  0.81482750713E+03  0.10100000352E+00 0. -1.
</event>
<event>
 5   0  0.5812938E-04  0.1272871E+04  0.7818609E-02  0.9051360E-01
       -1   -1    0    0    0  501  0.00000000000E+00  0.00000000000E+00  0.69997705084E+03  0.69997705086E+03  0.50400001928E-02 0.  1.
        1   -1    0    0  501    0  0.00000000000E+00  0.00000000000E+00 -0.57866171066E+03  0.57866171068E+03  0.50400001928E-02 0. -1.
    10030    2    1    2    0    0  0.00000000000E+00  0.00000000000E+00  0.12131534019E+03  0.12786387615E+04  0.12728706418E+04 0.  0.
        5    1    3    3  502    0 -0.33981002134E+03 -0.28094843192E+03 -0.40036099560E+03  0.59557861681E+03  0.46999998093E+01 0.  1.
       -5    1    3    3    0  502  0.33981002134E+03  0.28094843192E+03  0.52167633579E+03  0.68306014473E+03  0.46999998093E+01 0. -1.
</event>
<event>
 5   0  0.5766027E-04  0.1292776E+04  0.7818609E-02  0.9035313E-01
        1   -1    0    0  501    0  0.00000000000E+00  0.00000000000E+00  0.12422720351E+04  0.12422720351E+04  0.50400001928E-02 0.  1.
       -1   -1    0    0    0  501  0.00000000000E+00  0.00000000000E+00 -0.33633338547E+03  0.33633338550E+03  0.50400001928E-02 0. -1.
    10030    2    1    2    0    0  0.00000000000E+00  0.00000000000E+00  0.90593864967E+03  0.15786054207E+04  0.12927761744E+04 0.  0.
        3    1    3    3  502    0 -0.37015264565E+03 -0.18248695128E+03  0.10604613130E+04  0.11379335108E+04  0.10100000352E+00 0.  1.
       -3    1    3    3    0  502  0.37015264565E+03  0.18248695128E+03 -0.15452266330E+03  0.44067190986E+03  0.10100000352E+00 0. -1.
</event>
<event>
 5   0  0.4012375E-04  0.1308888E+04  0.7818609E-02  0.9022547E-01
        3   -1    0    0  501    0  0.00000000000E+00  0.00000000000E+00  0.85223811894E+03  0.85223812492E+03  0.10100000352E+00 0. -1.
       -3   -1    0    0    0  501  0.00000000000E+00  0.00000000000E+00 -0.50255527364E+03  0.50255528379E+03  0.10100000352E+00 0.  1.
    10030    2    1    2    0    0  0.00000000000E+00  0.00000000000E+00  0.34968284530E+03  0.13547934087E+04  0.13088877293E+04 0.  0.
        2    1    3    3  502    0 -0.10751149845E+03  0.48258365586E+03 -0.26897539348E+03  0.56284408987E+03  0.25500000920E-02 0.  1.
       -2    1    3    3    0  502  0.10751149845E+03 -0.48258365586E+03  0.61865823878E+03  0.79194931884E+03  0.25500000920E-02 0. -1.
</event>
<event>
 5   0  0.1103241E-03  0.1362262E+04  0.7818609E-02  0.8981598E-01
        2   -1    0    0  501    0  0.00000000000E+00  0.00000000000E+00  0.18043229509E+04  0.18043229509E+04  0.25500000920E-02 0. -1.
       -2   -1    0    0    0  501  0.00000000000E+00  0.00000000000E+00 -0.25712652261E+03  0.25712652262E+03  0.25500000920E-02 0.  1.
    10030    2    1    2    0    0  0.00000000000E+00  0.00000000000E+00  0.15471964283E+04  0.20614494736E+04  0.13622617752E+04 0.  0.
        4    1    3    3  502    0 -0.72624815431E+02 -0.25387233461E+03  0.17237152938E+04  0.17438238309E+04  0.12699999809E+01 0. -1.
       -4    1    3    3    0  502  0.72624815431E+02  0.25387233461E+03 -0.17651886550E+03  0.31762564266E+03  0.12699999809E+01 0.  1.
</event>
<event>
 5   0  0.6006119E-04  0.1297175E+04  0.7818609E-02  0.9031808E-01
       -1   -1    0    0    0  501  0.00000000000E+00  0.00000000000E+00  0.88151929372E+03  0.88151929373E+03  0.50400001928E-02 0. -1.
        1   -1    0    0  501    0  0.00000000000E+00  0.00000000000E+00 -0.47720536151E+03  0.47720536154E+03  0.50400001928E-02 0.  1.
    10030    2    1    2    0    0  0.00000000000E+00  0.00000000000E+00  0.40431393221E+03  0.13587246553E+04  0.12971749817E+04 0.  0.
        4    1    3    3  502    0 -0.59316442952E+03  0.34099450733E+02 -0.70295188715E+02  0.59828909354E+03  0.12699999809E+01 0. -1.
       -4    1    3    3    0  502  0.59316442952E+03 -0.34099450733E+02  0.47460912093E+03  0.76043556174E+03  0.12699999809E+01 0.  1.
</event>
<event>
 5   0  0.5766027E-04  0.1304676E+04  0.7818609E-02  0.9025865E-01
        1   -1    0    0  501    0  0.00000000000E+00  0.00000000000E+00  0.45246479076E+03  0.45246479079E+03  0.50400001928E-02 0.  1.
       -1   -1    0    0    0  501  0.00000000000E+00  0.00000000000E+00 -0.94050398019E+03  0.94050398021E+03  0.50400001928E-02 0. -1.
    10030    2    1    2    0    0  0.00000000000E+00  0.00000000000E+00 -0.48803918943E+03  0.13929687710E+04  0.13046761079E+04 0.  0.
        3    1    3    3  502    0 -0.21097582886E+03 -0.14860130150E+03  0.39565149930E+03  0.47236984056E+03  0.10100000352E+00 0.  1.
       -3    1    3    3    0  502  0.21097582886E+03  0.14860130150E+03 -0.88369068873E+03  0.92059893044E+03  0.10100000352E+00 0. -1.
</event>
<event>
 5   0  0.1031295E-03  0.1303678E+04  0.7818609E-02  0.9026653E-01
        2   -1    0    0  501    0  0.00000000000E+00  0.00000000000E+00  0.61863346628E+03  0.61863346629E+03  0.25500000920E-02 0. -1.
       -2   -1    0    0    0  501  0.00000000000E+00  0.00000000000E+00 -0.68682697546E+03  0.68682697546E+03  0.25500000920E-02 0.  1.
    10030    2    1    2    0    0  0.00000000000E+00  0.00000000000E+00 -0.68193509179E+02  0.13054604417E+04  0.13036781084E+04 0.  0.
        2    1    3    3  502    0  0.53263092243E+03  0.30785633048E+03  0.18165763011E+03  0.64145983064E+03  0.25500000920E-02 0. -1.
       -2    1    3    3    0  502 -0.53263092243E+03 -0.30785633048E+03 -0.24985113929E+03  0.66400061111E+03  0.25500000920E-02 0.  1.
</event>
<event>
 5   0  0.5766027E-04  0.1279050E+04  0.7818609E-02  0.9046346E-01
        1   -1    0    0  501    0  0.00000000000E+00  0.00000000000E+00  0.12778244533E+04  0.12778244533E+04  0.50400001928E-02 0.  1.
       -1   -1    0    0    0  501  0.00000000000E+00  0.00000000000E+00 -0.32006905644E+03  0.32006905648E+03  0.50400001928E-02 0. -1.
    10030    2    1    2    0    0  0.00000000000E+00  0.00000000000E+00  0.95775539684E+03  0.15978935098E+04  0.12790497521E+04 0.  0.
        3    1    3    3  502    0  0.59770784392E+03  0.16057670635E+03  0.27762111685E+03  0.67831632741E+03  0.10100000352E+00 0.  1.
       -3    1    3    3    0  502 -0.59770784392E+03 -0.16057670635E+03  0.68013427998E+03  0.91957718236E+03  0.10100000352E+00 0. -1.
</event>
<event>
 5   0  0.1103241E-03  0.1335834E+04  0.7818609E-02  0.9001621E-01
        2   -1    0    0  501    0  0.00000000000E+00  0.00000000000E+00  0.15357406073E+04  0.15357406073E+04  0.25500000920E-02 0. -1.
       -2   -1    0    0    0  501  0.00000000000E+00  0.00000000000E+00 -0.29048728883E+03  0.29048728884E+03  0.25500000920E-02 0.  1.
    10030    2    1    2    0    0  0.00000000000E+00  0.00000000000E+00  0.12452533184E+04  0.18262278961E+04  0.13358340097E+04 0.  0.
        4    1    3    3  502    0  0.14707994897E+03 -0.51721809582E+03  0.80996153025E+02  0.54379137520E+03  0.12699999809E+01 0.  1.
       -4    1    3    3    0  502 -0.14707994897E+03  0.51721809582E+03  0.11642571654E+04  0.12824365209E+04  0.12699999809E+01 0. -1.
</event>
<event>
 5   0  0.1101619E-03  0.1274141E+04  0.7818609E-02  0.9050327E-01
       -2   -1    0    0    0  501  0.00000000000E+00  0.00000000000E+00  0.25126857110E+03  0.25126857111E+03  0.25500000920E-02 0.  1.
        2   -1    0    0  501    0  0.00000000000E+00  0.00000000000E+00 -0.16152390818E+04  0.16152390818E+04  0.25500000920E-02 0. -1.
    10030    2    1    2    0    0  0.00000000000E+00  0.00000000000E+00 -0.13639705107E+04  0.18665076529E+04  0.12741409908E+04 0.  0.
        1    1    3    3  502    0  0.13801761842E+03 -0.42768551268E+03 -0.20506905899E+02  0.44987141937E+03  0.50400001928E-02 0.  1.
       -1    1    3    3    0  502 -0.13801761842E+03  0.42768551268E+03 -0.13434636048E+04  0.14166362336E+04  0.50400001928E-02 0. -1.
</event>
<event>
 5   0  0.1046253E-03  0.1297351E+04  0.7818609E-02  0.9031668E-01
        2   -1    0    0  501    0  0.00000000000E+00  0.00000000000E+00  0.17739647561E+04  0.17739647561E+04  0.25500000920E-02 0.  1.
       -2   -1    0    0    0  501  0.00000000000E+00  0.00000000000E+00 -0.23719757106E+03  0.23719757107E+03  0.25500000920E-02 0. -1.
    10030    2    1    2    0    0  0.00000000000E+00  0.00000000000E+00  0.15367671851E+04  0.20111623272E+04  0.12973513500E+04 0.  0.
        3    1    3    3  502    0 -0.47435395017E+03 -0.20938780029E+02  0.83251970236E+02  0.48205912843E+03  0.10100000352E+00 0. -1.
       -3    1    3    3    0  502  0.47435395017E+03  0.20938780029E+02  0.14535152148E+04  0.15291031988E+04  0.10100000352E+00 0.  1.
</event>
<event>
 5   0  0.1046253E-03  0.1285819E+04  0.7818609E-02  0.9040887E-01
       -2   -1    0    0    0  501  0.00000000000E+00  0.00000000000E+00  0.80975479496E+03  0.80975479496E+03  0.25500000920E-02 0.  1.
        2   -1    0    0  501    0  0.00000000000E+00  0.00000000000E+00 -0.51044151003E+03  0.51044151003E+03  0.25500000920E-02 0. -1.
    10030    2    1    2    0    0  0.00000000000E+00  0.00000000000E+00  0.29931328493E+03  0.13201963050E+04  0.12858187435E+04 0.  0.
        3    1    3    3  502    0  0.48668997652E+03  0.16387086291E+03 -0.24748138769E+03  0.57005950603E+03  0.10100000352E+00 0. -1.
       -3    1    3    3    0  502 -0.48668997652E+03 -0.16387086291E+03  0.54679467262E+03  0.75013679897E+03  0.10100000352E+00 0.  1.
</event>
<event>
 5   0  0.1081574E-03  0.1297753E+04  0.7818609E-02  0.9031349E-01
       -2   -1    0    0    0  501  0.00000000000E+00  0.00000000000E+00  0.30851742712E+03  0.30851742713E+03  0.25500000920E-02 0.  1.
        2   -1    0    0  501    0  0.00000000000E+00  0.00000000000E+00 -0.13647227125E+04  0.13647227125E+04  0.25500000920E-02 0. -1.
    10030    2    1    2    0    0  0.00000000000E+00  0.00000000000E+00 -0.10562052854E+04  0.16732401397E+04  0.12977530428E+04 0.  0.
        5    1    3    3  502    0  0.21259480206E+03  0.40688920589E+02 -0.13167787355E+04  0.13344588665E+04  0.46999998093E+01 0. -1.
       -5    1    3    3    0  502 -0.21259480206E+03 -0.40688920589E+02  0.26057345012E+03  0.33878127314E+03  0.46999998093E+01 0.  1.
</event>
<event>
 5   0  0.5766027E-04  0.1298757E+04  0.7818609E-02  0.9030552E-01
       -1   -1    0    0    0  501  0.00000000000E+00  0.00000000000E+00  0.81241378271E+03  0.81241378272E+03  0.50400001928E-02 0.  1.
        1   -1    0    0  501    0  0.00000000000E+00  0.00000000000E+00 -0.51906099190E+03  0.51906099193E+03  0.50400001928E-02 0. -1.
    10030    2    1    2    0    0  0.00000000000E+00  0.00000000000E+00  0.29335279080E+03  0.13314747747E+04  0.12987567962E+04 0.  0.
        3    1    3    3  502    0 -0.16429997934E+02 -0.43809728263E+02 -0.51733063031E+03  0.51944222814E+03  0.10100000352E+00 0. -1.
       -3    1    3    3    0  502  0.16429997934E+02  0.43809728263E+02  0.81068342111E+03  0.81203254651E+03  0.10100000352E+00 0.  1.
</event>
<event>
 5   0  0.6006119E-04  0.1311601E+04  0.7818609E-02  0.9020416E-01
        1   -1    0    0  501    0  0.00000000000E+00  0.00000000000E+00  0.17744345013E+04  0.17744345013E+04  0.50400001928E-02 0. -1.
       -1   -1    0    0    0  501  0.00000000000E+00  0.00000000000E+00 -0.24237259212E+03  0.24237259217E+03  0.50400001928E-02 0.  1.
    10030    2    1    2    0    0  0.00000000000E+00  0.00000000000E+00  0.15320619092E+04  0.20168070935E+04  0.13116009907E+04 0.  0.
        4    1    3    3  502    0 -0.64846764746E+03  0.96721832497E+02  0.74389311941E+03  0.99158660171E+03  0.12699999809E+01 0.  1.
       -4    1    3    3    0  502  0.64846764746E+03 -0.96721832497E+02  0.78816878980E+03  0.10252204918E+04  0.12699999809E+01 0. -1.
</event>
<event>
 5   0  0.1103241E-03  0.1298217E+04  0.7818609E-02  0.9030980E-01
        2   -1    0    0  501    0  0.00000000000E+00  0.00000000000E+00  0.15231113799E+04  0.15231113799E+04  0.25500000920E-02 0. -1.
       -2   -1    0    0    0  501  0.00000000000E+00  0.00000000000E+00 -0.27663238752E+03  0.27663238753E+03  0.25500000920E-02 0.  1.
    10030    2    1    2    0    0  0.00000000000E+00  0.00000000000E+00  0.12464789924E+04  0.17997437674E+04  0.12982171428E+04 0.  0.
        4    1    3    3  502    0 -0.52836177709E+03 -0.17949647647E+03  0.10829359672E+04  0.12182516466E+04  0.12699999809E+01 0. -1.
       -4    1    3    3    0  502  0.52836177709E+03  0.17949647647E+03  0.16354302517E+03  0.58149212079E+03  0.12699999809E+01 0.  1.
</event>
<event>
 5   0  0.5766027E-04  0.1294750E+04  0.7818609E-02  0.9033739E-01
       -1   -1    0    0    0  501  0.00000000000E+00  0.00000000000E+00  0.68050730799E+03  0.68050730800E+03  0.50400001928E-02 0. -1.
        1   -1    0    0  501    0  0.00000000000E+00  0.00000000000E+00 -0.61585608163E+03  0.61585608165E+03  0.50400001928E-02 0.  1.
    10030    2    1    2    0    0  0.00000000000E+00  0.00000000000E+00  0.64651226360E+02  0.12963633897E+04  0.12947502682E+04 0.  0.
        3    1    3    3  502    0  0.37930367825E+03 -0.46516856311E+03  0.27520046455E+03  0.66029416045E+03  0.10100000352E+00 0. -1.
       -3    1    3    3    0  502 -0.37930367825E+03  0.46516856311E+03 -0.21054923819E+03  0.63606922920E+03  0.10100000352E+00 0.  1.
</event>
<event>
 5   0  0.5563545E-04  0.1303854E+04  0.7818609E-02  0.9026514E-01
        1   -1    0    0  501    0  0.00000000000E+00  0.00000000000E+00  0.11626495453E+04  0.11626495453E+04  0.50400001928E-02 0.  1.
       -1   -1    0    0    0  501  0.00000000000E+00  0.00000000000E+00 -0.36555203784E+03  0.36555203788E+03  0.50400001928E-02 0. -1.
    10030    2    1    2    0    0  0.00000000000E+00  0.00000000000E+00  0.79709750746E+03  0.15282015832E+04  0.13038541492E+04 0.  0.
        2    1    3    3  502    0 -0.45514070652E+03  0.80029545324E+02  0.93750886816E+03  0.10452180006E+04  0.25500000920E-02 0.  1.
       -2    1    3    3    0  502  0.45514070652E+03 -0.80029545324E+02 -0.14041136070E+03  0.48298358261E+03  0.25500000920E-02 0. -1.
</event>
<event>
 5   0  0.5766027E-04  0.1290901E+04  0.7818609E-02  0.9036812E-01
        1   -1    0    0  501    0  0.00000000000E+00  0.00000000000E+00  0.11842561289E+04  0.11842561289E+04  0.50400001928E-02 0. -1.
       -1   -1    0    0    0  501  0.00000000000E+00  0.00000000000E+00 -0.35178748214E+03  0.35178748218E+03  0.50400001928E-02 0.  1.
    10030    2    1    2    0    0  0.00000000000E+00  0.00000000000E+00  0.83246864673E+03  0.15360436111E+04  0.12909012074E+04 0.  0.
        3    1    3    3  502    0 -0.53276008577E+03  0.31945738580E+03  0.62479006162E+03  0.88104992006E+03  0.10100000352E+00 0. -1.
       -3    1    3    3    0  502  0.53276008577E+03 -0.31945738580E+03  0.20767858511E+03  0.65499369100E+03  0.10100000352E+00 0.  1.
</event>
<event>
 5   0  0.5766027E-04  0.1293753E+04  0.7818609E-02  0.9034534E-01
       -1   -1    0    0    0  501  0.00000000000E+00  0.00000000000E+00  0.74997603841E+03  0.74997603843E+03  0.50400001928E-02 0.  1.
        1   -1    0    0  501    0  0.00000000000E+00  0.00000000000E+00 -0.55794982511E+03  0.55794982513E+03  0.50400001928E-02 0. -1.
    10030    2    1    2    0    0  0.00000000000E+00  0.00000000000E+00  0.19202621330E+03  0.13079258636E+04  0.12937526804E+04 0.  0.
        3    1    3    3  502    0 -0.53756765822E+03  0.34732099763E+03  0.19105432125E+03  0.66791663134E+03  0.10100000352E+00 0.  1.
       -3    1    3    3    0  502  0.53756765822E+03 -0.34732099763E+03  0.97189204835E+00  0.64000923222E+03  0.10100000352E+00 0. -1.
</event>
<event>
 5   0  0.5812938E-04  0.1294773E+04  0.7818609E-02  0.9033720E-01
        1   -1    0    0  501    0  0.00000000000E+00  0.00000000000E+00  0.11103479966E+04  0.11103479966E+04  0.50400001928E-02 0.  1.
       -1   -1    0    0    0  501  0.00000000000E+00  0.00000000000E+00 -0.37745780039E+03  0.37745780042E+03  0.50400001928E-02 0. -1.
    10030    2    1    2    0    0  0.00000000000E+00  0.00000000000E+00  0.73289019624E+03  0.14878057971E+04  0.12947733586E+04 0.  0.
        5    1    3    3  502    0 -0.63511023108E+03  0.31060410148E+01  0.22240650851E+03  0.67294977386E+03  0.46999998093E+01 0. -1.
       -5    1    3    3    0  502  0.63511023108E+03 -0.31060410148E+01  0.51048368774E+03  0.81485602320E+03  0.46999998093E+01 0.  1.
</event>
<event>
 5   0  0.5563545E-04  0.1313480E+04  0.7818609E-02  0.9018943E-01
       -1   -1    0    0    0  501  0.00000000000E+00  0.00000000000E+00  0.71004268690E+03  0.71004268692E+03  0.50400001928E-02 0.  1.
        1   -1    0    0  501    0  0.00000000000E+00  0.00000000000E+00 -0.60743852539E+03  0.60743852541E+03  0.50400001928E-02 0. -1.
    10030    2    1    2    0    0  0.00000000000E+00  0.00000000000E+00  0.10260416151E+03  0.13174812123E+04  0.13134797794E+04 0.  0.
        2    1    3    3  502    0  0.65327760232E+03 -0.50407387576E+02  0.96100792556E+02  0.66222948647E+03  0.25500000920E-02 0.  1.
       -2    1    3    3    0  502 -0.65327760232E+03  0.50407387576E+02  0.65033689565E+01  0.65525172585E+03  0.25500000920E-02 0. -1.
</event>
<event>
 5   0  0.4012375E-04  0.1287311E+04  0.7818609E-02  0.9039688E-01
       -3   -1    0    0    0  501  0.00000000000E+00  0.00000000000E+00  0.63164037367E+03  0.63164038174E+03  0.10100000352E+00 0.  1.
        3   -1    0    0  501    0  0.00000000000E+00  0.00000000000E+00 -0.65589947626E+03  0.65589948403E+03  0.10100000352E+00 0. -1.
    10030    2    1    2    0    0  0.00000000000E+00  0.00000000000E+00 -0.24259102590E+02  0.12875398658E+04  0.12873113073E+04 0.  0.
        1    1    3    3  502    0 -0.29492648680E+03  0.66266672920E+02 -0.58049068036E+03  0.65447867388E+03  0.50400001928E-02 0. -1.
       -1    1    3    3    0  502  0.29492648680E+03 -0.66266672920E+02  0.55623157777E+03  0.63306119190E+03  0.50400001928E-02 0.  1.
</event>
<event>
 5   0  0.5563545E-04  0.1290420E+04  0.7818609E-02  0.9037196E-01
        1   -1    0    0  501    0  0.00000000000E+00  0.00000000000E+00  0.11075214543E+04  0.11075214543E+04  0.50400001928E-02 0. -1.
       -1   -1    0    0    0  501  0.00000000000E+00  0.00000000000E+00 -0.37588098611E+03  0.37588098615E+03  0.50400001928E-02 0.  1.
    10030    2    1    2    0    0  0.00000000000E+00  0.00000000000E+00  0.73164046822E+03  0.14834024405E+04  0.12904204841E+04 0.  0.
        2    1    3    3  502    0  0.15274070220E+03 -0.62764342865E+02  0.10828178451E+04  0.10953371949E+04  0.25500000920E-02 0. -1.
       -2    1    3    3    0  502 -0.15274070220E+03  0.62764342865E+02 -0.35117737685E+03  0.38806524562E+03  0.25500000920E-02 0.  1.
</event>
<event>
 5   0  0.1081574E-03  0.1259565E+04  0.7818609E-02  0.9062260E-01
       -2   -1    0    0    0  501  0.00000000000E+00  0.00000000000E+00  0.67616218496E+03  0.67616218497E+03  0.25500000920E-02 0.  1.
        2   -1    0    0  501    0  0.00000000000E+00  0.00000000000E+00 -0.58658405038E+03  0.58658405038E+03  0.25500000920E-02 0. -1.
    10030    2    1    2    0    0  0.00000000000E+00  0.00000000000E+00  0.89578134584E+02  0.12627462353E+04  0.12595649299E+04 0.  0.
        5    1    3    3  502    0  0.42621342317E+03  0.39866023504E+03 -0.19248570300E+03  0.61454104904E+03  0.46999998093E+01 0. -1.
       -5    1    3    3    0  502 -0.42621342317E+03 -0.39866023504E+03  0.28206383759E+03  0.64820518631E+03  0.46999998093E+01 0.  1.
</event>
<event>
 5   0  0.5766027E-04  0.1266738E+04  0.7818609E-02  0.9056366E-01
        1   -1    0    0  501    0  0.00000000000E+00  0.00000000000E+00  0.12071927909E+04  0.12071927909E+04  0.50400001928E-02 0.  1.
       -1   -1    0    0    0  501  0.00000000000E+00  0.00000000000E+00 -0.33230530632E+03  0.33230530635E+03  0.50400001928E-02 0. -1.
    10030    2    1    2    0    0  0.00000000000E+00  0.00000000000E+00  0.87488748455E+03  0.15394980972E+04  0.12667384421E+04 0.  0.
        3    1    3    3  502    0 -0.11902496867E+03 -0.52912815614E+03  0.83501089765E+03  0.99568406544E+03  0.10100000352E+00 0.  1.
       -3    1    3    3    0  502  0.11902496867E+03  0.52912815614E+03  0.39876586900E+02  0.54381403179E+03  0.10100000352E+00 0. -1.
</event>
<event>
 5   0  0.1081574E-03  0.1410065E+04  0.7818609E-02  0.8946565E-01
       -2   -1    0    0    0  501  0.00000000000E+00  0.00000000000E+00  0.34196931091E+03  0.34196931092E+03  0.25500000920E-02 0. -1.
        2   -1    0    0  501    0  0.00000000000E+00  0.00000000000E+00 -0.14535541017E+04  0.14535541017E+04  0.25500000920E-02 0.  1.
    10030    2    1    2    0    0  0.00000000000E+00  0.00000000000E+00 -0.11115847908E+04  0.17955234126E+04  0.14100650971E+04 0.  0.
        5    1    3    3  502    0  0.78025631073E+02 -0.93907630187E+02 -0.14399699082E+04  0.14451443072E+04  0.46999998093E+01 0.  1.
       -5    1    3    3    0  502 -0.78025631073E+02  0.93907630187E+02  0.32838511746E+03  0.35037910537E+03  0.46999998093E+01 0. -1.
</event>
<event>
 5   0  0.5766027E-04  0.1296609E+04  0.7818609E-02  0.9032258E-01
        1   -1    0    0  501    0  0.00000000000E+00  0.00000000000E+00  0.36133601861E+03  0.36133601865E+03  0.50400001928E-02 0. -1.
       -1   -1    0    0    0  501  0.00000000000E+00  0.00000000000E+00 -0.11631801078E+04  0.11631801078E+04  0.50400001928E-02 0.  1.
    10030    2    1    2    0    0  0.00000000000E+00  0.00000000000E+00 -0.80184408917E+03  0.15245161264E+04  0.12966092227E+04 0.  0.
        3    1    3    3  502    0 -0.42027030021E+03  0.40437229817E+03 -0.73380198459E+03  0.93734168986E+03  0.10100000352E+00 0.  1.
       -3    1    3    3    0  502  0.42027030021E+03 -0.40437229817E+03 -0.68042104577E+02  0.58717443657E+03  0.10100000352E+00 0. -1.
</event>
<event>
 5   0  0.1103241E-03  0.1298771E+04  0.7818609E-02  0.9030541E-01
        2   -1    0    0  501    0  0.00000000000E+00  0.00000000000E+00  0.12321456089E+04  0.12321456089E+04  0.25500000920E-02 0. -1.
       -2   -1    0    0    0  501  0.00000000000E+00  0.00000000000E+00 -0.34224950040E+03  0.34224950041E+03  0.25500000920E-02 0.  1.
    10030    2    1    2    0    0  0.00000000000E+00  0.00000000000E+00  0.88989610849E+03  0.15743951093E+04  0.12987705249E+04 0.  0.
        4    1    3    3  502    0 -0.55489781569E+03 -0.18033826834E+03  0.79051810395E+03  0.98252428085E+03  0.12699999809E+01 0.  1.
       -4    1    3    3    0  502  0.55489781569E+03  0.18033826834E+03  0.99378004537E+02  0.59187082845E+03  0.12699999809E+01 0. -1.
</event>
<event>
 5   0  0.6006119E-04  0.1306429E+04  0.7818609E-02  0.9024483E-01
        1   -1    0    0  501    0  0.00000000000E+00  0.00000000000E+00  0.91617737838E+03  0.91617737840E+03  0.50400001928E-02 0.  1.
       -1   -1    0    0    0  501  0.00000000000E+00  0.00000000000E+00 -0.46572756076E+03  0.46572756079E+03  0.50400001928E-02 0. -1.
    10030    2    1    2    0    0  0.00000000000E+00  0.00000000000E+00  0.45044981762E+03  0.13819049392E+04  0.13064288051E+04 0.  0.
        4    1    3    3  502    0  0.27052425307E+03 -0.70165278153E+02  0.84974184175E+03  0.89452185455E+03  0.12699999809E+01 0.  1.
       -4    1    3    3    0  502 -0.27052425307E+03  0.70165278153E+02 -0.39929202413E+03  0.48738308464E+03  0.12699999809E+01 0. -1.
</event>
<event>
 5   0  0.1103241E-03  0.1301675E+04  0.7818609E-02  0.9028238E-01
        2   -1    0    0  501    0  0.00000000000E+00  0.00000000000E+00  0.15266063914E+04  0.15266063914E+04  0.25500000920E-02 0.  1.
       -2   -1    0    0    0  501  0.00000000000E+00  0.00000000000E+00 -0.27747131004E+03  0.27747131005E+03  0.25500000920E-02 0. -1.
    10030    2    1    2    0    0  0.00000000000E+00  0.00000000000E+00  0.12491350814E+04  0.18040777015E+04  0.13016750368E+04 0.  0.
        4    1    3    3  502    0 -0.11983054334E+03 -0.45520392641E+03  0.16255928532E+01  0.47071671862E+03  0.12699999809E+01 0. -1.
       -4    1    3    3    0  502  0.11983054334E+03  0.45520392641E+03  0.12475094885E+04  0.13333609828E+04  0.12699999809E+01 0.  1.
</event>
<event>
 5   0  0.1031295E-03  0.1294181E+04  0.7818609E-02  0.9034193E-01
       -2   -1    0    0    0  501  0.00000000000E+00  0.00000000000E+00  0.29174628744E+03  0.29174628745E+03  0.25500000920E-02 0. -1.
        2   -1    0    0  501    0  0.00000000000E+00  0.00000000000E+00 -0.14352397406E+04  0.14352397406E+04  0.25500000920E-02 0.  1.
    10030    2    1    2    0    0  0.00000000000E+00  0.00000000000E+00 -0.11434934532E+04  0.17269860281E+04  0.12941806148E+04 0.  0.
        2    1    3    3  502    0  0.62768185599E+02  0.18052316578E+03 -0.13967160547E+04  0.14097319589E+04  0.25500000920E-02 0.  1.
       -2    1    3    3    0  502 -0.62768185599E+02 -0.18052316578E+03  0.25322260149E+03  0.31725406919E+03  0.25500000920E-02 0. -1.
</event>
<event>
 5   0  0.5710383E-04  0.1287285E+04  0.7818609E-02  0.9039710E-01
        1   -1    0    0  501    0  0.00000000000E+00  0.00000000000E+00  0.64531423062E+03  0.64531423064E+03  0.50400001928E-02 0.  1.
       -1   -1    0    0    0  501  0.00000000000E+00  0.00000000000E+00 -0.64197468299E+03  0.64197468301E+03  0.50400001928E-02 0. -1.
    10030    2    1    2    0    0  0.00000000000E+00  0.00000000000E+00  0.33395476364E+01  0.12872889136E+04  0.12872845818E+04 0.  0.
        1    1    3    3  502    0 -0.53203483500E+03 -0.34036129628E+03 -0.12230048233E+03  0.64332284714E+03  0.50400001928E-02 0.  1.
       -1    1    3    3    0  502  0.53203483500E+03  0.34036129628E+03  0.12564002997E+03  0.64396606651E+03  0.50400001928E-02 0. -1.
</event>
<event>
 5   0  0.4012375E-04  0.1299480E+04  0.7818609E-02  0.9029978E-01
       -3   -1    0    0    0  501  0.00000000000E+00  0.00000000000E+00  0.35334656062E+03  0.35334657505E+03  0.10100000352E+00 0. -1.
        3   -1    0    0  501    0  0.00000000000E+00  0.00000000000E+00 -0.11947530407E+04  0.11947530450E+04  0.10100000352E+00 0.  1.
    10030    2    1    2    0    0  0.00000000000E+00  0.00000000000E+00 -0.84140648010E+03  0.15480996200E+04  0.12994797300E+04 0.  0.
        2    1    3    3  502    0  0.62555362758E+03 -0.16552390089E+03 -0.35076550390E+03  0.73603800274E+03  0.25500000920E-02 0.  1.
       -2    1    3    3    0  502 -0.62555362758E+03  0.16552390089E+03 -0.49064097621E+03  0.81206161730E+03  0.25500000920E-02 0. -1.
</event>
<event>
 5   0  0.5710383E-04  0.1304575E+04  0.7818609E-02  0.9025945E-01
       -1   -1    0    0    0  501  0.00000000000E+00  0.00000000000E+00  0.66648414254E+03  0.66648414256E+03  0.50400001928E-02 0.  1.
        1   -1    0    0  501    0  0.00000000000E+00  0.00000000000E+00 -0.63839345663E+03  0.63839345665E+03  0.50400001928E-02 0. -1.
    10030    2    1    2    0    0  0.00000000000E+00  0.00000000000E+00  0.28090685913E+02  0.13048775992E+04  0.13045752038E+04 0.  0.
        1    1    3    3  502    0  0.42120551571E+03  0.63922733128E+02 -0.48001136745E+03  0.64180301899E+03  0.50400001928E-02 0. -1.
       -1    1    3    3    0  502 -0.42120551571E+03 -0.63922733128E+02  0.50810205336E+03  0.66307458022E+03  0.50400001928E-02 0.  1.
</event>
<event>
 5   0  0.1081574E-03  0.1313995E+04  0.7818609E-02  0.9018540E-01
        2   -1    0    0  501    0  0.00000000000E+00  0.00000000000E+00  0.11005133977E+04  0.11005133977E+04  0.25500000920E-02 0.  1.
       -2   -1    0    0    0  501  0.00000000000E+00  0.00000000000E+00 -0.39222227184E+03  0.39222227185E+03  0.25500000920E-02 0. -1.
    10030    2    1    2    0    0  0.00000000000E+00  0.00000000000E+00  0.70829112586E+03  0.14927356696E+04  0.13139952284E+04 0.  0.
        5    1    3    3  502    0  0.10700992278E+03 -0.24011553557E+03 -0.32985021280E+03  0.42181731458E+03  0.46999998093E+01 0. -1.
       -5    1    3    3    0  502 -0.10700992278E+03  0.24011553557E+03  0.10381413387E+04  0.10709183550E+04  0.46999998093E+01 0.  1.
</event>
<event>
 5   0  0.1046253E-03  0.1306436E+04  0.7818609E-02  0.9024477E-01
        2   -1    0    0  501    0  0.00000000000E+00  0.00000000000E+00  0.11506849644E+04  0.11506849644E+04  0.25500000920E-02 0.  1.
       -2   -1    0    0    0  501  0.00000000000E+00  0.00000000000E+00 -0.37081716706E+03  0.37081716706E+03  0.25500000920E-02 0. -1.
    10030    2    1    2    0    0  0.00000000000E+00  0.00000000000E+00  0.77986779734E+03  0.15215021315E+04  0.13064359742E+04 0.  0.
        3    1    3    3  502    0  0.14009930640E+03 -0.33762333731E+03 -0.24055124089E+03  0.43758684080E+03  0.10100000352E+00 0. -1.
       -3    1    3    3    0  502 -0.14009930640E+03  0.33762333731E+03  0.10204190382E+04  0.10839152907E+04  0.10100000352E+00 0.  1.
</event>
<event>
 5   0  0.1081574E-03  0.1294715E+04  0.7818609E-02  0.9033766E-01
       -2   -1    0    0    0  501  0.00000000000E+00  0.00000000000E+00  0.40619753235E+03  0.40619753236E+03  0.25500000920E-02 0.  1.
        2   -1    0    0  501    0  0.00000000000E+00  0.00000000000E+00 -0.10316951085E+04  0.10316951085E+04  0.25500000920E-02 0. -1.
    10030    2    1    2    0    0  0.00000000000E+00  0.00000000000E+00 -0.62549757611E+03  0.14378926408E+04  0.12947154239E+04 0.  0.
        5    1    3    3  502    0  0.20317666521E+03  0.30914129418E+03  0.27722304140E+03  0.46230271655E+03  0.46999998093E+01 0.  1.
       -5    1    3    3    0  502 -0.20317666521E+03 -0.30914129418E+03 -0.90272061752E+03  0.97558992427E+03  0.46999998093E+01 0. -1.
</event>
<event>
 5   0  0.5563545E-04  0.1297708E+04  0.7818609E-02  0.9031385E-01
       -1   -1    0    0    0  501  0.00000000000E+00  0.00000000000E+00  0.64757659500E+03  0.64757659501E+03  0.50400001928E-02 0.  1.
        1   -1    0    0  501    0  0.00000000000E+00  0.00000000000E+00 -0.65013416335E+03  0.65013416337E+03  0.50400001928E-02 0. -1.
    10030    2    1    2    0    0  0.00000000000E+00  0.00000000000E+00 -0.25575683549E+01  0.12977107584E+04  0.12977082381E+04 0.  0.
        2    1    3    3  502    0  0.44483694929E+03  0.11508715694E+03  0.45685604085E+03  0.64795247296E+03  0.25500000920E-02 0.  1.
       -2    1    3    3    0  502 -0.44483694929E+03 -0.11508715694E+03 -0.45941360921E+03  0.64975828542E+03  0.25500000920E-02 0. -1.
</event>
<event>
 5   0  0.1103241E-03  0.1296183E+04  0.7818609E-02  0.9032598E-01
       -2   -1    0    0    0  501  0.00000000000E+00  0.00000000000E+00  0.24186165368E+03  0.24186165370E+03  0.25500000920E-02 0.  1.
        2   -1    0    0  501    0  0.00000000000E+00  0.00000000000E+00 -0.17366224301E+04  0.17366224301E+04  0.25500000920E-02 0. -1.
    10030    2    1    2    0    0  0.00000000000E+00  0.00000000000E+00 -0.14947607764E+04  0.19784840838E+04  0.12961826612E+04 0.  0.
        4    1    3    3  502    0  0.29446620167E+03 -0.52352382758E+03 -0.37588877242E+03  0.70857711232E+03  0.12699999809E+01 0.  1.
       -4    1    3    3    0  502 -0.29446620167E+03  0.52352382758E+03 -0.11188720040E+04  0.12699069714E+04  0.12699999809E+01 0. -1.
</event>
<event>
 5   0  0.5710383E-04  0.1320763E+04  0.7818609E-02  0.9013260E-01
        1   -1    0    0  501    0  0.00000000000E+00  0.00000000000E+00  0.27666551375E+03  0.27666551380E+03  0.50400001928E-02 0. -1.
       -1   -1    0    0    0  501  0.00000000000E+00  0.00000000000E+00 -0.15762849631E+04  0.15762849631E+04  0.50400001928E-02 0.  1.
    10030    2    1    2    0    0  0.00000000000E+00  0.00000000000E+00 -0.12996194493E+04  0.18529504769E+04  0.13207629449E+04 0.  0.
        1    1    3    3  502    0 -0.62952908024E+03 -0.12987580481E+03 -0.86224784770E+03  0.10754747503E+04  0.50400001928E-02 0.  1.
       -1    1    3    3    0  502  0.62952908024E+03  0.12987580481E+03 -0.43737160161E+03  0.77747572661E+03  0.50400001928E-02 0. -1.
</event>
<event>
 5   0  0.1046253E-03  0.1296609E+04  0.7818609E-02  0.9032259E-01
       -2   -1    0    0    0  501  0.00000000000E+00  0.00000000000E+00  0.44967615452E+03  0.44967615452E+03  0.25500000920E-02 0. -1.
        2   -1    0    0  501    0  0.00000000000E+00  0.00000000000E+00 -0.93466919608E+03  0.93466919608E+03  0.25500000920E-02 0.  1.
    10030    2    1    2    0    0  0.00000000000E+00  0.00000000000E+00 -0.48499304156E+03  0.13843453506E+04  0.12966085760E+04 0.  0.
        3    1    3    3  502    0  0.14894884153E+03  0.55690909106E+03  0.74161416354E+02  0.58123439246E+03  0.10100000352E+00 0. -1.
       -3    1    3    3    0  502 -0.14894884153E+03 -0.55690909106E+03 -0.55915445792E+03  0.80311095815E+03  0.10100000352E+00 0.  1.
</event>
<event>
 5   0  0.5710383E-04  0.1305364E+04  0.7818609E-02  0.9025322E-01
        1   -1    0    0  501    0  0.00000000000E+00  0.00000000000E+00  0.75534143238E+03  0.75534143240E+03  0.50400001928E-02 0.  1.
       -1   -1    0    0    0  501  0.00000000000E+00  0.00000000000E+00 -0.56397499724E+03  0.56397499727E+03  0.50400001928E-02 0. -1.
    10030    2    1    2    0    0  0.00000000000E+00  0.00000000000E+00  0.19136643514E+03  0.13193164297E+04  0.13053638302E+04 0.  0.
        1    1    3    3  502    0  0.36918759772E+03 -0.52318987393E+03 -0.32026227248E+02  0.64113399984E+03  0.50400001928E-02 0. -1.
       -1    1    3    3    0  502 -0.36918759772E+03  0.52318987393E+03  0.22339266239E+03  0.67818242983E+03  0.50400001928E-02 0.  1.
</event>
<event>
 5   0  0.1081574E-03  0.1253580E+04  0.7818609E-02  0.9067209E-01
        2   -1    0    0  501    0  0.00000000000E+00  0.00000000000E+00  0.70098201713E+03  0.70098201713E+03  0.25500000920E-02 0.  1.
       -2   -1    0    0    0  501  0.00000000000E+00  0.00000000000E+00 -0.56045023811E+03  0.56045023812E+03  0.25500000920E-02 0. -1.
    10030    2    1    2    0    0  0.00000000000E+00  0.00000000000E+00  0.14053177901E+03  0.12614322552E+04  0.12535797357E+04 0.  0.
        5    1    3    3  502    0 -0.29607658098E+03 -0.48464152128E+03 -0.19654537192E+03  0.60099161323E+03  0.46999998093E+01 0. -1.
       -5    1    3    3    0  502  0.29607658098E+03  0.48464152128E+03  0.33707715094E+03  0.66044064202E+03  0.46999998093E+01 0.  1.
</event>
<event>
 5   0  0.4012375E-04  0.1243943E+04  0.7818609E-02  0.9075240E-01
        3   -1    0    0  501    0  0.00000000000E+00  0.00000000000E+00  0.71855630711E+03  0.71855631421E+03  0.10100000352E+00 0.  1.
       -3   -1    0    0    0  501  0.00000000000E+00  0.00000000000E+00 -0.53836894516E+03  0.53836895463E+03  0.10100000352E+00 0. -1.
    10030    2    1    2    0    0  0.00000000000E+00  0.00000000000E+00  0.18018736196E+03  0.12569252688E+04  0.12439427825E+04 0.  0.
        4    1    3    3  502    0 -0.25534721445E+02 -0.53856776421E+02  0.71566263919E+03  0.71814149051E+03  0.12699999809E+01 0.  1.
       -4    1    3    3    0  502  0.25534721445E+02  0.53856776421E+02 -0.53547527723E+03  0.53878377833E+03  0.12699999809E+01 0. -1.
</event>
<event>
 5   0  0.6006119E-04  0.1316948E+04  0.7818609E-02  0.9016232E-01
        1   -1    0    0  501    0  0.00000000000E+00  0.00000000000E+00  0.75303539601E+03  0.75303539602E+03  0.50400001928E-02 0.  1.
       -1   -1    0    0    0  501  0.00000000000E+00  0.00000000000E+00 -0.57578681850E+03  0.57578681852E+03  0.50400001928E-02 0. -1.
    10030    2    1    2    0    0  0.00000000000E+00  0.00000000000E+00  0.17724857751E+03  0.13288222145E+04  0.13169477665E+04 0.  0.
        4    1    3    3  502    0 -0.40005452850E+03 -0.43463514894E+03 -0.20491962584E+03  0.62525595113E+03  0.12699999809E+01 0. -1.
       -4    1    3    3    0  502  0.40005452850E+03  0.43463514894E+03  0.38216820335E+03  0.70356626342E+03  0.12699999809E+01 0.  1.
</event>
<event>
 5   0  0.1031295E-03  0.1252538E+04  0.7818609E-02  0.9068074E-01
       -2   -1    0    0    0  501  0.00000000000E+00  0.00000000000E+00  0.22941421357E+03  0.22941421358E+03  0.25500000920E-02 0. -1.
        2   -1    0    0  501    0  0.00000000000E+00  0.00000000000E+00 -0.17096264611E+04  0.17096264611E+04  0.25500000920E-02 0.  1.
    10030    2    1    2    0    0  0.00000000000E+00  0.00000000000E+00 -0.14802122475E+04  0.19390406746E+04  0.12525376003E+04 0.  0.
        2    1    3    3  502    0 -0.20389843142E+03  0.42668060740E+02 -0.16544199034E+04  0.16674832385E+04  0.25500000920E-02 0.  1.
       -2    1    3    3    0  502  0.20389843142E+03 -0.42668060740E+02  0.17420765593E+03  0.27155743616E+03  0.25500000920E-02 0. -1.
</event>
<event>
 5   0  0.1046253E-03  0.1305674E+04  0.7818609E-02  0.9025078E-01
        2   -1    0    0  501    0  0.00000000000E+00  0.00000000000E+00  0.94774727126E+03  0.94774727126E+03  0.25500000920E-02 0. -1.
       -2   -1    0    0    0  501  0.00000000000E+00  0.00000000000E+00 -0.44969385316E+03  0.44969385316E+03  0.25500000920E-02 0.  1.
    10030    2    1    2    0    0  0.00000000000E+00  0.00000000000E+00  0.49805341811E+03  0.13974411244E+04  0.13056739597E+04 0.  0.
        3    1    3    3  502    0  0.34819565902E+03 -0.21355771991E+03 -0.29602921225E+03  0.50446052512E+03  0.10100000352E+00 0.  1.
       -3    1    3    3    0  502 -0.34819565902E+03  0.21355771991E+03  0.79408263036E+03  0.89298059931E+03  0.10100000352E+00 0. -1.
</event>
<event>
 5   0  0.5812938E-04  0.1321982E+04  0.7818609E-02  0.9012313E-01
       -1   -1    0    0    0  501  0.00000000000E+00  0.00000000000E+00  0.65913101958E+03  0.65913101960E+03  0.50400001928E-02 0.  1.
        1   -1    0    0  501    0  0.00000000000E+00  0.00000000000E+00 -0.66285615415E+03  0.66285615417E+03  0.50400001928E-02 0. -1.
    10030    2    1    2    0    0  0.00000000000E+00  0.00000000000E+00 -0.37251345736E+01  0.13219871738E+04  0.13219819254E+04 0.  0.
        5    1    3    3  502    0  0.27982463867E+03  0.46048663032E+03  0.38094072577E+03  0.65991491244E+03  0.46999998093E+01 0.  1.
       -5    1    3    3    0  502 -0.27982463867E+03 -0.46048663032E+03 -0.38466586035E+03  0.66207226133E+03  0.46999998093E+01 0. -1.
</event>
<event>
 5   0  0.4012375E-04  0.1300353E+04  0.7818609E-02  0.9029285E-01
        4   -1    0    0  501    0  0.00000000000E+00  0.00000000000E+00  0.27060155220E+03  0.27060453240E+03  0.12699999809E+01 0. -1.
       -4   -1    0    0    0  501  0.00000000000E+00  0.00000000000E+00 -0.15621732292E+04  0.15621737454E+04  0.12699999809E+01 0.  1.
    10030    2    1    2    0    0  0.00000000000E+00  0.00000000000E+00 -0.12915716769E+04  0.18327782778E+04  0.13003533438E+04 0.  0.
        3    1    3    3  502    0 -0.88136881263E+02 -0.28045465537E+03 -0.14631514382E+04  0.14923923964E+04  0.10100000352E+00 0.  1.
       -3    1    3    3    0  502  0.88136881263E+02  0.28045465537E+03  0.17157976126E+03  0.34038588136E+03  0.10100000352E+00 0. -1.
</event>
<event>
 5   0  0.1103241E-03  0.1300297E+04  0.7818609E-02  0.9029330E-01
        2   -1    0    0  501    0  0.00000000000E+00  0.00000000000E+00  0.58848184486E+03  0.58848184486E+03  0.25500000920E-02 0. -1.
       -2   -1    0    0    0  501  0.00000000000E+00  0.00000000000E+00 -0.71827728451E+03  0.71827728452E+03  0.25500000920E-02 0.  1.
    10030    2    1    2    0    0  0.00000000000E+00  0.00000000000E+00 -0.12979543966E+03  0.13067591294E+04  0.13002971068E+04 0.  0.
        4    1    3    3  502    0  0.46425403001E+03  0.39921142723E+03 -0.28459328129E+03  0.67520109350E+03  0.12699999809E+01 0. -1.
       -4    1    3    3    0  502 -0.46425403001E+03 -0.39921142723E+03  0.15479784163E+03  0.63155803588E+03  0.12699999809E+01 0.  1.
</event>
<event>
 5   0  0.1031295E-03  0.1293004E+04  0.7818609E-02  0.9035132E-01
       -2   -1    0    0    0  501  0.00000000000E+00  0.00000000000E+00  0.41702634122E+03  0.41702634123E+03  0.25500000920E-02 0. -1.
        2   -1    0    0  501    0  0.00000000000E+00  0.00000000000E+00 -0.10022502852E+04  0.10022502852E+04  0.25500000920E-02 0.  1.
    10030    2    1    2    0    0  0.00000000000E+00  0.00000000000E+00 -0.58522394396E+03  0.14192766264E+04  0.12930038970E+04 0.  0.
        2    1    3    3  502    0 -0.49287028813E+02  0.11520494629E+03 -0.98879345088E+03  0.99670149963E+03  0.25500000920E-02 0.  1.
       -2    1    3    3    0  502  0.49287028813E+02 -0.11520494629E+03  0.40356950691E+03  0.42257512679E+03  0.25500000920E-02 0. -1.
</event>
<event>
 5   0  0.5563545E-04  0.1303957E+04  0.7818609E-02  0.9026433E-01
       -1   -1    0    0    0  501  0.00000000000E+00  0.00000000000E+00  0.31795802041E+03  0.31795802045E+03  0.50400001928E-02 0.  1.
        1   -1    0    0  501    0  0.00000000000E+00  0.00000000000E+00 -0.13368927983E+04  0.13368927984E+04  0.50400001928E-02 0. -1.
    10030    2    1    2    0    0  0.00000000000E+00  0.00000000000E+00 -0.10189347779E+04  0.16548508188E+04  0.13039567289E+04 0.  0.
        2    1    3    3  502    0  0.46415188398E+03 -0.82574609703E+01 -0.10904469840E+04  0.11851496876E+04  0.25500000920E-02 0. -1.
       -2    1    3    3    0  502 -0.46415188398E+03  0.82574609703E+01  0.71512206049E+02  0.46970113123E+03  0.25500000920E-02 0.  1.
</event>
<event>
 5   0  0.1031295E-03  0.1286351E+04  0.7818609E-02  0.9040459E-01
       -2   -1    0    0    0  501  0.00000000000E+00  0.00000000000E+00  0.49459167087E+03  0.49459167088E+03  0.25500000920E-02 0. -1.
        2   -1    0    0  501    0  0.00000000000E+00  0.00000000000E+00 -0.83639691803E+03  0.83639691803E+03  0.25500000920E-02 0.  1.
    10030    2    1    2    0    0  0.00000000000E+00  0.00000000000E+00 -0.34180524716E+03  0.13309885889E+04  0.12863513505E+04 0.  0.
        2    1    3    3  502    0  0.34892644293E+03 -0.22049825766E+03  0.33947421888E+03  0.53442669235E+03  0.25500000920E-02 0. -1.
       -2    1    3    3    0  502 -0.34892644293E+03  0.22049825766E+03 -0.68127946604E+03  0.79656189656E+03  0.25500000920E-02 0.  1.
</event>
<event>
 5   0  0.1081574E-03  0.1284835E+04  0.7818609E-02  0.9041678E-01
        2   -1    0    0  501    0  0.00000000000E+00  0.00000000000E+00  0.91295586538E+03  0.91295586539E+03  0.25500000920E-02 0.  1.
       -2   -1    0    0    0  501  0.00000000000E+00  0.00000000000E+00 -0.45204840132E+03  0.45204840133E+03  0.25500000920E-02 0. -1.
    10030    2    1    2    0    0  0.00000000000E+00  0.00000000000E+00  0.46090746406E+03  0.13650042667E+04  0.12848349924E+04 0.  0.
        5    1    3    3  502    0  0.57257043656E+02 -0.52921229561E+03  0.61252397984E+03  0.81151200776E+03  0.46999998093E+01 0.  1.
       -5    1    3    3    0  502 -0.57257043656E+02  0.52921229561E+03 -0.15161651578E+03  0.55349225896E+03  0.46999998093E+01 0. -1.
</event>
<event>
 5   0  0.1103241E-03  0.1306023E+04  0.7818609E-02  0.9024802E-01
        2   -1    0    0  501    0  0.00000000000E+00  0.00000000000E+00  0.42806143381E+03  0.42806143382E+03  0.25500000920E-02 0. -1.
       -2   -1    0    0    0  501  0.00000000000E+00  0.00000000000E+00 -0.99617521046E+03  0.99617521046E+03  0.25500000920E-02 0.  1.
    10030    2    1    2    0    0  0.00000000000E+00  0.00000000000E+00 -0.56811377665E+03  0.14242366443E+04  0.13060232600E+04 0.  0.
        4    1    3    3  502    0 -0.57591759171E+03 -0.24695246334E+03 -0.83698913699E+02  0.63219752660E+03  0.12699999809E+01 0. -1.
       -4    1    3    3    0  502  0.57591759171E+03  0.24695246334E+03 -0.48441486295E+03  0.79203911768E+03  0.12699999809E+01 0.  1.
</event>
<event>
 5   0  0.1031295E-03  0.1308047E+04  0.7818609E-02  0.9023208E-01
       -2   -1    0    0    0  501  0.00000000000E+00  0.00000000000E+00  0.43897997560E+03  0.43897997560E+03  0.25500000920E-02 0.  1.
        2   -1    0    0  501    0  0.00000000000E+00  0.00000000000E+00 -0.97441075923E+03  0.97441075924E+03  0.25500000920E-02 0. -1.
    10030    2    1    2    0    0  0.00000000000E+00  0.00000000000E+00 -0.53543078364E+03  0.14133907348E+04  0.13080471113E+04 0.  0.
        2    1    3    3  502    0  0.45195689571E+03  0.19528390774E+03  0.19747467118E+03  0.53046874174E+03  0.25500000920E-02 0.  1.
       -2    1    3    3    0  502 -0.45195689571E+03 -0.19528390774E+03 -0.73290545482E+03  0.88292199310E+03  0.25500000920E-02 0. -1.
</event>
<event>
 5   0  0.4012375E-04  0.1295074E+04  0.7818609E-02  0.9033481E-01
       -4   -1    0    0    0  501  0.00000000000E+00  0.00000000000E+00  0.16027744638E+04  0.16027749670E+04  0.12699999809E+01 0. -1.
        4   -1    0    0  501    0  0.00000000000E+00  0.00000000000E+00 -0.26160933998E+03  0.26161242261E+03  0.12699999809E+01 0.  1.
    10030    2    1    2    0    0  0.00000000000E+00  0.00000000000E+00  0.13411651239E+04  0.18643873896E+04  0.12950739165E+04 0.  0.
        2    1    3    3  502    0  0.50024039171E+03 -0.20038388367E+03  0.15370837904E+03  0.56037524582E+03  0.25500000920E-02 0.  1.
       -2    1    3    3    0  502 -0.50024039171E+03  0.20038388367E+03  0.11874567448E+04  0.13040121438E+04  0.25500000920E-02 0. -1.
</event>
<event>
 5   0  0.5710383E-04  0.1353313E+04  0.7818609E-02  0.8988324E-01
       -1   -1    0    0    0  501  0.00000000000E+00  0.00000000000E+00  0.57118141815E+03  0.57118141817E+03  0.50400001928E-02 0. -1.
        1   -1    0    0  501    0  0.00000000000E+00  0.00000000000E+00 -0.80160821096E+03  0.80160821097E+03  0.50400001928E-02 0.  1.
    10030    2    1    2    0    0  0.00000000000E+00  0.00000000000E+00 -0.23042679281E+03  0.13727896291E+04  0.13533125504E+04 0.  0.
        1    1    3    3  502    0 -0.36084090900E+03  0.40964714670E+03 -0.52077591405E+03  0.75446968070E+03  0.50400001928E-02 0. -1.
       -1    1    3    3    0  502  0.36084090900E+03 -0.40964714670E+03  0.29034912124E+03  0.61831994844E+03  0.50400001928E-02 0.  1.
</event>
<event>
 5   0  0.1046253E-03  0.1303603E+04  0.7818609E-02  0.9026713E-01
        2   -1    0    0  501    0  0.00000000000E+00  0.00000000000E+00  0.86817502495E+03  0.86817502495E+03  0.25500000920E-02 0. -1.
       -2   -1    0    0    0  501  0.00000000000E+00  0.00000000000E+00 -0.48935442754E+03  0.48935442755E+03  0.25500000920E-02 0.  1.
    10030    2    1    2    0    0  0.00000000000E+00  0.00000000000E+00  0.37882059741E+03  0.13575294525E+04  0.13036031487E+04 0.  0.
        3    1    3    3  502    0 -0.58660412036E+03  0.22000418089E+03  0.37667998321E+03  0.73102260811E+03  0.10100000352E+00 0. -1.
       -3    1    3    3    0  502  0.58660412036E+03 -0.22000418089E+03  0.21406142009E+01  0.62650684438E+03  0.10100000352E+00 0.  1.
</event>
<event>
 5   0  0.5710383E-04  0.1297768E+04  0.7818609E-02  0.9031337E-01
       -1   -1    0    0    0  501  0.00000000000E+00  0.00000000000E+00  0.57819902971E+03  0.57819902973E+03  0.50400001928E-02 0. -1.
        1   -1    0    0  501    0  0.00000000000E+00  0.00000000000E+00 -0.72821068742E+03  0.72821068743E+03  0.50400001928E-02 0.  1.
    10030    2    1    2    0    0  0.00000000000E+00  0.00000000000E+00 -0.15001165771E+03  0.13064097172E+04  0.12977684122E+04 0.  0.
        1    1    3    3  502    0 -0.12082792674E+03  0.27238653831E+02 -0.71620023908E+03  0.72683155863E+03  0.50400001928E-02 0.  1.
       -1    1    3    3    0  502  0.12082792674E+03 -0.27238653831E+02  0.56618858137E+03  0.57957815853E+03  0.50400001928E-02 0. -1.
</event>
<event>
 5   0  0.1031295E-03  0.1301966E+04  0.7818609E-02  0.9028008E-01
        2   -1    0    0  501    0  0.00000000000E+00  0.00000000000E+00  0.28613758069E+03  0.28613758070E+03  0.25500000920E-02 0.  1.
       -2   -1    0    0    0  501  0.00000000000E+00  0.00000000000E+00 -0.14810315292E+04  0.14810315292E+04  0.25500000920E-02 0. -1.
    10030    2    1    2    0    0  0.00000000000E+00  0.00000000000E+00 -0.11948939485E+04  0.17671691099E+04  0.13019658654E+04 0.  0.
        2    1    3    3  502    0  0.13211500882E+03  0.48947140559E+02 -0.14600893832E+04  0.14668712299E+04  0.25500000920E-02 0. -1.
       -2    1    3    3    0  502 -0.13211500882E+03 -0.48947140559E+02  0.26519543472E+03  0.30029787999E+03  0.25500000920E-02 0.  1.
</event>
<event>
 5   0  0.1081574E-03  0.1307317E+04  0.7818609E-02  0.9023783E-01
       -2   -1    0    0    0  501  0.00000000000E+00  0.00000000000E+00  0.28183113572E+03  0.28183113573E+03  0.25500000920E-02 0.  1.
        2   -1    0    0  501    0  0.00000000000E+00  0.00000000000E+00 -0.15160482749E+04  0.15160482749E+04  0.25500000920E-02 0. -1.
    10030    2    1    2    0    0  0.00000000000E+00  0.00000000000E+00 -0.12342171392E+04  0.17978794106E+04  0.13073172639E+04 0.  0.
        5    1    3    3  502    0  0.53976207438E+03  0.31332182396E+03 -0.34996473863E+03  0.71554948857E+03  0.46999998093E+01 0.  1.
       -5    1    3    3    0  502 -0.53976207438E+03 -0.31332182396E+03 -0.88425240052E+03  0.10823299220E+04  0.46999998093E+01 0. -1.
</event>
<event>
 5   0  0.5710383E-04  0.1287418E+04  0.7818609E-02  0.9039602E-01
       -1   -1    0    0    0  501  0.00000000000E+00  0.00000000000E+00  0.13505784124E+04  0.13505784124E+04  0.50400001928E-02 0.  1.
        1   -1    0    0  501    0  0.00000000000E+00  0.00000000000E+00 -0.30680301641E+03  0.30680301645E+03  0.50400001928E-02 0. -1.
    10030    2    1    2    0    0  0.00000000000E+00  0.00000000000E+00  0.10437753960E+04  0.16573814289E+04  0.12874183949E+04 0.  0.
        1    1    3    3  502    0 -0.37597111599E+03  0.46281470581E+02  0.11918948291E+04  0.12506436496E+04  0.50400001928E-02 0.  1.
       -1    1    3    3    0  502  0.37597111599E+03 -0.46281470581E+02 -0.14811943313E+03  0.40673777926E+03  0.50400001928E-02 0. -1.
</event>
<event>
 5   0  0.6006119E-04  0.1275196E+04  0.7818609E-02  0.9049469E-01
       -1   -1    0    0    0  501  0.00000000000E+00  0.00000000000E+00  0.47497448155E+03  0.47497448158E+03  0.50400001928E-02 0.  1.
        1   -1    0    0  501    0  0.00000000000E+00  0.00000000000E+00 -0.85590150439E+03  0.85590150440E+03  0.50400001928E-02 0. -1.
    10030    2    1    2    0    0  0.00000000000E+00  0.00000000000E+00 -0.38092702283E+03  0.13308759860E+04  0.12751962568E+04 0.  0.
        4    1    3    3  502    0  0.45790212702E+03  0.16335974475E+03  0.24006387057E+03  0.54221124941E+03  0.12699999809E+01 0.  1.
       -4    1    3    3    0  502 -0.45790212702E+03 -0.16335974475E+03 -0.62099089340E+03  0.78866473658E+03  0.12699999809E+01 0. -1.
</event>
<event>
 5   0  0.5766027E-04  0.1300299E+04  0.7818609E-02  0.9029328E-01
        1   -1    0    0  501    0  0.00000000000E+00  0.00000000000E+00  0.77924418383E+03  0.77924418384E+03  0.50400001928E-02 0.  1.
       -1   -1    0    0    0  501  0.00000000000E+00  0.00000000000E+00 -0.54244169248E+03  0.54244169250E+03  0.50400001928E-02 0. -1.
    10030    2    1    2    0    0  0.00000000000E+00  0.00000000000E+00  0.23680249135E+03  0.13216858763E+04  0.13002992486E+04 0.  0.
        3    1    3    3  502    0  0.37824576961E+03 -0.52648449681E+02 -0.41642092141E+03  0.56502045580E+03  0.10100000352E+00 0. -1.
       -3    1    3    3    0  502 -0.37824576961E+03  0.52648449681E+02  0.65322341275E+03  0.75666542055E+03  0.10100000352E+00 0.  1.
</event>
<event>
 5   0  0.4012375E-04  0.1291997E+04  0.7818609E-02  0.9035936E-01
       -3   -1    0    0    0  501  0.00000000000E+00  0.00000000000E+00  0.72439534727E+03  0.72439535431E+03  0.10100000352E+00 0. -1.
        3   -1    0    0  501    0  0.00000000000E+00  0.00000000000E+00 -0.57608588891E+03  0.57608589776E+03  0.10100000352E+00 0.  1.
    10030    2    1    2    0    0  0.00000000000E+00  0.00000000000E+00  0.14830945836E+03  0.13004812521E+04  0.12919968234E+04 0.  0.
        4    1    3    3  502    0 -0.13171132123E+03 -0.25887795542E+03  0.65495924681E+03  0.71647672385E+03  0.12699999809E+01 0. -1.
       -4    1    3    3    0  502  0.13171132123E+03  0.25887795542E+03 -0.50664978845E+03  0.58400452822E+03  0.12699999809E+01 0.  1.
</event>
<event>
 5   0  0.5812938E-04  0.1293273E+04  0.7818609E-02  0.9034917E-01
       -1   -1    0    0    0  501  0.00000000000E+00  0.00000000000E+00  0.71040453016E+03  0.71040453017E+03  0.50400001928E-02 0. -1.
        1   -1    0    0  501    0  0.00000000000E+00  0.00000000000E+00 -0.58859237730E+03  0.58859237732E+03  0.50400001928E-02 0.  1.
    10030    2    1    2    0    0  0.00000000000E+00  0.00000000000E+00  0.12181215285E+03  0.12989969075E+04  0.12932728889E+04 0.  0.
        5    1    3    3  502    0  0.44120968555E+03 -0.46665014503E+03 -0.14848267434E+02  0.64239466492E+03  0.46999998093E+01 0.  1.
       -5    1    3    3    0  502 -0.44120968555E+03  0.46665014503E+03  0.13666042029E+03  0.65660224257E+03  0.46999998093E+01 0. -1.
</event>
<event>
 5   0  0.5766027E-04  0.1275500E+04  0.7818609E-02  0.9049223E-01
       -1   -1    0    0    0  501  0.00000000000E+00  0.00000000000E+00  0.59773343878E+03  0.59773343881E+03  0.50400001928E-02 0.  1.
        1   -1    0    0  501    0  0.00000000000E+00  0.00000000000E+00 -0.68044526620E+03  0.68044526622E+03  0.50400001928E-02 0. -1.
    10030    2    1    2    0    0  0.00000000000E+00  0.00000000000E+00 -0.82711827418E+02  0.12781787050E+04  0.12754997278E+04 0.  0.
        3    1    3    3  502    0 -0.27013812835E+03 -0.51074068173E+03 -0.31191228962E+03  0.65659724259E+03  0.10100000352E+00 0. -1.
       -3    1    3    3    0  502  0.27013812835E+03  0.51074068173E+03  0.22920046220E+03  0.62158146243E+03  0.10100000352E+00 0.  1.
</event>
<event>
 5   0  0.1081574E-03  0.1302053E+04  0.7818609E-02  0.9027939E-01
       -2   -1    0    0    0  501  0.00000000000E+00  0.00000000000E+00  0.32769122512E+03  0.32769122513E+03  0.25500000920E-02 0. -1.
        2   -1    0    0  501    0  0.00000000000E+00  0.00000000000E+00 -0.12933988163E+04  0.12933988163E+04  0.25500000920E-02 0.  1.
    10030    2    1    2    0    0  0.00000000000E+00  0.00000000000E+00 -0.96570759118E+03  0.16210900414E+04  0.13020529063E+04 0.  0.
        5    1    3    3  502    0  0.50049677112E+02 -0.30170086366E+03  0.23266807521E+03  0.38429793720E+03  0.46999998093E+01 0. -1.
       -5    1    3    3    0  502 -0.50049677112E+02  0.30170086366E+03 -0.11983756664E+04  0.12367921042E+04  0.46999998093E+01 0.  1.
</event>
<event>
 5   0  0.5812938E-04  0.1295802E+04  0.7818609E-02  0.9032901E-01
       -1   -1    0    0    0  501  0.00000000000E+00  0.00000000000E+00  0.39718450014E+03  0.39718450017E+03  0.50400001928E-02 0. -1.
        1   -1    0    0  501    0  0.00000000000E+00  0.00000000000E+00 -0.10568787624E+04  0.10568787624E+04  0.50400001928E-02 0.  1.
    10030    2    1    2    0    0  0.00000000000E+00  0.00000000000E+00 -0.65969426223E+03  0.14540632626E+04  0.12958022426E+04 0.  0.
        5    1    3    3  502    0  0.54603536581E+02 -0.29798689475E+03  0.31278972883E+03  0.43547358142E+03  0.46999998093E+01 0. -1.
       -5    1    3    3    0  502 -0.54603536581E+02  0.29798689475E+03 -0.97248399106E+03  0.10185896811E+04  0.46999998093E+01 0.  1.
</event>
<event>
 5   0  0.1081574E-03  0.1210701E+04  0.7818609E-02  0.9103541E-01
       -2   -1    0    0    0  501  0.00000000000E+00  0.00000000000E+00  0.23837569969E+03  0.23837569970E+03  0.25500000920E-02 0.  1.
        2   -1    0    0  501    0  0.00000000000E+00  0.00000000000E+00 -0.15372756400E+04  0.15372756400E+04  0.25500000920E-02 0. -1.
    10030    2    1    2    0    0  0.00000000000E+00  0.00000000000E+00 -0.12988999404E+04  0.17756513397E+04  0.12107008818E+04 0.  0.
        5    1    3    3  502    0  0.20465766813E+03 -0.22435738993E+03 -0.14174466885E+04  0.14496200206E+04  0.46999998093E+01 0. -1.
       -5    1    3    3    0  502 -0.20465766813E+03  0.22435738993E+03  0.11854674814E+03  0.32603131910E+03  0.46999998093E+01 0.  1.
</event>
<event>
 5   0  0.6006119E-04  0.1308188E+04  0.7818609E-02  0.9023097E-01
        1   -1    0    0  501    0  0.00000000000E+00  0.00000000000E+00  0.93697184896E+03  0.93697184898E+03  0.50400001928E-02 0.  1.
       -1   -1    0    0    0  501  0.00000000000E+00  0.00000000000E+00 -0.45661872102E+03  0.45661872105E+03  0.50400001928E-02 0. -1.
    10030    2    1    2    0    0  0.00000000000E+00  0.00000000000E+00  0.48035312794E+03  0.13935905700E+04  0.13081878876E+04 0.  0.
        4    1    3    3  502    0 -0.49370382941E+03  0.33582433860E+03 -0.44307540829E+02  0.59873719497E+03  0.12699999809E+01 0. -1.
       -4    1    3    3    0  502  0.49370382941E+03 -0.33582433860E+03  0.52466066877E+03  0.79485337505E+03  0.12699999809E+01 0.  1.
</event>
<event>
 5   0  0.5812938E-04  0.1306937E+04  0.7818609E-02  0.9024082E-01
        1   -1    0    0  501    0  0.00000000000E+00  0.00000000000E+00  0.91115804565E+03  0.91115804567E+03  0.50400001928E-02 0.  1.
       -1   -1    0    0    0  501  0.00000000000E+00  0.00000000000E+00 -0.46865738214E+03  0.46865738216E+03  0.50400001928E-02 0. -1.
    10030    2    1    2    0    0  0.00000000000E+00  0.00000000000E+00  0.44250066352E+03  0.13798154278E+04  0.13069367918E+04 0.  0.
        5    1    3    3  502    0 -0.39081881463E+03 -0.14967277037E+03  0.75108932549E+03  0.85982471988E+03  0.46999998093E+01 0.  1.
       -5    1    3    3    0  502  0.39081881463E+03  0.14967277037E+03 -0.30858866197E+03  0.51999070795E+03  0.46999998093E+01 0. -1.
</event>
<event>
 5   0  0.1046253E-03  0.1300449E+04  0.7818609E-02  0.9029209E-01
        2   -1    0    0  501    0  0.00000000000E+00  0.00000000000E+00  0.84493681626E+03  0.84493681627E+03  0.25500000920E-02 0.  1.
       -2   -1    0    0    0  501  0.00000000000E+00  0.00000000000E+00 -0.50038270144E+03  0.50038270144E+03  0.25500000920E-02 0. -1.
    10030    2    1    2    0    0  0.00000000000E+00  0.00000000000E+00  0.34455411483E+03  0.13453195177E+04  0.13004487943E+04 0.  0.
        3    1    3    3  502    0  0.31653578188E+03 -0.42367162849E+03  0.56361395642E+03  0.77288631252E+03  0.10100000352E+00 0.  1.
       -3    1    3    3    0  502 -0.31653578188E+03  0.42367162849E+03 -0.21905984160E+03  0.57243320519E+03  0.10100000352E+00 0. -1.
</event>
<event>
 5   0  0.1081574E-03  0.1302526E+04  0.7818609E-02  0.9027565E-01
        2   -1    0    0  501    0  0.00000000000E+00  0.00000000000E+00  0.29297208467E+04  0.29297208467E+04  0.25500000920E-02 0.  1.
       -2   -1    0    0    0  501  0.00000000000E+00  0.00000000000E+00 -0.14477258323E+03  0.14477258325E+03  0.25500000920E-02 0. -1.
    10030    2    1    2    0    0  0.00000000000E+00  0.00000000000E+00  0.27849482635E+04  0.30744934299E+04  0.13025256315E+04 0.  0.
        5    1    3    3  502    0  0.21099740147E+03  0.55061880926E+03  0.20449903999E+04  0.21283112560E+04  0.46999998093E+01 0.  1.
       -5    1    3    3    0  502 -0.21099740147E+03 -0.55061880926E+03  0.73995786357E+03  0.94618217400E+03  0.46999998093E+01 0. -1.
</event>
<event>
 5   0  0.4012375E-04  0.1298462E+04  0.7818609E-02  0.9030785E-01
        3   -1    0    0  501    0  0.00000000000E+00  0.00000000000E+00  0.91157760365E+03  0.91157760925E+03  0.10100000352E+00 0. -1.
       -3   -1    0    0    0  501  0.00000000000E+00  0.00000000000E+00 -0.46238648077E+03  0.46238649180E+03  0.10100000352E+00 0.  1.
    10030    2    1    2    0    0  0.00000000000E+00  0.00000000000E+00  0.44919112288E+03  0.13739641010E+04  0.12984624315E+04 0.  0.
        2    1    3    3  502    0  0.48647704987E+03  0.18322608913E+03  0.63614462075E+03  0.82153009580E+03  0.25500000920E-02 0. -1.
       -2    1    3    3    0  502 -0.48647704987E+03 -0.18322608913E+03 -0.18695349787E+03  0.55243400525E+03  0.25500000920E-02 0.  1.
</event>
<event>
 5   0  0.1103241E-03  0.1287812E+04  0.7818609E-02  0.9039287E-01
       -2   -1    0    0    0  501  0.00000000000E+00  0.00000000000E+00  0.71195463101E+03  0.71195463101E+03  0.25500000920E-02 0. -1.
        2   -1    0    0  501    0  0.00000000000E+00  0.00000000000E+00 -0.58236143759E+03  0.58236143760E+03  0.25500000920E-02 0.  1.
    10030    2    1    2    0    0  0.00000000000E+00  0.00000000000E+00  0.12959319341E+03  0.12943160686E+04  0.12878119776E+04 0.  0.
        4    1    3    3  502    0 -0.23281504483E+03 -0.23909822738E+03 -0.48865917205E+03  0.59174336225E+03  0.12699999809E+01 0.  1.
       -4    1    3    3    0  502  0.23281504483E+03  0.23909822738E+03  0.61825236546E+03  0.70257270637E+03  0.12699999809E+01 0. -1.
</event>
<event>
 5   0  0.5710383E-04  0.1342110E+04  0.7818609E-02  0.8996822E-01
       -1   -1    0    0    0  501  0.00000000000E+00  0.00000000000E+00  0.10228961144E+04  0.10228961144E+04  0.50400001928E-02 0.  1.
        1   -1    0    0  501    0  0.00000000000E+00  0.00000000000E+00 -0.44023518728E+03  0.44023518731E+03  0.50400001928E-02 0. -1.
    10030    2    1    2    0    0  0.00000000000E+00  0.00000000000E+00  0.58266092711E+03  0.14631313017E+04  0.13421100737E+04 0.  0.
        1    1    3    3  502    0 -0.45530343493E+03 -0.14331599644E+03 -0.22287295876E+03  0.52679507256E+03  0.50400001928E-02 0. -1.
       -1    1    3    3    0  502  0.45530343493E+03  0.14331599644E+03  0.80553388587E+03  0.93633622915E+03  0.50400001928E-02 0.  1.
</event>
<event>
 5   0  0.5563545E-04  0.1315831E+04  0.7818609E-02  0.9017104E-01
       -1   -1    0    0    0  501  0.00000000000E+00  0.00000000000E+00  0.56460179800E+03  0.56460179802E+03  0.50400001928E-02 0. -1.
        1   -1    0    0  501    0  0.00000000000E+00  0.00000000000E+00 -0.76665205531E+03  0.76665205533E+03  0.50400001928E-02 0.  1.
    10030    2    1    2    0    0  0.00000000000E+00  0.00000000000E+00 -0.20205025731E+03  0.13312538534E+04  0.13158314921E+04 0.  0.
        2    1    3    3  502    0  0.26594192862E+03  0.31549493793E+03  0.41741724468E+03  0.58694064557E+03  0.25500000920E-02 0. -1.
       -2    1    3    3    0  502 -0.26594192862E+03 -0.31549493793E+03 -0.61946750199E+03  0.74431320779E+03  0.25500000920E-02 0.  1.
</event>
<event>
 5   0  0.6006119E-04  0.1304208E+04  0.7818609E-02  0.9026235E-01
        1   -1    0    0  501    0  0.00000000000E+00  0.00000000000E+00  0.16959109279E+04  0.16959109279E+04  0.50400001928E-02 0. -1.
       -1   -1    0    0    0  501  0.00000000000E+00  0.00000000000E+00 -0.25074406963E+03  0.25074406968E+03  0.50400001928E-02 0.  1.
    10030    2    1    2    0    0  0.00000000000E+00  0.00000000000E+00  0.14451668582E+04  0.19466549976E+04  0.13042079709E+04 0.  0.
        4    1    3    3  502    0 -0.52281836196E+03 -0.23413912543E+03  0.11876361164E+04  0.13185754918E+04  0.12699999809E+01 0. -1.
       -4    1    3    3    0  502  0.52281836196E+03  0.23413912543E+03  0.25753074181E+03  0.62807950574E+03  0.12699999809E+01 0.  1.
</event>
<event>
 5   0  0.6006119E-04  0.1165503E+04  0.7818609E-02  0.9143600E-01
       -1   -1    0    0    0  501  0.00000000000E+00  0.00000000000E+00  0.20027671243E+03  0.20027671250E+03  0.50400001928E-02 0. -1.
        1   -1    0    0  501    0  0.00000000000E+00  0.00000000000E+00 -0.16956495772E+04  0.16956495772E+04  0.50400001928E-02 0.  1.
    10030    2    1    2    0    0  0.00000000000E+00  0.00000000000E+00 -0.14953728648E+04  0.18959262897E+04  0.11655026775E+04 0.  0.
        4    1    3    3  502    0 -0.26050434492E+03  0.22737331711E+03 -0.15107406723E+04  0.15498064817E+04  0.12699999809E+01 0.  1.
       -4    1    3    3    0  502  0.26050434492E+03 -0.22737331711E+03  0.15367807515E+02  0.34611980797E+03  0.12699999809E+01 0. -1.
</event>
<event>
 5   0  0.5710383E-04  0.1299079E+04  0.7818609E-02  0.9030296E-01
        1   -1    0    0  501    0  0.00000000000E+00  0.00000000000E+00  0.60565879652E+03  0.60565879654E+03  0.50400001928E-02 0.  1.
       -1   -1    0    0    0  501  0.00000000000E+00  0.00000000000E+00 -0.69659925474E+03  0.69659925476E+03  0.50400001928E-02 0. -1.
    10030    2    1    2    0    0  0.00000000000E+00  0.00000000000E+00 -0.90940458218E+02  0.13022580513E+04  0.12990788526E+04 0.  0.
        1    1    3    3  502    0  0.54007689186E+03 -0.25263245192E+03 -0.30377360406E+03  0.66916709979E+03  0.50400001928E-02 0. -1.
       -1    1    3    3    0  502 -0.54007689186E+03  0.25263245192E+03  0.21283314584E+03  0.63309095151E+03  0.50400001928E-02 0.  1.
</event>
<event>
 5   0  0.5812938E-04  0.1295332E+04  0.7818609E-02  0.9033275E-01
        1   -1    0    0  501    0  0.00000000000E+00  0.00000000000E+00  0.61121170943E+03  0.61121170945E+03  0.50400001928E-02 0. -1.
       -1   -1    0    0    0  501  0.00000000000E+00  0.00000000000E+00 -0.68629428702E+03  0.68629428704E+03  0.50400001928E-02 0.  1.
    10030    2    1    2    0    0  0.00000000000E+00  0.00000000000E+00 -0.75082577585E+02  0.12975059965E+04  0.12953317789E+04 0.  0.
        5    1    3    3  502    0  0.18385524203E+03  0.10548215321E+03 -0.65054871094E+03  0.68422580335E+03  0.46999998093E+01 0.  1.
       -5    1    3    3    0  502 -0.18385524203E+03 -0.10548215321E+03  0.57546613335E+03  0.61328019314E+03  0.46999998093E+01 0. -1.
</event>
<event>
 5   0  0.1103241E-03  0.1287756E+04  0.7818609E-02  0.9039331E-01
       -2   -1    0    0    0  501  0.00000000000E+00  0.00000000000E+00  0.35478651069E+03  0.35478651069E+03  0.25500000920E-02 0.  1.
        2   -1    0    0  501    0  0.00000000000E+00  0.00000000000E+00 -0.11685311144E+04  0.11685311144E+04  0.25500000920E-02 0. -1.
    10030    2    1    2    0    0  0.00000000000E+00  0.00000000000E+00 -0.81374460370E+03  0.15233176251E+04  0.12877563072E+04 0.  0.
        4    1    3    3  502    0  0.35836518666E+03 -0.10461818934E+03 -0.10274360958E+04  0.10931592365E+04  0.12699999809E+01 0. -1.
       -4    1    3    3    0  502 -0.35836518666E+03  0.10461818934E+03  0.21369149210E+03  0.43015838856E+03  0.12699999809E+01 0.  1.
</event>
<event>
 5   0  0.5812938E-04  0.1292676E+04  0.7818609E-02  0.9035394E-01
        1   -1    0    0  501    0  0.00000000000E+00  0.00000000000E+00  0.13458990154E+04  0.13458990154E+04  0.50400001928E-02 0. -1.
       -1   -1    0    0    0  501  0.00000000000E+00  0.00000000000E+00 -0.31038919053E+03  0.31038919057E+03  0.50400001928E-02 0.  1.
    10030    2    1    2    0    0  0.00000000000E+00  0.00000000000E+00  0.10355098249E+04  0.16562882060E+04  0.12926755292E+04 0.  0.
        5    1    3    3  502    0 -0.16856850388E+03 -0.31506571698E+03  0.12078069151E+04  0.12595639645E+04  0.46999998093E+01 0. -1.
       -5    1    3    3    0  502  0.16856850388E+03  0.31506571698E+03 -0.17229709020E+03  0.39672424152E+03  0.46999998093E+01 0.  1.
</event>
<event>
 5   0  0.1103241E-03  0.1284013E+04  0.7818609E-02  0.9042340E-01
       -2   -1    0    0    0  501  0.00000000000E+00  0.00000000000E+00  0.63426611659E+03  0.63426611660E+03  0.25500000920E-02 0. -1.
        2   -1    0    0  501    0  0.00000000000E+00  0.00000000000E+00 -0.64984092477E+03  0.64984092478E+03  0.25500000920E-02 0.  1.
    10030    2    1    2    0    0  0.00000000000E+00  0.00000000000E+00 -0.15574808177E+02  0.12841070414E+04  0.12840125852E+04 0.  0.
        4    1    3    3  502    0 -0.45623129955E+03  0.27982399026E+03 -0.36238647397E+03  0.64635441798E+03  0.12699999809E+01 0.  1.
       -4    1    3    3    0  502  0.45623129955E+03 -0.27982399026E+03  0.34681166580E+03  0.63775262340E+03  0.12699999809E+01 0. -1.
</event>
<event>
 5   0  0.5710383E-04  0.1301829E+04  0.7818609E-02  0.9028116E-01
        1   -1    0    0  501    0  0.00000000000E+00  0.00000000000E+00  0.88069317212E+03  0.88069317213E+03  0.50400001928E-02 0.  1.
       -1   -1    0    0    0  501  0.00000000000E+00  0.00000000000E+00 -0.48108628638E+03  0.48108628641E+03  0.50400001928E-02 0. -1.
    10030    2    1    2    0    0  0.00000000000E+00  0.00000000000E+00  0.39960688574E+03  0.13617794585E+04  0.13018285719E+04 0.  0.
        1    1    3    3  502    0 -0.18540401752E+03 -0.34754163228E+02 -0.45186796280E+03  0.48966024691E+03  0.50400001928E-02 0. -1.
       -1    1    3    3    0  502  0.18540401752E+03  0.34754163228E+02  0.85147484854E+03  0.87211921163E+03  0.50400001928E-02 0.  1.
</event>
<event>
 5   0  0.4012375E-04  0.1292366E+04  0.7818609E-02  0.9035641E-01
        3   -1    0    0  501    0  0.00000000000E+00  0.00000000000E+00  0.96612160331E+03  0.96612160859E+03  0.10100000352E+00 0.  1.
       -3   -1    0    0    0  501  0.00000000000E+00  0.00000000000E+00 -0.43219433009E+03  0.43219434189E+03  0.10100000352E+00 0. -1.
    10030    2    1    2    0    0  0.00000000000E+00  0.00000000000E+00  0.53392727322E+03  0.13983159505E+04  0.12923657239E+04 0.  0.
        5    1    3    3  502    0 -0.50374370791E+03  0.29587583368E+03 -0.31769054836E+02  0.58509109979E+03  0.46999998093E+01 0. -1.
       -5    1    3    3    0  502  0.50374370791E+03 -0.29587583368E+03  0.56569632806E+03  0.81322485070E+03  0.46999998093E+01 0.  1.
</event>
<event>
 5   0  0.1101619E-03  0.1298266E+04  0.7818609E-02  0.9030942E-01
       -2   -1    0    0    0  501  0.00000000000E+00  0.00000000000E+00  0.39743559770E+03  0.39743559771E+03  0.25500000920E-02 0. -1.
        2   -1    0    0  501    0  0.00000000000E+00  0.00000000000E+00 -0.10602306430E+04  0.10602306430E+04  0.25500000920E-02 0.  1.
    10030    2    1    2    0    0  0.00000000000E+00  0.00000000000E+00 -0.66279504526E+03  0.14576662407E+04  0.12982656112E+04 0.  0.
        1    1    3    3  502    0  0.40172147292E+03  0.16726475079E+03 -0.87221819744E+03  0.97474213135E+03  0.50400001928E-02 0.  1.
       -1    1    3    3    0  502 -0.40172147292E+03 -0.16726475079E+03  0.20942315218E+03  0.48292410932E+03  0.50400001928E-02 0. -1.
</event>
<event>
 5   0  0.5766027E-04  0.1289489E+04  0.7818609E-02  0.9037942E-01
       -1   -1    0    0    0  501  0.00000000000E+00  0.00000000000E+00  0.14090538882E+03  0.14090538891E+03  0.50400001928E-02 0.  1.
        1   -1    0    0  501    0  0.00000000000E+00  0.00000000000E+00 -0.29501738270E+04  0.29501738270E+04  0.50400001928E-02 0. -1.
    10030    2    1    2    0    0  0.00000000000E+00  0.00000000000E+00 -0.28092684382E+04  0.30910792159E+04  0.12894888760E+04 0.  0.
        3    1    3    3  502    0 -0.76187195320E+02 -0.49939496344E+03 -0.44429636320E+03  0.67275484896E+03  0.10100000352E+00 0.  1.
       -3    1    3    3    0  502  0.76187195320E+02  0.49939496344E+03 -0.23649720750E+04  0.24183243669E+04  0.10100000352E+00 0. -1.
</event>
<event>
 5   0  0.1031295E-03  0.1305207E+04  0.7818609E-02  0.9025446E-01
        2   -1    0    0  501    0  0.00000000000E+00  0.00000000000E+00  0.14536340692E+04  0.14536340692E+04  0.25500000920E-02 0.  1.
       -2   -1    0    0    0  501  0.00000000000E+00  0.00000000000E+00 -0.29298365513E+03  0.29298365514E+03  0.25500000920E-02 0. -1.
    10030    2    1    2    0    0  0.00000000000E+00  0.00000000000E+00  0.11606504141E+04  0.17466177244E+04  0.13052065321E+04 0.  0.
        2    1    3    3  502    0 -0.18790669091E+03  0.41743925376E+03  0.12027308970E+04  0.12869056165E+04  0.25500000920E-02 0.  1.
       -2    1    3    3    0  502  0.18790669091E+03 -0.41743925376E+03 -0.42080482955E+02  0.45971210787E+03  0.25500000920E-02 0. -1.
</event>
<event>
 5   0  0.5710383E-04  0.1299239E+04  0.7818609E-02  0.9030169E-01
        1   -1    0    0  501    0  0.00000000000E+00  0.00000000000E+00  0.15858855323E+04  0.15858855323E+04  0.50400001928E-02 0. -1.
       -1   -1    0    0    0  501  0.00000000000E+00  0.00000000000E+00 -0.26610083086E+03  0.26610083091E+03  0.50400001928E-02 0.  1.
    10030    2    1    2    0    0  0.00000000000E+00  0.00000000000E+00  0.13197847015E+04  0.18519863632E+04  0.12992389432E+04 0.  0.
        1    1    3    3  502    0 -0.12220866248E+03 -0.39190796396E+03 -0.57768815205E+02  0.41456488688E+03  0.50400001928E-02 0.  1.
       -1    1    3    3    0  502  0.12220866248E+03  0.39190796396E+03  0.13775535167E+04  0.14374214764E+04  0.50400001928E-02 0. -1.
</event>
<event>
 5   0  0.5766027E-04  0.1302814E+04  0.7818609E-02  0.9027337E-01
        1   -1    0    0  501    0  0.00000000000E+00  0.00000000000E+00  0.11409552121E+04  0.11409552121E+04  0.50400001928E-02 0. -1.
       -1   -1    0    0    0  501  0.00000000000E+00  0.00000000000E+00 -0.37190858350E+03  0.37190858354E+03  0.50400001928E-02 0.  1.
    10030    2    1    2    0    0  0.00000000000E+00  0.00000000000E+00  0.76904662857E+03  0.15128637956E+04  0.13028139342E+04 0.  0.
        3    1    3    3  502    0  0.54804384165E+03 -0.35137749333E+03  0.35822640276E+03  0.74306417019E+03  0.10100000352E+00 0. -1.
       -3    1    3    3    0  502 -0.54804384165E+03  0.35137749333E+03  0.41082022581E+03  0.76979962543E+03  0.10100000352E+00 0.  1.
</event>
<event>
 5   0  0.5710383E-04  0.1271129E+04  0.7818609E-02  0.9052779E-01
        1   -1    0    0  501    0  0.00000000000E+00  0.00000000000E+00  0.84531823850E+03  0.84531823851E+03  0.50400001928E-02 0.  1.
       -1   -1    0    0    0  501  0.00000000000E+00  0.00000000000E+00 -0.47785824212E+03  0.47785824215E+03  0.50400001928E-02 0. -1.
    10030    2    1    2    0    0  0.00000000000E+00  0.00000000000E+00  0.36745999638E+03  0.13231764807E+04  0.12711290847E+04 0.  0.
        1    1    3    3  502    0 -0.29570164075E+03  0.52655099332E+03  0.38994994838E+03  0.71885768493E+03  0.50400001928E-02 0. -1.
       -1    1    3    3    0  502  0.29570164075E+03 -0.52655099332E+03 -0.22489952001E+02  0.60431879573E+03  0.50400001928E-02 0.  1.
</event>
<event>
 5   0  0.1081574E-03  0.1308744E+04  0.7818609E-02  0.9022660E-01
       -2   -1    0    0    0  501  0.00000000000E+00  0.00000000000E+00  0.11372897837E+04  0.11372897837E+04  0.25500000920E-02 0.  1.
        2   -1    0    0  501    0  0.00000000000E+00  0.00000000000E+00 -0.37651160102E+03  0.37651160103E+03  0.25500000920E-02 0. -1.
    10030    2    1    2    0    0  0.00000000000E+00  0.00000000000E+00  0.76077818271E+03  0.15138013848E+04  0.13087441267E+04 0.  0.
        5    1    3    3  502    0 -0.54615262846E+03  0.32130830241E+03  0.56924735237E+03  0.85181356936E+03  0.46999998093E+01 0.  1.
       -5    1    3    3    0  502  0.54615262846E+03 -0.32130830241E+03  0.19153083034E+03  0.66198781540E+03  0.46999998093E+01 0. -1.
</event>
<event>
 5   0  0.1046253E-03  0.1302572E+04  0.7818609E-02  0.9027528E-01
       -2   -1    0    0    0  501  0.00000000000E+00  0.00000000000E+00  0.32085930033E+03  0.32085930034E+03  0.25500000920E-02 0.  1.
        2   -1    0    0  501    0  0.00000000000E+00  0.00000000000E+00 -0.13219926642E+04  0.13219926642E+04  0.25500000920E-02 0. -1.
    10030    2    1    2    0    0  0.00000000000E+00  0.00000000000E+00 -0.10011333638E+04  0.16428519645E+04  0.13025722879E+04 0.  0.
        3    1    3    3  502    0  0.14262210652E+03  0.46556287268E+03  0.44958323314E+02  0.48898989225E+03  0.10100000352E+00 0.  1.
       -3    1    3    3    0  502 -0.14262210652E+03 -0.46556287268E+03 -0.10460916871E+04  0.11538620722E+04  0.10100000352E+00 0. -1.
</event>
<event>
 5   0  0.1101619E-03  0.1303941E+04  0.7818609E-02  0.9026446E-01
        2   -1    0    0  501    0  0.00000000000E+00  0.00000000000E+00  0.22237349938E+04  0.22237349938E+04  0.25500000920E-02 0. -1.
       -2   -1    0    0    0  501  0.00000000000E+00  0.00000000000E+00 -0.19114935702E+03  0.19114935703E+03  0.25500000920E-02 0.  1.
    10030    2    1    2    0    0  0.00000000000E+00  0.00000000000E+00  0.20325856368E+04  0.24148843509E+04  0.13039409715E+04 0.  0.
        1    1    3    3  502    0  0.25868939307E+03  0.23446861453E+03 -0.34281753138E+01  0.34915252497E+03  0.50400001928E-02 0.  1.
       -1    1    3    3    0  502 -0.25868939307E+03 -0.23446861453E+03  0.20360138121E+04  0.20657318259E+04  0.50400001928E-02 0. -1.
</event>
<event>
 5   0  0.5563545E-04  0.1305585E+04  0.7818609E-02  0.9025148E-01
        1   -1    0    0  501    0  0.00000000000E+00  0.00000000000E+00  0.35036239958E+03  0.35036239962E+03  0.50400001928E-02 0. -1.
       -1   -1    0    0    0  501  0.00000000000E+00  0.00000000000E+00 -0.12162774554E+04  0.12162774555E+04  0.50400001928E-02 0.  1.
    10030    2    1    2    0    0  0.00000000000E+00  0.00000000000E+00 -0.86591505586E+03  0.15666398551E+04  0.13055847546E+04 0.  0.
        2    1    3    3  502    0 -0.25564254493E+03  0.51725193401E+03 -0.66558691154E+02  0.58080352392E+03  0.25500000920E-02 0. -1.
       -2    1    3    3    0  502  0.25564254493E+03 -0.51725193401E+03 -0.79935636471E+03  0.98583633115E+03  0.25500000920E-02 0.  1.
</event>
<event>
 5   0  0.5710383E-04  0.1332311E+04  0.7818609E-02  0.9004328E-01
        1   -1    0    0  501    0  0.00000000000E+00  0.00000000000E+00  0.11051546196E+04  0.11051546196E+04  0.50400001928E-02 0.  1.
       -1   -1    0    0    0  501  0.00000000000E+00  0.00000000000E+00 -0.40153913051E+03  0.40153913054E+03  0.50400001928E-02 0. -1.
    10030    2    1    2    0    0  0.00000000000E+00  0.00000000000E+00  0.70361548907E+03  0.15066937501E+04  0.13323105119E+04 0.  0.
        1    1    3    3  502    0 -0.54657932088E+03  0.67328802653E+02  0.77567304898E+03  0.95128902055E+03  0.50400001928E-02 0.  1.
       -1    1    3    3    0  502  0.54657932088E+03 -0.67328802653E+02 -0.72057559910E+02  0.55540472959E+03  0.50400001928E-02 0. -1.
</event>
<event>
 5   0  0.1081574E-03  0.1300330E+04  0.7818609E-02  0.9029304E-01
       -2   -1    0    0    0  501  0.00000000000E+00  0.00000000000E+00  0.27562197164E+03  0.27562197165E+03  0.25500000920E-02 0.  1.
        2   -1    0    0  501    0  0.00000000000E+00  0.00000000000E+00 -0.15336747832E+04  0.15336747832E+04  0.25500000920E-02 0. -1.
    10030    2    1    2    0    0  0.00000000000E+00  0.00000000000E+00 -0.12580528116E+04  0.18092967549E+04  0.13003299083E+04 0.  0.
        5    1    3    3  502    0 -0.40143174420E+03 -0.90906820858E+01 -0.13405032735E+04  0.13993574247E+04  0.46999998093E+01 0. -1.
       -5    1    3    3    0  502  0.40143174420E+03  0.90906820858E+01  0.82450461931E+02  0.40993933018E+03  0.46999998093E+01 0.  1.
</event>
<event>
 5   0  0.5766027E-04  0.1282545E+04  0.7818609E-02  0.9043522E-01
        1   -1    0    0  501    0  0.00000000000E+00  0.00000000000E+00  0.89151435010E+03  0.89151435011E+03  0.50400001928E-02 0. -1.
       -1   -1    0    0    0  501  0.00000000000E+00  0.00000000000E+00 -0.46127208182E+03  0.46127208185E+03  0.50400001928E-02 0.  1.
    10030    2    1    2    0    0  0.00000000000E+00  0.00000000000E+00  0.43024226828E+03  0.13527864320E+04  0.12825454070E+04 0.  0.
        3    1    3    3  502    0 -0.15102049853E+03  0.29892289037E+03  0.79194322810E+03  0.85984659800E+03  0.10100000352E+00 0. -1.
       -3    1    3    3    0  502  0.15102049853E+03 -0.29892289037E+03 -0.36170095982E+03  0.49293983396E+03  0.10100000352E+00 0.  1.
</event>
<event>
 5   0  0.6006119E-04  0.1297543E+04  0.7818609E-02  0.9031516E-01
       -1   -1    0    0    0  501  0.00000000000E+00  0.00000000000E+00  0.61282822956E+03  0.61282822958E+03  0.50400001928E-02 0.  1.
        1   -1    0    0  501    0  0.00000000000E+00  0.00000000000E+00 -0.68682240904E+03  0.68682240906E+03  0.50400001928E-02 0. -1.
    10030    2    1    2    0    0  0.00000000000E+00  0.00000000000E+00 -0.73994179477E+02  0.12996506386E+04  0.12975425403E+04 0.  0.
        4    1    3    3  502    0 -0.57467683432E+03 -0.10109712277E+03 -0.32105696038E+03  0.66599795559E+03  0.12699999809E+01 0. -1.
       -4    1    3    3    0  502  0.57467683432E+03  0.10109712277E+03  0.24706278090E+03  0.63365268306E+03  0.12699999809E+01 0.  1.
</event>
<event>
 5   0  0.1081574E-03  0.1299414E+04  0.7818609E-02  0.9030030E-01
       -2   -1    0    0    0  501  0.00000000000E+00  0.00000000000E+00  0.48674034838E+03  0.48674034839E+03  0.25500000920E-02 0.  1.
        2   -1    0    0  501    0  0.00000000000E+00  0.00000000000E+00 -0.86723623956E+03  0.86723623957E+03  0.25500000920E-02 0. -1.
    10030    2    1    2    0    0  0.00000000000E+00  0.00000000000E+00 -0.38049589118E+03  0.13539765880E+04  0.12994135129E+04 0.  0.
        5    1    3    3  502    0 -0.55970362356E+03  0.27500844000E+03 -0.39111836259E+00  0.62363453342E+03  0.46999998093E+01 0.  1.
       -5    1    3    3    0  502  0.55970362356E+03 -0.27500844000E+03 -0.38010477282E+03  0.73034205453E+03  0.46999998093E+01 0. -1.
</event>
<event>
 5   0  0.5812938E-04  0.1296187E+04  0.7818609E-02  0.9032595E-01
        1   -1    0    0  501    0  0.00000000000E+00  0.00000000000E+00  0.10602180310E+04  0.10602180310E+04  0.50400001928E-02 0. -1.
       -1   -1    0    0    0  501  0.00000000000E+00  0.00000000000E+00 -0.39616842969E+03  0.39616842972E+03  0.50400001928E-02 0.  1.
    10030    2    1    2    0    0  0.00000000000E+00  0.00000000000E+00  0.66404960127E+03  0.14563864607E+04  0.12961865799E+04 0.  0.
        5    1    3    3  502    0  0.42294641001E+03  0.38509179816E+03 -0.10299711042E+02  0.57210797302E+03  0.46999998093E+01 0.  1.
       -5    1    3    3    0  502 -0.42294641001E+03 -0.38509179816E+03  0.67434931231E+03  0.88427848768E+03  0.46999998093E+01 0. -1.
</event>
<event>
 5   0  0.1081574E-03  0.1302015E+04  0.7818609E-02  0.9027969E-01
        2   -1    0    0  501    0  0.00000000000E+00  0.00000000000E+00  0.58938280053E+03  0.58938280053E+03  0.25500000920E-02 0. -1.
       -2   -1    0    0    0  501  0.00000000000E+00  0.00000000000E+00 -0.71907538212E+03  0.71907538212E+03  0.25500000920E-02 0.  1.
    10030    2    1    2    0    0  0.00000000000E+00  0.00000000000E+00 -0.12969258159E+03  0.13084581827E+04  0.13020148425E+04 0.  0.
        5    1    3    3  502    0 -0.39090791033E+03 -0.52033181178E+03 -0.49460929083E+02  0.65270411536E+03  0.46999998093E+01 0. -1.
       -5    1    3    3    0  502  0.39090791033E+03  0.52033181178E+03 -0.80231652511E+02  0.65575406729E+03  0.46999998093E+01 0.  1.
</event>
<event>
 5   0  0.1103241E-03  0.1303496E+04  0.7818609E-02  0.9026797E-01
        2   -1    0    0  501    0  0.00000000000E+00  0.00000000000E+00  0.73810717484E+03  0.73810717484E+03  0.25500000920E-02 0. -1.
       -2   -1    0    0    0  501  0.00000000000E+00  0.00000000000E+00 -0.57549327317E+03  0.57549327317E+03  0.25500000920E-02 0.  1.
    10030    2    1    2    0    0  0.00000000000E+00  0.00000000000E+00  0.16261390167E+03  0.13136004480E+04  0.13034963966E+04 0.  0.
        4    1    3    3  502    0  0.60070126205E+03 -0.12523171203E+03  0.30266642813E+03  0.68420287017E+03  0.12699999809E+01 0. -1.
       -4    1    3    3    0  502 -0.60070126205E+03  0.12523171203E+03 -0.14005252646E+03  0.62939757785E+03  0.12699999809E+01 0.  1.
</event>
<event>
 5   0  0.1101619E-03  0.1297350E+04  0.7818609E-02  0.9031669E-01
       -2   -1    0    0    0  501  0.00000000000E+00  0.00000000000E+00  0.38278167862E+03  0.38278167863E+03  0.25500000920E-02 0. -1.
        2   -1    0    0  501    0  0.00000000000E+00  0.00000000000E+00 -0.10992675472E+04  0.10992675472E+04  0.25500000920E-02 0.  1.
    10030    2    1    2    0    0  0.00000000000E+00  0.00000000000E+00 -0.71648586856E+03  0.14820492258E+04  0.12973503412E+04 0.  0.
        1    1    3    3  502    0  0.53379668534E+03  0.22767778131E+03 -0.27147036606E+02  0.58095872057E+03  0.50400001928E-02 0. -1.
       -1    1    3    3    0  502 -0.53379668534E+03 -0.22767778131E+03 -0.68933883196E+03  0.90109050525E+03  0.50400001928E-02 0.  1.
</event>
<event>
 5   0  0.1101619E-03  0.1274964E+04  0.7818609E-02  0.9049658E-01
        2   -1    0    0  501    0  0.00000000000E+00  0.00000000000E+00  0.13596395026E+04  0.13596395026E+04  0.25500000920E-02 0.  1.
       -2   -1    0    0    0  501  0.00000000000E+00  0.00000000000E+00 -0.29889054458E+03  0.29889054459E+03  0.25500000920E-02 0. -1.
    10030    2    1    2    0    0  0.00000000000E+00  0.00000000000E+00  0.10607489580E+04  0.16585300472E+04  0.12749641428E+04 0.  0.
        1    1    3    3  502    0 -0.80224633610E+02  0.51866304148E+03  0.59662783696E+02  0.52821112277E+03  0.50400001928E-02 0. -1.
       -1    1    3    3    0  502  0.80224633610E+02 -0.51866304148E+03  0.10010861743E+04  0.11303189244E+04  0.50400001928E-02 0.  1.
</event>
<event>
 5   0  0.5563545E-04  0.1287855E+04  0.7818609E-02  0.9039252E-01
        1   -1    0    0  501    0  0.00000000000E+00  0.00000000000E+00  0.13570453048E+04  0.13570453048E+04  0.50400001928E-02 0.  1.
       -1   -1    0    0    0  501  0.00000000000E+00  0.00000000000E+00 -0.30554807761E+03  0.30554807765E+03  0.50400001928E-02 0. -1.
    10030    2    1    2    0    0  0.00000000000E+00  0.00000000000E+00  0.10514972271E+04  0.16625933824E+04  0.12878549362E+04 0.  0.
        2    1    3    3  502    0 -0.15109219495E+03 -0.37222488926E+03  0.11754359914E+04  0.12421875822E+04  0.25500000920E-02 0.  1.
       -2    1    3    3    0  502  0.15109219495E+03  0.37222488926E+03 -0.12393876424E+03  0.42040580020E+03  0.25500000920E-02 0. -1.
</event>
<event>
 5   0  0.1101619E-03  0.1293844E+04  0.7818609E-02  0.9034461E-01
       -2   -1    0    0    0  501  0.00000000000E+00  0.00000000000E+00  0.49816352694E+03  0.49816352694E+03  0.25500000920E-02 0.  1.
        2   -1    0    0  501    0  0.00000000000E+00  0.00000000000E+00 -0.84010222102E+03  0.84010222103E+03  0.25500000920E-02 0. -1.
    10030    2    1    2    0    0  0.00000000000E+00  0.00000000000E+00 -0.34193869409E+03  0.13382657480E+04  0.12938443267E+04 0.  0.
        1    1    3    3  502    0  0.11930949921E+03 -0.32007138188E+03 -0.73922005327E+03  0.81432593799E+03  0.50400001928E-02 0. -1.
       -1    1    3    3    0  502 -0.11930949921E+03  0.32007138188E+03  0.39728135918E+03  0.52393980998E+03  0.50400001928E-02 0.  1.
</event>
<event>
 5   0  0.5812938E-04  0.1362903E+04  0.7818609E-02  0.8981118E-01
        1   -1    0    0  501    0  0.00000000000E+00  0.00000000000E+00  0.80115616724E+03  0.80115616725E+03  0.50400001928E-02 0.  1.
       -1   -1    0    0    0  501  0.00000000000E+00  0.00000000000E+00 -0.57963256411E+03  0.57963256413E+03  0.50400001928E-02 0. -1.
    10030    2    1    2    0    0  0.00000000000E+00  0.00000000000E+00  0.22152360312E+03  0.13807887314E+04  0.13629030831E+04 0.  0.
        5    1    3    3  502    0 -0.46804870750E+03  0.40201961424E+03 -0.18228266197E+03  0.64338046417E+03  0.46999998093E+01 0. -1.
       -5    1    3    3    0  502  0.46804870750E+03 -0.40201961424E+03  0.40380626509E+03  0.73740826721E+03  0.46999998093E+01 0.  1.
</event>
<event>
 5   0  0.5766027E-04  0.1294575E+04  0.7818609E-02  0.9033878E-01
        1   -1    0    0  501    0  0.00000000000E+00  0.00000000000E+00  0.13889265580E+04  0.13889265580E+04  0.50400001928E-02 0. -1.
       -1   -1    0    0    0  501  0.00000000000E+00  0.00000000000E+00 -0.30165830498E+03  0.30165830503E+03  0.50400001928E-02 0.  1.
    10030    2    1    2    0    0  0.00000000000E+00  0.00000000000E+00  0.10872682531E+04  0.16905848631E+04  0.12945751910E+04 0.  0.
        3    1    3    3  502    0 -0.47795615221E+03  0.36266493596E+01 -0.26381555503E+02  0.47869743335E+03  0.10100000352E+00 0.  1.
       -3    1    3    3    0  502  0.47795615221E+03 -0.36266493596E+01  0.11136498086E+04  0.12118874297E+04  0.10100000352E+00 0. -1.
</event>
<event>
 5   0  0.1103241E-03  0.1289961E+04  0.7818609E-02  0.9037564E-01
       -2   -1    0    0    0  501  0.00000000000E+00  0.00000000000E+00  0.46218965500E+03  0.46218965500E+03  0.25500000920E-02 0. -1.
        2   -1    0    0  501    0  0.00000000000E+00  0.00000000000E+00 -0.90006319432E+03  0.90006319432E+03  0.25500000920E-02 0.  1.
    10030    2    1    2    0    0  0.00000000000E+00  0.00000000000E+00 -0.43787353932E+03  0.13622528493E+04  0.12899610804E+04 0.  0.
        4    1    3    3  502    0 -0.38827970229E+03  0.19799665682E+03  0.28313807785E+03  0.51974280885E+03  0.12699999809E+01 0. -1.
       -4    1    3    3    0  502  0.38827970229E+03 -0.19799665682E+03 -0.72101161717E+03  0.84251004048E+03  0.12699999809E+01 0.  1.
</event>
<event>
 5   0  0.6006119E-04  0.1303630E+04  0.7818609E-02  0.9026691E-01
        1   -1    0    0  501    0  0.00000000000E+00  0.00000000000E+00  0.80125793688E+03  0.80125793689E+03  0.50400001928E-02 0.  1.
       -1   -1    0    0    0  501  0.00000000000E+00  0.00000000000E+00 -0.53024508665E+03  0.53024508667E+03  0.50400001928E-02 0. -1.
    10030    2    1    2    0    0  0.00000000000E+00  0.00000000000E+00  0.27101285023E+03  0.13315030236E+04  0.13036304449E+04 0.  0.
        4    1    3    3  502    0 -0.63509406175E+03  0.42200623248E+02  0.27899537483E+03  0.69495711519E+03  0.12699999809E+01 0.  1.
       -4    1    3    3    0  502  0.63509406175E+03 -0.42200623248E+02 -0.79825246009E+01  0.63654590838E+03  0.12699999809E+01 0. -1.
</event>
<event>
 5   0  0.1046253E-03  0.1261049E+04  0.7818609E-02  0.9061037E-01
        2   -1    0    0  501    0  0.00000000000E+00  0.00000000000E+00  0.47539470325E+03  0.47539470325E+03  0.25500000920E-02 0.  1.
       -2   -1    0    0    0  501  0.00000000000E+00  0.00000000000E+00 -0.83627542702E+03  0.83627542702E+03  0.25500000920E-02 0. -1.
    10030    2    1    2    0    0  0.00000000000E+00  0.00000000000E+00 -0.36088072377E+03  0.13116701303E+04  0.12610486247E+04 0.  0.
        3    1    3    3  502    0 -0.61289674028E+03  0.14236828462E+03 -0.13819270804E+03  0.64421143848E+03  0.10100000352E+00 0.  1.
       -3    1    3    3    0  502  0.61289674028E+03 -0.14236828462E+03 -0.22268801573E+03  0.66745869180E+03  0.10100000352E+00 0. -1.
</event>
<event>
 5   0  0.1046253E-03  0.1300781E+04  0.7818609E-02  0.9028946E-01
       -2   -1    0    0    0  501  0.00000000000E+00  0.00000000000E+00  0.34708717138E+03  0.34708717139E+03  0.25500000920E-02 0. -1.
        2   -1    0    0  501    0  0.00000000000E+00  0.00000000000E+00 -0.12187371613E+04  0.12187371613E+04  0.25500000920E-02 0.  1.
    10030    2    1    2    0    0  0.00000000000E+00  0.00000000000E+00 -0.87164998988E+03  0.15658243327E+04  0.13007813559E+04 0.  0.
        3    1    3    3  502    0 -0.38612124535E+03  0.27460986876E+03 -0.97214939108E+03  0.10814687443E+04  0.10100000352E+00 0.  1.
       -3    1    3    3    0  502  0.38612124535E+03 -0.27460986876E+03  0.10049940120E+03  0.48435558836E+03  0.10100000352E+00 0. -1.
</event>
<event>
 5   0  0.1046253E-03  0.1295114E+04  0.7818609E-02  0.9033449E-01
        2   -1    0    0  501    0  0.00000000000E+00  0.00000000000E+00  0.19129907494E+04  0.19129907494E+04  0.25500000920E-02 0.  1.
       -2   -1    0    0    0  501  0.00000000000E+00  0.00000000000E+00 -0.21920117826E+03  0.21920117827E+03  0.25500000920E-02 0. -1.
    10030    2    1    2    0    0  0.00000000000E+00  0.00000000000E+00  0.16937895711E+04  0.21321919277E+04  0.12951136263E+04 0.  0.
        3    1    3    3  502    0  0.19540951904E+03  0.18332556590E+03 -0.12365706403E+03  0.29510036078E+03  0.10100000352E+00 0. -1.
       -3    1    3    3    0  502 -0.19540951904E+03 -0.18332556590E+03  0.18174466352E+04  0.18370915669E+04  0.10100000352E+00 0.  1.
</event>
<event>
 5   0  0.5563545E-04  0.1303206E+04  0.7818609E-02  0.9027027E-01
       -1   -1    0    0    0  501  0.00000000000E+00  0.00000000000E+00  0.26864742042E+03  0.26864742046E+03  0.50400001928E-02 0. -1.
        1   -1    0    0  501    0  0.00000000000E+00  0.00000000000E+00 -0.15804594202E+04  0.15804594202E+04  0.50400001928E-02 0.  1.
    10030    2    1    2    0    0  0.00000000000E+00  0.00000000000E+00 -0.13118119998E+04  0.18491068407E+04  0.13032058109E+04 0.  0.
        2    1    3    3  502    0  0.34171609573E+02  0.36054998280E+03 -0.14244975375E+04  0.14698153705E+04  0.25500000920E-02 0.  1.
       -2    1    3    3    0  502 -0.34171609573E+02 -0.36054998280E+03  0.11268553764E+03  0.37929147025E+03  0.25500000920E-02 0. -1.
</event>
<event>
 5   0  0.1081574E-03  0.1301353E+04  0.7818609E-02  0.9028493E-01
       -2   -1    0    0    0  501  0.00000000000E+00  0.00000000000E+00  0.38672708165E+03  0.38672708166E+03  0.25500000920E-02 0. -1.
        2   -1    0    0  501    0  0.00000000000E+00  0.00000000000E+00 -0.10947763017E+04  0.10947763017E+04  0.25500000920E-02 0.  1.
    10030    2    1    2    0    0  0.00000000000E+00  0.00000000000E+00 -0.70804922007E+03  0.14815033834E+04  0.13013525952E+04 0.  0.
        5    1    3    3  502    0 -0.16703343705E+03  0.30169413730E+03 -0.98216557672E+03  0.10409566906E+04  0.46999998093E+01 0.  1.
       -5    1    3    3    0  502  0.16703343705E+03 -0.30169413730E+03  0.27411635665E+03  0.44054669281E+03  0.46999998093E+01 0. -1.
</event>
<event>
 5   0  0.1081574E-03  0.1340885E+04  0.7818609E-02  0.8997757E-01
       -2   -1    0    0    0  501  0.00000000000E+00  0.00000000000E+00  0.83662508912E+03  0.83662508912E+03  0.25500000920E-02 0.  1.
        2   -1    0    0  501    0  0.00000000000E+00  0.00000000000E+00 -0.53726913120E+03  0.53726913120E+03  0.25500000920E-02 0. -1.
    10030    2    1    2    0    0  0.00000000000E+00  0.00000000000E+00  0.29935595792E+03  0.13738942203E+04  0.13408845361E+04 0.  0.
        5    1    3    3  502    0  0.29445544183E+03 -0.10996700744E+03 -0.45707748328E+03  0.55474198117E+03  0.46999998093E+01 0. -1.
       -5    1    3    3    0  502 -0.29445544183E+03  0.10996700744E+03  0.75643344120E+03  0.81915223915E+03  0.46999998093E+01 0.  1.
</event>
<event>
 5   0  0.1103241E-03  0.1284344E+04  0.7818609E-02  0.9042073E-01
        2   -1    0    0  501    0  0.00000000000E+00  0.00000000000E+00  0.13757608266E+04  0.13757608266E+04  0.25500000920E-02 0. -1.
       -2   -1    0    0    0  501  0.00000000000E+00  0.00000000000E+00 -0.29975056844E+03  0.29975056845E+03  0.25500000920E-02 0.  1.
    10030    2    1    2    0    0  0.00000000000E+00  0.00000000000E+00  0.10760102582E+04  0.16755113951E+04  0.12843443305E+04 0.  0.
        4    1    3    3  502    0  0.35073013776E+03 -0.97089545311E+02  0.12282491178E+04  0.12810290854E+04  0.12699999809E+01 0. -1.
       -4    1    3    3    0  502 -0.35073013776E+03  0.97089545311E+02 -0.15223885964E+03  0.39448230965E+03  0.12699999809E+01 0.  1.
</event>
<event>
 5   0  0.1103241E-03  0.1296675E+04  0.7818609E-02  0.9032206E-01
        2   -1    0    0  501    0  0.00000000000E+00  0.00000000000E+00  0.14907562002E+04  0.14907562002E+04  0.25500000920E-02 0.  1.
       -2   -1    0    0    0  501  0.00000000000E+00  0.00000000000E+00 -0.28196534030E+03  0.28196534031E+03  0.25500000920E-02 0. -1.
    10030    2    1    2    0    0  0.00000000000E+00  0.00000000000E+00  0.12087908599E+04  0.17727215405E+04  0.12966751009E+04 0.  0.
        4    1    3    3  502    0  0.25680068974E+03 -0.53168250338E+03  0.97048755995E+03  0.11359932199E+04  0.12699999809E+01 0.  1.
       -4    1    3    3    0  502 -0.25680068974E+03  0.53168250338E+03  0.23830329995E+03  0.63672832065E+03  0.12699999809E+01 0. -1.
</event>
<event>
 5   0  0.5563545E-04  0.1307759E+04  0.7818609E-02  0.9023435E-01
       -1   -1    0    0    0  501  0.00000000000E+00  0.00000000000E+00  0.22457644170E+03  0.22457644175E+03  0.50400001928E-02 0.  1.
        1   -1    0    0  501    0  0.00000000000E+00  0.00000000000E+00 -0.19038424924E+04  0.19038424924E+04  0.50400001928E-02 0. -1.
    10030    2    1    2    0    0  0.00000000000E+00  0.00000000000E+00 -0.16792660507E+04  0.21284189341E+04  0.13077586514E+04 0.  0.
        2    1    3    3  502    0 -0.54482512734E+03 -0.23766277354E+03 -0.39617863458E+03  0.71433572206E+03  0.25500000920E-02 0.  1.
       -2    1    3    3    0  502  0.54482512734E+03  0.23766277354E+03 -0.12830874161E+04  0.14140832121E+04  0.25500000920E-02 0. -1.
</event>
<event>
 5   0  0.1046253E-03  0.1287630E+04  0.7818609E-02  0.9039433E-01
        2   -1    0    0  501    0  0.00000000000E+00  0.00000000000E+00  0.39899888856E+03  0.39899888857E+03  0.25500000920E-02 0. -1.
       -2   -1    0    0    0  501  0.00000000000E+00  0.00000000000E+00 -0.10388436653E+04  0.10388436653E+04  0.25500000920E-02 0.  1.
    10030    2    1    2    0    0  0.00000000000E+00  0.00000000000E+00 -0.63984477677E+03  0.14378425539E+04  0.12876295552E+04 0.  0.
        3    1    3    3  502    0  0.67327489243E+02 -0.34599606904E+02 -0.10338570827E+04  0.10366246193E+04  0.10100000352E+00 0.  1.
       -3    1    3    3    0  502 -0.67327489243E+02  0.34599606904E+02  0.39401230596E+03  0.40121793461E+03  0.10100000352E+00 0. -1.
</event>
<event>
 5   0  0.6006119E-04  0.1289527E+04  0.7818609E-02  0.9037912E-01
        1   -1    0    0  501    0  0.00000000000E+00  0.00000000000E+00  0.40749320441E+03  0.40749320444E+03  0.50400001928E-02 0. -1.
       -1   -1    0    0    0  501  0.00000000000E+00  0.00000000000E+00 -0.10201880123E+04  0.10201880124E+04  0.50400001928E-02 0.  1.
    10030    2    1    2    0    0  0.00000000000E+00  0.00000000000E+00 -0.61269480794E+03  0.14276812168E+04  0.12895265523E+04 0.  0.
        4    1    3    3  502    0 -0.31212393829E+03 -0.15642027103E+03  0.29378709387E+03  0.45629061295E+03  0.12699999809E+01 0. -1.
       -4    1    3    3    0  502  0.31212393829E+03  0.15642027103E+03 -0.90648190181E+03  0.97139060385E+03  0.12699999809E+01 0.  1.
</event>
<event>
 5   0  0.1101619E-03  0.1299949E+04  0.7818609E-02  0.9029606E-01
       -2   -1    0    0    0  501  0.00000000000E+00  0.00000000000E+00  0.60365578827E+03  0.60365578828E+03  0.25500000920E-02 0. -1.
        2   -1    0    0  501    0  0.00000000000E+00  0.00000000000E+00 -0.69984736405E+03  0.69984736405E+03  0.25500000920E-02 0.  1.
    10030    2    1    2    0    0  0.00000000000E+00  0.00000000000E+00 -0.96191575775E+02  0.13035031523E+04  0.12999490947E+04 0.  0.
        1    1    3    3  502    0  0.62972655558E+03 -0.41142421006E+02  0.10795320195E+03  0.64023599356E+03  0.50400001928E-02 0. -1.
       -1    1    3    3    0  502 -0.62972655558E+03  0.41142421006E+02 -0.20414477773E+03  0.66326715877E+03  0.50400001928E-02 0.  1.
</event>
<event>
 5   0  0.1031295E-03  0.1296461E+04  0.7818609E-02  0.9032377E-01
       -2   -1    0    0    0  501  0.00000000000E+00  0.00000000000E+00  0.73342393360E+03  0.73342393361E+03  0.25500000920E-02 0.  1.
        2   -1    0    0  501    0  0.00000000000E+00  0.00000000000E+00 -0.57293266633E+03  0.57293266634E+03  0.25500000920E-02 0. -1.
    10030    2    1    2    0    0  0.00000000000E+00  0.00000000000E+00  0.16049126727E+03  0.13063565999E+04  0.12964606123E+04 0.  0.
        2    1    3    3  502    0  0.18161850951E+03  0.21740533945E+03 -0.50725903556E+03  0.58100094129E+03  0.25500000920E-02 0. -1.
       -2    1    3    3    0  502 -0.18161850951E+03 -0.21740533945E+03  0.66775030283E+03  0.72535565866E+03  0.25500000920E-02 0.  1.
</event>
<event>
 5   0  0.6006119E-04  0.1279869E+04  0.7818609E-02  0.9045683E-01
        1   -1    0    0  501    0  0.00000000000E+00  0.00000000000E+00  0.50426767521E+03  0.50426767523E+03  0.50400001928E-02 0. -1.
       -1   -1    0    0    0  501  0.00000000000E+00  0.00000000000E+00 -0.81210055248E+03  0.81210055249E+03  0.50400001928E-02 0.  1.
    10030    2    1    2    0    0  0.00000000000E+00  0.00000000000E+00 -0.30783287727E+03  0.13163682277E+04  0.12798688334E+04 0.  0.
        4    1    3    3  502    0  0.31337096069E+03  0.49546013741E+03  0.10997880792E+03  0.59647217693E+03  0.12699999809E+01 0. -1.
       -4    1    3    3    0  502 -0.31337096069E+03 -0.49546013741E+03 -0.41781168519E+03  0.71989605079E+03  0.12699999809E+01 0.  1.
</event>
<event>
 5   0  0.5563545E-04  0.1310599E+04  0.7818609E-02  0.9021202E-01
        1   -1    0    0  501    0  0.00000000000E+00  0.00000000000E+00  0.74858542826E+03  0.74858542828E+03  0.50400001928E-02 0.  1.
       -1   -1    0    0    0  501  0.00000000000E+00  0.00000000000E+00 -0.57363876168E+03  0.57363876170E+03  0.50400001928E-02 0. -1.
    10030    2    1    2    0    0  0.00000000000E+00  0.00000000000E+00  0.17494666659E+03  0.13222241900E+04  0.13105992799E+04 0.  0.
        2    1    3    3  502    0  0.42266660905E+02  0.17093410135E+03  0.72427141948E+03  0.74536838323E+03  0.25500000920E-02 0.  1.
       -2    1    3    3    0  502 -0.42266660905E+02 -0.17093410135E+03 -0.54932475290E+03  0.57685580675E+03  0.25500000920E-02 0. -1.
</event>
<event>
 5   0  0.1103241E-03  0.1300299E+04  0.7818609E-02  0.9029328E-01
        2   -1    0    0  501    0  0.00000000000E+00  0.00000000000E+00  0.97461025673E+03  0.97461025673E+03  0.25500000920E-02 0.  1.
       -2   -1    0    0    0  501  0.00000000000E+00  0.00000000000E+00 -0.43370583200E+03  0.43370583201E+03  0.25500000920E-02 0. -1.
    10030    2    1    2    0    0  0.00000000000E+00  0.00000000000E+00  0.54090442472E+03  0.14083160887E+04  0.13002986615E+04 0.  0.
        4    1    3    3  502    0  0.31742483837E+03 -0.50785640356E+03 -0.35795484218E+01  0.59890824065E+03  0.12699999809E+01 0. -1.
       -4    1    3    3    0  502 -0.31742483837E+03  0.50785640356E+03  0.54448397315E+03  0.80940784810E+03  0.12699999809E+01 0.  1.
</event>
<event>
 5   0  0.1103241E-03  0.1305627E+04  0.7818609E-02  0.9025114E-01
       -2   -1    0    0    0  501  0.00000000000E+00  0.00000000000E+00  0.17034545670E+03  0.17034545671E+03  0.25500000920E-02 0.  1.
        2   -1    0    0  501    0  0.00000000000E+00  0.00000000000E+00 -0.25017737154E+04  0.25017737154E+04  0.25500000920E-02 0. -1.
    10030    2    1    2    0    0  0.00000000000E+00  0.00000000000E+00 -0.23314282587E+04  0.26721191721E+04  0.13056274907E+04 0.  0.
        4    1    3    3  502    0  0.33467121999E+03  0.41391392127E+03 -0.19392015752E+04  0.20109286218E+04  0.12699999809E+01 0. -1.
       -4    1    3    3    0  502 -0.33467121999E+03 -0.41391392127E+03 -0.39222668352E+03  0.66119055035E+03  0.12699999809E+01 0.  1.
</event>
<event>
 5   0  0.6006119E-04  0.1292610E+04  0.7818609E-02  0.9035446E-01
        1   -1    0    0  501    0  0.00000000000E+00  0.00000000000E+00  0.10093048839E+04  0.10093048839E+04  0.50400001928E-02 0. -1.
       -1   -1    0    0    0  501  0.00000000000E+00  0.00000000000E+00 -0.41385895707E+03  0.41385895710E+03  0.50400001928E-02 0.  1.
    10030    2    1    2    0    0  0.00000000000E+00  0.00000000000E+00  0.59544592678E+03  0.14231638410E+04  0.12926095569E+04 0.  0.
        4    1    3    3  502    0  0.51151676620E+03 -0.34178493793E+02 -0.13558850600E+03  0.53028617501E+03  0.12699999809E+01 0.  1.
       -4    1    3    3    0  502 -0.51151676620E+03  0.34178493793E+02  0.73103443278E+03  0.89287766595E+03  0.12699999809E+01 0. -1.
</event>
<event>
 5   0  0.5563545E-04  0.1296268E+04  0.7818609E-02  0.9032530E-01
       -1   -1    0    0    0  501  0.00000000000E+00  0.00000000000E+00  0.51921198542E+03  0.51921198545E+03  0.50400001928E-02 0.  1.
        1   -1    0    0  501    0  0.00000000000E+00  0.00000000000E+00 -0.80906779712E+03  0.80906779714E+03  0.50400001928E-02 0. -1.
    10030    2    1    2    0    0  0.00000000000E+00  0.00000000000E+00 -0.28985581169E+03  0.13282797826E+04  0.12962680237E+04 0.  0.
        2    1    3    3  502    0  0.16809450817E+03 -0.41702350811E+03 -0.62326785211E+03  0.76852272931E+03  0.25500000920E-02 0. -1.
       -2    1    3    3    0  502 -0.16809450817E+03  0.41702350811E+03  0.33341204041E+03  0.55975705327E+03  0.25500000920E-02 0.  1.
</event>
<event>
 5   0  0.1081574E-03  0.1319917E+04  0.7818609E-02  0.9013918E-01
        2   -1    0    0  501    0  0.00000000000E+00  0.00000000000E+00  0.14284220623E+04  0.14284220623E+04  0.25500000920E-02 0.  1.
       -2   -1    0    0    0  501  0.00000000000E+00  0.00000000000E+00 -0.30491371967E+03  0.30491371968E+03  0.25500000920E-02 0. -1.
    10030    2    1    2    0    0  0.00000000000E+00  0.00000000000E+00  0.11235083427E+04  0.17333357820E+04  0.13199173979E+04 0.  0.
        5    1    3    3  502    0 -0.43522649471E+03  0.17569428175E+02 -0.89304845107E+02  0.44466642763E+03  0.46999998093E+01 0. -1.
       -5    1    3    3    0  502  0.43522649471E+03 -0.17569428175E+02  0.12128131878E+04  0.12886693544E+04  0.46999998093E+01 0.  1.
</event>
<event>
 5   0  0.4012375E-04  0.1298752E+04  0.7818609E-02  0.9030556E-01
        4   -1    0    0  501    0  0.00000000000E+00  0.00000000000E+00  0.85267396710E+03  0.85267491289E+03  0.12699999809E+01 0.  1.
       -4   -1    0    0    0  501  0.00000000000E+00  0.00000000000E+00 -0.49454693928E+03  0.49454856996E+03  0.12699999809E+01 0. -1.
    10030    2    1    2    0    0  0.00000000000E+00  0.00000000000E+00  0.35812702783E+03  0.13472234828E+04  0.12987517641E+04 0.  0.
        4    1    3    3  502    0  0.42096684987E+03 -0.49371716515E+03  0.15127383158E+03  0.66622452136E+03  0.12699999809E+01 0.  1.
       -4    1    3    3    0  502 -0.42096684987E+03  0.49371716515E+03  0.20685319625E+03  0.68099896149E+03  0.12699999809E+01 0. -1.
</event>
<event>
 5   0  0.5812938E-04  0.1300151E+04  0.7818609E-02  0.9029445E-01
        1   -1    0    0  501    0  0.00000000000E+00  0.00000000000E+00  0.85672625776E+03  0.85672625778E+03  0.50400001928E-02 0. -1.
       -1   -1    0    0    0  501  0.00000000000E+00  0.00000000000E+00 -0.49327114788E+03  0.49327114791E+03  0.50400001928E-02 0.  1.
    10030    2    1    2    0    0  0.00000000000E+00  0.00000000000E+00  0.36345510988E+03  0.13499974057E+04  0.13001512906E+04 0.  0.
        5    1    3    3  502    0  0.40701986759E+03 -0.50590189902E+03  0.21413887093E+03  0.68372468881E+03  0.46999998093E+01 0. -1.
       -5    1    3    3    0  502 -0.40701986759E+03  0.50590189902E+03  0.14931623895E+03  0.66627271688E+03  0.46999998093E+01 0.  1.
</event>
<event>
 5   0  0.1031295E-03  0.1287722E+04  0.7818609E-02  0.9039359E-01
       -2   -1    0    0    0  501  0.00000000000E+00  0.00000000000E+00  0.74662204208E+03  0.74662204209E+03  0.25500000920E-02 0. -1.
        2   -1    0    0  501    0  0.00000000000E+00  0.00000000000E+00 -0.55524331911E+03  0.55524331911E+03  0.25500000920E-02 0.  1.
    10030    2    1    2    0    0  0.00000000000E+00  0.00000000000E+00  0.19137872297E+03  0.13018653612E+04  0.12877218656E+04 0.  0.
        2    1    3    3  502    0  0.19184970172E+03 -0.36747352890E+03 -0.40238161473E+03  0.57771451978E+03  0.25500000920E-02 0.  1.
       -2    1    3    3    0  502 -0.19184970172E+03  0.36747352890E+03  0.59376033770E+03  0.72415084142E+03  0.25500000920E-02 0. -1.
</event>
<event>
 5   0  0.6006119E-04  0.1308184E+04  0.7818609E-02  0.9023100E-01
       -1   -1    0    0    0  501  0.00000000000E+00  0.00000000000E+00  0.15479737384E+03  0.15479737392E+03  0.50400001928E-02 0. -1.
        1   -1    0    0  501    0  0.00000000000E+00  0.00000000000E+00 -0.27638492032E+04  0.27638492032E+04  0.50400001928E-02 0.  1.
    10030    2    1    2    0    0  0.00000000000E+00  0.00000000000E+00 -0.26090518294E+04  0.29186465771E+04  0.13081843883E+04 0.  0.
        4    1    3    3  502    0 -0.32911072793E+03  0.26124704508E+03 -0.18616027965E+03  0.45958802468E+03  0.12699999809E+01 0. -1.
       -4    1    3    3    0  502  0.32911072793E+03 -0.26124704508E+03 -0.24228915497E+04  0.24590585524E+04  0.12699999809E+01 0.  1.
</event>
<event>
 5   0  0.1046253E-03  0.1310513E+04  0.7818609E-02  0.9021270E-01
       -2   -1    0    0    0  501  0.00000000000E+00  0.00000000000E+00  0.20640406405E+03  0.20640406406E+03  0.25500000920E-02 0.  1.
        2   -1    0    0  501    0  0.00000000000E+00  0.00000000000E+00 -0.20801966989E+04  0.20801966989E+04  0.25500000920E-02 0. -1.
    10030    2    1    2    0    0  0.00000000000E+00  0.00000000000E+00 -0.18737926348E+04  0.22866007630E+04  0.13105129571E+04 0.  0.
        3    1    3    3  502    0  0.72377264245E+02  0.16891084029E+02  0.19902590090E+03  0.21245022130E+03  0.10100000352E+00 0.  1.
       -3    1    3    3    0  502 -0.72377264245E+02 -0.16891084029E+02 -0.20728185357E+04  0.20741505417E+04  0.10100000352E+00 0. -1.
</event>
<event>
 5   0  0.4012375E-04  0.1287648E+04  0.7818609E-02  0.9039418E-01
       -4   -1    0    0    0  501  0.00000000000E+00  0.00000000000E+00  0.96789664116E+03  0.96789747436E+03  0.12699999809E+01 0.  1.
        4   -1    0    0  501    0  0.00000000000E+00  0.00000000000E+00 -0.42825596148E+03  0.42825784458E+03  0.12699999809E+01 0. -1.
    10030    2    1    2    0    0  0.00000000000E+00  0.00000000000E+00  0.53964067968E+03  0.13961553189E+04  0.12876480930E+04 0.  0.
        1    1    3    3  502    0  0.32356622753E+03  0.30253050779E+02  0.87244213388E+03  0.93100248532E+03  0.50400001928E-02 0.  1.
       -1    1    3    3    0  502 -0.32356622753E+03 -0.30253050779E+02 -0.33280145419E+03  0.46515283362E+03  0.50400001928E-02 0. -1.
</event>
<event>
 5   0  0.1031295E-03  0.1303008E+04  0.7818609E-02  0.9027183E-01
        2   -1    0    0  501    0  0.00000000000E+00  0.00000000000E+00  0.52049329578E+03  0.52049329579E+03  0.25500000920E-02 0. -1.
       -2   -1    0    0    0  501  0.00000000000E+00  0.00000000000E+00 -0.81549041404E+03  0.81549041405E+03  0.25500000920E-02 0.  1.
    10030    2    1    2    0    0  0.00000000000E+00  0.00000000000E+00 -0.29499711826E+03  0.13359837098E+04  0.13030077410E+04 0.  0.
        2    1    3    3  502    0  0.54678805198E+03 -0.23443430640E+02 -0.50989877647E+03  0.74801305502E+03  0.25500000920E-02 0.  1.
       -2    1    3    3    0  502 -0.54678805198E+03  0.23443430640E+02  0.21490165821E+03  0.58797065482E+03  0.25500000920E-02 0. -1.
</event>
<event>
 5   0  0.5766027E-04  0.1300105E+04  0.7818609E-02  0.9029482E-01
       -1   -1    0    0    0  501  0.00000000000E+00  0.00000000000E+00  0.83571247302E+03  0.83571247303E+03  0.50400001928E-02 0.  1.
        1   -1    0    0  501    0  0.00000000000E+00  0.00000000000E+00 -0.50563824247E+03  0.50563824250E+03  0.50400001928E-02 0. -1.
    10030    2    1    2    0    0  0.00000000000E+00  0.00000000000E+00  0.33007423055E+03  0.13413507155E+04  0.13001048975E+04 0.  0.
        3    1    3    3  502    0  0.18659632234E+03  0.20069013907E+02 -0.47707989423E+03  0.51266576685E+03  0.10100000352E+00 0. -1.
       -3    1    3    3    0  502 -0.18659632234E+03 -0.20069013907E+02  0.80715412477E+03  0.82868494868E+03  0.10100000352E+00 0.  1.
</event>
<event>
 5   0  0.1031295E-03  0.1310755E+04  0.7818609E-02  0.9021080E-01
        2   -1    0    0  501    0  0.00000000000E+00  0.00000000000E+00  0.72567823388E+03  0.72567823389E+03  0.25500000920E-02 0. -1.
       -2   -1    0    0    0  501  0.00000000000E+00  0.00000000000E+00 -0.59188702419E+03  0.59188702420E+03  0.25500000920E-02 0.  1.
    10030    2    1    2    0    0  0.00000000000E+00  0.00000000000E+00  0.13379120969E+03  0.13175652581E+04  0.13107547908E+04 0.  0.
        2    1    3    3  502    0  0.17495004413E+03  0.46843462394E+03  0.49274882941E+03  0.70202558624E+03  0.25500000920E-02 0. -1.
       -2    1    3    3    0  502 -0.17495004413E+03 -0.46843462394E+03 -0.35895761972E+03  0.61553967184E+03  0.25500000920E-02 0.  1.
</event>
<event>
 5   0  0.5812938E-04  0.1294357E+04  0.7818609E-02  0.9034052E-01
       -1   -1    0    0    0  501  0.00000000000E+00  0.00000000000E+00  0.52685916721E+03  0.52685916724E+03  0.50400001928E-02 0.  1.
        1   -1    0    0  501    0  0.00000000000E+00  0.00000000000E+00 -0.79497581309E+03  0.79497581310E+03  0.50400001928E-02 0. -1.
    10030    2    1    2    0    0  0.00000000000E+00  0.00000000000E+00 -0.26811664587E+03  0.13218349803E+04  0.12943574388E+04 0.  0.
        5    1    3    3  502    0  0.24183315455E+03 -0.25898568529E+03 -0.68709053452E+03  0.77309271918E+03  0.46999998093E+01 0. -1.
       -5    1    3    3    0  502 -0.24183315455E+03  0.25898568529E+03  0.41897388864E+03  0.54874226116E+03  0.46999998093E+01 0.  1.
</event>
<event>
 5   0  0.6006119E-04  0.1283168E+04  0.7818609E-02  0.9043020E-01
        1   -1    0    0  501    0  0.00000000000E+00  0.00000000000E+00  0.14100855222E+04  0.14100855223E+04  0.50400001928E-02 0. -1.
       -1   -1    0    0    0  501  0.00000000000E+00  0.00000000000E+00 -0.29191868261E+03  0.29191868266E+03  0.50400001928E-02 0.  1.
    10030    2    1    2    0    0  0.00000000000E+00  0.00000000000E+00  0.11181668396E+04  0.17020042049E+04  0.12831684349E+04 0.  0.
        4    1    3    3  502    0 -0.40434865095E+03  0.40053443765E+03  0.16627186470E+03  0.59293643265E+03  0.12699999809E+01 0.  1.
       -4    1    3    3    0  502  0.40434865095E+03 -0.40053443765E+03  0.95189497493E+03  0.11090677723E+04  0.12699999809E+01 0. -1.
</event>
<event>
 5   0  0.1046253E-03  0.1305392E+04  0.7818609E-02  0.9025300E-01
        2   -1    0    0  501    0  0.00000000000E+00  0.00000000000E+00  0.10378379339E+04  0.10378379339E+04  0.25500000920E-02 0.  1.
       -2   -1    0    0    0  501  0.00000000000E+00  0.00000000000E+00 -0.41048062199E+03  0.41048062199E+03  0.25500000920E-02 0. -1.
    10030    2    1    2    0    0  0.00000000000E+00  0.00000000000E+00  0.62735731194E+03  0.14483185559E+04  0.13053924477E+04 0.  0.
        3    1    3    3  502    0  0.26539949631E+03  0.54997641625E+03  0.58010886690E+02  0.61341358336E+03  0.10100000352E+00 0. -1.
       -3    1    3    3    0  502 -0.26539949631E+03 -0.54997641625E+03  0.56934642525E+03  0.83490497257E+03  0.10100000352E+00 0.  1.
</event>
<event>
 5   0  0.5766027E-04  0.1299280E+04  0.7818609E-02  0.9030137E-01
        1   -1    0    0  501    0  0.00000000000E+00  0.00000000000E+00  0.24010333769E+04  0.24010333769E+04  0.50400001928E-02 0. -1.
       -1   -1    0    0    0  501  0.00000000000E+00  0.00000000000E+00 -0.17577090507E+03  0.17577090515E+03  0.50400001928E-02 0.  1.
    10030    2    1    2    0    0  0.00000000000E+00  0.00000000000E+00  0.22252624718E+04  0.25768042820E+04  0.12992795078E+04 0.  0.
        3    1    3    3  502    0 -0.34530901670E+03 -0.47018221362E+03  0.16795864923E+04  0.17780102436E+04  0.10100000352E+00 0. -1.
       -3    1    3    3    0  502  0.34530901670E+03  0.47018221362E+03  0.54567597950E+03  0.79879403842E+03  0.10100000352E+00 0.  1.
</event>
<event>
 5   0  0.5563545E-04  0.1290972E+04  0.7818609E-02  0.9036755E-01
       -1   -1    0    0    0  501  0.00000000000E+00  0.00000000000E+00  0.54174625543E+03  0.54174625545E+03  0.50400001928E-02 0.  1.
        1   -1    0    0  501    0  0.00000000000E+00  0.00000000000E+00 -0.76909116027E+03  0.76909116029E+03  0.50400001928E-02 0. -1.
    10030    2    1    2    0    0  0.00000000000E+00  0.00000000000E+00 -0.22734490484E+03  0.13108374157E+04  0.12909721239E+04 0.  0.
        2    1    3    3  502    0  0.29797903039E+03 -0.28587964531E+03  0.39008026346E+03  0.56805042567E+03  0.25500000920E-02 0.  1.
       -2    1    3    3    0  502 -0.29797903039E+03  0.28587964531E+03 -0.61742516830E+03  0.74278699007E+03  0.25500000920E-02 0. -1.
</event>
<event>
 5   0  0.5563545E-04  0.1279150E+04  0.7818609E-02  0.9046265E-01
        1   -1    0    0  501    0  0.00000000000E+00  0.00000000000E+00  0.72045738193E+03  0.72045738195E+03  0.50400001928E-02 0.  1.
       -1   -1    0    0    0  501  0.00000000000E+00  0.00000000000E+00 -0.56777292333E+03  0.56777292335E+03  0.50400001928E-02 0. -1.
    10030    2    1    2    0    0  0.00000000000E+00  0.00000000000E+00  0.15268445860E+03  0.12882303053E+04  0.12791500208E+04 0.  0.
        2    1    3    3  502    0  0.26748592827E+03  0.52758683013E+03 -0.16861184979E+03  0.61508254816E+03  0.25500000920E-02 0. -1.
       -2    1    3    3    0  502 -0.26748592827E+03 -0.52758683013E+03  0.32129630839E+03  0.67314775714E+03  0.25500000920E-02 0.  1.
</event>
<event>
 5   0  0.1103241E-03  0.1301733E+04  0.7818609E-02  0.9028192E-01
        2   -1    0    0  501    0  0.00000000000E+00  0.00000000000E+00  0.15373708458E+04  0.15373708458E+04  0.25500000920E-02 0. -1.
       -2   -1    0    0    0  501  0.00000000000E+00  0.00000000000E+00 -0.27555319219E+03  0.27555319220E+03  0.25500000920E-02 0.  1.
    10030    2    1    2    0    0  0.00000000000E+00  0.00000000000E+00  0.12618176536E+04  0.18129240380E+04  0.13017333739E+04 0.  0.
        4    1    3    3  502    0  0.53407708311E+03  0.10137420344E+03  0.13242578181E+03  0.55951162670E+03  0.12699999809E+01 0.  1.
       -4    1    3    3    0  502 -0.53407708311E+03 -0.10137420344E+03  0.11293918718E+04  0.12534124113E+04  0.12699999809E+01 0. -1.
</event>
<event>
 5   0  0.6006119E-04  0.1301904E+04  0.7818609E-02  0.9028057E-01
        1   -1    0    0  501    0  0.00000000000E+00  0.00000000000E+00  0.65075551744E+03  0.65075551746E+03  0.50400001928E-02 0.  1.
       -1   -1    0    0    0  501  0.00000000000E+00  0.00000000000E+00 -0.65114816910E+03  0.65114816912E+03  0.50400001928E-02 0. -1.
    10030    2    1    2    0    0  0.00000000000E+00  0.00000000000E+00 -0.39265165304E+00  0.13019036866E+04  0.13019036274E+04 0.  0.
        4    1    3    3  502    0  0.94561264221E+02  0.31311930374E+03 -0.56300281884E+03  0.65112158465E+03  0.12699999809E+01 0. -1.
       -4    1    3    3    0  502 -0.94561264221E+02 -0.31311930374E+03  0.56261016719E+03  0.65078210193E+03  0.12699999809E+01 0.  1.
</event>
<event>
 5   0  0.5710383E-04  0.1308533E+04  0.7818609E-02  0.9022826E-01
        1   -1    0    0  501    0  0.00000000000E+00  0.00000000000E+00  0.65730624376E+03  0.65730624378E+03  0.50400001928E-02 0. -1.
       -1   -1    0    0    0  501  0.00000000000E+00  0.00000000000E+00 -0.65124033669E+03  0.65124033671E+03  0.50400001928E-02 0.  1.
    10030    2    1    2    0    0  0.00000000000E+00  0.00000000000E+00  0.60659070737E+01  0.13085465805E+04  0.13085325208E+04 0.  0.
        1    1    3    3  502    0  0.40207777281E+02 -0.30239150531E+03 -0.57577120223E+03  0.65159018192E+03  0.50400001928E-02 0.  1.
       -1    1    3    3    0  502 -0.40207777281E+02  0.30239150531E+03  0.58183710930E+03  0.65695639857E+03  0.50400001928E-02 0. -1.
</event>
<event>
 5   0  0.1081574E-03  0.1311172E+04  0.7818609E-02  0.9020752E-01
       -2   -1    0    0    0  501  0.00000000000E+00  0.00000000000E+00  0.64464676386E+03  0.64464676387E+03  0.25500000920E-02 0. -1.
        2   -1    0    0  501    0  0.00000000000E+00  0.00000000000E+00 -0.66671087345E+03  0.66671087346E+03  0.25500000920E-02 0.  1.
    10030    2    1    2    0    0  0.00000000000E+00  0.00000000000E+00 -0.22064109592E+02  0.13113576373E+04  0.13111720055E+04 0.  0.
        5    1    3    3  502    0 -0.38940364444E+03  0.41250474831E+03  0.31761080182E+03  0.65014927295E+03  0.46999998093E+01 0. -1.
       -5    1    3    3    0  502  0.38940364444E+03 -0.41250474831E+03 -0.33967491141E+03  0.66120836438E+03  0.46999998093E+01 0.  1.
</event>
<event>
 5   0  0.1101619E-03  0.1292581E+04  0.7818609E-02  0.9035469E-01
        2   -1    0    0  501    0  0.00000000000E+00  0.00000000000E+00  0.53690261838E+03  0.53690261839E+03  0.25500000920E-02 0.  1.
       -2   -1    0    0    0  501  0.00000000000E+00  0.00000000000E+00 -0.77796471946E+03  0.77796471947E+03  0.25500000920E-02 0. -1.
    10030    2    1    2    0    0  0.00000000000E+00  0.00000000000E+00 -0.24106210108E+03  0.13148673379E+04  0.12925808213E+04 0.  0.
        1    1    3    3  502    0  0.42857852637E+03  0.12718469699E+03  0.35424505260E+03  0.57039026791E+03  0.50400001928E-02 0.  1.
       -1    1    3    3    0  502 -0.42857852637E+03 -0.12718469699E+03 -0.59530715368E+03  0.74447706994E+03  0.50400001928E-02 0. -1.
</event>
<event>
 5   0  0.1101619E-03  0.1307092E+04  0.7818609E-02  0.9023960E-01
       -2   -1    0    0    0  501  0.00000000000E+00  0.00000000000E+00  0.61667363692E+03  0.61667363692E+03  0.25500000920E-02 0.  1.
        2   -1    0    0  501    0  0.00000000000E+00  0.00000000000E+00 -0.69262269370E+03  0.69262269371E+03  0.25500000920E-02 0. -1.
    10030    2    1    2    0    0  0.00000000000E+00  0.00000000000E+00 -0.75949056783E+02  0.13092963306E+04  0.13070916656E+04 0.  0.
        1    1    3    3  502    0 -0.27742406784E+03 -0.48800055190E+03  0.29727416640E+03  0.63520121388E+03  0.50400001928E-02 0.  1.
       -1    1    3    3    0  502  0.27742406784E+03  0.48800055190E+03 -0.37322322319E+03  0.67409511675E+03  0.50400001928E-02 0. -1.
</event>
<event>
 5   0  0.5766027E-04  0.1288269E+04  0.7818609E-02  0.9038920E-01
       -1   -1    0    0    0  501  0.00000000000E+00  0.00000000000E+00  0.63439475473E+03  0.63439475475E+03  0.50400001928E-02 0. -1.
        1   -1    0    0  501    0  0.00000000000E+00  0.00000000000E+00 -0.65402384579E+03  0.65402384581E+03  0.50400001928E-02 0.  1.
    10030    2    1    2    0    0  0.00000000000E+00  0.00000000000E+00 -0.19629091064E+02  0.12884186006E+04  0.12882690670E+04 0.  0.
        3    1    3    3  502    0 -0.59823956714E+02 -0.60000810565E+03 -0.23638146506E+03  0.64766105322E+03  0.10100000352E+00 0.  1.
       -3    1    3    3    0  502  0.59823956714E+02  0.60000810565E+03  0.21675237399E+03  0.64075754734E+03  0.10100000352E+00 0. -1.
</event>
<event>
 5   0  0.1081574E-03  0.1309102E+04  0.7818609E-02  0.9022378E-01
        2   -1    0    0  501    0  0.00000000000E+00  0.00000000000E+00  0.11216926864E+04  0.11216926864E+04  0.25500000920E-02 0. -1.
       -2   -1    0    0    0  501  0.00000000000E+00  0.00000000000E+00 -0.38195579651E+03  0.38195579652E+03  0.25500000920E-02 0.  1.
    10030    2    1    2    0    0  0.00000000000E+00  0.00000000000E+00  0.73973688989E+03  0.15036484829E+04  0.13091020182E+04 0.  0.
        5    1    3    3  502    0 -0.24364129002E+02 -0.53869282398E+03  0.79598806902E+03  0.96145861347E+03  0.46999998093E+01 0. -1.
       -5    1    3    3    0  502  0.24364129002E+02  0.53869282398E+03 -0.56251179134E+02  0.54218986946E+03  0.46999998093E+01 0.  1.
</event>
<event>
 5   0  0.1031295E-03  0.1296284E+04  0.7818609E-02  0.9032517E-01
       -2   -1    0    0    0  501  0.00000000000E+00  0.00000000000E+00  0.34973143586E+03  0.34973143587E+03  0.25500000920E-02 0.  1.
        2   -1    0    0  501    0  0.00000000000E+00  0.00000000000E+00 -0.12011734364E+04  0.12011734364E+04  0.25500000920E-02 0. -1.
    10030    2    1    2    0    0  0.00000000000E+00  0.00000000000E+00 -0.85144200056E+03  0.15509048723E+04  0.12962840902E+04 0.  0.
        2    1    3    3  502    0  0.28946781326E+03  0.25184951590E+03  0.19925238870E+03  0.43234396952E+03  0.25500000920E-02 0.  1.
       -2    1    3    3    0  502 -0.28946781326E+03 -0.25184951590E+03 -0.10506943893E+04  0.11185609028E+04  0.25500000920E-02 0. -1.
</event>
<event>
 5   0  0.5812938E-04  0.1306119E+04  0.7818609E-02  0.9024727E-01
        1   -1    0    0  501    0  0.00000000000E+00  0.00000000000E+00  0.48589528854E+03  0.48589528857E+03  0.50400001928E-02 0.  1.
       -1   -1    0    0    0  501  0.00000000000E+00  0.00000000000E+00 -0.87773417283E+03  0.87773417285E+03  0.50400001928E-02 0. -1.
    10030    2    1    2    0    0  0.00000000000E+00  0.00000000000E+00 -0.39183888429E+03  0.13636294614E+04  0.13061192889E+04 0.  0.
        5    1    3    3  502    0  0.26462131260E+03  0.57111029861E+03 -0.37757308438E+03  0.73401289928E+03  0.46999998093E+01 0.  1.
       -5    1    3    3    0  502 -0.26462131260E+03 -0.57111029861E+03 -0.14265799904E+02  0.62961656213E+03  0.46999998093E+01 0. -1.
</event>
<event>
 5   0  0.1101619E-03  0.1311031E+04  0.7818609E-02  0.9020863E-01
       -2   -1    0    0    0  501  0.00000000000E+00  0.00000000000E+00  0.41178500713E+03  0.41178500714E+03  0.25500000920E-02 0.  1.
        2   -1    0    0  501    0  0.00000000000E+00  0.00000000000E+00 -0.10435064034E+04  0.10435064034E+04  0.25500000920E-02 0. -1.
    10030    2    1    2    0    0  0.00000000000E+00  0.00000000000E+00 -0.63172139626E+03  0.14552914105E+04  0.13110305744E+04 0.  0.
        1    1    3    3  502    0  0.17903514753E+02  0.45737481645E+03  0.20501488801E+03  0.50154098825E+03  0.50400001928E-02 0.  1.
       -1    1    3    3    0  502 -0.17903514753E+02 -0.45737481645E+03 -0.83673628427E+03  0.95375042228E+03  0.50400001928E-02 0. -1.
</event>
<event>
 5   0  0.1103241E-03  0.1301501E+04  0.7818609E-02  0.9028376E-01
        2   -1    0    0  501    0  0.00000000000E+00  0.00000000000E+00  0.97187421430E+03  0.97187421431E+03  0.25500000920E-02 0. -1.
       -2   -1    0    0    0  501  0.00000000000E+00  0.00000000000E+00 -0.43573122938E+03  0.43573122939E+03  0.25500000920E-02 0.  1.
    10030    2    1    2    0    0  0.00000000000E+00  0.00000000000E+00  0.53614298492E+03  0.14076054437E+04  0.13015005896E+04 0.  0.
        4    1    3    3  502    0  0.30837447915E+03  0.48918652696E+03  0.59085925224E+03  0.82674938549E+03  0.12699999809E+01 0. -1.
       -4    1    3    3    0  502 -0.30837447915E+03 -0.48918652696E+03 -0.54716267321E+02  0.58085605821E+03  0.12699999809E+01 0.  1.
</event>
<event>
 5   0  0.1101619E-03  0.1299251E+04  0.7818609E-02  0.9030160E-01
        2   -1    0    0  501    0  0.00000000000E+00  0.00000000000E+00  0.72967071776E+03  0.72967071776E+03  0.25500000920E-02 0.  1.
       -2   -1    0    0    0  501  0.00000000000E+00  0.00000000000E+00 -0.57836102504E+03  0.57836102505E+03  0.25500000920E-02 0. -1.
    10030    2    1    2    0    0  0.00000000000E+00  0.00000000000E+00  0.15130969272E+03  0.13080317428E+04  0.12992507137E+04 0.  0.
        1    1    3    3  502    0  0.35982859093E+03 -0.38277547934E+03  0.46036232728E+03  0.69851782714E+03  0.50400001928E-02 0.  1.
       -1    1    3    3    0  502 -0.35982859093E+03  0.38277547934E+03 -0.30905263456E+03  0.60951391567E+03  0.50400001928E-02 0. -1.
</event>
<event>
 5   0  0.1031295E-03  0.1300243E+04  0.7818609E-02  0.9029373E-01
       -2   -1    0    0    0  501  0.00000000000E+00  0.00000000000E+00  0.41430805464E+03  0.41430805465E+03  0.25500000920E-02 0.  1.
        2   -1    0    0  501    0  0.00000000000E+00  0.00000000000E+00 -0.10201533771E+04  0.10201533771E+04  0.25500000920E-02 0. -1.
    10030    2    1    2    0    0  0.00000000000E+00  0.00000000000E+00 -0.60584532248E+03  0.14344614318E+04  0.13002426868E+04 0.  0.
        2    1    3    3  502    0  0.42770966158E+03  0.47515356525E+03 -0.17261446547E+03  0.66219500064E+03  0.25500000920E-02 0.  1.
       -2    1    3    3    0  502 -0.42770966158E+03 -0.47515356525E+03 -0.43323085700E+03  0.77226643113E+03  0.25500000920E-02 0. -1.
</event>
<event>
 5   0  0.5563545E-04  0.1278616E+04  0.7818609E-02  0.9046697E-01
        1   -1    0    0  501    0  0.00000000000E+00  0.00000000000E+00  0.83980388150E+03  0.83980388152E+03  0.50400001928E-02 0.  1.
       -1   -1    0    0    0  501  0.00000000000E+00  0.00000000000E+00 -0.48667882392E+03  0.48667882394E+03  0.50400001928E-02 0. -1.
    10030    2    1    2    0    0  0.00000000000E+00  0.00000000000E+00  0.35312505758E+03  0.13264827055E+04  0.12786160728E+04 0.  0.
        2    1    3    3  502    0 -0.36548408331E+02  0.22737900009E+03  0.79527631574E+03  0.82795012786E+03  0.25500000920E-02 0.  1.
       -2    1    3    3    0  502  0.36548408331E+02 -0.22737900009E+03 -0.44215125816E+03  0.49853257760E+03  0.25500000920E-02 0. -1.
</event>
<event>
 5   0  0.5563545E-04  0.1293943E+04  0.7818609E-02  0.9034382E-01
        1   -1    0    0  501    0  0.00000000000E+00  0.00000000000E+00  0.23776031030E+04  0.23776031030E+04  0.50400001928E-02 0. -1.
       -1   -1    0    0    0  501  0.00000000000E+00  0.00000000000E+00 -0.17604807278E+03  0.17604807285E+03  0.50400001928E-02 0.  1.
    10030    2    1    2    0    0  0.00000000000E+00  0.00000000000E+00  0.22015550302E+04  0.25536511759E+04  0.12939434983E+04 0.  0.
        2    1    3    3  502    0 -0.41862136310E+03  0.48736915570E+03  0.95047830905E+03  0.11472495611E+04  0.25500000920E-02 0.  1.
       -2    1    3    3    0  502  0.41862136310E+03 -0.48736915570E+03  0.12510767212E+04  0.14064016147E+04  0.25500000920E-02 0. -1.
</event>
<event>
 5   0  0.1101619E-03  0.1316317E+04  0.7818609E-02  0.9016725E-01
       -2   -1    0    0    0  501  0.00000000000E+00  0.00000000000E+00  0.29947236358E+03  0.29947236359E+03  0.25500000920E-02 0.  1.
        2   -1    0    0  501    0  0.00000000000E+00  0.00000000000E+00 -0.14464530345E+04  0.14464530345E+04  0.25500000920E-02 0. -1.
    10030    2    1    2    0    0  0.00000000000E+00  0.00000000000E+00 -0.11469806709E+04  0.17459253981E+04  0.13163171488E+04 0.  0.
        1    1    3    3  502    0  0.48728179697E+03 -0.18253211604E+03 -0.38959070498E+02  0.52180392126E+03  0.50400001928E-02 0.  1.
       -1    1    3    3    0  502 -0.48728179697E+03  0.18253211604E+03 -0.11080216004E+04  0.12241214769E+04  0.50400001928E-02 0. -1.
</event>
<event>
 5   0  0.5710383E-04  0.1298232E+04  0.7818609E-02  0.9030968E-01
        1   -1    0    0  501    0  0.00000000000E+00  0.00000000000E+00  0.91246185710E+03  0.91246185712E+03  0.50400001928E-02 0. -1.
       -1   -1    0    0    0  501  0.00000000000E+00  0.00000000000E+00 -0.46177435725E+03  0.46177435728E+03  0.50400001928E-02 0.  1.
    10030    2    1    2    0    0  0.00000000000E+00  0.00000000000E+00  0.45068749985E+03  0.13742362144E+04  0.12982318554E+04 0.  0.
        1    1    3    3  502    0  0.47552277036E+03 -0.87980335297E+02 -0.23300607924E+03  0.53680003495E+03  0.50400001928E-02 0.  1.
       -1    1    3    3    0  502 -0.47552277036E+03  0.87980335297E+02  0.68369357909E+03  0.83743617945E+03  0.50400001928E-02 0. -1.
</event>
<event>
 5   0  0.5812938E-04  0.1305455E+04  0.7818609E-02  0.9025251E-01
        1   -1    0    0  501    0  0.00000000000E+00  0.00000000000E+00  0.96963207284E+03  0.96963207285E+03  0.50400001928E-02 0. -1.
       -1   -1    0    0    0  501  0.00000000000E+00  0.00000000000E+00 -0.43939644546E+03  0.43939644549E+03  0.50400001928E-02 0.  1.
    10030    2    1    2    0    0  0.00000000000E+00  0.00000000000E+00  0.53023562738E+03  0.14090285183E+04  0.13054545358E+04 0.  0.
        5    1    3    3  502    0  0.17492501244E+03  0.62880577591E+03  0.25870210151E+03  0.70209994382E+03  0.46999998093E+01 0.  1.
       -5    1    3    3    0  502 -0.17492501244E+03 -0.62880577591E+03  0.27153352587E+03  0.70692857452E+03  0.46999998093E+01 0. -1.
</event>
<event>
 5   0  0.1046253E-03  0.1287969E+04  0.7818609E-02  0.9039161E-01
        2   -1    0    0  501    0  0.00000000000E+00  0.00000000000E+00  0.82759329333E+03  0.82759329334E+03  0.25500000920E-02 0.  1.
       -2   -1    0    0    0  501  0.00000000000E+00  0.00000000000E+00 -0.50111087558E+03  0.50111087558E+03  0.25500000920E-02 0. -1.
    10030    2    1    2    0    0  0.00000000000E+00  0.00000000000E+00  0.32648241776E+03  0.13287041689E+04  0.12879689435E+04 0.  0.
        3    1    3    3  502    0 -0.37633432146E+03 -0.52230375197E+03  0.14575645212E+03  0.66005581913E+03  0.10100000352E+00 0.  1.
       -3    1    3    3    0  502  0.37633432146E+03  0.52230375197E+03  0.18072596564E+03  0.66864834980E+03  0.10100000352E+00 0. -1.
</event>
<event>
 5   0  0.6006119E-04  0.1296865E+04  0.7818609E-02  0.9032055E-01
       -1   -1    0    0    0  501  0.00000000000E+00  0.00000000000E+00  0.83188051648E+03  0.83188051649E+03  0.50400001928E-02 0.  1.
        1   -1    0    0  501    0  0.00000000000E+00  0.00000000000E+00 -0.50543908040E+03  0.50543908042E+03  0.50400001928E-02 0. -1.
    10030    2    1    2    0    0  0.00000000000E+00  0.00000000000E+00  0.32644143608E+03  0.13373195969E+04  0.12968653334E+04 0.  0.
        4    1    3    3  502    0 -0.21024057285E+03 -0.39967100065E+03  0.64305873670E+03  0.78578887684E+03  0.12699999809E+01 0.  1.
       -4    1    3    3    0  502  0.21024057285E+03  0.39967100065E+03 -0.31661730062E+03  0.55153072007E+03  0.12699999809E+01 0. -1.
</event>
<event>
 5   0  0.1031295E-03  0.1293702E+04  0.7818609E-02  0.9034575E-01
        2   -1    0    0  501    0  0.00000000000E+00  0.00000000000E+00  0.21170200059E+04  0.21170200059E+04  0.25500000920E-02 0. -1.
       -2   -1    0    0    0  501  0.00000000000E+00  0.00000000000E+00 -0.19764389267E+03  0.19764389269E+03  0.25500000920E-02 0.  1.
    10030    2    1    2    0    0  0.00000000000E+00  0.00000000000E+00  0.19193761132E+04  0.23146638986E+04  0.12937017815E+04 0.  0.
        2    1    3    3  502    0 -0.31059717989E+02 -0.91210896524E+02  0.21041080991E+04  0.21063131359E+04  0.25500000920E-02 0. -1.
       -2    1    3    3    0  502  0.31059717989E+02  0.91210896524E+02 -0.18473198584E+03  0.20835076272E+03  0.25500000920E-02 0.  1.
</event>
<event>
 5   0  0.6006119E-04  0.1288202E+04  0.7818609E-02  0.9038974E-01
        1   -1    0    0  501    0  0.00000000000E+00  0.00000000000E+00  0.13628550016E+04  0.13628550016E+04  0.50400001928E-02 0.  1.
       -1   -1    0    0    0  501  0.00000000000E+00  0.00000000000E+00 -0.30440955647E+03  0.30440955651E+03  0.50400001928E-02 0. -1.
    10030    2    1    2    0    0  0.00000000000E+00  0.00000000000E+00  0.10584454452E+04  0.16672645581E+04  0.12882019820E+04 0.  0.
        4    1    3    3  502    0 -0.57542515008E+03 -0.15226768106E+03  0.21070680380E+03  0.63142578353E+03  0.12699999809E+01 0. -1.
       -4    1    3    3    0  502  0.57542515008E+03  0.15226768106E+03  0.84773864136E+03  0.10358387746E+04  0.12699999809E+01 0.  1.
</event>
<event>
 5   0  0.5710383E-04  0.1297298E+04  0.7818609E-02  0.9031711E-01
        1   -1    0    0  501    0  0.00000000000E+00  0.00000000000E+00  0.93126364409E+03  0.93126364410E+03  0.50400001928E-02 0. -1.
       -1   -1    0    0    0  501  0.00000000000E+00  0.00000000000E+00 -0.45180031495E+03  0.45180031498E+03  0.50400001928E-02 0.  1.
    10030    2    1    2    0    0  0.00000000000E+00  0.00000000000E+00  0.47946332913E+03  0.13830639591E+04  0.12972975106E+04 0.  0.
        1    1    3    3  502    0 -0.34824756732E+03 -0.33150808631E+03 -0.22445097262E+03  0.53061494379E+03  0.50400001928E-02 0.  1.
       -1    1    3    3    0  502  0.34824756732E+03  0.33150808631E+03  0.70391430176E+03  0.85244901529E+03  0.50400001928E-02 0. -1.
</event>
<event>
 5   0  0.1081574E-03  0.1297169E+04  0.7818609E-02  0.9031813E-01
        2   -1    0    0  501    0  0.00000000000E+00  0.00000000000E+00  0.95812118843E+03  0.95812118843E+03  0.25500000920E-02 0. -1.
       -2   -1    0    0    0  501  0.00000000000E+00  0.00000000000E+00 -0.43904889551E+03  0.43904889552E+03  0.25500000920E-02 0.  1.
    10030    2    1    2    0    0  0.00000000000E+00  0.00000000000E+00  0.51907229292E+03  0.13971700839E+04  0.12971693021E+04 0.  0.
        5    1    3    3  502    0 -0.15270398237E+03 -0.25430706814E+03 -0.36168462301E+03  0.46779102990E+03  0.46999998093E+01 0.  1.
       -5    1    3    3    0  502  0.15270398237E+03  0.25430706814E+03  0.88075691593E+03  0.92937905404E+03  0.46999998093E+01 0. -1.
</event>
<event>
 5   0  0.5766027E-04  0.1241879E+04  0.7818609E-02  0.9076969E-01
        1   -1    0    0  501    0  0.00000000000E+00  0.00000000000E+00  0.68025194503E+03  0.68025194504E+03  0.50400001928E-02 0. -1.
       -1   -1    0    0    0  501  0.00000000000E+00  0.00000000000E+00 -0.56679887049E+03  0.56679887051E+03  0.50400001928E-02 0.  1.
    10030    2    1    2    0    0  0.00000000000E+00  0.00000000000E+00  0.11345307453E+03  0.12470508156E+04  0.12418792761E+04 0.  0.
        3    1    3    3  502    0 -0.56363806872E+03 -0.25874769901E+03  0.87312854913E+02  0.62630806245E+03  0.10100000352E+00 0.  1.
       -3    1    3    3    0  502  0.56363806872E+03  0.25874769901E+03  0.26140219622E+02  0.62074275311E+03  0.10100000352E+00 0. -1.
</event>
<event>
 5   0  0.5766027E-04  0.1289970E+04  0.7818609E-02  0.9037557E-01
       -1   -1    0    0    0  501  0.00000000000E+00  0.00000000000E+00  0.45959035599E+03  0.45959035602E+03  0.50400001928E-02 0.  1.
        1   -1    0    0  501    0  0.00000000000E+00  0.00000000000E+00 -0.90516675016E+03  0.90516675018E+03  0.50400001928E-02 0. -1.
    10030    2    1    2    0    0  0.00000000000E+00  0.00000000000E+00 -0.44557639417E+03  0.13647571062E+04  0.12899704012E+04 0.  0.
        3    1    3    3  502    0 -0.38181548633E+03  0.31300627504E+03 -0.66187978240E+03  0.82573655021E+03  0.10100000352E+00 0. -1.
       -3    1    3    3    0  502  0.38181548633E+03 -0.31300627504E+03  0.21630338823E+03  0.53902055598E+03  0.10100000352E+00 0.  1.
</event>
<event>
 5   0  0.1031295E-03  0.1296676E+04  0.7818609E-02  0.9032205E-01
        2   -1    0    0  501    0  0.00000000000E+00  0.00000000000E+00  0.18380475105E+04  0.18380475105E+04  0.25500000920E-02 0. -1.
       -2   -1    0    0    0  501  0.00000000000E+00  0.00000000000E+00 -0.22868950851E+03  0.22868950853E+03  0.25500000920E-02 0.  1.
    10030    2    1    2    0    0  0.00000000000E+00  0.00000000000E+00  0.16093580020E+04  0.20667370191E+04  0.12966760302E+04 0.  0.
        2    1    3    3  502    0  0.23686643697E+02 -0.60834813553E+03  0.11599864191E+04  0.13100446571E+04  0.25500000920E-02 0. -1.
       -2    1    3    3    0  502 -0.23686643697E+02  0.60834813553E+03  0.44937158288E+03  0.75669236192E+03  0.25500000920E-02 0.  1.
</event>
<event>
 5   0  0.1103241E-03  0.1297047E+04  0.7818609E-02  0.9031910E-01
       -2   -1    0    0    0  501  0.00000000000E+00  0.00000000000E+00  0.14501028948E+03  0.14501028950E+03  0.25500000920E-02 0.  1.
        2   -1    0    0  501    0  0.00000000000E+00  0.00000000000E+00 -0.29003657665E+04  0.29003657665E+04  0.25500000920E-02 0. -1.
    10030    2    1    2    0    0  0.00000000000E+00  0.00000000000E+00 -0.27553554770E+04  0.30453760560E+04  0.12970472303E+04 0.  0.
        4    1    3    3  502    0  0.58718568777E+03  0.21891353661E+03 -0.98569930046E+03  0.11680389087E+04  0.12699999809E+01 0. -1.
       -4    1    3    3    0  502 -0.58718568777E+03 -0.21891353661E+03 -0.17696561765E+04  0.18773371472E+04  0.12699999809E+01 0.  1.
</event>
<event>
 5   0  0.5766027E-04  0.1278845E+04  0.7818609E-02  0.9046511E-01
        1   -1    0    0  501    0  0.00000000000E+00  0.00000000000E+00  0.77045439555E+03  0.77045439556E+03  0.50400001928E-02 0. -1.
       -1   -1    0    0    0  501  0.00000000000E+00  0.00000000000E+00 -0.53067573357E+03  0.53067573360E+03  0.50400001928E-02 0.  1.
    10030    2    1    2    0    0  0.00000000000E+00  0.00000000000E+00  0.23977866197E+03  0.13011301292E+04  0.12788454974E+04 0.  0.
        3    1    3    3  502    0 -0.13583650328E+03 -0.58431416173E+03  0.34507585372E+03  0.69206354494E+03  0.10100000352E+00 0. -1.
       -3    1    3    3    0  502  0.13583650328E+03  0.58431416173E+03 -0.10529719175E+03  0.60906658422E+03  0.10100000352E+00 0.  1.
</event>
<event>
 5   0  0.1031295E-03  0.1298885E+04  0.7818609E-02  0.9030450E-01
        2   -1    0    0  501    0  0.00000000000E+00  0.00000000000E+00  0.14813235947E+04  0.14813235947E+04  0.25500000920E-02 0.  1.
       -2   -1    0    0    0  501  0.00000000000E+00  0.00000000000E+00 -0.28472883189E+03  0.28472883190E+03  0.25500000920E-02 0. -1.
    10030    2    1    2    0    0  0.00000000000E+00  0.00000000000E+00  0.11965947628E+04  0.17660524266E+04  0.12988849630E+04 0.  0.
        2    1    3    3  502    0 -0.13542253554E+03  0.54754222292E+03  0.10360044786E+04  0.11795961295E+04  0.25500000920E-02 0.  1.
       -2    1    3    3    0  502  0.13542253554E+03 -0.54754222292E+03  0.16059028417E+03  0.58645629708E+03  0.25500000920E-02 0. -1.
</event>
<event>
 5   0  0.1103241E-03  0.1305546E+04  0.7818609E-02  0.9025179E-01
        2   -1    0    0  501    0  0.00000000000E+00  0.00000000000E+00  0.63245638917E+03  0.63245638917E+03  0.25500000920E-02 0.  1.
       -2   -1    0    0    0  501  0.00000000000E+00  0.00000000000E+00 -0.67374210586E+03  0.67374210586E+03  0.25500000920E-02 0. -1.
    10030    2    1    2    0    0  0.00000000000E+00  0.00000000000E+00 -0.41285716690E+02  0.13061984950E+04  0.13055458621E+04 0.  0.
        4    1    3    3  502    0  0.15012402048E+03 -0.43161916714E+03  0.44572164063E+03  0.63835861456E+03  0.12699999809E+01 0.  1.
       -4    1    3    3    0  502 -0.15012402048E+03  0.43161916714E+03 -0.48700735732E+03  0.66783988047E+03  0.12699999809E+01 0. -1.
</event>
<event>
 5   0  0.1046253E-03  0.1303304E+04  0.7818609E-02  0.9026949E-01
       -2   -1    0    0    0  501  0.00000000000E+00  0.00000000000E+00  0.63833771279E+03  0.63833771279E+03  0.25500000920E-02 0.  1.
        2   -1    0    0  501    0  0.00000000000E+00  0.00000000000E+00 -0.66524405812E+03  0.66524405812E+03  0.25500000920E-02 0. -1.
    10030    2    1    2    0    0  0.00000000000E+00  0.00000000000E+00 -0.26906345330E+02  0.13035817709E+04  0.13033040635E+04 0.  0.
        3    1    3    3  502    0 -0.52114650047E+03  0.33147099120E+03  0.19439790965E+03  0.64750077254E+03  0.10100000352E+00 0.  1.
       -3    1    3    3    0  502  0.52114650047E+03 -0.33147099120E+03 -0.22130425498E+03  0.65608099838E+03  0.10100000352E+00 0. -1.
</event>
<event>
 5   0  0.5766027E-04  0.1297934E+04  0.7818609E-02  0.9031205E-01
       -1   -1    0    0    0  501  0.00000000000E+00  0.00000000000E+00  0.46669682819E+03  0.46669682821E+03  0.50400001928E-02 0. -1.
        1   -1    0    0  501    0  0.00000000000E+00  0.00000000000E+00 -0.90242309689E+03  0.90242309691E+03  0.50400001928E-02 0.  1.
    10030    2    1    2    0    0  0.00000000000E+00  0.00000000000E+00 -0.43572626870E+03  0.13691199251E+04  0.12979337380E+04 0.  0.
        3    1    3    3  502    0 -0.31601649587E+03  0.54409593235E+03 -0.50241609390E+02  0.63121394057E+03  0.10100000352E+00 0. -1.
       -3    1    3    3    0  502  0.31601649587E+03 -0.54409593235E+03 -0.38548465931E+03  0.73790598455E+03  0.10100000352E+00 0.  1.
</event>
<event>
 5   0  0.1031295E-03  0.1313231E+04  0.7818609E-02  0.9019138E-01
       -2   -1    0    0    0  501  0.00000000000E+00  0.00000000000E+00  0.68544258924E+03  0.68544258924E+03  0.25500000920E-02 0.  1.
        2   -1    0    0  501    0  0.00000000000E+00  0.00000000000E+00 -0.62900105631E+03  0.62900105632E+03  0.25500000920E-02 0. -1.
    10030    2    1    2    0    0  0.00000000000E+00  0.00000000000E+00  0.56441532924E+02  0.13144436456E+04  0.13132313013E+04 0.  0.
        2    1    3    3  502    0  0.51008392709E+03  0.33714121927E+02  0.44069567940E+03  0.67493328303E+03  0.25500000920E-02 0.  1.
       -2    1    3    3    0  502 -0.51008392709E+03 -0.33714121927E+02 -0.38425414648E+03  0.63951036253E+03  0.25500000920E-02 0. -1.
</event>
<event>
 5   0  0.5812938E-04  0.1305761E+04  0.7818609E-02  0.9025009E-01
        1   -1    0    0  501    0  0.00000000000E+00  0.00000000000E+00  0.39705562875E+03  0.39705562878E+03  0.50400001928E-02 0.  1.
       -1   -1    0    0    0  501  0.00000000000E+00  0.00000000000E+00 -0.10735344425E+04  0.10735344425E+04  0.50400001928E-02 0. -1.
    10030    2    1    2    0    0  0.00000000000E+00  0.00000000000E+00 -0.67647881373E+03  0.14705900713E+04  0.13057609170E+04 0.  0.
        5    1    3    3  502    0 -0.28896091941E+03 -0.35161416289E+03  0.18892857439E+03  0.49279511839E+03  0.46999998093E+01 0.  1.
       -5    1    3    3    0  502  0.28896091941E+03  0.35161416289E+03 -0.86540738812E+03  0.97779495289E+03  0.46999998093E+01 0. -1.
</event>
<event>
 5   0  0.6006119E-04  0.1295197E+04  0.7818609E-02  0.9033383E-01
       -1   -1    0    0    0  501  0.00000000000E+00  0.00000000000E+00  0.51646163662E+03  0.51646163665E+03  0.50400001928E-02 0. -1.
        1   -1    0    0  501    0  0.00000000000E+00  0.00000000000E+00 -0.81203267025E+03  0.81203267026E+03  0.50400001928E-02 0.  1.
    10030    2    1    2    0    0  0.00000000000E+00  0.00000000000E+00 -0.29557103362E+03  0.13284943069E+04  0.12951968528E+04 0.  0.
        4    1    3    3  502    0 -0.62817772489E+02  0.41985219617E+02  0.51192385080E+03  0.51747122927E+03  0.12699999809E+01 0. -1.
       -4    1    3    3    0  502  0.62817772489E+02 -0.41985219617E+02 -0.80749488442E+03  0.81102307764E+03  0.12699999809E+01 0.  1.
</event>
<event>
 5   0  0.1031295E-03  0.1299723E+04  0.7818609E-02  0.9029785E-01
       -2   -1    0    0    0  501  0.00000000000E+00  0.00000000000E+00  0.25558200933E+03  0.25558200934E+03  0.25500000920E-02 0.  1.
        2   -1    0    0  501    0  0.00000000000E+00  0.00000000000E+00 -0.16523854343E+04  0.16523854343E+04  0.25500000920E-02 0. -1.
    10030    2    1    2    0    0  0.00000000000E+00  0.00000000000E+00 -0.13968034250E+04  0.19079674437E+04  0.12997230313E+04 0.  0.
        2    1    3    3  502    0  0.15851234110E+03  0.40531326528E+03 -0.14068674626E+04  0.14726442417E+04  0.25500000920E-02 0. -1.
       -2    1    3    3    0  502 -0.15851234110E+03 -0.40531326528E+03  0.10064037618E+02  0.43532320195E+03  0.25500000920E-02 0.  1.
</event>
<event>
 5   0  0.5812938E-04  0.1257264E+04  0.7818609E-02  0.9064159E-01
        1   -1    0    0  501    0  0.00000000000E+00  0.00000000000E+00  0.54334096157E+03  0.54334096159E+03  0.50400001928E-02 0.  1.
       -1   -1    0    0    0  501  0.00000000000E+00  0.00000000000E+00 -0.72731128337E+03  0.72731128339E+03  0.50400001928E-02 0. -1.
    10030    2    1    2    0    0  0.00000000000E+00  0.00000000000E+00 -0.18397032180E+03  0.12706522450E+04  0.12572637147E+04 0.  0.
        5    1    3    3  502    0 -0.26107661090E+02  0.17768029519E+03 -0.70081540575E+03  0.72347509992E+03  0.46999998093E+01 0. -1.
       -5    1    3    3    0  502  0.26107661090E+02 -0.17768029519E+03  0.51684508395E+03  0.54717714506E+03  0.46999998093E+01 0.  1.
</event>
<event>
 5   0  0.5766027E-04  0.1277002E+04  0.7818609E-02  0.9048004E-01
       -1   -1    0    0    0  501  0.00000000000E+00  0.00000000000E+00  0.31178937501E+03  0.31178937505E+03  0.50400001928E-02 0. -1.
        1   -1    0    0  501    0  0.00000000000E+00  0.00000000000E+00 -0.13075614556E+04  0.13075614556E+04  0.50400001928E-02 0.  1.
    10030    2    1    2    0    0  0.00000000000E+00  0.00000000000E+00 -0.99577208062E+03  0.16193508307E+04  0.12770023791E+04 0.  0.
        3    1    3    3  502    0  0.33546469520E+03 -0.17605679060E+03  0.15385570456E+03  0.40890603232E+03  0.10100000352E+00 0. -1.
       -3    1    3    3    0  502 -0.33546469520E+03  0.17605679060E+03 -0.11496277852E+04  0.12104447984E+04  0.10100000352E+00 0.  1.
</event>
<event>
 5   0  0.5766027E-04  0.1302211E+04  0.7818609E-02  0.9027814E-01
        1   -1    0    0  501    0  0.00000000000E+00  0.00000000000E+00  0.10140779744E+04  0.10140779745E+04  0.50400001928E-02 0. -1.
       -1   -1    0    0    0  501  0.00000000000E+00  0.00000000000E+00 -0.41805294292E+03  0.41805294295E+03  0.50400001928E-02 0.  1.
    10030    2    1    2    0    0  0.00000000000E+00  0.00000000000E+00  0.59602503152E+03  0.14321309174E+04  0.13022108609E+04 0.  0.
        3    1    3    3  502    0  0.60383853815E+03 -0.35588430909E+02  0.56298778549E+03  0.82634301194E+03  0.10100000352E+00 0. -1.
       -3    1    3    3    0  502 -0.60383853815E+03  0.35588430909E+02  0.33037246034E+02  0.60578790546E+03  0.10100000352E+00 0.  1.
</event>
<event>
 5   0  0.5563545E-04  0.1290428E+04  0.7818609E-02  0.9037190E-01
        1   -1    0    0  501    0  0.00000000000E+00  0.00000000000E+00  0.79675880091E+03  0.79675880092E+03  0.50400001928E-02 0.  1.
       -1   -1    0    0    0  501  0.00000000000E+00  0.00000000000E+00 -0.52249351135E+03  0.52249351138E+03  0.50400001928E-02 0. -1.
    10030    2    1    2    0    0  0.00000000000E+00  0.00000000000E+00  0.27426528955E+03  0.13192523123E+04  0.12904283066E+04 0.  0.
        2    1    3    3  502    0  0.63434588557E+03 -0.10093402395E+03  0.74787501451E+02  0.64666494424E+03  0.25500000920E-02 0. -1.
       -2    1    3    3    0  502 -0.63434588557E+03  0.10093402395E+03  0.19947778810E+03  0.67258736806E+03  0.25500000920E-02 0.  1.
</event>
<event>
 5   0  0.1081574E-03  0.1301527E+04  0.7818609E-02  0.9028355E-01
       -2   -1    0    0    0  501  0.00000000000E+00  0.00000000000E+00  0.10764782429E+04  0.10764782429E+04  0.25500000920E-02 0.  1.
        2   -1    0    0  501    0  0.00000000000E+00  0.00000000000E+00 -0.39340629468E+03  0.39340629468E+03  0.25500000920E-02 0. -1.
    10030    2    1    2    0    0  0.00000000000E+00  0.00000000000E+00  0.68307194825E+03  0.14698845376E+04  0.13015272826E+04 0.  0.
        5    1    3    3  502    0  0.27183093366E+03 -0.15022560394E+03 -0.30428391697E+03  0.43482247032E+03  0.46999998093E+01 0. -1.
       -5    1    3    3    0  502 -0.27183093366E+03  0.15022560394E+03  0.98735586522E+03  0.10350620673E+04  0.46999998093E+01 0.  1.
</event>
<event>
 5   0  0.6006119E-04  0.1289069E+04  0.7818609E-02  0.9038279E-01
        1   -1    0    0  501    0  0.00000000000E+00  0.00000000000E+00  0.91700251072E+03  0.91700251073E+03  0.50400001928E-02 0. -1.
       -1   -1    0    0    0  501  0.00000000000E+00  0.00000000000E+00 -0.45302477536E+03  0.45302477539E+03  0.50400001928E-02 0.  1.
    10030    2    1    2    0    0  0.00000000000E+00  0.00000000000E+00  0.46397773536E+03  0.13700272861E+04  0.12890692091E+04 0.  0.
        4    1    3    3  502    0  0.62024669983E+03 -0.12275808920E+03  0.99041848509E+02  0.63998938880E+03  0.12699999809E+01 0.  1.
       -4    1    3    3    0  502 -0.62024669983E+03  0.12275808920E+03  0.36493588685E+03  0.73003789732E+03  0.12699999809E+01 0. -1.
</event>
<event>
 5   0  0.5766027E-04  0.1304957E+04  0.7818609E-02  0.9025644E-01
       -1   -1    0    0    0  501  0.00000000000E+00  0.00000000000E+00  0.89510278400E+03  0.89510278401E+03  0.50400001928E-02 0.  1.
        1   -1    0    0  501    0  0.00000000000E+00  0.00000000000E+00 -0.47561911043E+03  0.47561911046E+03  0.50400001928E-02 0. -1.
    10030    2    1    2    0    0  0.00000000000E+00  0.00000000000E+00  0.41948367357E+03  0.13707218945E+04  0.13049566888E+04 0.  0.
        3    1    3    3  502    0 -0.12252472496E+03  0.37723037327E+03 -0.33445367781E+03  0.51882013795E+03  0.10100000352E+00 0. -1.
       -3    1    3    3    0  502  0.12252472496E+03 -0.37723037327E+03  0.75393735138E+03  0.85190175652E+03  0.10100000352E+00 0.  1.
</event>
<event>
 5   0  0.1031295E-03  0.1248763E+04  0.7818609E-02  0.9071213E-01
       -2   -1    0    0    0  501  0.00000000000E+00  0.00000000000E+00  0.49804671801E+03  0.49804671802E+03  0.25500000920E-02 0. -1.
        2   -1    0    0  501    0  0.00000000000E+00  0.00000000000E+00 -0.78276285045E+03  0.78276285045E+03  0.25500000920E-02 0.  1.
    10030    2    1    2    0    0  0.00000000000E+00  0.00000000000E+00 -0.28471613244E+03  0.12808095685E+04  0.12487633381E+04 0.  0.
        2    1    3    3  502    0 -0.26555957163E+03  0.28728580908E+02  0.43648751439E+03  0.51173095243E+03  0.25500000920E-02 0. -1.
       -2    1    3    3    0  502  0.26555957163E+03 -0.28728580908E+02 -0.72120364683E+03  0.76907861604E+03  0.25500000920E-02 0.  1.
</event>
<event>
 5   0  0.5563545E-04  0.1311227E+04  0.7818609E-02  0.9020709E-01
        1   -1    0    0  501    0  0.00000000000E+00  0.00000000000E+00  0.31241245938E+03  0.31241245942E+03  0.50400001928E-02 0.  1.
       -1   -1    0    0    0  501  0.00000000000E+00  0.00000000000E+00 -0.13758379869E+04  0.13758379869E+04  0.50400001928E-02 0. -1.
    10030    2    1    2    0    0  0.00000000000E+00  0.00000000000E+00 -0.10634255276E+04  0.16882504464E+04  0.13112267985E+04 0.  0.
        2    1    3    3  502    0 -0.28535137282E+03 -0.47344490970E+03 -0.77861793265E+02  0.55824541857E+03  0.25500000920E-02 0.  1.
       -2    1    3    3    0  502  0.28535137282E+03  0.47344490970E+03 -0.98556373429E+03  0.11300050278E+04  0.25500000920E-02 0. -1.
</event>
<event>
 5   0  0.1081574E-03  0.1297031E+04  0.7818609E-02  0.9031923E-01
       -2   -1    0    0    0  501  0.00000000000E+00  0.00000000000E+00  0.61632627351E+03  0.61632627351E+03  0.25500000920E-02 0. -1.
        2   -1    0    0  501    0  0.00000000000E+00  0.00000000000E+00 -0.68238577696E+03  0.68238577696E+03  0.25500000920E-02 0.  1.
    10030    2    1    2    0    0  0.00000000000E+00  0.00000000000E+00 -0.66059503452E+02  0.12987120505E+04  0.12970308909E+04 0.  0.
        5    1    3    3  502    0 -0.34433688421E+03  0.53252646085E+03 -0.16884431561E+03  0.65626428689E+03  0.46999998093E+01 0. -1.
       -5    1    3    3    0  502  0.34433688421E+03 -0.53252646085E+03  0.10278481216E+03  0.64244776359E+03  0.46999998093E+01 0.  1.
</event>
<event>
 5   0  0.5710383E-04  0.1279948E+04  0.7818609E-02  0.9045619E-01
        1   -1    0    0  501    0  0.00000000000E+00  0.00000000000E+00  0.80348487968E+03  0.80348487969E+03  0.50400001928E-02 0. -1.
       -1   -1    0    0    0  501  0.00000000000E+00  0.00000000000E+00 -0.50973802567E+03  0.50973802569E+03  0.50400001928E-02 0.  1.
    10030    2    1    2    0    0  0.00000000000E+00  0.00000000000E+00  0.29374685401E+03  0.13132229054E+04  0.12799481181E+04 0.  0.
        1    1    3    3  502    0 -0.31761480181E+03 -0.27701193843E+03  0.64100791038E+03  0.76714139346E+03  0.50400001928E-02 0. -1.
       -1    1    3    3    0  502  0.31761480181E+03  0.27701193843E+03 -0.34726105637E+03  0.54608151192E+03  0.50400001928E-02 0.  1.
</event>
<event>
 5   0  0.1046253E-03  0.1303934E+04  0.7818609E-02  0.9026452E-01
       -2   -1    0    0    0  501  0.00000000000E+00  0.00000000000E+00  0.36727297315E+03  0.36727297316E+03  0.25500000920E-02 0.  1.
        2   -1    0    0  501    0  0.00000000000E+00  0.00000000000E+00 -0.11573429118E+04  0.11573429118E+04  0.25500000920E-02 0. -1.
    10030    2    1    2    0    0  0.00000000000E+00  0.00000000000E+00 -0.79006993861E+03  0.15246158849E+04  0.13039336980E+04 0.  0.
        3    1    3    3  502    0  0.23132412405E+03  0.13083622010E+03 -0.10911343838E+04  0.11230330452E+04  0.10100000352E+00 0. -1.
       -3    1    3    3    0  502 -0.23132412405E+03 -0.13083622010E+03  0.30106444516E+03  0.40158283977E+03  0.10100000352E+00 0.  1.
</event>
<event>
 5   0  0.1081574E-03  0.1302291E+04  0.7818609E-02  0.9027750E-01
        2   -1    0    0  501    0  0.00000000000E+00  0.00000000000E+00  0.73742642665E+03  0.73742642665E+03  0.25500000920E-02 0.  1.
       -2   -1    0    0    0  501  0.00000000000E+00  0.00000000000E+00 -0.57496004126E+03  0.57496004127E+03  0.25500000920E-02 0. -1.
    10030    2    1    2    0    0  0.00000000000E+00  0.00000000000E+00  0.16246638539E+03  0.13123864679E+04  0.13022914093E+04 0.  0.
        5    1    3    3  502    0  0.56631577995E+03 -0.20478102759E+03 -0.16831472884E+03  0.62530054360E+03  0.46999998093E+01 0. -1.
       -5    1    3    3    0  502 -0.56631577995E+03  0.20478102759E+03  0.33078111423E+03  0.68708592433E+03  0.46999998093E+01 0.  1.
</event>
<event>
 5   0  0.5710383E-04  0.1313995E+04  0.7818609E-02  0.9018540E-01
        1   -1    0    0  501    0  0.00000000000E+00  0.00000000000E+00  0.52166057416E+03  0.52166057418E+03  0.50400001928E-02 0. -1.
       -1   -1    0    0    0  501  0.00000000000E+00  0.00000000000E+00 -0.82744566338E+03  0.82744566339E+03  0.50400001928E-02 0.  1.
    10030    2    1    2    0    0  0.00000000000E+00  0.00000000000E+00 -0.30578508922E+03  0.13491062376E+04  0.13139950987E+04 0.  0.
        1    1    3    3  502    0 -0.48845252512E+03 -0.43744769356E+03 -0.11056690518E+03  0.66495969385E+03  0.50400001928E-02 0. -1.
       -1    1    3    3    0  502  0.48845252512E+03  0.43744769356E+03 -0.19521818403E+03  0.68414654373E+03  0.50400001928E-02 0.  1.
</event>
<event>
 5   0  0.1031295E-03  0.1295494E+04  0.7818609E-02  0.9033146E-01
        2   -1    0    0  501    0  0.00000000000E+00  0.00000000000E+00  0.88210260389E+03  0.88210260389E+03  0.25500000920E-02 0. -1.
       -2   -1    0    0    0  501  0.00000000000E+00  0.00000000000E+00 -0.47565489908E+03  0.47565489909E+03  0.25500000920E-02 0.  1.
    10030    2    1    2    0    0  0.00000000000E+00  0.00000000000E+00  0.40644770480E+03  0.13577575030E+04  0.12954943845E+04 0.  0.
        2    1    3    3  502    0  0.61597057693E+03  0.14564581132E+03  0.58971738185E+02  0.63569656276E+03  0.25500000920E-02 0.  1.
       -2    1    3    3    0  502 -0.61597057693E+03 -0.14564581132E+03  0.34747596662E+03  0.72206094021E+03  0.25500000920E-02 0. -1.
</event>
<event>
 5   0  0.1081574E-03  0.1302675E+04  0.7818609E-02  0.9027447E-01
        2   -1    0    0  501    0  0.00000000000E+00  0.00000000000E+00  0.23082839828E+04  0.23082839828E+04  0.25500000920E-02 0.  1.
       -2   -1    0    0    0  501  0.00000000000E+00  0.00000000000E+00 -0.18379044807E+03  0.18379044809E+03  0.25500000920E-02 0. -1.
    10030    2    1    2    0    0  0.00000000000E+00  0.00000000000E+00  0.21244935348E+04  0.24920744309E+04  0.13026750132E+04 0.  0.
        5    1    3    3  502    0  0.33089995872E+03  0.55777071531E+03  0.11772762981E+04  0.13440998942E+04  0.46999998093E+01 0. -1.
       -5    1    3    3    0  502 -0.33089995872E+03 -0.55777071531E+03  0.94721723669E+03  0.11479745367E+04  0.46999998093E+01 0.  1.
</event>
<event>
 5   0  0.5563545E-04  0.1294594E+04  0.7818609E-02  0.9033863E-01
       -1   -1    0    0    0  501  0.00000000000E+00  0.00000000000E+00  0.26427055488E+03  0.26427055492E+03  0.50400001928E-02 0.  1.
        1   -1    0    0  501    0  0.00000000000E+00  0.00000000000E+00 -0.15854714524E+04  0.15854714524E+04  0.50400001928E-02 0. -1.
    10030    2    1    2    0    0  0.00000000000E+00  0.00000000000E+00 -0.13212008975E+04  0.18497420074E+04  0.12945940221E+04 0.  0.
        2    1    3    3  502    0  0.33647406864E+02 -0.62659716382E+03 -0.43361463164E+03  0.76274360205E+03  0.25500000920E-02 0.  1.
       -2    1    3    3    0  502 -0.33647406864E+02  0.62659716382E+03 -0.88758626591E+03  0.10869984053E+04  0.25500000920E-02 0. -1.
</event>
<event>
 5   0  0.1081574E-03  0.1298705E+04  0.7818609E-02  0.9030593E-01
        2   -1    0    0  501    0  0.00000000000E+00  0.00000000000E+00  0.15553484760E+04  0.15553484760E+04  0.25500000920E-02 0. -1.
       -2   -1    0    0    0  501  0.00000000000E+00  0.00000000000E+00 -0.27110230241E+03  0.27110230242E+03  0.25500000920E-02 0.  1.
    10030    2    1    2    0    0  0.00000000000E+00  0.00000000000E+00  0.12842461736E+04  0.18264507785E+04  0.12987048208E+04 0.  0.
        5    1    3    3  502    0  0.46160397745E+03  0.43810775585E+03  0.46081768410E+03  0.78574274780E+03  0.46999998093E+01 0. -1.
       -5    1    3    3    0  502 -0.46160397745E+03 -0.43810775585E+03  0.82342848952E+03  0.10407080307E+04  0.46999998093E+01 0.  1.
</event>
<event>
 5   0  0.6006119E-04  0.1306799E+04  0.7818609E-02  0.9024191E-01
        1   -1    0    0  501    0  0.00000000000E+00  0.00000000000E+00  0.11339508598E+04  0.11339508598E+04  0.50400001928E-02 0. -1.
       -1   -1    0    0    0  501  0.00000000000E+00  0.00000000000E+00 -0.37649867115E+03  0.37649867119E+03  0.50400001928E-02 0.  1.
    10030    2    1    2    0    0  0.00000000000E+00  0.00000000000E+00  0.75745218861E+03  0.15104495310E+04  0.13067991305E+04 0.  0.
        4    1    3    3  502    0 -0.31068250449E+03  0.47090855357E+03  0.75971649634E+03  0.94628180376E+03  0.12699999809E+01 0. -1.
       -4    1    3    3    0  502  0.31068250449E+03 -0.47090855357E+03 -0.22643077266E+01  0.56416772720E+03  0.12699999809E+01 0.  1.
</event>
<event>
 5   0  0.5812938E-04  0.1297261E+04  0.7818609E-02  0.9031740E-01
        1   -1    0    0  501    0  0.00000000000E+00  0.00000000000E+00  0.90297981264E+03  0.90297981265E+03  0.50400001928E-02 0.  1.
       -1   -1    0    0    0  501  0.00000000000E+00  0.00000000000E+00 -0.46592581200E+03  0.46592581202E+03  0.50400001928E-02 0. -1.
    10030    2    1    2    0    0  0.00000000000E+00  0.00000000000E+00  0.43705400064E+03  0.13689056247E+04  0.12972611186E+04 0.  0.
        5    1    3    3  502    0 -0.42283722287E+03 -0.68218244440E+02  0.73251538519E+03  0.84855519883E+03  0.46999998093E+01 0.  1.
       -5    1    3    3    0  502  0.42283722287E+03  0.68218244440E+02 -0.29546138455E+03  0.52035042585E+03  0.46999998093E+01 0. -1.
</event>
<event>
 5   0  0.5812938E-04  0.1292970E+04  0.7818609E-02  0.9035159E-01
        1   -1    0    0  501    0  0.00000000000E+00  0.00000000000E+00  0.59789251197E+03  0.59789251200E+03  0.50400001928E-02 0. -1.
       -1   -1    0    0    0  501  0.00000000000E+00  0.00000000000E+00 -0.69902660319E+03  0.69902660321E+03  0.50400001928E-02 0.  1.
    10030    2    1    2    0    0  0.00000000000E+00  0.00000000000E+00 -0.10113409121E+03  0.12969191152E+04  0.12929698709E+04 0.  0.
        5    1    3    3  502    0  0.17265481438E+03  0.52298803792E+03  0.28898503071E+03  0.62198119804E+03  0.46999998093E+01 0.  1.
       -5    1    3    3    0  502 -0.17265481438E+03 -0.52298803792E+03 -0.39011912192E+03  0.67493791717E+03  0.46999998093E+01 0. -1.
</event>
<event>
 5   0  0.5812938E-04  0.1298789E+04  0.7818609E-02  0.9030526E-01
       -1   -1    0    0    0  501  0.00000000000E+00  0.00000000000E+00  0.32972305423E+03  0.32972305427E+03  0.50400001928E-02 0.  1.
        1   -1    0    0  501    0  0.00000000000E+00  0.00000000000E+00 -0.12789929327E+04  0.12789929327E+04  0.50400001928E-02 0. -1.
    10030    2    1    2    0    0  0.00000000000E+00  0.00000000000E+00 -0.94926987848E+03  0.16087159870E+04  0.12987893688E+04 0.  0.
        5    1    3    3  502    0 -0.42133147535E+03 -0.29032034641E+03  0.20638289539E+02  0.51210755184E+03  0.46999998093E+01 0.  1.
       -5    1    3    3    0  502  0.42133147535E+03  0.29032034641E+03 -0.96990816802E+03  0.10966084352E+04  0.46999998093E+01 0. -1.
</event>
<event>
 5   0  0.1046253E-03  0.1302441E+04  0.7818609E-02  0.9027632E-01
       -2   -1    0    0    0  501  0.00000000000E+00  0.00000000000E+00  0.41842752863E+03  0.41842752864E+03  0.25500000920E-02 0.  1.
        2   -1    0    0  501    0  0.00000000000E+00  0.00000000000E+00 -0.10135282800E+04  0.10135282800E+04  0.25500000920E-02 0. -1.
    10030    2    1    2    0    0  0.00000000000E+00  0.00000000000E+00 -0.59510075139E+03  0.14319558087E+04  0.13024409905E+04 0.  0.
        3    1    3    3  502    0 -0.49059378675E+03 -0.97236468073E+02 -0.75609851521E+03  0.90654408013E+03  0.10100000352E+00 0. -1.
       -3    1    3    3    0  502  0.49059378675E+03  0.97236468073E+02  0.16099776382E+03  0.52541172853E+03  0.10100000352E+00 0.  1.
</event>
<event>
 5   0  0.5812938E-04  0.1307267E+04  0.7818609E-02  0.9023822E-01
       -1   -1    0    0    0  501  0.00000000000E+00  0.00000000000E+00  0.79094193098E+03  0.79094193100E+03  0.50400001928E-02 0.  1.
        1   -1    0    0  501    0  0.00000000000E+00  0.00000000000E+00 -0.54016161884E+03  0.54016161886E+03  0.50400001928E-02 0. -1.
    10030    2    1    2    0    0  0.00000000000E+00  0.00000000000E+00  0.25078031214E+03  0.13311035499E+04  0.13072665740E+04 0.  0.
        5    1    3    3  502    0 -0.58878607712E+03  0.52417881089E+02 -0.15861817371E+03  0.61204451954E+03  0.46999998093E+01 0. -1.
       -5    1    3    3    0  502  0.58878607712E+03 -0.52417881089E+02  0.40939848586E+03  0.71905903032E+03  0.46999998093E+01 0.  1.
</event>
<event>
 5   0  0.5812938E-04  0.1302987E+04  0.7818609E-02  0.9027200E-01
        1   -1    0    0  501    0  0.00000000000E+00  0.00000000000E+00  0.29723675156E+03  0.29723675160E+03  0.50400001928E-02 0.  1.
       -1   -1    0    0    0  501  0.00000000000E+00  0.00000000000E+00 -0.14279654673E+04  0.14279654673E+04  0.50400001928E-02 0. -1.
    10030    2    1    2    0    0  0.00000000000E+00  0.00000000000E+00 -0.11307287157E+04  0.17252022189E+04  0.13029870558E+04 0.  0.
        5    1    3    3  502    0 -0.44579234538E+03 -0.47452436274E+03 -0.53524316122E+03  0.84285913276E+03  0.46999998093E+01 0.  1.
       -5    1    3    3    0  502  0.44579234538E+03  0.47452436274E+03 -0.59548555451E+03  0.88234308615E+03  0.46999998093E+01 0. -1.
</event>
<event>
 5   0  0.1046253E-03  0.1359688E+04  0.7818609E-02  0.8983527E-01
       -2   -1    0    0    0  501  0.00000000000E+00  0.00000000000E+00  0.24561711837E+03  0.24561711838E+03  0.25500000920E-02 0. -1.
        2   -1    0    0  501    0  0.00000000000E+00  0.00000000000E+00 -0.18817399088E+04  0.18817399088E+04  0.25500000920E-02 0.  1.
    10030    2    1    2    0    0  0.00000000000E+00  0.00000000000E+00 -0.16361227904E+04  0.21273570272E+04  0.13596875140E+04 0.  0.
        3    1    3    3  502    0 -0.40650313871E+03  0.77227014495E+02  0.25918070015E+02  0.41458481654E+03  0.10100000352E+00 0. -1.
       -3    1    3    3    0  502  0.40650313871E+03 -0.77227014495E+02 -0.16620408604E+04  0.17127722106E+04  0.10100000352E+00 0.  1.
</event>
<event>
 5   0  0.1101619E-03  0.1300087E+04  0.7818609E-02  0.9029496E-01
       -2   -1    0    0    0  501  0.00000000000E+00  0.00000000000E+00  0.20582771472E+03  0.20582771474E+03  0.25500000920E-02 0.  1.
        2   -1    0    0  501    0  0.00000000000E+00  0.00000000000E+00 -0.20529613471E+04  0.20529613471E+04  0.25500000920E-02 0. -1.
    10030    2    1    2    0    0  0.00000000000E+00  0.00000000000E+00 -0.18471336324E+04  0.22587890619E+04  0.13000866779E+04 0.  0.
        1    1    3    3  502    0 -0.42695898720E+03 -0.27440715228E+03 -0.21790479066E+03  0.55233663629E+03  0.50400001928E-02 0.  1.
       -1    1    3    3    0  502  0.42695898720E+03  0.27440715228E+03 -0.16292288417E+04  0.17064524256E+04  0.50400001928E-02 0. -1.
</event>
<event>
 5   0  0.1103241E-03  0.1297202E+04  0.7818609E-02  0.9031787E-01
        2   -1    0    0  501    0  0.00000000000E+00  0.00000000000E+00  0.10302163532E+04  0.10302163532E+04  0.25500000920E-02 0. -1.
       -2   -1    0    0    0  501  0.00000000000E+00  0.00000000000E+00 -0.40834470609E+03  0.40834470610E+03  0.25500000920E-02 0.  1.
    10030    2    1    2    0    0  0.00000000000E+00  0.00000000000E+00  0.62187164708E+03  0.14385610593E+04  0.12972022108E+04 0.  0.
        4    1    3    3  502    0 -0.56054511503E+03 -0.69853598065E+02 -0.42531406452E+02  0.56648114230E+03  0.12699999809E+01 0.  1.
       -4    1    3    3    0  502  0.56054511503E+03  0.69853598065E+02  0.66440305353E+03  0.87207991697E+03  0.12699999809E+01 0. -1.
</event>
<event>
 5   0  0.5563545E-04  0.1236080E+04  0.7818609E-02  0.9081849E-01
        1   -1    0    0  501    0  0.00000000000E+00  0.00000000000E+00  0.32123423735E+04  0.32123423735E+04  0.50400001928E-02 0.  1.
       -1   -1    0    0    0  501  0.00000000000E+00  0.00000000000E+00 -0.11890798371E+03  0.11890798381E+03  0.50400001928E-02 0. -1.
    10030    2    1    2    0    0  0.00000000000E+00  0.00000000000E+00  0.30934343898E+04  0.33312503573E+04  0.12360795359E+04 0.  0.
        2    1    3    3  502    0 -0.22451661514E+03 -0.52500095092E+03  0.90930563362E+03  0.10737180469E+04  0.25500000920E-02 0.  1.
       -2    1    3    3    0  502  0.22451661514E+03  0.52500095092E+03  0.21841287562E+04  0.22575323104E+04  0.25500000920E-02 0. -1.
</event>
<event>
 5   0  0.1081574E-03  0.1295946E+04  0.7818609E-02  0.9032786E-01
       -2   -1    0    0    0  501  0.00000000000E+00  0.00000000000E+00  0.67919080442E+03  0.67919080443E+03  0.25500000920E-02 0. -1.
        2   -1    0    0  501    0  0.00000000000E+00  0.00000000000E+00 -0.61819010835E+03  0.61819010836E+03  0.25500000920E-02 0.  1.
    10030    2    1    2    0    0  0.00000000000E+00  0.00000000000E+00  0.61000696072E+02  0.12973809128E+04  0.12959460436E+04 0.  0.
        5    1    3    3  502    0 -0.45098465017E+03 -0.17410123955E+03  0.46242740852E+03  0.66899894951E+03  0.46999998093E+01 0. -1.
       -5    1    3    3    0  502  0.45098465017E+03  0.17410123955E+03 -0.40142671244E+03  0.62838196327E+03  0.46999998093E+01 0.  1.
</event>
<event>
 5   0  0.6006119E-04  0.1308606E+04  0.7818609E-02  0.9022768E-01
       -1   -1    0    0    0  501  0.00000000000E+00  0.00000000000E+00  0.67283178951E+03  0.67283178953E+03  0.50400001928E-02 0. -1.
        1   -1    0    0  501    0  0.00000000000E+00  0.00000000000E+00 -0.63628485549E+03  0.63628485551E+03  0.50400001928E-02 0.  1.
    10030    2    1    2    0    0  0.00000000000E+00  0.00000000000E+00  0.36546934020E+02  0.13091166450E+04  0.13086064007E+04 0.  0.
        4    1    3    3  502    0 -0.30095201253E+03 -0.28613680677E+03 -0.48755663545E+03  0.64043693811E+03  0.12699999809E+01 0.  1.
       -4    1    3    3    0  502  0.30095201253E+03  0.28613680677E+03  0.52410356946E+03  0.66867970693E+03  0.12699999809E+01 0. -1.
</event>
<event>
 5   0  0.1101619E-03  0.1306288E+04  0.7818609E-02  0.9024594E-01
        2   -1    0    0  501    0  0.00000000000E+00  0.00000000000E+00  0.43070467239E+03  0.43070467240E+03  0.25500000920E-02 0.  1.
       -2   -1    0    0    0  501  0.00000000000E+00  0.00000000000E+00 -0.99046235782E+03  0.99046235782E+03  0.25500000920E-02 0. -1.
    10030    2    1    2    0    0  0.00000000000E+00  0.00000000000E+00 -0.55975768543E+03  0.14211670302E+04  0.13062875110E+04 0.  0.
        1    1    3    3  502    0 -0.61932810138E+03  0.20014301346E+03 -0.33919164677E+03  0.73394515889E+03  0.50400001928E-02 0. -1.
       -1    1    3    3    0  502  0.61932810138E+03 -0.20014301346E+03 -0.22056603866E+03  0.68722187133E+03  0.50400001928E-02 0.  1.
</event>
<event>
 5   0  0.4012375E-04  0.1297771E+04  0.7818609E-02  0.9031335E-01
        4   -1    0    0  501    0  0.00000000000E+00  0.00000000000E+00  0.10390353138E+04  0.10390360899E+04  0.12699999809E+01 0.  1.
       -4   -1    0    0    0  501  0.00000000000E+00  0.00000000000E+00 -0.40523180909E+03  0.40523379918E+03  0.12699999809E+01 0. -1.
    10030    2    1    2    0    0  0.00000000000E+00  0.00000000000E+00  0.63380350468E+03  0.14442698891E+04  0.12977706384E+04 0.  0.
        2    1    3    3  502    0 -0.35911152903E+02 -0.22730418658E+03  0.99209887104E+03  0.10184384979E+04  0.25500000920E-02 0.  1.
       -2    1    3    3    0  502  0.35911152903E+02  0.22730418658E+03 -0.35829536636E+03  0.42583139117E+03  0.25500000920E-02 0. -1.
</event>
<event>
 5   0  0.1031295E-03  0.1299804E+04  0.7818609E-02  0.9029721E-01
        2   -1    0    0  501    0  0.00000000000E+00  0.00000000000E+00  0.19696586216E+04  0.19696586216E+04  0.25500000920E-02 0.  1.
       -2   -1    0    0    0  501  0.00000000000E+00  0.00000000000E+00 -0.21443935197E+03  0.21443935198E+03  0.25500000920E-02 0. -1.
    10030    2    1    2    0    0  0.00000000000E+00  0.00000000000E+00  0.17552192696E+04  0.21840979736E+04  0.12998035520E+04 0.  0.
        2    1    3    3  502    0 -0.50028599202E+02  0.35051078773E+02 -0.20960480936E+03  0.21832456338E+03  0.25500000920E-02 0. -1.
       -2    1    3    3    0  502  0.50028599202E+02 -0.35051078773E+02  0.19648240790E+04  0.19657734102E+04  0.25500000920E-02 0.  1.
</event>
<event>
 5   0  0.5710383E-04  0.1294947E+04  0.7818609E-02  0.9033582E-01
       -1   -1    0    0    0  501  0.00000000000E+00  0.00000000000E+00  0.33848363134E+03  0.33848363138E+03  0.50400001928E-02 0. -1.
        1   -1    0    0  501    0  0.00000000000E+00  0.00000000000E+00 -0.12385284824E+04  0.12385284824E+04  0.50400001928E-02 0.  1.
    10030    2    1    2    0    0  0.00000000000E+00  0.00000000000E+00 -0.90004485109E+03  0.15770121138E+04  0.12949465136E+04 0.  0.
        1    1    3    3  502    0  0.33046323437E+03  0.55427529287E+03 -0.51440088716E+03  0.82524864271E+03  0.50400001928E-02 0. -1.
       -1    1    3    3    0  502 -0.33046323437E+03 -0.55427529287E+03 -0.38564396393E+03  0.75176347111E+03  0.50400001928E-02 0.  1.
</event>
<event>
 5   0  0.6006119E-04  0.1303275E+04  0.7818609E-02  0.9026972E-01
        1   -1    0    0  501    0  0.00000000000E+00  0.00000000000E+00  0.17188919001E+04  0.17188919001E+04  0.50400001928E-02 0.  1.
       -1   -1    0    0    0  501  0.00000000000E+00  0.00000000000E+00 -0.24703803250E+03  0.24703803255E+03  0.50400001928E-02 0. -1.
    10030    2    1    2    0    0  0.00000000000E+00  0.00000000000E+00  0.14718538676E+04  0.19659299327E+04  0.13032753710E+04 0.  0.
        4    1    3    3  502    0  0.10239262130E+03 -0.70477986333E+02 -0.22898646588E+03  0.26055289273E+03  0.12699999809E+01 0. -1.
       -4    1    3    3    0  502 -0.10239262130E+03  0.70477986333E+02  0.17008403335E+04  0.17053770400E+04  0.12699999809E+01 0.  1.
</event>
<event>
 5   0  0.1031295E-03  0.1324058E+04  0.7818609E-02  0.9010701E-01
       -2   -1    0    0    0  501  0.00000000000E+00  0.00000000000E+00  0.50207832138E+03  0.50207832138E+03  0.25500000920E-02 0. -1.
        2   -1    0    0  501    0  0.00000000000E+00  0.00000000000E+00 -0.87293665504E+03  0.87293665504E+03  0.25500000920E-02 0.  1.
    10030    2    1    2    0    0  0.00000000000E+00  0.00000000000E+00 -0.37085833366E+03  0.13750149764E+04  0.13240582622E+04 0.  0.
        2    1    3    3  502    0 -0.90519191386E+02 -0.34100153158E+03  0.39631429260E+03  0.53060417175E+03  0.25500000920E-02 0. -1.
       -2    1    3    3    0  502  0.90519191386E+02  0.34100153158E+03 -0.76717262626E+03  0.84441080467E+03  0.25500000920E-02 0.  1.
</event>
<event>
 5   0  0.1081574E-03  0.1311154E+04  0.7818609E-02  0.9020766E-01
       -2   -1    0    0    0  501  0.00000000000E+00  0.00000000000E+00  0.80129805199E+03  0.80129805199E+03  0.25500000920E-02 0.  1.
        2   -1    0    0  501    0  0.00000000000E+00  0.00000000000E+00 -0.53635652749E+03  0.53635652749E+03  0.25500000920E-02 0. -1.
    10030    2    1    2    0    0  0.00000000000E+00  0.00000000000E+00  0.26494152450E+03  0.13376545795E+04  0.13111543626E+04 0.  0.
        5    1    3    3  502    0  0.50483728820E+02  0.55098234114E+03  0.49118671590E+03  0.73987608895E+03  0.46999998093E+01 0.  1.
       -5    1    3    3    0  502 -0.50483728820E+02 -0.55098234114E+03 -0.22624519140E+03  0.59777849054E+03  0.46999998093E+01 0. -1.
</event>
<event>
 5   0  0.6006119E-04  0.1300886E+04  0.7818609E-02  0.9028863E-01
        1   -1    0    0  501    0  0.00000000000E+00  0.00000000000E+00  0.78346180864E+03  0.78346180866E+03  0.50400001928E-02 0. -1.
       -1   -1    0    0    0  501  0.00000000000E+00  0.00000000000E+00 -0.54000856783E+03  0.54000856785E+03  0.50400001928E-02 0.  1.
    10030    2    1    2    0    0  0.00000000000E+00  0.00000000000E+00  0.24345324081E+03  0.13234703765E+04  0.13008859893E+04 0.  0.
        4    1    3    3  502    0 -0.12774321197E+03 -0.62550975552E+03  0.24836124709E+03  0.68502971061E+03  0.12699999809E+01 0.  1.
       -4    1    3    3    0  502  0.12774321197E+03  0.62550975552E+03 -0.49080062785E+01  0.63844066591E+03  0.12699999809E+01 0. -1.
</event>
<event>
 5   0  0.5563545E-04  0.1288143E+04  0.7818609E-02  0.9039021E-01
       -1   -1    0    0    0  501  0.00000000000E+00  0.00000000000E+00  0.23861787281E+04  0.23861787281E+04  0.50400001928E-02 0.  1.
        1   -1    0    0  501    0  0.00000000000E+00  0.00000000000E+00 -0.17384616038E+03  0.17384616045E+03  0.50400001928E-02 0. -1.
    10030    2    1    2    0    0  0.00000000000E+00  0.00000000000E+00  0.22123325677E+04  0.25600248885E+04  0.12881428647E+04 0.  0.
        2    1    3    3  502    0  0.16739033755E+03 -0.37349113251E+03  0.11783281127E+03  0.42591046311E+03  0.25500000920E-02 0. -1.
       -2    1    3    3    0  502 -0.16739033755E+03  0.37349113251E+03  0.20944997564E+04  0.21341144254E+04  0.25500000920E-02 0.  1.
</event>
<event>
 5   0  0.1103241E-03  0.1301011E+04  0.7818609E-02  0.9028764E-01
        2   -1    0    0  501    0  0.00000000000E+00  0.00000000000E+00  0.64117856859E+03  0.64117856859E+03  0.25500000920E-02 0.  1.
       -2   -1    0    0    0  501  0.00000000000E+00  0.00000000000E+00 -0.65996775932E+03  0.65996775932E+03  0.25500000920E-02 0. -1.
    10030    2    1    2    0    0  0.00000000000E+00  0.00000000000E+00 -0.18789190730E+02  0.13011463279E+04  0.13010106583E+04 0.  0.
        4    1    3    3  502    0 -0.49618796304E+03 -0.31867811961E+03  0.26521978420E+03  0.64660759771E+03  0.12699999809E+01 0.  1.
       -4    1    3    3    0  502  0.49618796304E+03  0.31867811961E+03 -0.28400897493E+03  0.65453873020E+03  0.12699999809E+01 0. -1.
</event>
<event>
 5   0  0.5812938E-04  0.1305996E+04  0.7818609E-02  0.9024824E-01
        1   -1    0    0  501    0  0.00000000000E+00  0.00000000000E+00  0.14370930431E+04  0.14370930431E+04  0.50400001928E-02 0.  1.
       -1   -1    0    0    0  501  0.00000000000E+00  0.00000000000E+00 -0.29671453011E+03  0.29671453015E+03  0.50400001928E-02 0. -1.
    10030    2    1    2    0    0  0.00000000000E+00  0.00000000000E+00  0.11403785130E+04  0.17338075732E+04  0.13059959985E+04 0.  0.
        5    1    3    3  502    0  0.27021606397E+03 -0.41718581118E+03  0.11323723011E+04  0.12366688484E+04  0.46999998093E+01 0.  1.
       -5    1    3    3    0  502 -0.27021606397E+03  0.41718581118E+03  0.80062118218E+01  0.49713872480E+03  0.46999998093E+01 0. -1.
</event>
<event>
 5   0  0.1103241E-03  0.1317355E+04  0.7818609E-02  0.9015915E-01
       -2   -1    0    0    0  501  0.00000000000E+00  0.00000000000E+00  0.23514087685E+03  0.23514087687E+03  0.25500000920E-02 0.  1.
        2   -1    0    0  501    0  0.00000000000E+00  0.00000000000E+00 -0.18450895814E+04  0.18450895814E+04  0.25500000920E-02 0. -1.
    10030    2    1    2    0    0  0.00000000000E+00  0.00000000000E+00 -0.16099487046E+04  0.20802304583E+04  0.13173548984E+04 0.  0.
        4    1    3    3  502    0 -0.12137516575E+03 -0.63544268696E+03 -0.10005212695E+04  0.11914544737E+04  0.12699999809E+01 0. -1.
       -4    1    3    3    0  502  0.12137516575E+03  0.63544268696E+03 -0.60942743506E+03  0.88877598458E+03  0.12699999809E+01 0.  1.
</event>
<event>
 5   0  0.1103241E-03  0.1302887E+04  0.7818609E-02  0.9027279E-01
       -2   -1    0    0    0  501  0.00000000000E+00  0.00000000000E+00  0.56633671680E+03  0.56633671680E+03  0.25500000920E-02 0.  1.
        2   -1    0    0  501    0  0.00000000000E+00  0.00000000000E+00 -0.74934017515E+03  0.74934017516E+03  0.25500000920E-02 0. -1.
    10030    2    1    2    0    0  0.00000000000E+00  0.00000000000E+00 -0.18300345835E+03  0.13156768920E+04  0.13028873391E+04 0.  0.
        4    1    3    3  502    0  0.27077427534E+02  0.45123032574E+03 -0.56518550667E+03  0.72372526818E+03  0.12699999809E+01 0. -1.
       -4    1    3    3    0  502 -0.27077427534E+02 -0.45123032574E+03  0.38218204832E+03  0.59195162379E+03  0.12699999809E+01 0.  1.
</event>
<event>
 5   0  0.1081574E-03  0.1320949E+04  0.7818609E-02  0.9013116E-01
       -2   -1    0    0    0  501  0.00000000000E+00  0.00000000000E+00  0.46668575612E+03  0.46668575612E+03  0.25500000920E-02 0.  1.
        2   -1    0    0  501    0  0.00000000000E+00  0.00000000000E+00 -0.93473251665E+03  0.93473251666E+03  0.25500000920E-02 0. -1.
    10030    2    1    2    0    0  0.00000000000E+00  0.00000000000E+00 -0.46804676054E+03  0.14014182728E+04  0.13209486762E+04 0.  0.
        5    1    3    3  502    0  0.71400190993E+02  0.49452011968E+03 -0.69225661908E+03  0.85375022852E+03  0.46999998093E+01 0. -1.
       -5    1    3    3    0  502 -0.71400190993E+02 -0.49452011968E+03  0.22420985854E+03  0.54766804426E+03  0.46999998093E+01 0.  1.
</event>
<event>
 5   0  0.5563545E-04  0.1294828E+04  0.7818609E-02  0.9033677E-01
        1   -1    0    0  501    0  0.00000000000E+00  0.00000000000E+00  0.10836851160E+04  0.10836851160E+04  0.50400001928E-02 0.  1.
       -1   -1    0    0    0  501  0.00000000000E+00  0.00000000000E+00 -0.38677749013E+03  0.38677749016E+03  0.50400001928E-02 0. -1.
    10030    2    1    2    0    0  0.00000000000E+00  0.00000000000E+00  0.69690762588E+03  0.14704626062E+04  0.12948281883E+04 0.  0.
        2    1    3    3  502    0  0.42853374031E+03  0.22031001629E+03 -0.14259505426E+03  0.50250474562E+03  0.25500000920E-02 0. -1.
       -2    1    3    3    0  502 -0.42853374031E+03 -0.22031001629E+03  0.83950268015E+03  0.96795786057E+03  0.25500000920E-02 0.  1.
</event>
<event>
 5   0  0.5710383E-04  0.1301530E+04  0.7818609E-02  0.9028352E-01
        1   -1    0    0  501    0  0.00000000000E+00  0.00000000000E+00  0.52953665693E+03  0.52953665695E+03  0.50400001928E-02 0.  1.
       -1   -1    0    0    0  501  0.00000000000E+00  0.00000000000E+00 -0.79974704142E+03  0.79974704143E+03  0.50400001928E-02 0. -1.
    10030    2    1    2    0    0  0.00000000000E+00  0.00000000000E+00 -0.27021038449E+03  0.13292836984E+04  0.13015304449E+04 0.  0.
        1    1    3    3  502    0  0.59607091949E+03  0.11461513635E+03 -0.37475350096E+03  0.71335640254E+03  0.50400001928E-02 0. -1.
       -1    1    3    3    0  502 -0.59607091949E+03 -0.11461513635E+03  0.10454311647E+03  0.61592729585E+03  0.50400001928E-02 0.  1.
</event>
<event>
 5   0  0.5812938E-04  0.1314981E+04  0.7818609E-02  0.9017769E-01
        1   -1    0    0  501    0  0.00000000000E+00  0.00000000000E+00  0.12171002630E+04  0.12171002630E+04  0.50400001928E-02 0. -1.
       -1   -1    0    0    0  501  0.00000000000E+00  0.00000000000E+00 -0.35518328344E+03  0.35518328348E+03  0.50400001928E-02 0.  1.
    10030    2    1    2    0    0  0.00000000000E+00  0.00000000000E+00  0.86191697955E+03  0.15722835465E+04  0.13149808633E+04 0.  0.
        5    1    3    3  502    0 -0.59691598209E+03 -0.52726949909E+02  0.10750203684E+03  0.60882476859E+03  0.46999998093E+01 0.  1.
       -5    1    3    3    0  502  0.59691598209E+03  0.52726949909E+02  0.75441494271E+03  0.96345877789E+03  0.46999998093E+01 0. -1.
</event>
<event>
 5   0  0.1101619E-03  0.1305772E+04  0.7818609E-02  0.9025001E-01
        2   -1    0    0  501    0  0.00000000000E+00  0.00000000000E+00  0.16091255493E+04  0.16091255493E+04  0.25500000920E-02 0.  1.
       -2   -1    0    0    0  501  0.00000000000E+00  0.00000000000E+00 -0.26490160473E+03  0.26490160474E+03  0.25500000920E-02 0. -1.
    10030    2    1    2    0    0  0.00000000000E+00  0.00000000000E+00  0.13442239446E+04  0.18740271541E+04  0.13057717109E+04 0.  0.
        1    1    3    3  502    0 -0.33277575549E+03 -0.44079843753E+03  0.17243384014E+03  0.57859864779E+03  0.50400001928E-02 0. -1.
       -1    1    3    3    0  502  0.33277575549E+03  0.44079843753E+03  0.11717901045E+04  0.12954285063E+04  0.50400001928E-02 0.  1.
</event>
<event>
 5   0  0.4012375E-04  0.1300775E+04  0.7818609E-02  0.9028951E-01
        4   -1    0    0  501    0  0.00000000000E+00  0.00000000000E+00  0.50339912815E+03  0.50340073016E+03  0.12699999809E+01 0. -1.
       -4   -1    0    0    0  501  0.00000000000E+00  0.00000000000E+00 -0.84029228780E+03  0.84029324753E+03  0.12699999809E+01 0.  1.
    10030    2    1    2    0    0  0.00000000000E+00  0.00000000000E+00 -0.33689315965E+03  0.13436939777E+04  0.13007753475E+04 0.  0.
        2    1    3    3  502    0 -0.25966461223E+02  0.75051298954E+02 -0.83526616880E+03  0.83903309072E+03  0.25500000920E-02 0.  1.
       -2    1    3    3    0  502  0.25966461223E+02 -0.75051298954E+02  0.49837300915E+03  0.50466088697E+03  0.25500000920E-02 0. -1.
</event>
<event>
 5   0  0.1103241E-03  0.1302415E+04  0.7818609E-02  0.9027652E-01
        2   -1    0    0  501    0  0.00000000000E+00  0.00000000000E+00  0.10872594469E+04  0.10872594469E+04  0.25500000920E-02 0. -1.
       -2   -1    0    0    0  501  0.00000000000E+00  0.00000000000E+00 -0.39003677189E+03  0.39003677190E+03  0.25500000920E-02 0.  1.
    10030    2    1    2    0    0  0.00000000000E+00  0.00000000000E+00  0.69722267502E+03  0.14772962188E+04  0.13024149337E+04 0.  0.
        4    1    3    3  502    0 -0.47020324682E+03  0.42678763650E+03  0.51231971402E+03  0.81591168779E+03  0.12699999809E+01 0.  1.
       -4    1    3    3    0  502  0.47020324682E+03 -0.42678763650E+03  0.18490296100E+03  0.66138453102E+03  0.12699999809E+01 0. -1.
</event>
<event>
 5   0  0.5812938E-04  0.1205040E+04  0.7818609E-02  0.9108457E-01
       -1   -1    0    0    0  501  0.00000000000E+00  0.00000000000E+00  0.46152425449E+03  0.46152425452E+03  0.50400001928E-02 0.  1.
        1   -1    0    0  501    0  0.00000000000E+00  0.00000000000E+00 -0.78658935188E+03  0.78658935190E+03  0.50400001928E-02 0. -1.
    10030    2    1    2    0    0  0.00000000000E+00  0.00000000000E+00 -0.32506509739E+03  0.12481136064E+04  0.12050395251E+04 0.  0.
        5    1    3    3  502    0  0.82476123856E+02  0.47737353926E+03 -0.53355508019E+03  0.72068781077E+03  0.46999998093E+01 0. -1.
       -5    1    3    3    0  502 -0.82476123856E+02 -0.47737353926E+03  0.20848998280E+03  0.52742579565E+03  0.46999998093E+01 0.  1.
</event>
<event>
 5   0  0.5710383E-04  0.1297989E+04  0.7818609E-02  0.9031162E-01
        1   -1    0    0  501    0  0.00000000000E+00  0.00000000000E+00  0.17392518980E+04  0.17392518980E+04  0.50400001928E-02 0. -1.
       -1   -1    0    0    0  501  0.00000000000E+00  0.00000000000E+00 -0.24216949629E+03  0.24216949634E+03  0.50400001928E-02 0.  1.
    10030    2    1    2    0    0  0.00000000000E+00  0.00000000000E+00  0.14970824017E+04  0.19814213943E+04  0.12979888383E+04 0.  0.
        1    1    3    3  502    0 -0.44290963113E+03 -0.27538753106E+03  0.15892326586E+03  0.54521907347E+03  0.50400001928E-02 0. -1.
       -1    1    3    3    0  502  0.44290963113E+03  0.27538753106E+03  0.13381591358E+04  0.14362023208E+04  0.50400001928E-02 0.  1.
</event>
<event>
 5   0  0.5563545E-04  0.1301142E+04  0.7818609E-02  0.9028660E-01
       -1   -1    0    0    0  501  0.00000000000E+00  0.00000000000E+00  0.72561842172E+03  0.72561842174E+03  0.50400001928E-02 0. -1.
        1   -1    0    0  501    0  0.00000000000E+00  0.00000000000E+00 -0.58328525215E+03  0.58328525217E+03  0.50400001928E-02 0.  1.
    10030    2    1    2    0    0  0.00000000000E+00  0.00000000000E+00  0.14233316957E+03  0.13089036739E+04  0.13011418433E+04 0.  0.
        2    1    3    3  502    0 -0.27839407260E+03 -0.72116449532E+02  0.65820448524E+03  0.71828767660E+03  0.25500000920E-02 0. -1.
       -2    1    3    3    0  502  0.27839407260E+03  0.72116449532E+02 -0.51587131567E+03  0.59061599732E+03  0.25500000920E-02 0.  1.
</event>
<event>
 5   0  0.5563545E-04  0.1348475E+04  0.7818609E-02  0.8991983E-01
       -1   -1    0    0    0  501  0.00000000000E+00  0.00000000000E+00  0.80502485790E+03  0.80502485792E+03  0.50400001928E-02 0.  1.
        1   -1    0    0  501    0  0.00000000000E+00  0.00000000000E+00 -0.56469827226E+03  0.56469827228E+03  0.50400001928E-02 0. -1.
    10030    2    1    2    0    0  0.00000000000E+00  0.00000000000E+00  0.24032658564E+03  0.13697231302E+04  0.13484749110E+04 0.  0.
        2    1    3    3  502    0  0.36306706921E+03 -0.53254075048E+03 -0.80891984512E+02  0.64958514517E+03  0.25500000920E-02 0.  1.
       -2    1    3    3    0  502 -0.36306706921E+03  0.53254075048E+03  0.32121857016E+03  0.72013798503E+03  0.25500000920E-02 0. -1.
</event>
<event>
 5   0  0.5766027E-04  0.1267968E+04  0.7818609E-02  0.9055359E-01
       -1   -1    0    0    0  501  0.00000000000E+00  0.00000000000E+00  0.62350606995E+03  0.62350606997E+03  0.50400001928E-02 0. -1.
        1   -1    0    0  501    0  0.00000000000E+00  0.00000000000E+00 -0.64463843503E+03  0.64463843505E+03  0.50400001928E-02 0.  1.
    10030    2    1    2    0    0  0.00000000000E+00  0.00000000000E+00 -0.21132365089E+02  0.12681445050E+04  0.12679684179E+04 0.  0.
        3    1    3    3  502    0 -0.16913969739E+03  0.63484745457E+02  0.59721666945E+03  0.62394415664E+03  0.10100000352E+00 0. -1.
       -3    1    3    3    0  502  0.16913969739E+03 -0.63484745457E+02 -0.61834903454E+03  0.64420034838E+03  0.10100000352E+00 0.  1.
</event>
<event>
 5   0  0.1101619E-03  0.1300414E+04  0.7818609E-02  0.9029237E-01
       -2   -1    0    0    0  501  0.00000000000E+00  0.00000000000E+00  0.41851189119E+03  0.41851189120E+03  0.25500000920E-02 0.  1.
        2   -1    0    0  501    0  0.00000000000E+00  0.00000000000E+00 -0.10101722752E+04  0.10101722752E+04  0.25500000920E-02 0. -1.
    10030    2    1    2    0    0  0.00000000000E+00  0.00000000000E+00 -0.59166038403E+03  0.14286841664E+04  0.13004139485E+04 0.  0.
        1    1    3    3  502    0  0.34416346307E+03 -0.48997960238E+03 -0.57428802433E+03  0.82965971035E+03  0.50400001928E-02 0. -1.
       -1    1    3    3    0  502 -0.34416346307E+03  0.48997960238E+03 -0.17372359698E+02  0.59902445607E+03  0.50400001928E-02 0.  1.
</event>
<event>
 5   0  0.5563545E-04  0.1314426E+04  0.7818609E-02  0.9018203E-01
        1   -1    0    0  501    0  0.00000000000E+00  0.00000000000E+00  0.75029472162E+03  0.75029472163E+03  0.50400001928E-02 0.  1.
       -1   -1    0    0    0  501  0.00000000000E+00  0.00000000000E+00 -0.57567914110E+03  0.57567914112E+03  0.50400001928E-02 0. -1.
    10030    2    1    2    0    0  0.00000000000E+00  0.00000000000E+00  0.17461558052E+03  0.13259738628E+04  0.13144261424E+04 0.  0.
        2    1    3    3  502    0  0.18370431616E+03 -0.25808331397E+03 -0.49357632377E+03  0.58649114241E+03  0.25500000920E-02 0. -1.
       -2    1    3    3    0  502 -0.18370431616E+03  0.25808331397E+03  0.66819190429E+03  0.73948272035E+03  0.25500000920E-02 0.  1.
</event>
<event>
 5   0  0.5710383E-04  0.1260941E+04  0.7818609E-02  0.9061126E-01
        1   -1    0    0  501    0  0.00000000000E+00  0.00000000000E+00  0.86100157890E+03  0.86100157892E+03  0.50400001928E-02 0.  1.
       -1   -1    0    0    0  501  0.00000000000E+00  0.00000000000E+00 -0.46166373782E+03  0.46166373785E+03  0.50400001928E-02 0. -1.
    10030    2    1    2    0    0  0.00000000000E+00  0.00000000000E+00  0.39933784108E+03  0.13226653168E+04  0.12609412472E+04 0.  0.
        1    1    3    3  502    0 -0.54044180582E+03  0.18898786988E+03  0.47659877636E+03  0.74494305427E+03  0.50400001928E-02 0. -1.
       -1    1    3    3    0  502  0.54044180582E+03 -0.18898786988E+03 -0.77260935284E+02  0.57772226250E+03  0.50400001928E-02 0.  1.
</event>
<event>
 5   0  0.1103241E-03  0.1299337E+04  0.7818609E-02  0.9030091E-01
        2   -1    0    0  501    0  0.00000000000E+00  0.00000000000E+00  0.12215740915E+04  0.12215740915E+04  0.25500000920E-02 0. -1.
       -2   -1    0    0    0  501  0.00000000000E+00  0.00000000000E+00 -0.34551254866E+03  0.34551254867E+03  0.25500000920E-02 0.  1.
    10030    2    1    2    0    0  0.00000000000E+00  0.00000000000E+00  0.87606154281E+03  0.15670866401E+04  0.12993370275E+04 0.  0.
        4    1    3    3  502    0  0.38955205983E+03  0.35574978700E+03  0.89531737966E+03  0.10391840749E+04  0.12699999809E+01 0. -1.
       -4    1    3    3    0  502 -0.38955205983E+03 -0.35574978700E+03 -0.19255836849E+02  0.52790256527E+03  0.12699999809E+01 0.  1.
</event>
<event>
 5   0  0.5812938E-04  0.1364554E+04  0.7818609E-02  0.8979884E-01
       -1   -1    0    0    0  501  0.00000000000E+00  0.00000000000E+00  0.43861350254E+03  0.43861350257E+03  0.50400001928E-02 0. -1.
        1   -1    0    0  501    0  0.00000000000E+00  0.00000000000E+00 -0.10613026140E+04  0.10613026140E+04  0.50400001928E-02 0.  1.
    10030    2    1    2    0    0  0.00000000000E+00  0.00000000000E+00 -0.62268911148E+03  0.14999161166E+04  0.13645536366E+04 0.  0.
        5    1    3    3  502    0  0.16058448289E+03 -0.25812318178E+03 -0.98272453895E+03  0.10286809819E+04  0.46999998093E+01 0.  1.
       -5    1    3    3    0  502 -0.16058448289E+03  0.25812318178E+03  0.36003542747E+03  0.47123513468E+03  0.46999998093E+01 0. -1.
</event>
<event>
 5   0  0.5812938E-04  0.1282513E+04  0.7818609E-02  0.9043549E-01
       -1   -1    0    0    0  501  0.00000000000E+00  0.00000000000E+00  0.34563801490E+03  0.34563801493E+03  0.50400001928E-02 0.  1.
        1   -1    0    0  501    0  0.00000000000E+00  0.00000000000E+00 -0.11897127793E+04  0.11897127793E+04  0.50400001928E-02 0. -1.
    10030    2    1    2    0    0  0.00000000000E+00  0.00000000000E+00 -0.84407476442E+03  0.15353507943E+04  0.12825131007E+04 0.  0.
        5    1    3    3  502    0 -0.37474610022E+03  0.39222918289E+03 -0.12710080235E+02  0.54264353648E+03  0.46999998093E+01 0.  1.
       -5    1    3    3    0  502  0.37474610022E+03 -0.39222918289E+03 -0.83136468418E+03  0.99270725778E+03  0.46999998093E+01 0. -1.
</event>
<event>
 5   0  0.5563545E-04  0.1365888E+04  0.7818609E-02  0.8978888E-01
       -1   -1    0    0    0  501  0.00000000000E+00  0.00000000000E+00  0.76136875455E+03  0.76136875457E+03  0.50400001928E-02 0.  1.
        1   -1    0    0  501    0  0.00000000000E+00  0.00000000000E+00 -0.61259698447E+03  0.61259698449E+03  0.50400001928E-02 0. -1.
    10030    2    1    2    0    0  0.00000000000E+00  0.00000000000E+00  0.14877177009E+03  0.13739657391E+04  0.13658875549E+04 0.  0.
        2    1    3    3  502    0 -0.20625185997E+03 -0.45042340750E+03 -0.39849131415E+03  0.63578015322E+03  0.25500000920E-02 0. -1.
       -2    1    3    3    0  502  0.20625185997E+03  0.45042340750E+03  0.54726308424E+03  0.73818558584E+03  0.25500000920E-02 0.  1.
</event>
<event>
 5   0  0.1101619E-03  0.1289223E+04  0.7818609E-02  0.9038155E-01
        2   -1    0    0  501    0  0.00000000000E+00  0.00000000000E+00  0.16718977692E+04  0.16718977692E+04  0.25500000920E-02 0. -1.
       -2   -1    0    0    0  501  0.00000000000E+00  0.00000000000E+00 -0.24853448673E+03  0.24853448675E+03  0.25500000920E-02 0.  1.
    10030    2    1    2    0    0  0.00000000000E+00  0.00000000000E+00  0.14233632824E+04  0.19204322559E+04  0.12892234158E+04 0.  0.
        1    1    3    3  502    0 -0.63565935102E+03 -0.77167426585E+02  0.60114307673E+03  0.87828846115E+03  0.50400001928E-02 0.  1.
       -1    1    3    3    0  502  0.63565935102E+03  0.77167426585E+02  0.82222020570E+03  0.10421437948E+04  0.50400001928E-02 0. -1.
</event>
<event>
 5   0  0.5563545E-04  0.1297495E+04  0.7818609E-02  0.9031554E-01
        1   -1    0    0  501    0  0.00000000000E+00  0.00000000000E+00  0.61169904731E+03  0.61169904733E+03  0.50400001928E-02 0. -1.
       -1   -1    0    0    0  501  0.00000000000E+00  0.00000000000E+00 -0.68803955772E+03  0.68803955774E+03  0.50400001928E-02 0.  1.
    10030    2    1    2    0    0  0.00000000000E+00  0.00000000000E+00 -0.76340510413E+02  0.12997386051E+04  0.12974947275E+04 0.  0.
        2    1    3    3  502    0  0.78228197400E+02  0.31226344988E+03 -0.60238941484E+03  0.68300887265E+03  0.25500000920E-02 0.  1.
       -2    1    3    3    0  502 -0.78228197400E+02 -0.31226344988E+03  0.52604890443E+03  0.61672973242E+03  0.25500000920E-02 0. -1.
</event>
<event>
 5   0  0.1101619E-03  0.1301550E+04  0.7818609E-02  0.9028337E-01
        2   -1    0    0  501    0  0.00000000000E+00  0.00000000000E+00  0.11403079712E+04  0.11403079712E+04  0.25500000920E-02 0. -1.
       -2   -1    0    0    0  501  0.00000000000E+00  0.00000000000E+00 -0.37139815466E+03  0.37139815467E+03  0.25500000920E-02 0.  1.
    10030    2    1    2    0    0  0.00000000000E+00  0.00000000000E+00  0.76890981652E+03  0.15117061259E+04  0.13015502699E+04 0.  0.
        1    1    3    3  502    0 -0.76476555832E+00  0.28510387703E+03 -0.29500106674E+03  0.41025654775E+03  0.50400001928E-02 0.  1.
       -1    1    3    3    0  502  0.76476555832E+00 -0.28510387703E+03  0.10639108833E+04  0.11014495781E+04  0.50400001928E-02 0. -1.
</event>
<event>
 5   0  0.1046253E-03  0.1294458E+04  0.7818609E-02  0.9033972E-01
        2   -1    0    0  501    0  0.00000000000E+00  0.00000000000E+00  0.19750077143E+04  0.19750077143E+04  0.25500000920E-02 0.  1.
       -2   -1    0    0    0  501  0.00000000000E+00  0.00000000000E+00 -0.21210312823E+03  0.21210312825E+03  0.25500000920E-02 0. -1.
    10030    2    1    2    0    0  0.00000000000E+00  0.00000000000E+00  0.17629045861E+04  0.21871108426E+04  0.12944579012E+04 0.  0.
        3    1    3    3  502    0  0.17592978116E+03  0.17723943256E+03  0.18903267225E+04  0.19067512246E+04  0.10100000352E+00 0.  1.
       -3    1    3    3    0  502 -0.17592978116E+03 -0.17723943256E+03 -0.12742213643E+03  0.28035961800E+03  0.10100000352E+00 0. -1.
</event>
<event>
 5   0  0.1046253E-03  0.1303279E+04  0.7818609E-02  0.9026969E-01
        2   -1    0    0  501    0  0.00000000000E+00  0.00000000000E+00  0.85431027643E+03  0.85431027644E+03  0.25500000920E-02 0.  1.
       -2   -1    0    0    0  501  0.00000000000E+00  0.00000000000E+00 -0.49704866358E+03  0.49704866359E+03  0.25500000920E-02 0. -1.
    10030    2    1    2    0    0  0.00000000000E+00  0.00000000000E+00  0.35726161285E+03  0.13513589400E+04  0.13032786060E+04 0.  0.
        3    1    3    3  502    0 -0.52940641261E+03 -0.29282322983E+03  0.42967252756E+03  0.74204789925E+03  0.10100000352E+00 0.  1.
       -3    1    3    3    0  502  0.52940641261E+03  0.29282322983E+03 -0.72410914706E+02  0.60931104078E+03  0.10100000352E+00 0. -1.
</event>
<event>
 5   0  0.5710383E-04  0.1221528E+04  0.7818609E-02  0.9094219E-01
        1   -1    0    0  501    0  0.00000000000E+00  0.00000000000E+00  0.11344192031E+04  0.11344192031E+04  0.50400001928E-02 0.  1.
       -1   -1    0    0    0  501  0.00000000000E+00  0.00000000000E+00 -0.32883156645E+03  0.32883156649E+03  0.50400001928E-02 0. -1.
    10030    2    1    2    0    0  0.00000000000E+00  0.00000000000E+00  0.80558763666E+03  0.14632507696E+04  0.12215282946E+04 0.  0.
        1    1    3    3  502    0 -0.51381698840E+03  0.11323151912E+03  0.31249330731E+02  0.52707285567E+03  0.50400001928E-02 0. -1.
       -1    1    3    3    0  502  0.51381698840E+03 -0.11323151912E+03  0.77433830593E+03  0.93617791394E+03  0.50400001928E-02 0.  1.
</event>
<event>
 5   0  0.5812938E-04  0.1302330E+04  0.7818609E-02  0.9027719E-01
       -1   -1    0    0    0  501  0.00000000000E+00  0.00000000000E+00  0.43233109655E+03  0.43233109658E+03  0.50400001928E-02 0.  1.
        1   -1    0    0  501    0  0.00000000000E+00  0.00000000000E+00 -0.98076660407E+03  0.98076660408E+03  0.50400001928E-02 0. -1.
    10030    2    1    2    0    0  0.00000000000E+00  0.00000000000E+00 -0.54843550752E+03  0.14130977007E+04  0.13023300679E+04 0.  0.
        5    1    3    3  502    0  0.28690531860E+03  0.24890849061E+03  0.29965520929E+03  0.48382376232E+03  0.46999998093E+01 0.  1.
       -5    1    3    3    0  502 -0.28690531860E+03 -0.24890849061E+03 -0.84809071681E+03  0.92927393834E+03  0.46999998093E+01 0. -1.
</event>
<event>
 5   0  0.1046253E-03  0.1300582E+04  0.7818609E-02  0.9029103E-01
        2   -1    0    0  501    0  0.00000000000E+00  0.00000000000E+00  0.82604807465E+03  0.82604807466E+03  0.25500000920E-02 0. -1.
       -2   -1    0    0    0  501  0.00000000000E+00  0.00000000000E+00 -0.51192983099E+03  0.51192983100E+03  0.25500000920E-02 0.  1.
    10030    2    1    2    0    0  0.00000000000E+00  0.00000000000E+00  0.31411824366E+03  0.13379779057E+04  0.13005824099E+04 0.  0.
        3    1    3    3  502    0 -0.38790642050E+03  0.25838375607E+03  0.62357908487E+03  0.77851425276E+03  0.10100000352E+00 0. -1.
       -3    1    3    3    0  502  0.38790642050E+03 -0.25838375607E+03 -0.30946084121E+03  0.55946365289E+03  0.10100000352E+00 0.  1.
</event>
<event>
 5   0  0.5812938E-04  0.1306512E+04  0.7818609E-02  0.9024417E-01
        1   -1    0    0  501    0  0.00000000000E+00  0.00000000000E+00  0.23371728650E+03  0.23371728655E+03  0.50400001928E-02 0.  1.
       -1   -1    0    0    0  501  0.00000000000E+00  0.00000000000E+00 -0.18258949056E+04  0.18258949057E+04  0.50400001928E-02 0. -1.
    10030    2    1    2    0    0  0.00000000000E+00  0.00000000000E+00 -0.15921776192E+04  0.20596121922E+04  0.13065116958E+04 0.  0.
        5    1    3    3  502    0 -0.17205125651E+03 -0.21362574740E+03 -0.17306863516E+04  0.17522941911E+04  0.46999998093E+01 0. -1.
       -5    1    3    3    0  502  0.17205125651E+03  0.21362574740E+03  0.13850873242E+03  0.30731800106E+03  0.46999998093E+01 0.  1.
</event>
<event>
 5   0  0.1031295E-03  0.1291015E+04  0.7818609E-02  0.9036721E-01
        2   -1    0    0  501    0  0.00000000000E+00  0.00000000000E+00  0.97800378782E+03  0.97800378783E+03  0.25500000920E-02 0.  1.
       -2   -1    0    0    0  501  0.00000000000E+00  0.00000000000E+00 -0.42605148054E+03  0.42605148055E+03  0.25500000920E-02 0. -1.
    10030    2    1    2    0    0  0.00000000000E+00  0.00000000000E+00  0.55195230728E+03  0.14040552684E+04  0.12910150453E+04 0.  0.
        2    1    3    3  502    0  0.29783608135E+03 -0.56440226478E+03  0.38155184818E+03  0.74353080682E+03  0.25500000920E-02 0. -1.
       -2    1    3    3    0  502 -0.29783608135E+03  0.56440226478E+03  0.17040045910E+03  0.66052446155E+03  0.25500000920E-02 0.  1.
</event>
<event>
 5   0  0.5710383E-04  0.1297156E+04  0.7818609E-02  0.9031824E-01
       -1   -1    0    0    0  501  0.00000000000E+00  0.00000000000E+00  0.27503868203E+03  0.27503868208E+03  0.50400001928E-02 0.  1.
        1   -1    0    0  501    0  0.00000000000E+00  0.00000000000E+00 -0.15294327996E+04  0.15294327996E+04  0.50400001928E-02 0. -1.
    10030    2    1    2    0    0  0.00000000000E+00  0.00000000000E+00 -0.12543941175E+04  0.18044714816E+04  0.12971556291E+04 0.  0.
        1    1    3    3  502    0 -0.30292725892E+03 -0.15087820047E+03  0.14247664013E+03  0.36719034381E+03  0.50400001928E-02 0.  1.
       -1    1    3    3    0  502  0.30292725892E+03  0.15087820047E+03 -0.13968707577E+04  0.14372811378E+04  0.50400001928E-02 0. -1.
</event>
<event>
 5   0  0.5710383E-04  0.1289424E+04  0.7818609E-02  0.9037994E-01
       -1   -1    0    0    0  501  0.00000000000E+00  0.00000000000E+00  0.41070614330E+03  0.41070614333E+03  0.50400001928E-02 0.  1.
        1   -1    0    0  501    0  0.00000000000E+00  0.00000000000E+00 -0.10120467470E+04  0.10120467470E+04  0.50400001928E-02 0. -1.
    10030    2    1    2    0    0  0.00000000000E+00  0.00000000000E+00 -0.60134060372E+03  0.14227528904E+04  0.12894243930E+04 0.  0.
        1    1    3    3  502    0 -0.99558338716E+01 -0.47510209489E+03 -0.78142009253E+03  0.91457010679E+03  0.50400001928E-02 0. -1.
       -1    1    3    3    0  502  0.99558338716E+01  0.47510209489E+03  0.18007948881E+03  0.50818278357E+03  0.50400001928E-02 0.  1.
</event>
<event>
 5   0  0.6006119E-04  0.1297792E+04  0.7818609E-02  0.9031318E-01
       -1   -1    0    0    0  501  0.00000000000E+00  0.00000000000E+00  0.40935381249E+03  0.40935381252E+03  0.50400001928E-02 0.  1.
        1   -1    0    0  501    0  0.00000000000E+00  0.00000000000E+00 -0.10286112142E+04  0.10286112142E+04  0.50400001928E-02 0. -1.
    10030    2    1    2    0    0  0.00000000000E+00  0.00000000000E+00 -0.61925740167E+03  0.14379650267E+04  0.12977918510E+04 0.  0.
        4    1    3    3  502    0 -0.27617813636E+03 -0.56270975306E+03 -0.49552236312E+03  0.79903732981E+03  0.12699999809E+01 0. -1.
       -4    1    3    3    0  502  0.27617813636E+03  0.56270975306E+03 -0.12373503856E+03  0.63892769689E+03  0.12699999809E+01 0.  1.
</event>
<event>
 5   0  0.1103241E-03  0.1302320E+04  0.7818609E-02  0.9027728E-01
        2   -1    0    0  501    0  0.00000000000E+00  0.00000000000E+00  0.35158801506E+03  0.35158801507E+03  0.25500000920E-02 0. -1.
       -2   -1    0    0    0  501  0.00000000000E+00  0.00000000000E+00 -0.12059827389E+04  0.12059827389E+04  0.25500000920E-02 0.  1.
    10030    2    1    2    0    0  0.00000000000E+00  0.00000000000E+00 -0.85439472384E+03  0.15575707540E+04  0.13023195881E+04 0.  0.
        4    1    3    3  502    0 -0.49269699176E+03  0.15077255202E+03 -0.90338573341E+03  0.10399952329E+04  0.12699999809E+01 0.  1.
       -4    1    3    3    0  502  0.49269699176E+03 -0.15077255202E+03  0.48991009569E+02  0.51757552111E+03  0.12699999809E+01 0. -1.
</event>
<event>
 5   0  0.5766027E-04  0.1290180E+04  0.7818609E-02  0.9037389E-01
       -1   -1    0    0    0  501  0.00000000000E+00  0.00000000000E+00  0.84550753060E+03  0.84550753062E+03  0.50400001928E-02 0. -1.
        1   -1    0    0  501    0  0.00000000000E+00  0.00000000000E+00 -0.49217935022E+03  0.49217935024E+03  0.50400001928E-02 0.  1.
    10030    2    1    2    0    0  0.00000000000E+00  0.00000000000E+00  0.35332818038E+03  0.13376868809E+04  0.12901803704E+04 0.  0.
        3    1    3    3  502    0 -0.12741037125E+03  0.19083291716E+03 -0.44843765123E+03  0.50373300688E+03  0.10100000352E+00 0.  1.
       -3    1    3    3    0  502  0.12741037125E+03 -0.19083291716E+03  0.80176583162E+03  0.83395387398E+03  0.10100000352E+00 0. -1.
</event>
<event>
 5   0  0.5812938E-04  0.1297694E+04  0.7818609E-02  0.9031396E-01
       -1   -1    0    0    0  501  0.00000000000E+00  0.00000000000E+00  0.80755497263E+03  0.80755497265E+03  0.50400001928E-02 0.  1.
        1   -1    0    0  501    0  0.00000000000E+00  0.00000000000E+00 -0.52132971858E+03  0.52132971860E+03  0.50400001928E-02 0. -1.
    10030    2    1    2    0    0  0.00000000000E+00  0.00000000000E+00  0.28622525406E+03  0.13288846913E+04  0.12976939649E+04 0.  0.
        5    1    3    3  502    0 -0.52660295287E+03 -0.81891493353E+01  0.53117018076E+03  0.74802512195E+03  0.46999998093E+01 0.  1.
       -5    1    3    3    0  502  0.52660295287E+03  0.81891493353E+01 -0.24494492670E+03  0.58085956931E+03  0.46999998093E+01 0. -1.
</event>
<event>
 5   0  0.6006119E-04  0.1299982E+04  0.7818609E-02  0.9029580E-01
       -1   -1    0    0    0  501  0.00000000000E+00  0.00000000000E+00  0.48053231699E+03  0.48053231701E+03  0.50400001928E-02 0. -1.
        1   -1    0    0  501    0  0.00000000000E+00  0.00000000000E+00 -0.87920878579E+03  0.87920878580E+03  0.50400001928E-02 0.  1.
    10030    2    1    2    0    0  0.00000000000E+00  0.00000000000E+00 -0.39867646880E+03  0.13597411028E+04  0.12999818998E+04 0.  0.
        4    1    3    3  502    0 -0.39170658404E+03 -0.23616952800E+03 -0.68238641589E+03  0.82150041231E+03  0.12699999809E+01 0.  1.
       -4    1    3    3    0  502  0.39170658404E+03  0.23616952800E+03  0.28370994709E+03  0.53824069050E+03  0.12699999809E+01 0. -1.
</event>
<event>
 5   0  0.1031295E-03  0.1297395E+04  0.7818609E-02  0.9031634E-01
       -2   -1    0    0    0  501  0.00000000000E+00  0.00000000000E+00  0.83372031642E+03  0.83372031642E+03  0.25500000920E-02 0. -1.
        2   -1    0    0  501    0  0.00000000000E+00  0.00000000000E+00 -0.50473568556E+03  0.50473568557E+03  0.25500000920E-02 0.  1.
    10030    2    1    2    0    0  0.00000000000E+00  0.00000000000E+00  0.32898463086E+03  0.13384560020E+04  0.12973949213E+04 0.  0.
        2    1    3    3  502    0 -0.49035716190E+03 -0.27155602934E+03  0.50134671736E+03  0.75202483623E+03  0.25500000920E-02 0. -1.
       -2    1    3    3    0  502  0.49035716190E+03  0.27155602934E+03 -0.17236208650E+03  0.58643116575E+03  0.25500000920E-02 0.  1.
</event>
<event>
 5   0  0.4012375E-04  0.1294581E+04  0.7818609E-02  0.9033874E-01
        3   -1    0    0  501    0  0.00000000000E+00  0.00000000000E+00  0.22961029956E+04  0.22961029978E+04  0.10100000352E+00 0. -1.
       -3   -1    0    0    0  501  0.00000000000E+00  0.00000000000E+00 -0.18247641641E+03  0.18247644436E+03  0.10100000352E+00 0.  1.
    10030    2    1    2    0    0  0.00000000000E+00  0.00000000000E+00  0.21136265792E+04  0.24785794422E+04  0.12945805247E+04 0.  0.
        3    1    3    3  502    0  0.11891446135E+03 -0.10630527847E+03 -0.14426132216E+03  0.21506464289E+03  0.10100000352E+00 0.  1.
       -3    1    3    3    0  502 -0.11891446135E+03  0.10630527847E+03  0.22578879014E+04  0.22635147993E+04  0.10100000352E+00 0. -1.
</event>
<event>
 5   0  0.1103241E-03  0.1311070E+04  0.7818609E-02  0.9020832E-01
       -2   -1    0    0    0  501  0.00000000000E+00  0.00000000000E+00  0.74814547024E+03  0.74814547025E+03  0.25500000920E-02 0. -1.
        2   -1    0    0  501    0  0.00000000000E+00  0.00000000000E+00 -0.57438861216E+03  0.57438861216E+03  0.25500000920E-02 0.  1.
    10030    2    1    2    0    0  0.00000000000E+00  0.00000000000E+00  0.17375685809E+03  0.13225340824E+04  0.13110701558E+04 0.  0.
        4    1    3    3  502    0  0.39822543355E+03  0.25077034723E+03  0.54721877297E+03  0.72174736672E+03  0.12699999809E+01 0. -1.
       -4    1    3    3    0  502 -0.39822543355E+03 -0.25077034723E+03 -0.37346191489E+03  0.60078671569E+03  0.12699999809E+01 0.  1.
</event>
<event>
 5   0  0.1103241E-03  0.1351666E+04  0.7818609E-02  0.8989568E-01
       -2   -1    0    0    0  501  0.00000000000E+00  0.00000000000E+00  0.94428177535E+03  0.94428177536E+03  0.25500000920E-02 0.  1.
        2   -1    0    0  501    0  0.00000000000E+00  0.00000000000E+00 -0.48370145718E+03  0.48370145719E+03  0.25500000920E-02 0. -1.
    10030    2    1    2    0    0  0.00000000000E+00  0.00000000000E+00  0.46058031817E+03  0.14279832325E+04  0.13516663357E+04 0.  0.
        4    1    3    3  502    0  0.26548683055E+03  0.39400399749E+02  0.88556298702E+03  0.92534267468E+03  0.12699999809E+01 0.  1.
       -4    1    3    3    0  502 -0.26548683055E+03 -0.39400399749E+02 -0.42498266885E+03  0.50264055787E+03  0.12699999809E+01 0. -1.
</event>
<event>
 5   0  0.6006119E-04  0.1303240E+04  0.7818609E-02  0.9027000E-01
        1   -1    0    0  501    0  0.00000000000E+00  0.00000000000E+00  0.11912032824E+04  0.11912032824E+04  0.50400001928E-02 0.  1.
       -1   -1    0    0    0  501  0.00000000000E+00  0.00000000000E+00 -0.35645368539E+03  0.35645368542E+03  0.50400001928E-02 0. -1.
    10030    2    1    2    0    0  0.00000000000E+00  0.00000000000E+00  0.83474959702E+03  0.15476569678E+04  0.13032402696E+04 0.  0.
        4    1    3    3  502    0 -0.32645560618E+03 -0.46625986472E+03  0.40648297266E+02  0.57063597961E+03  0.12699999809E+01 0. -1.
       -4    1    3    3    0  502  0.32645560618E+03  0.46625986472E+03  0.79410129975E+03  0.97702098822E+03  0.12699999809E+01 0.  1.
</event>
<event>
 5   0  0.1031295E-03  0.1283034E+04  0.7818609E-02  0.9043129E-01
        2   -1    0    0  501    0  0.00000000000E+00  0.00000000000E+00  0.15571268208E+04  0.15571268208E+04  0.25500000920E-02 0.  1.
       -2   -1    0    0    0  501  0.00000000000E+00  0.00000000000E+00 -0.26429698770E+03  0.26429698771E+03  0.25500000920E-02 0. -1.
    10030    2    1    2    0    0  0.00000000000E+00  0.00000000000E+00  0.12928298331E+04  0.18214238085E+04  0.12830337926E+04 0.  0.
        2    1    3    3  502    0 -0.59461224669E+03 -0.58192315505E+02  0.31471542192E+03  0.67527465990E+03  0.25500000920E-02 0. -1.
       -2    1    3    3    0  502  0.59461224669E+03  0.58192315505E+02  0.97811441114E+03  0.11461491486E+04  0.25500000920E-02 0.  1.
</event>
<event>
 5   0  0.1103241E-03  0.1305784E+04  0.7818609E-02  0.9024991E-01
        2   -1    0    0  501    0  0.00000000000E+00  0.00000000000E+00  0.15023161995E+04  0.15023161995E+04  0.25500000920E-02 0. -1.
       -2   -1    0    0    0  501  0.00000000000E+00  0.00000000000E+00 -0.28374035172E+03  0.28374035173E+03  0.25500000920E-02 0.  1.
    10030    2    1    2    0    0  0.00000000000E+00  0.00000000000E+00  0.12185758478E+04  0.17860565513E+04  0.13057836373E+04 0.  0.
        4    1    3    3  502    0  0.59960186634E+03 -0.48163888097E+02  0.95646231090E+03  0.11298955365E+04  0.12699999809E+01 0. -1.
       -4    1    3    3    0  502 -0.59960186634E+03  0.48163888097E+02  0.26211353692E+03  0.65616101482E+03  0.12699999809E+01 0.  1.
</event>
<event>
 5   0  0.1081574E-03  0.1301370E+04  0.7818609E-02  0.9028480E-01
        2   -1    0    0  501    0  0.00000000000E+00  0.00000000000E+00  0.10982114571E+04  0.10982114571E+04  0.25500000920E-02 0.  1.
       -2   -1    0    0    0  501  0.00000000000E+00  0.00000000000E+00 -0.38552753971E+03  0.38552753972E+03  0.25500000920E-02 0. -1.
    10030    2    1    2    0    0  0.00000000000E+00  0.00000000000E+00  0.71268391736E+03  0.14837389968E+04  0.13013696802E+04 0.  0.
        5    1    3    3  502    0  0.10169672306E+03 -0.59265392434E+03  0.72936572080E+02  0.60574147213E+03  0.46999998093E+01 0. -1.
       -5    1    3    3    0  502 -0.10169672306E+03  0.59265392434E+03  0.63974734528E+03  0.87799752466E+03  0.46999998093E+01 0.  1.
</event>
<event>
 5   0  0.4012375E-04  0.1312489E+04  0.7818609E-02  0.9019720E-01
        4   -1    0    0  501    0  0.00000000000E+00  0.00000000000E+00  0.97950207949E+03  0.97950290281E+03  0.12699999809E+01 0. -1.
       -4   -1    0    0    0  501  0.00000000000E+00  0.00000000000E+00 -0.43966708846E+03  0.43966892268E+03  0.12699999809E+01 0.  1.
    10030    2    1    2    0    0  0.00000000000E+00  0.00000000000E+00  0.53983499103E+03  0.14191718255E+04  0.13124888010E+04 0.  0.
        5    1    3    3  502    0 -0.36104460391E+03 -0.23949898393E+03 -0.26301535183E+03  0.50686500630E+03  0.46999998093E+01 0.  1.
       -5    1    3    3    0  502  0.36104460391E+03  0.23949898393E+03  0.80285034286E+03  0.91230681919E+03  0.46999998093E+01 0. -1.
</event>
<event>
 5   0  0.1081574E-03  0.1295769E+04  0.7818609E-02  0.9032927E-01
       -2   -1    0    0    0  501  0.00000000000E+00  0.00000000000E+00  0.20805732488E+03  0.20805732490E+03  0.25500000920E-02 0.  1.
        2   -1    0    0  501    0  0.00000000000E+00  0.00000000000E+00 -0.20174938247E+04  0.20174938247E+04  0.25500000920E-02 0. -1.
    10030    2    1    2    0    0  0.00000000000E+00  0.00000000000E+00 -0.18094364998E+04  0.22255511496E+04  0.12957690661E+04 0.  0.
        5    1    3    3  502    0 -0.35900806195E+03  0.49797994168E+03 -0.12603032965E+04  0.14018763498E+04  0.46999998093E+01 0. -1.
       -5    1    3    3    0  502  0.35900806195E+03 -0.49797994168E+03 -0.54913320325E+03  0.82367479977E+03  0.46999998093E+01 0.  1.
</event>
<event>
 5   0  0.5812938E-04  0.1283982E+04  0.7818609E-02  0.9042365E-01
       -1   -1    0    0    0  501  0.00000000000E+00  0.00000000000E+00  0.32510479882E+03  0.32510479886E+03  0.50400001928E-02 0. -1.
        1   -1    0    0  501    0  0.00000000000E+00  0.00000000000E+00 -0.12677529874E+04  0.12677529874E+04  0.50400001928E-02 0.  1.
    10030    2    1    2    0    0  0.00000000000E+00  0.00000000000E+00 -0.94264818857E+03  0.15928577863E+04  0.12839822116E+04 0.  0.
        5    1    3    3  502    0 -0.44011670191E+03 -0.42839999000E+03 -0.70308402099E+03  0.93358368308E+03  0.46999998093E+01 0.  1.
       -5    1    3    3    0  502  0.44011670191E+03  0.42839999000E+03 -0.23956416757E+03  0.65927410318E+03  0.46999998093E+01 0. -1.
</event>
<event>
 5   0  0.5563545E-04  0.1306523E+04  0.7818609E-02  0.9024408E-01
        1   -1    0    0  501    0  0.00000000000E+00  0.00000000000E+00  0.92817755104E+03  0.92817755105E+03  0.50400001928E-02 0.  1.
       -1   -1    0    0    0  501  0.00000000000E+00  0.00000000000E+00 -0.45977293071E+03  0.45977293074E+03  0.50400001928E-02 0. -1.
    10030    2    1    2    0    0  0.00000000000E+00  0.00000000000E+00  0.46840462033E+03  0.13879504818E+04  0.13065234983E+04 0.  0.
        2    1    3    3  502    0 -0.14771844230E+03  0.63445858706E+03  0.28616367406E+03  0.71151112798E+03  0.25500000920E-02 0. -1.
       -2    1    3    3    0  502  0.14771844230E+03 -0.63445858706E+03  0.18224094627E+03  0.67643935381E+03  0.25500000920E-02 0.  1.
</event>
<event>
 5   0  0.1101619E-03  0.1309703E+04  0.7818609E-02  0.9021906E-01
       -2   -1    0    0    0  501  0.00000000000E+00  0.00000000000E+00  0.70218639451E+03  0.70218639452E+03  0.25500000920E-02 0. -1.
        2   -1    0    0  501    0  0.00000000000E+00  0.00000000000E+00 -0.61070711517E+03  0.61070711517E+03  0.25500000920E-02 0.  1.
    10030    2    1    2    0    0  0.00000000000E+00  0.00000000000E+00  0.91479279347E+02  0.13128935097E+04  0.13097026034E+04 0.  0.
        1    1    3    3  502    0  0.61232386014E+03 -0.18474097129E+03  0.18665413762E+03  0.66626534000E+03  0.50400001928E-02 0. -1.
       -1    1    3    3    0  502 -0.61232386014E+03  0.18474097129E+03 -0.95174858272E+02  0.64662816969E+03  0.50400001928E-02 0.  1.
</event>
<event>
 5   0  0.6006119E-04  0.1309328E+04  0.7818609E-02  0.9022200E-01
        1   -1    0    0  501    0  0.00000000000E+00  0.00000000000E+00  0.59609748359E+03  0.59609748361E+03  0.50400001928E-02 0. -1.
       -1   -1    0    0    0  501  0.00000000000E+00  0.00000000000E+00 -0.71898477323E+03  0.71898477325E+03  0.50400001928E-02 0.  1.
    10030    2    1    2    0    0  0.00000000000E+00  0.00000000000E+00 -0.12288728964E+03  0.13150822569E+04  0.13093280935E+04 0.  0.
        4    1    3    3  502    0  0.48851082925E+03 -0.18114414682E+03  0.33669134887E+03  0.62033757707E+03  0.12699999809E+01 0. -1.
       -4    1    3    3    0  502 -0.48851082925E+03  0.18114414682E+03 -0.45957863850E+03  0.69474467979E+03  0.12699999809E+01 0.  1.
</event>
<event>
 5   0  0.1046253E-03  0.1303660E+04  0.7818609E-02  0.9026668E-01
       -2   -1    0    0    0  501  0.00000000000E+00  0.00000000000E+00  0.75871795756E+03  0.75871795757E+03  0.25500000920E-02 0. -1.
        2   -1    0    0  501    0  0.00000000000E+00  0.00000000000E+00 -0.56000031965E+03  0.56000031966E+03  0.25500000920E-02 0.  1.
    10030    2    1    2    0    0  0.00000000000E+00  0.00000000000E+00  0.19871763791E+03  0.13187182772E+04  0.13036599231E+04 0.  0.
        3    1    3    3  502    0  0.41114381595E+03 -0.33683950023E+03  0.48105302163E+03  0.71687663243E+03  0.10100000352E+00 0. -1.
       -3    1    3    3    0  502 -0.41114381595E+03  0.33683950023E+03 -0.28233538372E+03  0.60184164479E+03  0.10100000352E+00 0.  1.
</event>
<event>
 5   0  0.5812938E-04  0.1301181E+04  0.7818609E-02  0.9028629E-01
        1   -1    0    0  501    0  0.00000000000E+00  0.00000000000E+00  0.81982556194E+03  0.81982556195E+03  0.50400001928E-02 0.  1.
       -1   -1    0    0    0  501  0.00000000000E+00  0.00000000000E+00 -0.51629062429E+03  0.51629062432E+03  0.50400001928E-02 0. -1.
    10030    2    1    2    0    0  0.00000000000E+00  0.00000000000E+00  0.30353493765E+03  0.13361161863E+04  0.13011813881E+04 0.  0.
        5    1    3    3  502    0  0.18228373421E+03  0.16917213823E+03 -0.46553812140E+03  0.52782042835E+03  0.46999998093E+01 0. -1.
       -5    1    3    3    0  502 -0.18228373421E+03 -0.16917213823E+03  0.76907305905E+03  0.80829575792E+03  0.46999998093E+01 0.  1.
</event>
<event>
 5   0  0.5766027E-04  0.1296486E+04  0.7818609E-02  0.9032357E-01
        1   -1    0    0  501    0  0.00000000000E+00  0.00000000000E+00  0.94944802695E+03  0.94944802696E+03  0.50400001928E-02 0. -1.
       -1   -1    0    0    0  501  0.00000000000E+00  0.00000000000E+00 -0.44259284169E+03  0.44259284172E+03  0.50400001928E-02 0.  1.
    10030    2    1    2    0    0  0.00000000000E+00  0.00000000000E+00  0.50685518525E+03  0.13920408687E+04  0.12964858662E+04 0.  0.
        3    1    3    3  502    0 -0.21523700227E+02  0.26519774431E+03 -0.38126242661E+03  0.46492382323E+03  0.10100000352E+00 0.  1.
       -3    1    3    3    0  502  0.21523700227E+02 -0.26519774431E+03  0.88811761187E+03  0.92711704545E+03  0.10100000352E+00 0. -1.
</event>
<event>
 5   0  0.5812938E-04  0.1299138E+04  0.7818609E-02  0.9030249E-01
        1   -1    0    0  501    0  0.00000000000E+00  0.00000000000E+00  0.81908314510E+03  0.81908314512E+03  0.50400001928E-02 0.  1.
       -1   -1    0    0    0  501  0.00000000000E+00  0.00000000000E+00 -0.51513649453E+03  0.51513649456E+03  0.50400001928E-02 0. -1.
    10030    2    1    2    0    0  0.00000000000E+00  0.00000000000E+00  0.30394665057E+03  0.13342196397E+04  0.12991375911E+04 0.  0.
        5    1    3    3  502    0 -0.48633611832E+03 -0.47897354260E+02  0.59143095446E+03  0.76722202811E+03  0.46999998093E+01 0.  1.
       -5    1    3    3    0  502  0.48633611832E+03  0.47897354260E+02 -0.28748430389E+03  0.56699761156E+03  0.46999998093E+01 0. -1.
</event>
<event>
 5   0  0.1031295E-03  0.1302148E+04  0.7818609E-02  0.9027864E-01
       -2   -1    0    0    0  501  0.00000000000E+00  0.00000000000E+00  0.26107336302E+03  0.26107336303E+03  0.25500000920E-02 0. -1.
        2   -1    0    0  501    0  0.00000000000E+00  0.00000000000E+00 -0.16236701819E+04  0.16236701819E+04  0.25500000920E-02 0.  1.
    10030    2    1    2    0    0  0.00000000000E+00  0.00000000000E+00 -0.13625968189E+04  0.18847435449E+04  0.13021475106E+04 0.  0.
        2    1    3    3  502    0  0.60793873731E+03 -0.22989243231E+03 -0.73654700825E+03  0.98231437642E+03  0.25500000920E-02 0. -1.
       -2    1    3    3    0  502 -0.60793873731E+03  0.22989243231E+03 -0.62604981060E+03  0.90242916848E+03  0.25500000920E-02 0.  1.
</event>
<event>
 5   0  0.1081574E-03  0.1297234E+04  0.7818609E-02  0.9031762E-01
        2   -1    0    0  501    0  0.00000000000E+00  0.00000000000E+00  0.14929610206E+04  0.14929610206E+04  0.25500000920E-02 0.  1.
       -2   -1    0    0    0  501  0.00000000000E+00  0.00000000000E+00 -0.28179157000E+03  0.28179157001E+03  0.25500000920E-02 0. -1.
    10030    2    1    2    0    0  0.00000000000E+00  0.00000000000E+00  0.12111694506E+04  0.17747525906E+04  0.12972337183E+04 0.  0.
        5    1    3    3  502    0  0.28841143855E+03 -0.42857621364E+03  0.69009959602E+02  0.52119400736E+03  0.46999998093E+01 0. -1.
       -5    1    3    3    0  502 -0.28841143855E+03  0.42857621364E+03  0.11421594910E+04  0.12535585833E+04  0.46999998093E+01 0.  1.
</event>
<event>
 5   0  0.6006119E-04  0.1290347E+04  0.7818609E-02  0.9037255E-01
        1   -1    0    0  501    0  0.00000000000E+00  0.00000000000E+00  0.47290767505E+03  0.47290767507E+03  0.50400001928E-02 0.  1.
       -1   -1    0    0    0  501  0.00000000000E+00  0.00000000000E+00 -0.88019106282E+03  0.88019106284E+03  0.50400001928E-02 0. -1.
    10030    2    1    2    0    0  0.00000000000E+00  0.00000000000E+00 -0.40728338778E+03  0.13530987379E+04  0.12903474093E+04 0.  0.
        4    1    3    3  502    0  0.10936403061E+03 -0.41610530949E+03  0.30051270547E+03  0.52479864598E+03  0.12699999809E+01 0.  1.
       -4    1    3    3    0  502 -0.10936403061E+03  0.41610530949E+03 -0.70779609325E+03  0.82830009193E+03  0.12699999809E+01 0. -1.
</event>
<event>
 5   0  0.1103241E-03  0.1303194E+04  0.7818609E-02  0.9027036E-01
       -2   -1    0    0    0  501  0.00000000000E+00  0.00000000000E+00  0.27181498118E+03  0.27181498120E+03  0.25500000920E-02 0.  1.
        2   -1    0    0  501    0  0.00000000000E+00  0.00000000000E+00 -0.15620143491E+04  0.15620143491E+04  0.25500000920E-02 0. -1.
    10030    2    1    2    0    0  0.00000000000E+00  0.00000000000E+00 -0.12901993679E+04  0.18338293303E+04  0.13031943845E+04 0.  0.
        4    1    3    3  502    0  0.35612692915E+03  0.33927328696E+03 -0.43714041097E+02  0.49380692907E+03  0.12699999809E+01 0.  1.
       -4    1    3    3    0  502 -0.35612692915E+03 -0.33927328696E+03 -0.12464853268E+04  0.13400224012E+04  0.12699999809E+01 0. -1.
</event>
<event>
 5   0  0.5812938E-04  0.1303000E+04  0.7818609E-02  0.9027189E-01
        1   -1    0    0  501    0  0.00000000000E+00  0.00000000000E+00  0.10590374382E+04  0.10590374382E+04  0.50400001928E-02 0. -1.
       -1   -1    0    0    0  501  0.00000000000E+00  0.00000000000E+00 -0.40079080011E+03  0.40079080014E+03  0.50400001928E-02 0.  1.
    10030    2    1    2    0    0  0.00000000000E+00  0.00000000000E+00  0.65824663812E+03  0.14598282384E+04  0.13030003258E+04 0.  0.
        5    1    3    3  502    0 -0.50365919365E+03 -0.41128633128E+03  0.37395648050E+03  0.75012970142E+03  0.46999998093E+01 0.  1.
       -5    1    3    3    0  502  0.50365919365E+03  0.41128633128E+03  0.28429015763E+03  0.70969853696E+03  0.46999998093E+01 0. -1.
</event>
<event>
 5   0  0.1031295E-03  0.1295991E+04  0.7818609E-02  0.9032750E-01
       -2   -1    0    0    0  501  0.00000000000E+00  0.00000000000E+00  0.34346633628E+03  0.34346633629E+03  0.25500000920E-02 0.  1.
        2   -1    0    0  501    0  0.00000000000E+00  0.00000000000E+00 -0.12225315400E+04  0.12225315400E+04  0.25500000920E-02 0. -1.
    10030    2    1    2    0    0  0.00000000000E+00  0.00000000000E+00 -0.87906520371E+03  0.15659978763E+04  0.12959914028E+04 0.  0.
        2    1    3    3  502    0 -0.95775976827E+02  0.44237156977E+03 -0.99985939368E+03  0.10975356261E+04  0.25500000920E-02 0. -1.
       -2    1    3    3    0  502  0.95775976827E+02 -0.44237156977E+03  0.12079418997E+03  0.46846225015E+03  0.25500000920E-02 0.  1.
</event>
<event>
 5   0  0.1046253E-03  0.1295049E+04  0.7818609E-02  0.9033500E-01
        2   -1    0    0  501    0  0.00000000000E+00  0.00000000000E+00  0.14677913368E+04  0.14677913368E+04  0.25500000920E-02 0.  1.
       -2   -1    0    0    0  501  0.00000000000E+00  0.00000000000E+00 -0.28565918688E+03  0.28565918689E+03  0.25500000920E-02 0. -1.
    10030    2    1    2    0    0  0.00000000000E+00  0.00000000000E+00  0.11821321499E+04  0.17534505237E+04  0.12950491570E+04 0.  0.
        3    1    3    3  502    0 -0.20584062523E+03  0.10316778684E+03 -0.22836112547E+03  0.32428809578E+03  0.10100000352E+00 0. -1.
       -3    1    3    3    0  502  0.20584062523E+03 -0.10316778684E+03  0.14104932754E+04  0.14291624279E+04  0.10100000352E+00 0.  1.
</event>
<event>
 5   0  0.5563545E-04  0.1418549E+04  0.7818609E-02  0.8940500E-01
       -1   -1    0    0    0  501  0.00000000000E+00  0.00000000000E+00  0.38518854031E+03  0.38518854034E+03  0.50400001928E-02 0.  1.
        1   -1    0    0  501    0  0.00000000000E+00  0.00000000000E+00 -0.13060358427E+04  0.13060358427E+04  0.50400001928E-02 0. -1.
    10030    2    1    2    0    0  0.00000000000E+00  0.00000000000E+00 -0.92084730243E+03  0.16912243831E+04  0.14185486102E+04 0.  0.
        2    1    3    3  502    0  0.74554995568E+02  0.18131626982E+03 -0.12730921732E+04  0.12880984895E+04  0.25500000920E-02 0. -1.
       -2    1    3    3    0  502 -0.74554995568E+02 -0.18131626982E+03  0.35224487081E+03  0.40312589359E+03  0.25500000920E-02 0.  1.
</event>
<event>
 5   0  0.5812938E-04  0.1269087E+04  0.7818609E-02  0.9054445E-01
       -1   -1    0    0    0  501  0.00000000000E+00  0.00000000000E+00  0.56230574038E+03  0.56230574040E+03  0.50400001928E-02 0. -1.
        1   -1    0    0  501    0  0.00000000000E+00  0.00000000000E+00 -0.71606169478E+03  0.71606169480E+03  0.50400001928E-02 0.  1.
    10030    2    1    2    0    0  0.00000000000E+00  0.00000000000E+00 -0.15375595441E+03  0.12783674352E+04  0.12690872334E+04 0.  0.
        5    1    3    3  502    0  0.51909883427E+03 -0.33656175933E+03 -0.21892723421E+03  0.65626872656E+03  0.46999998093E+01 0.  1.
       -5    1    3    3    0  502 -0.51909883427E+03  0.33656175933E+03  0.65171279807E+02  0.62209870864E+03  0.46999998093E+01 0. -1.
</event>
<event>
 5   0  0.1046253E-03  0.1289232E+04  0.7818609E-02  0.9038148E-01
       -2   -1    0    0    0  501  0.00000000000E+00  0.00000000000E+00  0.68278197407E+03  0.68278197408E+03  0.25500000920E-02 0. -1.
        2   -1    0    0  501    0  0.00000000000E+00  0.00000000000E+00 -0.60858313421E+03  0.60858313421E+03  0.25500000920E-02 0.  1.
    10030    2    1    2    0    0  0.00000000000E+00  0.00000000000E+00  0.74198839866E+02  0.12913651083E+04  0.12892316995E+04 0.  0.
        3    1    3    3  502    0 -0.41075113040E+03  0.31202549929E+03 -0.35013205733E+03  0.62343313283E+03  0.10100000352E+00 0.  1.
       -3    1    3    3    0  502  0.41075113040E+03 -0.31202549929E+03  0.42433089720E+03  0.66793197547E+03  0.10100000352E+00 0. -1.
</event>
<event>
 5   0  0.1046253E-03  0.1299621E+04  0.7818609E-02  0.9029866E-01
        2   -1    0    0  501    0  0.00000000000E+00  0.00000000000E+00  0.45348383869E+03  0.45348383870E+03  0.25500000920E-02 0.  1.
       -2   -1    0    0    0  501  0.00000000000E+00  0.00000000000E+00 -0.93113321980E+03  0.93113321981E+03  0.25500000920E-02 0. -1.
    10030    2    1    2    0    0  0.00000000000E+00  0.00000000000E+00 -0.47764938111E+03  0.13846170585E+04  0.12996212785E+04 0.  0.
        3    1    3    3  502    0  0.16751291820E+03 -0.62462712087E+03 -0.17115508209E+03  0.66896464048E+03  0.10100000352E+00 0. -1.
       -3    1    3    3    0  502 -0.16751291820E+03  0.62462712087E+03 -0.30649429902E+03  0.71565241802E+03  0.10100000352E+00 0.  1.
</event>
<event>
 5   0  0.1031295E-03  0.1310049E+04  0.7818609E-02  0.9021634E-01
       -2   -1    0    0    0  501  0.00000000000E+00  0.00000000000E+00  0.27768902105E+03  0.27768902106E+03  0.25500000920E-02 0.  1.
        2   -1    0    0  501    0  0.00000000000E+00  0.00000000000E+00 -0.15451003023E+04  0.15451003023E+04  0.25500000920E-02 0. -1.
    10030    2    1    2    0    0  0.00000000000E+00  0.00000000000E+00 -0.12674112813E+04  0.18227893234E+04  0.13100494500E+04 0.  0.
        2    1    3    3  502    0  0.52119768218E+03  0.31602078917E+03 -0.29994252005E+03  0.67932442797E+03  0.25500000920E-02 0.  1.
       -2    1    3    3    0  502 -0.52119768218E+03 -0.31602078917E+03 -0.96746876123E+03  0.11434648954E+04  0.25500000920E-02 0. -1.
</event>
<event>
 5   0  0.5710383E-04  0.1290617E+04  0.7818609E-02  0.9037039E-01
        1   -1    0    0  501    0  0.00000000000E+00  0.00000000000E+00  0.36832629224E+03  0.36832629227E+03  0.50400001928E-02 0. -1.
       -1   -1    0    0    0  501  0.00000000000E+00  0.00000000000E+00 -0.11305825705E+04  0.11305825706E+04  0.50400001928E-02 0.  1.
    10030    2    1    2    0    0  0.00000000000E+00  0.00000000000E+00 -0.76225627831E+03  0.14989088628E+04  0.12906173504E+04 0.  0.
        1    1    3    3  502    0  0.27290222273E+03  0.32519470610E+03  0.18330701991E+03  0.46241613685E+03  0.50400001928E-02 0. -1.
       -1    1    3    3    0  502 -0.27290222273E+03 -0.32519470610E+03 -0.94556329822E+03  0.10364927260E+04  0.50400001928E-02 0.  1.
</event>
<event>
 5   0  0.1103241E-03  0.1284971E+04  0.7818609E-02  0.9041569E-01
        2   -1    0    0  501    0  0.00000000000E+00  0.00000000000E+00  0.16938999994E+04  0.16938999994E+04  0.25500000920E-02 0.  1.
       -2   -1    0    0    0  501  0.00000000000E+00  0.00000000000E+00 -0.24369078619E+03  0.24369078620E+03  0.25500000920E-02 0. -1.
    10030    2    1    2    0    0  0.00000000000E+00  0.00000000000E+00  0.14502092132E+04  0.19375907856E+04  0.12849713189E+04 0.  0.
        4    1    3    3  502    0 -0.52920764348E+02 -0.28577997549E+02 -0.23943470950E+03  0.24687628938E+03  0.12699999809E+01 0. -1.
       -4    1    3    3    0  502  0.52920764348E+02  0.28577997549E+02  0.16896439227E+04  0.16907144962E+04  0.12699999809E+01 0.  1.
</event>
<event>
 5   0  0.1046253E-03  0.1296884E+04  0.7818609E-02  0.9032040E-01
       -2   -1    0    0    0  501  0.00000000000E+00  0.00000000000E+00  0.90822199667E+03  0.90822199667E+03  0.25500000920E-02 0.  1.
        2   -1    0    0  501    0  0.00000000000E+00  0.00000000000E+00 -0.46296729916E+03  0.46296729917E+03  0.25500000920E-02 0. -1.
    10030    2    1    2    0    0  0.00000000000E+00  0.00000000000E+00  0.44525469751E+03  0.13711892958E+04  0.12968840886E+04 0.  0.
        3    1    3    3  502    0 -0.25611406819E+03  0.25040202628E+03 -0.34888102432E+03  0.50001356984E+03  0.10100000352E+00 0. -1.
       -3    1    3    3    0  502  0.25611406819E+03 -0.25040202628E+03  0.79413572183E+03  0.87117572600E+03  0.10100000352E+00 0.  1.
</event>
<event>
 5   0  0.5563545E-04  0.1303593E+04  0.7818609E-02  0.9026721E-01
        1   -1    0    0  501    0  0.00000000000E+00  0.00000000000E+00  0.14464815850E+04  0.14464815850E+04  0.50400001928E-02 0.  1.
       -1   -1    0    0    0  501  0.00000000000E+00  0.00000000000E+00 -0.29370479684E+03  0.29370479688E+03  0.50400001928E-02 0. -1.
    10030    2    1    2    0    0  0.00000000000E+00  0.00000000000E+00  0.11527767882E+04  0.17401863819E+04  0.13035928507E+04 0.  0.
        2    1    3    3  502    0  0.29291886219E+02 -0.64813487057E+03  0.49300418821E+03  0.81485578764E+03  0.25500000920E-02 0. -1.
       -2    1    3    3    0  502 -0.29291886219E+02  0.64813487057E+03  0.65977259998E+03  0.92533059429E+03  0.25500000920E-02 0.  1.
</event>
<event>
 5   0  0.5710383E-04  0.1287867E+04  0.7818609E-02  0.9039243E-01
        1   -1    0    0  501    0  0.00000000000E+00  0.00000000000E+00  0.10630556274E+04  0.10630556275E+04  0.50400001928E-02 0. -1.
       -1   -1    0    0    0  501  0.00000000000E+00  0.00000000000E+00 -0.39005489849E+03  0.39005489853E+03  0.50400001928E-02 0.  1.
    10030    2    1    2    0    0  0.00000000000E+00  0.00000000000E+00  0.67300072895E+03  0.14531105260E+04  0.12878665379E+04 0.  0.
        1    1    3    3  502    0 -0.17588111503E+03 -0.26359814795E+03  0.96898929384E+03  0.10194892848E+04  0.50400001928E-02 0. -1.
       -1    1    3    3    0  502  0.17588111503E+03  0.26359814795E+03 -0.29598856489E+03  0.43362124118E+03  0.50400001928E-02 0.  1.
</event>
<event>
 5   0  0.1101619E-03  0.1287348E+04  0.7818609E-02  0.9039659E-01
       -2   -1    0    0    0  501  0.00000000000E+00  0.00000000000E+00  0.32006787685E+03  0.32006787686E+03  0.25500000920E-02 0. -1.
        2   -1    0    0  501    0  0.00000000000E+00  0.00000000000E+00 -0.12944628670E+04  0.12944628670E+04  0.25500000920E-02 0.  1.
    10030    2    1    2    0    0  0.00000000000E+00  0.00000000000E+00 -0.97439499019E+03  0.16145307439E+04  0.12873476322E+04 0.  0.
        1    1    3    3  502    0  0.10686177941E+03 -0.48549273977E+03 -0.10000116086E+04  0.11167568480E+04  0.50400001928E-02 0.  1.
       -1    1    3    3    0  502 -0.10686177941E+03  0.48549273977E+03  0.25616618395E+02  0.49777389589E+03  0.50400001928E-02 0. -1.
</event>
<event>
 5   0  0.5812938E-04  0.1291744E+04  0.7818609E-02  0.9036138E-01
        1   -1    0    0  501    0  0.00000000000E+00  0.00000000000E+00  0.80716458047E+03  0.80716458049E+03  0.50400001928E-02 0. -1.
       -1   -1    0    0    0  501  0.00000000000E+00  0.00000000000E+00 -0.51681015355E+03  0.51681015357E+03  0.50400001928E-02 0.  1.
    10030    2    1    2    0    0  0.00000000000E+00  0.00000000000E+00  0.29035442692E+03  0.13239747341E+04  0.12917443258E+04 0.  0.
        5    1    3    3  502    0  0.30402814224E+02  0.13151325810E+02  0.80627579866E+03  0.80696966609E+03  0.46999998093E+01 0. -1.
       -5    1    3    3    0  502 -0.30402814224E+02 -0.13151325810E+02 -0.51592137174E+03  0.51700506797E+03  0.46999998093E+01 0.  1.
</event>
<event>
 5   0  0.6006119E-04  0.1297298E+04  0.7818609E-02  0.9031710E-01
       -1   -1    0    0    0  501  0.00000000000E+00  0.00000000000E+00  0.37250042725E+03  0.37250042728E+03  0.50400001928E-02 0.  1.
        1   -1    0    0  501    0  0.00000000000E+00  0.00000000000E+00 -0.11295173696E+04  0.11295173696E+04  0.50400001928E-02 0. -1.
    10030    2    1    2    0    0  0.00000000000E+00  0.00000000000E+00 -0.75701694235E+03  0.15020177969E+04  0.12972982738E+04 0.  0.
        4    1    3    3  502    0  0.26266954774E+03  0.58856685125E+03 -0.29391850808E+03  0.70837555858E+03  0.12699999809E+01 0.  1.
       -4    1    3    3    0  502 -0.26266954774E+03 -0.58856685125E+03 -0.46309843427E+03  0.79364223831E+03  0.12699999809E+01 0. -1.
</event>
<event>
 5   0  0.1046253E-03  0.1233703E+04  0.7818609E-02  0.9083857E-01
        2   -1    0    0  501    0  0.00000000000E+00  0.00000000000E+00  0.63459431647E+03  0.63459431647E+03  0.25500000920E-02 0.  1.
       -2   -1    0    0    0  501  0.00000000000E+00  0.00000000000E+00 -0.59960494300E+03  0.59960494301E+03  0.25500000920E-02 0. -1.
    10030    2    1    2    0    0  0.00000000000E+00  0.00000000000E+00  0.34989373464E+02  0.12341992595E+04  0.12337031879E+04 0.  0.
        3    1    3    3  502    0  0.55416495391E+03 -0.23714564795E+03  0.14857799752E+03  0.62081582296E+03  0.10100000352E+00 0.  1.
       -3    1    3    3    0  502 -0.55416495391E+03  0.23714564795E+03 -0.11358862405E+03  0.61338343652E+03  0.10100000352E+00 0. -1.
</event>
<event>
 5   0  0.6006119E-04  0.1296507E+04  0.7818609E-02  0.9032339E-01
       -1   -1    0    0    0  501  0.00000000000E+00  0.00000000000E+00  0.95143039058E+03  0.95143039059E+03  0.50400001928E-02 0. -1.
        1   -1    0    0  501    0  0.00000000000E+00  0.00000000000E+00 -0.44168535611E+03  0.44168535614E+03  0.50400001928E-02 0.  1.
    10030    2    1    2    0    0  0.00000000000E+00  0.00000000000E+00  0.50974503447E+03  0.13931157467E+04  0.12965074175E+04 0.  0.
        4    1    3    3  502    0  0.35912186714E+03  0.51499206975E+03  0.42828564385E+03  0.76001023216E+03  0.12699999809E+01 0. -1.
       -4    1    3    3    0  502 -0.35912186714E+03 -0.51499206975E+03  0.81459390621E+02  0.63310551457E+03  0.12699999809E+01 0.  1.
</event>
<event>
 5   0  0.5710383E-04  0.1308685E+04  0.7818609E-02  0.9022706E-01
       -1   -1    0    0    0  501  0.00000000000E+00  0.00000000000E+00  0.31671807311E+03  0.31671807315E+03  0.50400001928E-02 0. -1.
        1   -1    0    0  501    0  0.00000000000E+00  0.00000000000E+00 -0.13518769728E+04  0.13518769728E+04  0.50400001928E-02 0.  1.
    10030    2    1    2    0    0  0.00000000000E+00  0.00000000000E+00 -0.10351588997E+04  0.16685950460E+04  0.13086846373E+04 0.  0.
        1    1    3    3  502    0 -0.14722212011E+02  0.44596072159E+03 -0.11278134684E+04  0.12128730058E+04  0.50400001928E-02 0.  1.
       -1    1    3    3    0  502  0.14722212011E+02 -0.44596072159E+03  0.92654568725E+02  0.45572204013E+03  0.50400001928E-02 0. -1.
</event>
<event>
 5   0  0.5563545E-04  0.1297445E+04  0.7818609E-02  0.9031594E-01
       -1   -1    0    0    0  501  0.00000000000E+00  0.00000000000E+00  0.43628339362E+03  0.43628339365E+03  0.50400001928E-02 0.  1.
        1   -1    0    0  501    0  0.00000000000E+00  0.00000000000E+00 -0.96460406929E+03  0.96460406930E+03  0.50400001928E-02 0. -1.
    10030    2    1    2    0    0  0.00000000000E+00  0.00000000000E+00 -0.52832067567E+03  0.14008874630E+04  0.12974447763E+04 0.  0.
        2    1    3    3  502    0  0.57120092776E+02 -0.52087901723E+03 -0.67709536744E+03  0.85617509436E+03  0.25500000920E-02 0. -1.
       -2    1    3    3    0  502 -0.57120092776E+02  0.52087901723E+03  0.14877469177E+03  0.54471236860E+03  0.25500000920E-02 0.  1.
</event>
<event>
 5   0  0.1101619E-03  0.1306767E+04  0.7818609E-02  0.9024216E-01
        2   -1    0    0  501    0  0.00000000000E+00  0.00000000000E+00  0.13553783528E+04  0.13553783528E+04  0.25500000920E-02 0. -1.
       -2   -1    0    0    0  501  0.00000000000E+00  0.00000000000E+00 -0.31497454339E+03  0.31497454340E+03  0.25500000920E-02 0.  1.
    10030    2    1    2    0    0  0.00000000000E+00  0.00000000000E+00  0.10404038094E+04  0.16703528962E+04  0.13067665098E+04 0.  0.
        1    1    3    3  502    0 -0.10772029695E+03  0.16707125806E+03 -0.27538246265E+03  0.33963505179E+03  0.50400001928E-02 0.  1.
       -1    1    3    3    0  502  0.10772029695E+03 -0.16707125806E+03  0.13157862720E+04  0.13307178444E+04  0.50400001928E-02 0. -1.
</event>
<event>
 5   0  0.5812938E-04  0.1289677E+04  0.7818609E-02  0.9037792E-01
       -1   -1    0    0    0  501  0.00000000000E+00  0.00000000000E+00  0.12858777706E+04  0.12858777706E+04  0.50400001928E-02 0. -1.
        1   -1    0    0  501    0  0.00000000000E+00  0.00000000000E+00 -0.32337176002E+03  0.32337176006E+03  0.50400001928E-02 0.  1.
    10030    2    1    2    0    0  0.00000000000E+00  0.00000000000E+00  0.96250601060E+03  0.16092495307E+04  0.12896767934E+04 0.  0.
        5    1    3    3  502    0 -0.42231193849E+03 -0.51955963268E+02  0.10858182173E+04  0.11662204280E+04  0.46999998093E+01 0. -1.
       -5    1    3    3    0  502  0.42231193849E+03  0.51955963268E+02 -0.12331220675E+03  0.44302910270E+03  0.46999998093E+01 0.  1.
</event>
<event>
 5   0  0.1046253E-03  0.1295132E+04  0.7818609E-02  0.9033434E-01
        2   -1    0    0  501    0  0.00000000000E+00  0.00000000000E+00  0.87764281223E+03  0.87764281223E+03  0.25500000920E-02 0. -1.
       -2   -1    0    0    0  501  0.00000000000E+00  0.00000000000E+00 -0.47780461898E+03  0.47780461899E+03  0.25500000920E-02 0.  1.
    10030    2    1    2    0    0  0.00000000000E+00  0.00000000000E+00  0.39983819325E+03  0.13554474312E+04  0.12951321006E+04 0.  0.
        3    1    3    3  502    0 -0.10436957361E+03 -0.97735594140E+02  0.86091495391E+03  0.87270832603E+03  0.10100000352E+00 0. -1.
       -3    1    3    3    0  502  0.10436957361E+03  0.97735594140E+02 -0.46107676066E+03  0.48273910519E+03  0.10100000352E+00 0.  1.
</event>
<event>
 5   0  0.1031295E-03  0.1306332E+04  0.7818609E-02  0.9024559E-01
        2   -1    0    0  501    0  0.00000000000E+00  0.00000000000E+00  0.13414866316E+04  0.13414866316E+04  0.25500000920E-02 0. -1.
       -2   -1    0    0    0  501  0.00000000000E+00  0.00000000000E+00 -0.31802472711E+03  0.31802472712E+03  0.25500000920E-02 0.  1.
    10030    2    1    2    0    0  0.00000000000E+00  0.00000000000E+00  0.10234619045E+04  0.16595113588E+04  0.13063321476E+04 0.  0.
        2    1    3    3  502    0 -0.37462258742E+03 -0.52739535495E+03  0.39713089594E+03  0.75907897610E+03  0.25500000920E-02 0.  1.
       -2    1    3    3    0  502  0.37462258742E+03  0.52739535495E+03  0.62633100859E+03  0.90043238267E+03  0.25500000920E-02 0. -1.
</event>
<event>
 5   0  0.1101619E-03  0.1297313E+04  0.7818609E-02  0.9031698E-01
       -2   -1    0    0    0  501  0.00000000000E+00  0.00000000000E+00  0.59325291887E+03  0.59325291888E+03  0.25500000920E-02 0.  1.
        2   -1    0    0  501    0  0.00000000000E+00  0.00000000000E+00 -0.70923463705E+03  0.70923463705E+03  0.25500000920E-02 0. -1.
    10030    2    1    2    0    0  0.00000000000E+00  0.00000000000E+00 -0.11598171818E+03  0.13024875559E+04  0.12973134064E+04 0.  0.
        1    1    3    3  502    0  0.56769920952E+03 -0.25913036448E+03  0.11970254486E+03  0.63542083501E+03  0.50400001928E-02 0.  1.
       -1    1    3    3    0  502 -0.56769920952E+03  0.25913036448E+03 -0.23568426304E+03  0.66706672092E+03  0.50400001928E-02 0. -1.
</event>
<event>
 5   0  0.1046253E-03  0.1294652E+04  0.7818609E-02  0.9033817E-01
       -2   -1    0    0    0  501  0.00000000000E+00  0.00000000000E+00  0.49501208956E+03  0.49501208957E+03  0.25500000920E-02 0.  1.
        2   -1    0    0  501    0  0.00000000000E+00  0.00000000000E+00 -0.84650662991E+03  0.84650662991E+03  0.25500000920E-02 0. -1.
    10030    2    1    2    0    0  0.00000000000E+00  0.00000000000E+00 -0.35149454035E+03  0.13415187195E+04  0.12946521011E+04 0.  0.
        3    1    3    3  502    0 -0.46403546745E+03 -0.28093116949E+03  0.19028193974E+03  0.57485516770E+03  0.10100000352E+00 0.  1.
       -3    1    3    3    0  502  0.46403546745E+03  0.28093116949E+03 -0.54177648009E+03  0.76666355177E+03  0.10100000352E+00 0. -1.
</event>
<event>
 5   0  0.5710383E-04  0.1288574E+04  0.7818609E-02  0.9038676E-01
       -1   -1    0    0    0  501  0.00000000000E+00  0.00000000000E+00  0.19968375712E+03  0.19968375718E+03  0.50400001928E-02 0.  1.
        1   -1    0    0  501    0  0.00000000000E+00  0.00000000000E+00 -0.20788155287E+04  0.20788155287E+04  0.50400001928E-02 0. -1.
    10030    2    1    2    0    0  0.00000000000E+00  0.00000000000E+00 -0.18791317716E+04  0.22784992859E+04  0.12885739330E+04 0.  0.
        1    1    3    3  502    0  0.23459470869E+03 -0.22786674484E+03 -0.19211308895E+04  0.19487693105E+04  0.50400001928E-02 0. -1.
       -1    1    3    3    0  502 -0.23459470869E+03  0.22786674484E+03  0.41999117939E+02  0.32972997541E+03  0.50400001928E-02 0.  1.
</event>
<event>
 5   0  0.5812938E-04  0.1289067E+04  0.7818609E-02  0.9038280E-01
        1   -1    0    0  501    0  0.00000000000E+00  0.00000000000E+00  0.68159546636E+03  0.68159546638E+03  0.50400001928E-02 0. -1.
       -1   -1    0    0    0  501  0.00000000000E+00  0.00000000000E+00 -0.60948715690E+03  0.60948715692E+03  0.50400001928E-02 0.  1.
    10030    2    1    2    0    0  0.00000000000E+00  0.00000000000E+00  0.72108309458E+02  0.12910826233E+04  0.12890673884E+04 0.  0.
        5    1    3    3  502    0  0.44448529483E+01  0.64176504589E+03  0.95471954065E+02  0.64885985764E+03  0.46999998093E+01 0. -1.
       -5    1    3    3    0  502 -0.44448529483E+01 -0.64176504589E+03 -0.23363644606E+02  0.64222276566E+03  0.46999998093E+01 0.  1.
</event>
<event>
 5   0  0.4012375E-04  0.1301381E+04  0.7818609E-02  0.9028471E-01
        3   -1    0    0  501    0  0.00000000000E+00  0.00000000000E+00  0.56017635249E+03  0.56017636159E+03  0.10100000352E+00 0. -1.
       -3   -1    0    0    0  501  0.00000000000E+00  0.00000000000E+00 -0.75582962301E+03  0.75582962975E+03  0.10100000352E+00 0.  1.
    10030    2    1    2    0    0  0.00000000000E+00  0.00000000000E+00 -0.19565327052E+03  0.13160059913E+04  0.13013806388E+04 0.  0.
        4    1    3    3  502    0  0.42204457899E+03 -0.19231291607E+03  0.36369083613E+03  0.58938826043E+03  0.12699999809E+01 0. -1.
       -4    1    3    3    0  502 -0.42204457899E+03  0.19231291607E+03 -0.55934410665E+03  0.72661773092E+03  0.12699999809E+01 0.  1.
</event>
<event>
 5   0  0.1103241E-03  0.1305481E+04  0.7818609E-02  0.9025230E-01
        2   -1    0    0  501    0  0.00000000000E+00  0.00000000000E+00  0.78485524009E+03  0.78485524010E+03  0.25500000920E-02 0. -1.
       -2   -1    0    0    0  501  0.00000000000E+00  0.00000000000E+00 -0.54286488459E+03  0.54286488460E+03  0.25500000920E-02 0.  1.
    10030    2    1    2    0    0  0.00000000000E+00  0.00000000000E+00  0.24199035550E+03  0.13277201247E+04  0.13054812896E+04 0.  0.
        4    1    3    3  502    0 -0.62009677725E+03 -0.12438054613E+03  0.28523358221E+03  0.69379416453E+03  0.12699999809E+01 0.  1.
       -4    1    3    3    0  502  0.62009677725E+03  0.12438054613E+03 -0.43243226713E+02  0.63392596017E+03  0.12699999809E+01 0. -1.
</event>
<event>
 5   0  0.1031295E-03  0.1291599E+04  0.7818609E-02  0.9036254E-01
       -2   -1    0    0    0  501  0.00000000000E+00  0.00000000000E+00  0.31106070438E+03  0.31106070439E+03  0.25500000920E-02 0. -1.
        2   -1    0    0  501    0  0.00000000000E+00  0.00000000000E+00 -0.13407570165E+04  0.13407570165E+04  0.25500000920E-02 0.  1.
    10030    2    1    2    0    0  0.00000000000E+00  0.00000000000E+00 -0.10296963121E+04  0.16518177209E+04  0.12915987333E+04 0.  0.
        2    1    3    3  502    0  0.21353388305E+03  0.14663981992E+03  0.24170904586E+03  0.35429256110E+03  0.25500000920E-02 0. -1.
       -2    1    3    3    0  502 -0.21353388305E+03 -0.14663981992E+03 -0.12714053580E+04  0.12975251598E+04  0.25500000920E-02 0.  1.
</event>
<event>
 5   0  0.5563545E-04  0.1186791E+04  0.7818609E-02  0.9124498E-01
        1   -1    0    0  501    0  0.00000000000E+00  0.00000000000E+00  0.32465332382E+03  0.32465332386E+03  0.50400001928E-02 0.  1.
       -1   -1    0    0    0  501  0.00000000000E+00  0.00000000000E+00 -0.10845970049E+04  0.10845970049E+04  0.50400001928E-02 0. -1.
    10030    2    1    2    0    0  0.00000000000E+00  0.00000000000E+00 -0.75994368105E+03  0.14092503287E+04  0.11867906684E+04 0.  0.
        2    1    3    3  502    0  0.17545548592E+02  0.59264019947E+03 -0.40876026288E+03  0.72014943228E+03  0.25500000920E-02 0. -1.
       -2    1    3    3    0  502 -0.17545548592E+02 -0.59264019947E+03 -0.35118341817E+03  0.68910089646E+03  0.25500000920E-02 0.  1.
</event>
<event>
 5   0  0.4012375E-04  0.1298411E+04  0.7818609E-02  0.9030826E-01
       -4   -1    0    0    0  501  0.00000000000E+00  0.00000000000E+00  0.58713199636E+03  0.58713336990E+03  0.12699999809E+01 0. -1.
        4   -1    0    0  501    0  0.00000000000E+00  0.00000000000E+00 -0.71783880235E+03  0.71783992579E+03  0.12699999809E+01 0.  1.
    10030    2    1    2    0    0  0.00000000000E+00  0.00000000000E+00 -0.13070680599E+03  0.13049732957E+04  0.12984109647E+04 0.  0.
        5    1    3    3  502    0 -0.32453205304E+03 -0.31446428623E+03  0.40308897419E+03  0.60556721500E+03  0.46999998093E+01 0. -1.
       -5    1    3    3    0  502  0.32453205304E+03  0.31446428623E+03 -0.53379578019E+03  0.69940608069E+03  0.46999998093E+01 0.  1.
</event>
<event>
 5   0  0.1101619E-03  0.1296470E+04  0.7818609E-02  0.9032369E-01
        2   -1    0    0  501    0  0.00000000000E+00  0.00000000000E+00  0.82452825802E+03  0.82452825802E+03  0.25500000920E-02 0. -1.
       -2   -1    0    0    0  501  0.00000000000E+00  0.00000000000E+00 -0.50963501656E+03  0.50963501656E+03  0.25500000920E-02 0.  1.
    10030    2    1    2    0    0  0.00000000000E+00  0.00000000000E+00  0.31489324146E+03  0.13341632746E+04  0.12964697797E+04 0.  0.
        1    1    3    3  502    0  0.35223606497E+03  0.36427802748E+03 -0.25858412050E+03  0.56888880651E+03  0.50400001928E-02 0.  1.
       -1    1    3    3    0  502 -0.35223606497E+03 -0.36427802748E+03  0.57347736197E+03  0.76527446807E+03  0.50400001928E-02 0. -1.
</event>
<event>
 5   0  0.6006119E-04  0.1298657E+04  0.7818609E-02  0.9030631E-01
       -1   -1    0    0    0  501  0.00000000000E+00  0.00000000000E+00  0.36732885260E+03  0.36732885263E+03  0.50400001928E-02 0.  1.
        1   -1    0    0  501    0  0.00000000000E+00  0.00000000000E+00 -0.11478197627E+04  0.11478197627E+04  0.50400001928E-02 0. -1.
    10030    2    1    2    0    0  0.00000000000E+00  0.00000000000E+00 -0.78049091014E+03  0.15151486154E+04  0.12986567159E+04 0.  0.
        4    1    3    3  502    0 -0.10410821908E+03  0.62667412369E+02  0.35394372765E+03  0.37422386494E+03  0.12699999809E+01 0.  1.
       -4    1    3    3    0  502  0.10410821908E+03 -0.62667412369E+02 -0.11344346378E+04  0.11409247504E+04  0.12699999809E+01 0. -1.
</event>
<event>
 5   0  0.5812938E-04  0.1310624E+04  0.7818609E-02  0.9021182E-01
       -1   -1    0    0    0  501  0.00000000000E+00  0.00000000000E+00  0.48013139533E+03  0.48013139536E+03  0.50400001928E-02 0. -1.
        1   -1    0    0  501    0  0.00000000000E+00  0.00000000000E+00 -0.89440883668E+03  0.89440883670E+03  0.50400001928E-02 0.  1.
    10030    2    1    2    0    0  0.00000000000E+00  0.00000000000E+00 -0.41427744135E+03  0.13745402321E+04  0.13106239167E+04 0.  0.
        5    1    3    3  502    0 -0.26883378345E+03  0.56806478037E+03 -0.40177623190E+03  0.74593258968E+03  0.46999998093E+01 0.  1.
       -5    1    3    3    0  502  0.26883378345E+03 -0.56806478037E+03 -0.12501209454E+02  0.62860764238E+03  0.46999998093E+01 0. -1.
</event>
<event>
 5   0  0.5710383E-04  0.1297802E+04  0.7818609E-02  0.9031310E-01
        1   -1    0    0  501    0  0.00000000000E+00  0.00000000000E+00  0.99109675827E+03  0.99109675829E+03  0.50400001928E-02 0.  1.
       -1   -1    0    0    0  501  0.00000000000E+00  0.00000000000E+00 -0.42485534979E+03  0.42485534982E+03  0.50400001928E-02 0. -1.
    10030    2    1    2    0    0  0.00000000000E+00  0.00000000000E+00  0.56624140848E+03  0.14159521081E+04  0.12978023886E+04 0.  0.
        1    1    3    3  502    0  0.51338141498E+02 -0.32196746786E+03  0.89524482614E+03  0.95276542437E+03  0.50400001928E-02 0.  1.
       -1    1    3    3    0  502 -0.51338141498E+02  0.32196746786E+03 -0.32900341766E+03  0.46318668373E+03  0.50400001928E-02 0. -1.
</event>
<event>
 5   0  0.5766027E-04  0.1279672E+04  0.7818609E-02  0.9045842E-01
       -1   -1    0    0    0  501  0.00000000000E+00  0.00000000000E+00  0.21271893234E+03  0.21271893240E+03  0.50400001928E-02 0. -1.
        1   -1    0    0  501    0  0.00000000000E+00  0.00000000000E+00 -0.19245598315E+04  0.19245598315E+04  0.50400001928E-02 0.  1.
    10030    2    1    2    0    0  0.00000000000E+00  0.00000000000E+00 -0.17118408992E+04  0.21372787639E+04  0.12796723216E+04 0.  0.
        3    1    3    3  502    0 -0.27709562715E+03  0.55652962991E+03 -0.11085706802E+04  0.12709981034E+04  0.10100000352E+00 0.  1.
       -3    1    3    3    0  502  0.27709562715E+03 -0.55652962991E+03 -0.60327021896E+03  0.86628066055E+03  0.10100000352E+00 0. -1.
</event>
<event>
 5   0  0.1046253E-03  0.1298659E+04  0.7818609E-02  0.9030629E-01
        2   -1    0    0  501    0  0.00000000000E+00  0.00000000000E+00  0.67259090763E+03  0.67259090764E+03  0.25500000920E-02 0. -1.
       -2   -1    0    0    0  501  0.00000000000E+00  0.00000000000E+00 -0.62687248814E+03  0.62687248814E+03  0.25500000920E-02 0.  1.
    10030    2    1    2    0    0  0.00000000000E+00  0.00000000000E+00  0.45718419495E+02  0.12994633958E+04  0.12986589017E+04 0.  0.
        3    1    3    3  502    0 -0.83981843624E+02 -0.36438858885E+03 -0.50831493797E+03  0.63104364358E+03  0.10100000352E+00 0.  1.
       -3    1    3    3    0  502  0.83981843624E+02  0.36438858885E+03  0.55403335746E+03  0.66841975220E+03  0.10100000352E+00 0. -1.
</event>
<event>
 5   0  0.1101619E-03  0.1211827E+04  0.7818609E-02  0.9102567E-01
        2   -1    0    0  501    0  0.00000000000E+00  0.00000000000E+00  0.60397098258E+03  0.60397098259E+03  0.25500000920E-02 0.  1.
       -2   -1    0    0    0  501  0.00000000000E+00  0.00000000000E+00 -0.60786228816E+03  0.60786228816E+03  0.25500000920E-02 0. -1.
    10030    2    1    2    0    0  0.00000000000E+00  0.00000000000E+00 -0.38913055726E+01  0.12118332708E+04  0.12118270231E+04 0.  0.
        1    1    3    3  502    0 -0.30262270237E+03  0.10305201776E+03  0.51277145091E+03  0.60426383248E+03  0.50400001928E-02 0.  1.
       -1    1    3    3    0  502  0.30262270237E+03 -0.10305201776E+03 -0.51666275649E+03  0.60756943827E+03  0.50400001928E-02 0. -1.
</event>
<event>
 5   0  0.4012375E-04  0.1144518E+04  0.7818609E-02  0.9162856E-01
        3   -1    0    0  501    0  0.00000000000E+00  0.00000000000E+00  0.12896854031E+04  0.12896854070E+04  0.10100000352E+00 0.  1.
       -3   -1    0    0    0  501  0.00000000000E+00  0.00000000000E+00 -0.25392267525E+03  0.25392269534E+03  0.10100000352E+00 0. -1.
    10030    2    1    2    0    0  0.00000000000E+00  0.00000000000E+00  0.10357627278E+04  0.15436081023E+04  0.11445180406E+04 0.  0.
        2    1    3    3  502    0 -0.51011039468E+03 -0.19841587627E+03  0.29260893728E+03  0.62064600611E+03  0.25500000920E-02 0. -1.
       -2    1    3    3    0  502  0.51011039468E+03  0.19841587627E+03  0.74315379053E+03  0.92296209624E+03  0.25500000920E-02 0.  1.
</event>
<event>
 5   0  0.1103241E-03  0.1304130E+04  0.7818609E-02  0.9026296E-01
       -2   -1    0    0    0  501  0.00000000000E+00  0.00000000000E+00  0.47188410333E+03  0.47188410334E+03  0.25500000920E-02 0.  1.
        2   -1    0    0  501    0  0.00000000000E+00  0.00000000000E+00 -0.90104556561E+03  0.90104556561E+03  0.25500000920E-02 0. -1.
    10030    2    1    2    0    0  0.00000000000E+00  0.00000000000E+00 -0.42916146228E+03  0.13729296690E+04  0.13041304824E+04 0.  0.
        4    1    3    3  502    0  0.21977493122E+03  0.40819090087E+03  0.26815831200E+03  0.53556635923E+03  0.12699999809E+01 0.  1.
       -4    1    3    3    0  502 -0.21977493122E+03 -0.40819090087E+03 -0.69731977429E+03  0.83736330972E+03  0.12699999809E+01 0. -1.
</event>
<event>
 5   0  0.5563545E-04  0.1288736E+04  0.7818609E-02  0.9038546E-01
       -1   -1    0    0    0  501  0.00000000000E+00  0.00000000000E+00  0.38239372500E+03  0.38239372504E+03  0.50400001928E-02 0. -1.
        1   -1    0    0  501    0  0.00000000000E+00  0.00000000000E+00 -0.10858179643E+04  0.10858179643E+04  0.50400001928E-02 0.  1.
    10030    2    1    2    0    0  0.00000000000E+00  0.00000000000E+00 -0.70342423927E+03  0.14682116893E+04  0.12887357775E+04 0.  0.
        2    1    3    3  502    0 -0.11013570431E+02 -0.44332061087E+03 -0.88431765438E+03  0.98927861425E+03  0.25500000920E-02 0.  1.
       -2    1    3    3    0  502  0.11013570431E+02  0.44332061087E+03  0.18089341512E+03  0.47893307507E+03  0.25500000920E-02 0. -1.
</event>
<event>
 5   0  0.1081574E-03  0.1289732E+04  0.7818609E-02  0.9037748E-01
       -2   -1    0    0    0  501  0.00000000000E+00  0.00000000000E+00  0.25454707602E+03  0.25454707604E+03  0.25500000920E-02 0. -1.
        2   -1    0    0  501    0  0.00000000000E+00  0.00000000000E+00 -0.16336939880E+04  0.16336939880E+04  0.25500000920E-02 0.  1.
    10030    2    1    2    0    0  0.00000000000E+00  0.00000000000E+00 -0.13791469119E+04  0.18882410640E+04  0.12897317981E+04 0.  0.
        5    1    3    3  502    0 -0.46772974641E+03 -0.15684976474E+03 -0.12975662201E+04  0.13881906029E+04  0.46999998093E+01 0.  1.
       -5    1    3    3    0  502  0.46772974641E+03  0.15684976474E+03 -0.81580691820E+02  0.50005046111E+03  0.46999998093E+01 0. -1.
</event>
<event>
 5   0  0.1081574E-03  0.1270554E+04  0.7818609E-02  0.9053248E-01
        2   -1    0    0  501    0  0.00000000000E+00  0.00000000000E+00  0.82925877789E+03  0.82925877790E+03  0.25500000920E-02 0.  1.
       -2   -1    0    0    0  501  0.00000000000E+00  0.00000000000E+00 -0.48667160906E+03  0.48667160907E+03  0.25500000920E-02 0. -1.
    10030    2    1    2    0    0  0.00000000000E+00  0.00000000000E+00  0.34258716883E+03  0.13159303870E+04  0.12705537435E+04 0.  0.
        5    1    3    3  502    0 -0.15318697871E+03  0.28967132622E+03  0.73495320401E+03  0.80470741874E+03  0.46999998093E+01 0.  1.
       -5    1    3    3    0  502  0.15318697871E+03 -0.28967132622E+03 -0.39236603518E+03  0.51122296823E+03  0.46999998093E+01 0. -1.
</event>
<event>
 5   0  0.1046253E-03  0.1294186E+04  0.7818609E-02  0.9034188E-01
       -2   -1    0    0    0  501  0.00000000000E+00  0.00000000000E+00  0.65573226810E+03  0.65573226810E+03  0.25500000920E-02 0.  1.
        2   -1    0    0  501    0  0.00000000000E+00  0.00000000000E+00 -0.63856755207E+03  0.63856755207E+03  0.25500000920E-02 0. -1.
    10030    2    1    2    0    0  0.00000000000E+00  0.00000000000E+00  0.17164716031E+02  0.12942998202E+04  0.12941859979E+04 0.  0.
        3    1    3    3  502    0  0.20312802283E+03 -0.29913422726E+03  0.54527381317E+03  0.65426739267E+03  0.10100000352E+00 0.  1.
       -3    1    3    3    0  502 -0.20312802283E+03  0.29913422726E+03 -0.52810909714E+03  0.64003242751E+03  0.10100000352E+00 0. -1.
</event>
<event>
 5   0  0.1081574E-03  0.1306627E+04  0.7818609E-02  0.9024326E-01
       -2   -1    0    0    0  501  0.00000000000E+00  0.00000000000E+00  0.30647639786E+03  0.30647639787E+03  0.25500000920E-02 0.  1.
        2   -1    0    0  501    0  0.00000000000E+00  0.00000000000E+00 -0.13926640643E+04  0.13926640643E+04  0.25500000920E-02 0. -1.
    10030    2    1    2    0    0  0.00000000000E+00  0.00000000000E+00 -0.10861876664E+04  0.16991404622E+04  0.13066272091E+04 0.  0.
        5    1    3    3  502    0  0.41084890672E+03 -0.41850707976E+03 -0.91740085221E+03  0.10888486642E+04  0.46999998093E+01 0. -1.
       -5    1    3    3    0  502 -0.41084890672E+03  0.41850707976E+03 -0.16878681422E+03  0.61029179793E+03  0.46999998093E+01 0.  1.
</event>
<event>
 5   0  0.1031295E-03  0.1192371E+04  0.7818609E-02  0.9119561E-01
       -2   -1    0    0    0  501  0.00000000000E+00  0.00000000000E+00  0.41623670565E+03  0.41623670565E+03  0.25500000920E-02 0. -1.
        2   -1    0    0  501    0  0.00000000000E+00  0.00000000000E+00 -0.85392994854E+03  0.85392994855E+03  0.25500000920E-02 0.  1.
    10030    2    1    2    0    0  0.00000000000E+00  0.00000000000E+00 -0.43769324290E+03  0.12701666542E+04  0.11923707287E+04 0.  0.
        2    1    3    3  502    0  0.30845736977E+03 -0.90783128756E+02  0.31595447545E+03  0.45079347377E+03  0.25500000920E-02 0. -1.
       -2    1    3    3    0  502 -0.30845736977E+03  0.90783128756E+02 -0.75364771834E+03  0.81937318043E+03  0.25500000920E-02 0.  1.
</event>
<event>
 5   0  0.1081574E-03  0.1320125E+04  0.7818609E-02  0.9013757E-01
        2   -1    0    0  501    0  0.00000000000E+00  0.00000000000E+00  0.21312175774E+04  0.21312175774E+04  0.25500000920E-02 0. -1.
       -2   -1    0    0    0  501  0.00000000000E+00  0.00000000000E+00 -0.20442879791E+03  0.20442879792E+03  0.25500000920E-02 0.  1.
    10030    2    1    2    0    0  0.00000000000E+00  0.00000000000E+00  0.19267887795E+04  0.23356463753E+04  0.13201246115E+04 0.  0.
        5    1    3    3  502    0  0.29611426827E+03  0.42797923500E+03  0.16816587209E+04  0.17603545180E+04  0.46999998093E+01 0. -1.
       -5    1    3    3    0  502 -0.29611426827E+03 -0.42797923500E+03  0.24513005857E+03  0.57529185730E+03  0.46999998093E+01 0.  1.
</event>
<event>
 5   0  0.1031295E-03  0.1314844E+04  0.7818609E-02  0.9017875E-01
        2   -1    0    0  501    0  0.00000000000E+00  0.00000000000E+00  0.74736140380E+03  0.74736140380E+03  0.25500000920E-02 0. -1.
       -2   -1    0    0    0  501  0.00000000000E+00  0.00000000000E+00 -0.57830656605E+03  0.57830656605E+03  0.25500000920E-02 0.  1.
    10030    2    1    2    0    0  0.00000000000E+00  0.00000000000E+00  0.16905483775E+03  0.13256679699E+04  0.13148444882E+04 0.  0.
        2    1    3    3  502    0 -0.18752526195E+03 -0.51077742812E+03 -0.28748783347E+03  0.61539301211E+03  0.25500000920E-02 0.  1.
       -2    1    3    3    0  502  0.18752526195E+03  0.51077742812E+03  0.45654267122E+03  0.71027495775E+03  0.25500000920E-02 0. -1.
</event>
<event>
 5   0  0.1103241E-03  0.1305941E+04  0.7818609E-02  0.9024867E-01
        2   -1    0    0  501    0  0.00000000000E+00  0.00000000000E+00  0.10837045046E+04  0.10837045046E+04  0.25500000920E-02 0. -1.
       -2   -1    0    0    0  501  0.00000000000E+00  0.00000000000E+00 -0.39343766758E+03  0.39343766759E+03  0.25500000920E-02 0.  1.
    10030    2    1    2    0    0  0.00000000000E+00  0.00000000000E+00  0.69026683700E+03  0.14771421722E+04  0.13059405387E+04 0.  0.
        4    1    3    3  502    0 -0.62489936972E+03 -0.94699880238E+02  0.15961574607E+03  0.65187889128E+03  0.12699999809E+01 0.  1.
       -4    1    3    3    0  502  0.62489936972E+03  0.94699880238E+02  0.53065109093E+03  0.82526328090E+03  0.12699999809E+01 0. -1.
</event>
<event>
 5   0  0.1101619E-03  0.1297668E+04  0.7818609E-02  0.9031417E-01
       -2   -1    0    0    0  501  0.00000000000E+00  0.00000000000E+00  0.86012367468E+03  0.86012367469E+03  0.25500000920E-02 0.  1.
        2   -1    0    0  501    0  0.00000000000E+00  0.00000000000E+00 -0.48944748997E+03  0.48944748998E+03  0.25500000920E-02 0. -1.
    10030    2    1    2    0    0  0.00000000000E+00  0.00000000000E+00  0.37067618471E+03  0.13495711647E+04  0.12976677135E+04 0.  0.
        1    1    3    3  502    0  0.52188938680E+03  0.34937061137E+03  0.15856732196E+02  0.62823545915E+03  0.50400001928E-02 0. -1.
       -1    1    3    3    0  502 -0.52188938680E+03 -0.34937061137E+03  0.35481945252E+03  0.72133570552E+03  0.50400001928E-02 0.  1.
</event>
<event>
 5   0  0.5710383E-04  0.1304501E+04  0.7818609E-02  0.9026004E-01
       -1   -1    0    0    0  501  0.00000000000E+00  0.00000000000E+00  0.43764859559E+03  0.43764859562E+03  0.50400001928E-02 0.  1.
        1   -1    0    0  501    0  0.00000000000E+00  0.00000000000E+00 -0.97208227382E+03  0.97208227384E+03  0.50400001928E-02 0. -1.
    10030    2    1    2    0    0  0.00000000000E+00  0.00000000000E+00 -0.53443367823E+03  0.14097308695E+04  0.13045005818E+04 0.  0.
        1    1    3    3  502    0  0.64225225747E+03  0.89075944371E+02 -0.34369231326E+03  0.73385754225E+03  0.50400001928E-02 0. -1.
       -1    1    3    3    0  502 -0.64225225747E+03 -0.89075944371E+02 -0.19074136497E+03  0.67587332721E+03  0.50400001928E-02 0.  1.
</event>
<event>
 5   0  0.5812938E-04  0.1297198E+04  0.7818609E-02  0.9031790E-01
        1   -1    0    0  501    0  0.00000000000E+00  0.00000000000E+00  0.13761728449E+04  0.13761728450E+04  0.50400001928E-02 0.  1.
       -1   -1    0    0    0  501  0.00000000000E+00  0.00000000000E+00 -0.30568881354E+03  0.30568881359E+03  0.50400001928E-02 0. -1.
    10030    2    1    2    0    0  0.00000000000E+00  0.00000000000E+00  0.10704840314E+04  0.16818616585E+04  0.12971979714E+04 0.  0.
        5    1    3    3  502    0  0.10121836355E+03  0.41058862865E+03  0.11728289871E+04  0.12467470081E+04  0.46999998093E+01 0.  1.
       -5    1    3    3    0  502 -0.10121836355E+03 -0.41058862865E+03 -0.10234495572E+03  0.43511465047E+03  0.46999998093E+01 0. -1.
</event>
<event>
 5   0  0.5563545E-04  0.1299033E+04  0.7818609E-02  0.9030332E-01
       -1   -1    0    0    0  501  0.00000000000E+00  0.00000000000E+00  0.52212908309E+03  0.52212908311E+03  0.50400001928E-02 0. -1.
        1   -1    0    0  501    0  0.00000000000E+00  0.00000000000E+00 -0.80798392539E+03  0.80798392540E+03  0.50400001928E-02 0.  1.
    10030    2    1    2    0    0  0.00000000000E+00  0.00000000000E+00 -0.28585484230E+03  0.13301130085E+04  0.12990333424E+04 0.  0.
        2    1    3    3  502    0 -0.36378399410E+03 -0.33434168104E+03  0.28876211600E+03  0.57228202286E+03  0.25500000920E-02 0. -1.
       -2    1    3    3    0  502  0.36378399410E+03  0.33434168104E+03 -0.57461695831E+03  0.75783098566E+03  0.25500000920E-02 0.  1.
</event>
<event>
 5   0  0.5812938E-04  0.1292695E+04  0.7818609E-02  0.9035379E-01
       -1   -1    0    0    0  501  0.00000000000E+00  0.00000000000E+00  0.25550338304E+03  0.25550338309E+03  0.50400001928E-02 0.  1.
        1   -1    0    0  501    0  0.00000000000E+00  0.00000000000E+00 -0.16350657492E+04  0.16350657493E+04  0.50400001928E-02 0. -1.
    10030    2    1    2    0    0  0.00000000000E+00  0.00000000000E+00 -0.13795623662E+04  0.18905691323E+04  0.12926945973E+04 0.  0.
        5    1    3    3  502    0  0.27469741939E+02 -0.23436463097E+03 -0.15697914245E+04  0.15874345887E+04  0.46999998093E+01 0. -1.
       -5    1    3    3    0  502 -0.27469741939E+02  0.23436463097E+03  0.19022905825E+03  0.30313454368E+03  0.46999998093E+01 0.  1.
</event>
<event>
 5   0  0.1046253E-03  0.1263609E+04  0.7818609E-02  0.9058932E-01
       -2   -1    0    0    0  501  0.00000000000E+00  0.00000000000E+00  0.48727666478E+03  0.48727666478E+03  0.25500000920E-02 0. -1.
        2   -1    0    0  501    0  0.00000000000E+00  0.00000000000E+00 -0.81919952014E+03  0.81919952014E+03  0.25500000920E-02 0.  1.
    10030    2    1    2    0    0  0.00000000000E+00  0.00000000000E+00 -0.33192285536E+03  0.13064761849E+04  0.12636088160E+04 0.  0.
        3    1    3    3  502    0  0.56705285814E+03 -0.25484223647E+03 -0.28240213040E+03  0.68282097424E+03  0.10100000352E+00 0.  1.
       -3    1    3    3    0  502 -0.56705285814E+03  0.25484223647E+03 -0.49520724960E+02  0.62365521068E+03  0.10100000352E+00 0. -1.
</event>
<event>
 5   0  0.1103241E-03  0.1285298E+04  0.7818609E-02  0.9041306E-01
       -2   -1    0    0    0  501  0.00000000000E+00  0.00000000000E+00  0.45308897789E+03  0.45308897789E+03  0.25500000920E-02 0.  1.
        2   -1    0    0  501    0  0.00000000000E+00  0.00000000000E+00 -0.91151591702E+03  0.91151591702E+03  0.25500000920E-02 0. -1.
    10030    2    1    2    0    0  0.00000000000E+00  0.00000000000E+00 -0.45842693913E+03  0.13646048949E+04  0.12852981213E+04 0.  0.
        4    1    3    3  502    0  0.74642736603E+02 -0.39825510158E+03  0.30038112836E+03  0.50438982864E+03  0.12699999809E+01 0.  1.
       -4    1    3    3    0  502 -0.74642736603E+02  0.39825510158E+03 -0.75880806749E+03  0.86021506628E+03  0.12699999809E+01 0. -1.
</event>
<event>
 5   0  0.6006119E-04  0.1302842E+04  0.7818609E-02  0.9027314E-01
       -1   -1    0    0    0  501  0.00000000000E+00  0.00000000000E+00  0.42061241140E+03  0.42061241143E+03  0.50400001928E-02 0. -1.
        1   -1    0    0  501    0  0.00000000000E+00  0.00000000000E+00 -0.10088844816E+04  0.10088844816E+04  0.50400001928E-02 0.  1.
    10030    2    1    2    0    0  0.00000000000E+00  0.00000000000E+00 -0.58827207022E+03  0.14294968931E+04  0.13028420237E+04 0.  0.
        4    1    3    3  502    0  0.62696830234E+03 -0.87902963526E+02 -0.46244863162E+03  0.78401309487E+03  0.12699999809E+01 0.  1.
       -4    1    3    3    0  502 -0.62696830234E+03  0.87902963526E+02 -0.12582343859E+03  0.64548379819E+03  0.12699999809E+01 0. -1.
</event>
<event>
 5   0  0.5563545E-04  0.1295810E+04  0.7818609E-02  0.9032894E-01
       -1   -1    0    0    0  501  0.00000000000E+00  0.00000000000E+00  0.44305162993E+03  0.44305162996E+03  0.50400001928E-02 0. -1.
        1   -1    0    0  501    0  0.00000000000E+00  0.00000000000E+00 -0.94747651367E+03  0.94747651368E+03  0.50400001928E-02 0.  1.
    10030    2    1    2    0    0  0.00000000000E+00  0.00000000000E+00 -0.50442488374E+03  0.13905281436E+04  0.12958101925E+04 0.  0.
        2    1    3    3  502    0  0.15094319132E+03 -0.61778673146E+03 -0.11931866259E+03  0.64705582126E+03  0.25500000920E-02 0. -1.
       -2    1    3    3    0  502 -0.15094319132E+03  0.61778673146E+03 -0.38510622115E+03  0.74347232238E+03  0.25500000920E-02 0.  1.
</event>
<event>
 5   0  0.5563545E-04  0.1292815E+04  0.7818609E-02  0.9035282E-01
       -1   -1    0    0    0  501  0.00000000000E+00  0.00000000000E+00  0.67870257042E+03  0.67870257043E+03  0.50400001928E-02 0.  1.
        1   -1    0    0  501    0  0.00000000000E+00  0.00000000000E+00 -0.61564953159E+03  0.61564953161E+03  0.50400001928E-02 0. -1.
    10030    2    1    2    0    0  0.00000000000E+00  0.00000000000E+00  0.63053038825E+02  0.12943521020E+04  0.12928154077E+04 0.  0.
        2    1    3    3  502    0 -0.10812875623E+03  0.52135934862E+03 -0.33542724427E+03  0.62930027374E+03  0.25500000920E-02 0. -1.
       -2    1    3    3    0  502  0.10812875623E+03 -0.52135934862E+03  0.39848028310E+03  0.66505182831E+03  0.25500000920E-02 0.  1.
</event>
<event>
 5   0  0.1031295E-03  0.1291538E+04  0.7818609E-02  0.9036302E-01
       -2   -1    0    0    0  501  0.00000000000E+00  0.00000000000E+00  0.30933636985E+03  0.30933636986E+03  0.25500000920E-02 0.  1.
        2   -1    0    0  501    0  0.00000000000E+00  0.00000000000E+00 -0.13481047977E+04  0.13481047977E+04  0.25500000920E-02 0. -1.
    10030    2    1    2    0    0  0.00000000000E+00  0.00000000000E+00 -0.10387684279E+04  0.16574411676E+04  0.12915383762E+04 0.  0.
        2    1    3    3  502    0 -0.34039540254E+03 -0.54556360406E+03 -0.44336333324E+03  0.78107600233E+03  0.25500000920E-02 0.  1.
       -2    1    3    3    0  502  0.34039540254E+03  0.54556360406E+03 -0.59540509463E+03  0.87636516525E+03  0.25500000920E-02 0. -1.
</event>
<event>
 5   0  0.5710383E-04  0.1300513E+04  0.7818609E-02  0.9029159E-01
       -1   -1    0    0    0  501  0.00000000000E+00  0.00000000000E+00  0.23512588849E+03  0.23512588855E+03  0.50400001928E-02 0. -1.
        1   -1    0    0  501    0  0.00000000000E+00  0.00000000000E+00 -0.17983268721E+04  0.17983268721E+04  0.50400001928E-02 0.  1.
    10030    2    1    2    0    0  0.00000000000E+00  0.00000000000E+00 -0.15632009836E+04  0.20334527606E+04  0.13005125200E+04 0.  0.
        1    1    3    3  502    0  0.35307703234E+03  0.33565959056E+03 -0.10816751736E+03  0.49903002248E+03  0.50400001928E-02 0. -1.
       -1    1    3    3    0  502 -0.35307703234E+03 -0.33565959056E+03 -0.14550334662E+04  0.15344227381E+04  0.50400001928E-02 0.  1.
</event>
<event>
 5   0  0.5563545E-04  0.1288188E+04  0.7818609E-02  0.9038985E-01
       -1   -1    0    0    0  501  0.00000000000E+00  0.00000000000E+00  0.24118832612E+03  0.24118832618E+03  0.50400001928E-02 0.  1.
        1   -1    0    0  501    0  0.00000000000E+00  0.00000000000E+00 -0.17200543183E+04  0.17200543183E+04  0.50400001928E-02 0. -1.
    10030    2    1    2    0    0  0.00000000000E+00  0.00000000000E+00 -0.14788659921E+04  0.19612426444E+04  0.12881879085E+04 0.  0.
        2    1    3    3  502    0 -0.16266388322E+03  0.60459259443E+03 -0.96965156517E+03  0.11542165750E+04  0.25500000920E-02 0. -1.
       -2    1    3    3    0  502  0.16266388322E+03 -0.60459259443E+03 -0.50921442697E+03  0.80702606945E+03  0.25500000920E-02 0.  1.
</event>
<event>
 5   0  0.5766027E-04  0.1349215E+04  0.7818609E-02  0.8991423E-01
       -1   -1    0    0    0  501  0.00000000000E+00  0.00000000000E+00  0.50973231260E+03  0.50973231262E+03  0.50400001928E-02 0. -1.
        1   -1    0    0  501    0  0.00000000000E+00  0.00000000000E+00 -0.89281182932E+03  0.89281182933E+03  0.50400001928E-02 0.  1.
    10030    2    1    2    0    0  0.00000000000E+00  0.00000000000E+00 -0.38307951672E+03  0.14025441420E+04  0.13492146434E+04 0.  0.
        3    1    3    3  502    0 -0.55739114247E+03  0.31334175999E+03 -0.41504295670E+03  0.76231791948E+03  0.10100000352E+00 0.  1.
       -3    1    3    3    0  502  0.55739114247E+03 -0.31334175999E+03  0.31963439974E+02  0.64022622248E+03  0.10100000352E+00 0. -1.
</event>
<event>
 5   0  0.6006119E-04  0.1298491E+04  0.7818609E-02  0.9030762E-01
        1   -1    0    0  501    0  0.00000000000E+00  0.00000000000E+00  0.79604826001E+03  0.79604826003E+03  0.50400001928E-02 0.  1.
       -1   -1    0    0    0  501  0.00000000000E+00  0.00000000000E+00 -0.52951549506E+03  0.52951549508E+03  0.50400001928E-02 0. -1.
    10030    2    1    2    0    0  0.00000000000E+00  0.00000000000E+00  0.26653276495E+03  0.13255637551E+04  0.12984912607E+04 0.  0.
        4    1    3    3  502    0  0.50402333160E+03 -0.24040519233E+03 -0.20482447609E+03  0.59480152505E+03  0.12699999809E+01 0. -1.
       -4    1    3    3    0  502 -0.50402333160E+03  0.24040519233E+03  0.47135724105E+03  0.73076223006E+03  0.12699999809E+01 0.  1.
</event>
<event>
 5   0  0.1103241E-03  0.1314087E+04  0.7818609E-02  0.9018468E-01
        2   -1    0    0  501    0  0.00000000000E+00  0.00000000000E+00  0.13835200127E+04  0.13835200127E+04  0.25500000920E-02 0.  1.
       -2   -1    0    0    0  501  0.00000000000E+00  0.00000000000E+00 -0.31203451618E+03  0.31203451619E+03  0.25500000920E-02 0. -1.
    10030    2    1    2    0    0  0.00000000000E+00  0.00000000000E+00  0.10714854965E+04  0.16955545289E+04  0.13140867518E+04 0.  0.
        4    1    3    3  502    0 -0.32191611743E+03 -0.14254453497E+03 -0.18005545390E+03  0.39543711319E+03  0.12699999809E+01 0. -1.
       -4    1    3    3    0  502  0.32191611743E+03  0.14254453497E+03  0.12515409504E+04  0.13001174157E+04  0.12699999809E+01 0.  1.
</event>
<event>
 5   0  0.1031295E-03  0.1288039E+04  0.7818609E-02  0.9039104E-01
        2   -1    0    0  501    0  0.00000000000E+00  0.00000000000E+00  0.30540496231E+03  0.30540496232E+03  0.25500000920E-02 0. -1.
       -2   -1    0    0    0  501  0.00000000000E+00  0.00000000000E+00 -0.13580699526E+04  0.13580699526E+04  0.25500000920E-02 0.  1.
    10030    2    1    2    0    0  0.00000000000E+00  0.00000000000E+00 -0.10526649903E+04  0.16634749149E+04  0.12880392893E+04 0.  0.
        2    1    3    3  502    0 -0.27409618315E+03  0.26876283664E+03  0.14149936585E+03  0.40912620365E+03  0.25500000920E-02 0. -1.
       -2    1    3    3    0  502  0.27409618315E+03 -0.26876283664E+03 -0.11941643561E+04  0.12543487112E+04  0.25500000920E-02 0.  1.
</event>
<event>
 5   0  0.1081574E-03  0.1305037E+04  0.7818609E-02  0.9025580E-01
        2   -1    0    0  501    0  0.00000000000E+00  0.00000000000E+00  0.12764295949E+04  0.12764295949E+04  0.25500000920E-02 0.  1.
       -2   -1    0    0    0  501  0.00000000000E+00  0.00000000000E+00 -0.33357151865E+03  0.33357151866E+03  0.25500000920E-02 0. -1.
    10030    2    1    2    0    0  0.00000000000E+00  0.00000000000E+00  0.94285807629E+03  0.16100011136E+04  0.13050372538E+04 0.  0.
        5    1    3    3  502    0  0.67438821509E+02  0.93205844707E+02 -0.32093987171E+03  0.34096893610E+03  0.46999998093E+01 0. -1.
       -5    1    3    3    0  502 -0.67438821509E+02 -0.93205844707E+02  0.12637979480E+04  0.12690321775E+04  0.46999998093E+01 0.  1.
</event>
<event>
 5   0  0.1046253E-03  0.1298819E+04  0.7818609E-02  0.9030502E-01
        2   -1    0    0  501    0  0.00000000000E+00  0.00000000000E+00  0.49695147199E+03  0.49695147200E+03  0.25500000920E-02 0. -1.
       -2   -1    0    0    0  501  0.00000000000E+00  0.00000000000E+00 -0.84863936258E+03  0.84863936258E+03  0.25500000920E-02 0.  1.
    10030    2    1    2    0    0  0.00000000000E+00  0.00000000000E+00 -0.35168789059E+03  0.13455908346E+04  0.12988188179E+04 0.  0.
        3    1    3    3  502    0 -0.60227963739E+03 -0.54966464010E+02 -0.42094434953E+03  0.73685563673E+03  0.10100000352E+00 0.  1.
       -3    1    3    3    0  502  0.60227963739E+03  0.54966464010E+02  0.69256458944E+02  0.60873519784E+03  0.10100000352E+00 0. -1.
</event>
<event>
 5   0  0.1101619E-03  0.1299256E+04  0.7818609E-02  0.9030155E-01
        2   -1    0    0  501    0  0.00000000000E+00  0.00000000000E+00  0.20966559160E+04  0.20966559160E+04  0.25500000920E-02 0. -1.
       -2   -1    0    0    0  501  0.00000000000E+00  0.00000000000E+00 -0.20128077604E+03  0.20128077606E+03  0.25500000920E-02 0.  1.
    10030    2    1    2    0    0  0.00000000000E+00  0.00000000000E+00  0.18953751399E+04  0.22979366920E+04  0.12992559869E+04 0.  0.
        1    1    3    3  502    0 -0.24490241987E+03 -0.27261975100E+02  0.20107896832E+04  0.20258320663E+04  0.50400001928E-02 0. -1.
       -1    1    3    3    0  502  0.24490241987E+03  0.27261975100E+02 -0.11541454328E+03  0.27210462577E+03  0.50400001928E-02 0.  1.
</event>
<event>
 5   0  0.5766027E-04  0.1289400E+04  0.7818609E-02  0.9038013E-01
        1   -1    0    0  501    0  0.00000000000E+00  0.00000000000E+00  0.13461529819E+04  0.13461529819E+04  0.50400001928E-02 0.  1.
       -1   -1    0    0    0  501  0.00000000000E+00  0.00000000000E+00 -0.30876014795E+03  0.30876014799E+03  0.50400001928E-02 0. -1.
    10030    2    1    2    0    0  0.00000000000E+00  0.00000000000E+00  0.10373928340E+04  0.16549131299E+04  0.12894004714E+04 0.  0.
        3    1    3    3  502    0  0.53236114608E+03 -0.22537713241E+03  0.15243319961E+03  0.59786213478E+03  0.10100000352E+00 0. -1.
       -3    1    3    3    0  502 -0.53236114608E+03  0.22537713241E+03  0.88495963436E+03  0.10570509951E+04  0.10100000352E+00 0.  1.
</event>
<event>
 5   0  0.5766027E-04  0.1300704E+04  0.7818609E-02  0.9029007E-01
       -1   -1    0    0    0  501  0.00000000000E+00  0.00000000000E+00  0.80992328292E+03  0.80992328293E+03  0.50400001928E-02 0.  1.
        1   -1    0    0  501    0  0.00000000000E+00  0.00000000000E+00 -0.52221983647E+03  0.52221983650E+03  0.50400001928E-02 0. -1.
    10030    2    1    2    0    0  0.00000000000E+00  0.00000000000E+00  0.28770344644E+03  0.13321431194E+04  0.13007044313E+04 0.  0.
        3    1    3    3  502    0 -0.24095079548E+03 -0.60397395858E+03  0.13281319375E+03  0.66368756439E+03  0.10100000352E+00 0.  1.
       -3    1    3    3    0  502  0.24095079548E+03  0.60397395858E+03  0.15489025269E+03  0.66845555504E+03  0.10100000352E+00 0. -1.
</event>
<event>
 5   0  0.1081574E-03  0.1301145E+04  0.7818609E-02  0.9028658E-01
        2   -1    0    0  501    0  0.00000000000E+00  0.00000000000E+00  0.68131539793E+03  0.68131539794E+03  0.25500000920E-02 0. -1.
       -2   -1    0    0    0  501  0.00000000000E+00  0.00000000000E+00 -0.62121678306E+03  0.62121678306E+03  0.25500000920E-02 0.  1.
    10030    2    1    2    0    0  0.00000000000E+00  0.00000000000E+00  0.60098614874E+02  0.13025321810E+04  0.13011449723E+04 0.  0.
        5    1    3    3  502    0  0.35160954651E+02  0.36036965636E+03  0.57110670173E+03  0.67623038731E+03  0.46999998093E+01 0. -1.
       -5    1    3    3    0  502 -0.35160954651E+02 -0.36036965636E+03 -0.51100808686E+03  0.62630179370E+03  0.46999998093E+01 0.  1.
</event>
<event>
 5   0  0.6006119E-04  0.1296957E+04  0.7818609E-02  0.9031982E-01
        1   -1    0    0  501    0  0.00000000000E+00  0.00000000000E+00  0.74138707808E+03  0.74138707810E+03  0.50400001928E-02 0. -1.
       -1   -1    0    0    0  501  0.00000000000E+00  0.00000000000E+00 -0.56721267461E+03  0.56721267463E+03  0.50400001928E-02 0.  1.
    10030    2    1    2    0    0  0.00000000000E+00  0.00000000000E+00  0.17417440347E+03  0.13085997527E+04  0.12969566647E+04 0.  0.
        4    1    3    3  502    0 -0.32547884722E+03  0.16732643411E+03 -0.45305773351E+03  0.58240667779E+03  0.12699999809E+01 0.  1.
       -4    1    3    3    0  502  0.32547884722E+03 -0.16732643411E+03  0.62723213698E+03  0.72619307495E+03  0.12699999809E+01 0. -1.
</event>
<event>
 5   0  0.1101619E-03  0.1303608E+04  0.7818609E-02  0.9026709E-01
       -2   -1    0    0    0  501  0.00000000000E+00  0.00000000000E+00  0.35754661594E+03  0.35754661595E+03  0.25500000920E-02 0.  1.
        2   -1    0    0  501    0  0.00000000000E+00  0.00000000000E+00 -0.11882318195E+04  0.11882318195E+04  0.25500000920E-02 0. -1.
    10030    2    1    2    0    0  0.00000000000E+00  0.00000000000E+00 -0.83068520357E+03  0.15457784355E+04  0.13036077110E+04 0.  0.
        1    1    3    3  502    0 -0.11061591154E+03  0.43282846097E+03 -0.97814228434E+03  0.10753318953E+04  0.50400001928E-02 0. -1.
       -1    1    3    3    0  502  0.11061591154E+03 -0.43282846097E+03  0.14745708077E+03  0.47044654022E+03  0.50400001928E-02 0.  1.
</event>
<event>
 5   0  0.1046253E-03  0.1296417E+04  0.7818609E-02  0.9032411E-01
       -2   -1    0    0    0  501  0.00000000000E+00  0.00000000000E+00  0.17019565984E+03  0.17019565986E+03  0.25500000920E-02 0.  1.
        2   -1    0    0  501    0  0.00000000000E+00  0.00000000000E+00 -0.24687714963E+04  0.24687714963E+04  0.25500000920E-02 0. -1.
    10030    2    1    2    0    0  0.00000000000E+00  0.00000000000E+00 -0.22985758365E+04  0.26389671562E+04  0.12964168987E+04 0.  0.
        3    1    3    3  502    0  0.57795886058E+03  0.31854252515E+02 -0.55538852866E+03  0.80218923322E+03  0.10100000352E+00 0.  1.
       -3    1    3    3    0  502 -0.57795886058E+03 -0.31854252515E+02 -0.17431873078E+04  0.18367779230E+04  0.10100000352E+00 0. -1.
</event>
<event>
 5   0  0.5710383E-04  0.1267883E+04  0.7818609E-02  0.9055429E-01
        1   -1    0    0  501    0  0.00000000000E+00  0.00000000000E+00  0.48896445461E+03  0.48896445464E+03  0.50400001928E-02 0. -1.
       -1   -1    0    0    0  501  0.00000000000E+00  0.00000000000E+00 -0.82190357084E+03  0.82190357086E+03  0.50400001928E-02 0.  1.
    10030    2    1    2    0    0  0.00000000000E+00  0.00000000000E+00 -0.33293911623E+03  0.13108680255E+04  0.12678826938E+04 0.  0.
        1    1    3    3  502    0  0.11813242428E+03  0.11219440710E+03 -0.79988932705E+03  0.81631231168E+03  0.50400001928E-02 0.  1.
       -1    1    3    3    0  502 -0.11813242428E+03 -0.11219440710E+03  0.46695021082E+03  0.49455571381E+03  0.50400001928E-02 0. -1.
</event>
<event>
 5   0  0.1046253E-03  0.1307948E+04  0.7818609E-02  0.9023286E-01
       -2   -1    0    0    0  501  0.00000000000E+00  0.00000000000E+00  0.21159800250E+03  0.21159800251E+03  0.25500000920E-02 0.  1.
        2   -1    0    0  501    0  0.00000000000E+00  0.00000000000E+00 -0.20211993411E+04  0.20211993411E+04  0.25500000920E-02 0. -1.
    10030    2    1    2    0    0  0.00000000000E+00  0.00000000000E+00 -0.18096013386E+04  0.22327973437E+04  0.13079476186E+04 0.  0.
        3    1    3    3  502    0 -0.59954553305E+03 -0.21527931864E+03 -0.65227850490E+03  0.91173860804E+03  0.10100000352E+00 0.  1.
       -3    1    3    3    0  502  0.59954553305E+03  0.21527931864E+03 -0.11573228337E+04  0.13210587356E+04  0.10100000352E+00 0. -1.
</event>
<event>
 5   0  0.1101619E-03  0.1296846E+04  0.7818609E-02  0.9032070E-01
        2   -1    0    0  501    0  0.00000000000E+00  0.00000000000E+00  0.14184527496E+04  0.14184527496E+04  0.25500000920E-02 0. -1.
       -2   -1    0    0    0  501  0.00000000000E+00  0.00000000000E+00 -0.29641602991E+03  0.29641602992E+03  0.25500000920E-02 0.  1.
    10030    2    1    2    0    0  0.00000000000E+00  0.00000000000E+00  0.11220367197E+04  0.17148687795E+04  0.12968456079E+04 0.  0.
        1    1    3    3  502    0  0.20999895782E+03 -0.50614459149E+03  0.10262211469E+03  0.55750624053E+03  0.50400001928E-02 0.  1.
       -1    1    3    3    0  502 -0.20999895782E+03  0.50614459149E+03  0.10194146050E+04  0.11573625390E+04  0.50400001928E-02 0. -1.
</event>
<event>
 5   0  0.5563545E-04  0.1295656E+04  0.7818609E-02  0.9033017E-01
        1   -1    0    0  501    0  0.00000000000E+00  0.00000000000E+00  0.31935662417E+03  0.31935662421E+03  0.50400001928E-02 0.  1.
       -1   -1    0    0    0  501  0.00000000000E+00  0.00000000000E+00 -0.13141464784E+04  0.13141464784E+04  0.50400001928E-02 0. -1.
    10030    2    1    2    0    0  0.00000000000E+00  0.00000000000E+00 -0.99478985420E+03  0.16335031026E+04  0.12956564098E+04 0.  0.
        2    1    3    3  502    0 -0.21060471883E+03  0.45950517492E+03  0.13454517917E+02  0.50564847220E+03  0.25500000920E-02 0.  1.
       -2    1    3    3    0  502  0.21060471883E+03 -0.45950517492E+03 -0.10082443721E+04  0.11278546304E+04  0.25500000920E-02 0. -1.
</event>
<event>
 5   0  0.1103241E-03  0.1298956E+04  0.7818609E-02  0.9030394E-01
        2   -1    0    0  501    0  0.00000000000E+00  0.00000000000E+00  0.65975491078E+03  0.65975491079E+03  0.25500000920E-02 0. -1.
       -2   -1    0    0    0  501  0.00000000000E+00  0.00000000000E+00 -0.63936099543E+03  0.63936099544E+03  0.25500000920E-02 0.  1.
    10030    2    1    2    0    0  0.00000000000E+00  0.00000000000E+00  0.20393915351E+02  0.12991159062E+04  0.12989558214E+04 0.  0.
        4    1    3    3  502    0 -0.55334091093E+03 -0.28977560195E+03 -0.16776844761E+03  0.64676419823E+03  0.12699999809E+01 0.  1.
       -4    1    3    3    0  502  0.55334091093E+03  0.28977560195E+03  0.18816236296E+03  0.65235170800E+03  0.12699999809E+01 0. -1.
</event>
<event>
 5   0  0.1031295E-03  0.1296521E+04  0.7818609E-02  0.9032329E-01
        2   -1    0    0  501    0  0.00000000000E+00  0.00000000000E+00  0.10218175788E+04  0.10218175788E+04  0.25500000920E-02 0.  1.
       -2   -1    0    0    0  501  0.00000000000E+00  0.00000000000E+00 -0.41126875459E+03  0.41126875460E+03  0.25500000920E-02 0. -1.
    10030    2    1    2    0    0  0.00000000000E+00  0.00000000000E+00  0.61054882417E+03  0.14330863334E+04  0.12965209494E+04 0.  0.
        2    1    3    3  502    0 -0.22960347215E+03 -0.59868452858E+03  0.19982824836E+03  0.67161912423E+03  0.25500000920E-02 0. -1.
       -2    1    3    3    0  502  0.22960347215E+03  0.59868452858E+03  0.41072057582E+03  0.76146720913E+03  0.25500000920E-02 0.  1.
</event>
<event>
 5   0  0.5766027E-04  0.1309386E+04  0.7818609E-02  0.9022155E-01
       -1   -1    0    0    0  501  0.00000000000E+00  0.00000000000E+00  0.43197320432E+03  0.43197320435E+03  0.50400001928E-02 0. -1.
        1   -1    0    0  501    0  0.00000000000E+00  0.00000000000E+00 -0.99224476750E+03  0.99224476751E+03  0.50400001928E-02 0.  1.
    10030    2    1    2    0    0  0.00000000000E+00  0.00000000000E+00 -0.56027156318E+03  0.14242179719E+04  0.13093863474E+04 0.  0.
        3    1    3    3  502    0 -0.21750167563E+03  0.31354649154E+03 -0.85877187987E+03  0.93973801302E+03  0.10100000352E+00 0.  1.
       -3    1    3    3    0  502  0.21750167563E+03 -0.31354649154E+03  0.29850031668E+03  0.48447995884E+03  0.10100000352E+00 0. -1.
</event>
<event>
 5   0  0.6006119E-04  0.1293004E+04  0.7818609E-02  0.9035132E-01
       -1   -1    0    0    0  501  0.00000000000E+00  0.00000000000E+00  0.64902740762E+03  0.64902740764E+03  0.50400001928E-02 0.  1.
        1   -1    0    0  501    0  0.00000000000E+00  0.00000000000E+00 -0.64398621091E+03  0.64398621093E+03  0.50400001928E-02 0. -1.
    10030    2    1    2    0    0  0.00000000000E+00  0.00000000000E+00  0.50411967071E+01  0.12930136186E+04  0.12930037912E+04 0.  0.
        4    1    3    3  502    0 -0.51672294859E+03  0.18167197051E+02  0.39063491810E+03  0.64801998796E+03  0.12699999809E+01 0.  1.
       -4    1    3    3    0  502  0.51672294859E+03 -0.18167197051E+02 -0.38559372139E+03  0.64499363061E+03  0.12699999809E+01 0. -1.
</event>
<event>
 5   0  0.5812938E-04  0.1299134E+04  0.7818609E-02  0.9030253E-01
        1   -1    0    0  501    0  0.00000000000E+00  0.00000000000E+00  0.10759904805E+04  0.10759904805E+04  0.50400001928E-02 0. -1.
       -1   -1    0    0    0  501  0.00000000000E+00  0.00000000000E+00 -0.39213824273E+03  0.39213824276E+03  0.50400001928E-02 0.  1.
    10030    2    1    2    0    0  0.00000000000E+00  0.00000000000E+00  0.68385223773E+03  0.14681287232E+04  0.12991335824E+04 0.  0.
        5    1    3    3  502    0 -0.80333902379E+02 -0.27991662148E+03  0.99806368634E+03  0.10396922924E+04  0.46999998093E+01 0. -1.
       -5    1    3    3    0  502  0.80333902379E+02  0.27991662148E+03 -0.31421144860E+03  0.42843643086E+03  0.46999998093E+01 0.  1.
</event>
<event>
 5   0  0.6006119E-04  0.1240492E+04  0.7818609E-02  0.9078134E-01
        1   -1    0    0  501    0  0.00000000000E+00  0.00000000000E+00  0.12905366935E+04  0.12905366935E+04  0.50400001928E-02 0. -1.
       -1   -1    0    0    0  501  0.00000000000E+00  0.00000000000E+00 -0.29809704113E+03  0.29809704118E+03  0.50400001928E-02 0.  1.
    10030    2    1    2    0    0  0.00000000000E+00  0.00000000000E+00  0.99243965235E+03  0.15886337347E+04  0.12404921118E+04 0.  0.
        4    1    3    3  502    0 -0.53096597204E+03  0.10146101540E+02  0.90657859273E+03  0.10506731959E+04  0.12699999809E+01 0. -1.
       -4    1    3    3    0  502  0.53096597204E+03 -0.10146101540E+02  0.85861059624E+02  0.53796053879E+03  0.12699999809E+01 0.  1.
</event>
<event>
 5   0  0.5710383E-04  0.1306944E+04  0.7818609E-02  0.9024077E-01
        1   -1    0    0  501    0  0.00000000000E+00  0.00000000000E+00  0.66889396764E+03  0.66889396766E+03  0.50400001928E-02 0.  1.
       -1   -1    0    0    0  501  0.00000000000E+00  0.00000000000E+00 -0.63840519000E+03  0.63840519002E+03  0.50400001928E-02 0. -1.
    10030    2    1    2    0    0  0.00000000000E+00  0.00000000000E+00  0.30488777637E+02  0.13072991577E+04  0.13069435803E+04 0.  0.
        1    1    3    3  502    0 -0.25511040786E+03 -0.16202378151E+02  0.61680766386E+03  0.66767921301E+03  0.50400001928E-02 0.  1.
       -1    1    3    3    0  502  0.25511040786E+03  0.16202378151E+02 -0.58631888622E+03  0.63961994467E+03  0.50400001928E-02 0. -1.
</event>
<event>
 5   0  0.1081574E-03  0.1295616E+04  0.7818609E-02  0.9033049E-01
        2   -1    0    0  501    0  0.00000000000E+00  0.00000000000E+00  0.18853575548E+04  0.18853575548E+04  0.25500000920E-02 0. -1.
       -2   -1    0    0    0  501  0.00000000000E+00  0.00000000000E+00 -0.22258660018E+03  0.22258660020E+03  0.25500000920E-02 0.  1.
    10030    2    1    2    0    0  0.00000000000E+00  0.00000000000E+00  0.16627709546E+04  0.21079441550E+04  0.12956161905E+04 0.  0.
        5    1    3    3  502    0 -0.16408915782E+03 -0.62537256617E+03  0.89681240827E+03  0.11055816043E+04  0.46999998093E+01 0. -1.
       -5    1    3    3    0  502  0.16408915782E+03  0.62537256617E+03  0.76595854636E+03  0.10023625507E+04  0.46999998093E+01 0.  1.
</event>
<event>
 5   0  0.6006119E-04  0.1304002E+04  0.7818609E-02  0.9026398E-01
        1   -1    0    0  501    0  0.00000000000E+00  0.00000000000E+00  0.52497858433E+03  0.52497858435E+03  0.50400001928E-02 0. -1.
       -1   -1    0    0    0  501  0.00000000000E+00  0.00000000000E+00 -0.80975710663E+03  0.80975710665E+03  0.50400001928E-02 0.  1.
    10030    2    1    2    0    0  0.00000000000E+00  0.00000000000E+00 -0.28477852231E+03  0.13347356910E+04  0.13040017477E+04 0.  0.
        4    1    3    3  502    0  0.31731195058E+03 -0.46870963647E+03  0.18885499679E+03  0.59669374056E+03  0.12699999809E+01 0. -1.
       -4    1    3    3    0  502 -0.31731195058E+03  0.46870963647E+03 -0.47363351910E+03  0.73804195044E+03  0.12699999809E+01 0.  1.
</event>
<event>
 5   0  0.4012375E-04  0.1302564E+04  0.7818609E-02  0.9027535E-01
        4   -1    0    0  501    0  0.00000000000E+00  0.00000000000E+00  0.21847384678E+03  0.21847753804E+03  0.12699999809E+01 0. -1.
       -4   -1    0    0    0  501  0.00000000000E+00  0.00000000000E+00 -0.19414847620E+04  0.19414851774E+04  0.12699999809E+01 0.  1.
    10030    2    1    2    0    0  0.00000000000E+00  0.00000000000E+00 -0.17230109152E+04  0.21599627154E+04  0.13025637481E+04 0.  0.
        1    1    3    3  502    0  0.15945854577E+03 -0.29427606953E+03 -0.17879593741E+04  0.18190173601E+04  0.50400001928E-02 0.  1.
       -1    1    3    3    0  502 -0.15945854577E+03  0.29427606953E+03  0.64948458941E+02  0.34094535524E+03  0.50400001928E-02 0. -1.
</event>
<event>
 5   0  0.1046253E-03  0.1299506E+04  0.7818609E-02  0.9029957E-01
        2   -1    0    0  501    0  0.00000000000E+00  0.00000000000E+00  0.10116098391E+04  0.10116098391E+04  0.25500000920E-02 0. -1.
       -2   -1    0    0    0  501  0.00000000000E+00  0.00000000000E+00 -0.41733361543E+03  0.41733361544E+03  0.25500000920E-02 0.  1.
    10030    2    1    2    0    0  0.00000000000E+00  0.00000000000E+00  0.59427622364E+03  0.14289434545E+04  0.12995057392E+04 0.  0.
        3    1    3    3  502    0  0.53614274239E+03 -0.36584307904E+03  0.26435986242E+03  0.70083974328E+03  0.10100000352E+00 0.  1.
       -3    1    3    3    0  502 -0.53614274239E+03  0.36584307904E+03  0.32991636121E+03  0.72810371122E+03  0.10100000352E+00 0. -1.
</event>
<event>
 5   0  0.1046253E-03  0.1284324E+04  0.7818609E-02  0.9042089E-01
        2   -1    0    0  501    0  0.00000000000E+00  0.00000000000E+00  0.11027736679E+04  0.11027736679E+04  0.25500000920E-02 0. -1.
       -2   -1    0    0    0  501  0.00000000000E+00  0.00000000000E+00 -0.37394100001E+03  0.37394100002E+03  0.25500000920E-02 0.  1.
    10030    2    1    2    0    0  0.00000000000E+00  0.00000000000E+00  0.72883266793E+03  0.14767146680E+04  0.12843243954E+04 0.  0.
        3    1    3    3  502    0 -0.59348560014E+03  0.24500815843E+03  0.35191982965E+03  0.73218968306E+03  0.10100000352E+00 0. -1.
       -3    1    3    3    0  502  0.59348560014E+03 -0.24500815843E+03  0.37691283828E+03  0.74452498490E+03  0.10100000352E+00 0.  1.
</event>
<event>
 5   0  0.5812938E-04  0.1305948E+04  0.7818609E-02  0.9024862E-01
        1   -1    0    0  501    0  0.00000000000E+00  0.00000000000E+00  0.16359032381E+04  0.16359032381E+04  0.50400001928E-02 0.  1.
       -1   -1    0    0    0  501  0.00000000000E+00  0.00000000000E+00 -0.26063583608E+03  0.26063583613E+03  0.50400001928E-02 0. -1.
    10030    2    1    2    0    0  0.00000000000E+00  0.00000000000E+00  0.13752674020E+04  0.18965390742E+04  0.13059479442E+04 0.  0.
        5    1    3    3  502    0  0.42682751467E+03 -0.41286150686E+03  0.29334123385E+03  0.66234999857E+03  0.46999998093E+01 0. -1.
       -5    1    3    3    0  502 -0.42682751467E+03  0.41286150686E+03  0.10819261681E+04  0.12341890756E+04  0.46999998093E+01 0.  1.
</event>
<event>
 5   0  0.1081574E-03  0.1300734E+04  0.7818609E-02  0.9028984E-01
        2   -1    0    0  501    0  0.00000000000E+00  0.00000000000E+00  0.13547933939E+04  0.13547933939E+04  0.25500000920E-02 0.  1.
       -2   -1    0    0    0  501  0.00000000000E+00  0.00000000000E+00 -0.31220773704E+03  0.31220773706E+03  0.25500000920E-02 0. -1.
    10030    2    1    2    0    0  0.00000000000E+00  0.00000000000E+00  0.10425856569E+04  0.16670011310E+04  0.13007336079E+04 0.  0.
        5    1    3    3  502    0  0.63920651473E+03  0.10226317856E+03  0.44113313771E+03  0.78336662001E+03  0.46999998093E+01 0. -1.
       -5    1    3    3    0  502 -0.63920651473E+03 -0.10226317856E+03  0.60145251915E+03  0.88363451096E+03  0.46999998093E+01 0.  1.
</event>
<event>
 5   0  0.1046253E-03  0.1298019E+04  0.7818609E-02  0.9031137E-01
        2   -1    0    0  501    0  0.00000000000E+00  0.00000000000E+00  0.60428943775E+03  0.60428943775E+03  0.25500000920E-02 0. -1.
       -2   -1    0    0    0  501  0.00000000000E+00  0.00000000000E+00 -0.69703922614E+03  0.69703922615E+03  0.25500000920E-02 0.  1.
    10030    2    1    2    0    0  0.00000000000E+00  0.00000000000E+00 -0.92749788399E+02  0.13013286639E+04  0.12980191710E+04 0.  0.
        3    1    3    3  502    0 -0.38736827820E+03 -0.33000709824E+03  0.35746047209E+03  0.62188171476E+03  0.10100000352E+00 0.  1.
       -3    1    3    3    0  502  0.38736827820E+03  0.33000709824E+03 -0.45021026049E+03  0.67944694914E+03  0.10100000352E+00 0. -1.
</event>
<event>
 5   0  0.5766027E-04  0.1294250E+04  0.7818609E-02  0.9034138E-01
        1   -1    0    0  501    0  0.00000000000E+00  0.00000000000E+00  0.53500064182E+03  0.53500064185E+03  0.50400001928E-02 0. -1.
       -1   -1    0    0    0  501  0.00000000000E+00  0.00000000000E+00 -0.78274776522E+03  0.78274776524E+03  0.50400001928E-02 0.  1.
    10030    2    1    2    0    0  0.00000000000E+00  0.00000000000E+00 -0.24774712340E+03  0.13177484071E+04  0.12942496773E+04 0.  0.
        3    1    3    3  502    0 -0.50621814373E+03 -0.23968867699E+03  0.20614585304E+03  0.59682794325E+03  0.10100000352E+00 0. -1.
       -3    1    3    3    0  502  0.50621814373E+03  0.23968867699E+03 -0.45389297644E+03  0.72092046384E+03  0.10100000352E+00 0.  1.
</event>
<event>
 5   0  0.5766027E-04  0.1254556E+04  0.7818609E-02  0.9066400E-01
       -1   -1    0    0    0  501  0.00000000000E+00  0.00000000000E+00  0.10007379175E+04  0.10007379175E+04  0.50400001928E-02 0.  1.
        1   -1    0    0  501    0  0.00000000000E+00  0.00000000000E+00 -0.39318767263E+03  0.39318767266E+03  0.50400001928E-02 0. -1.
    10030    2    1    2    0    0  0.00000000000E+00  0.00000000000E+00  0.60755024484E+03  0.13939255901E+04  0.12545561968E+04 0.  0.
        3    1    3    3  502    0 -0.21891054602E+03  0.39061484243E+03 -0.18431626449E+03  0.48422544114E+03  0.10100000352E+00 0. -1.
       -3    1    3    3    0  502  0.21891054602E+03 -0.39061484243E+03  0.79186650933E+03  0.90970014900E+03  0.10100000352E+00 0.  1.
</event>
<event>
 5   0  0.6006119E-04  0.1254346E+04  0.7818609E-02  0.9066574E-01
        1   -1    0    0  501    0  0.00000000000E+00  0.00000000000E+00  0.80907017106E+03  0.80907017108E+03  0.50400001928E-02 0.  1.
       -1   -1    0    0    0  501  0.00000000000E+00  0.00000000000E+00 -0.48617048392E+03  0.48617048395E+03  0.50400001928E-02 0. -1.
    10030    2    1    2    0    0  0.00000000000E+00  0.00000000000E+00  0.32289968714E+03  0.12952406550E+04  0.12543461032E+04 0.  0.
        4    1    3    3  502    0  0.52151775418E+03  0.62294763061E+02  0.51538249574E+03  0.73585469710E+03  0.12699999809E+01 0.  1.
       -4    1    3    3    0  502 -0.52151775418E+03 -0.62294763061E+02 -0.19248280860E+03  0.55938595793E+03  0.12699999809E+01 0. -1.
</event>
<event>
 5   0  0.1101619E-03  0.1268748E+04  0.7818609E-02  0.9054722E-01
       -2   -1    0    0    0  501  0.00000000000E+00  0.00000000000E+00  0.21047501464E+03  0.21047501466E+03  0.25500000920E-02 0. -1.
        2   -1    0    0  501    0  0.00000000000E+00  0.00000000000E+00 -0.19120095120E+04  0.19120095120E+04  0.25500000920E-02 0.  1.
    10030    2    1    2    0    0  0.00000000000E+00  0.00000000000E+00 -0.17015344974E+04  0.21224845267E+04  0.12687477764E+04 0.  0.
        1    1    3    3  502    0  0.13851414324E+03 -0.44511307261E+03 -0.13099673710E+03  0.48422304824E+03  0.50400001928E-02 0. -1.
       -1    1    3    3    0  502 -0.13851414324E+03  0.44511307261E+03 -0.15705377603E+04  0.16382614784E+04  0.50400001928E-02 0.  1.
</event>
<event>
 5   0  0.4012375E-04  0.1290222E+04  0.7818609E-02  0.9037355E-01
        4   -1    0    0  501    0  0.00000000000E+00  0.00000000000E+00  0.32206054946E+03  0.32206305348E+03  0.12699999809E+01 0.  1.
       -4   -1    0    0    0  501  0.00000000000E+00  0.00000000000E+00 -0.12921979959E+04  0.12921986200E+04  0.12699999809E+01 0. -1.
    10030    2    1    2    0    0  0.00000000000E+00  0.00000000000E+00 -0.97013744643E+03  0.16142616734E+04  0.12902224945E+04 0.  0.
        4    1    3    3  502    0 -0.74438213524E+02 -0.61886751779E+03 -0.69303397666E+03  0.93211359711E+03  0.12699999809E+01 0. -1.
       -4    1    3    3    0  502  0.74438213524E+02  0.61886751779E+03 -0.27710346977E+03  0.68214807634E+03  0.12699999809E+01 0.  1.
</event>
<event>
 5   0  0.1031295E-03  0.1294859E+04  0.7818609E-02  0.9033652E-01
       -2   -1    0    0    0  501  0.00000000000E+00  0.00000000000E+00  0.58412094917E+03  0.58412094918E+03  0.25500000920E-02 0. -1.
        2   -1    0    0  501    0  0.00000000000E+00  0.00000000000E+00 -0.71760000721E+03  0.71760000721E+03  0.25500000920E-02 0.  1.
    10030    2    1    2    0    0  0.00000000000E+00  0.00000000000E+00 -0.13347905803E+03  0.13017209564E+04  0.12948593705E+04 0.  0.
        2    1    3    3  502    0  0.45714341626E+03 -0.39686628214E+03 -0.29748194920E+03  0.67452091075E+03  0.25500000920E-02 0.  1.
       -2    1    3    3    0  502 -0.45714341626E+03  0.39686628214E+03  0.16400289117E+03  0.62720004564E+03  0.25500000920E-02 0. -1.
</event>
<event>
 5   0  0.1046253E-03  0.1279536E+04  0.7818609E-02  0.9045953E-01
       -2   -1    0    0    0  501  0.00000000000E+00  0.00000000000E+00  0.96675560275E+03  0.96675560275E+03  0.25500000920E-02 0. -1.
        2   -1    0    0  501    0  0.00000000000E+00  0.00000000000E+00 -0.42337795840E+03  0.42337795840E+03  0.25500000920E-02 0.  1.
    10030    2    1    2    0    0  0.00000000000E+00  0.00000000000E+00  0.54337764435E+03  0.13901335612E+04  0.12795358742E+04 0.  0.
        3    1    3    3  502    0 -0.26559046545E+02 -0.10973291986E+03 -0.41246930787E+03  0.42764194928E+03  0.10100000352E+00 0.  1.
       -3    1    3    3    0  502  0.26559046545E+02  0.10973291986E+03  0.95584695222E+03  0.96249161187E+03  0.10100000352E+00 0. -1.
</event>
<event>
 5   0  0.5563545E-04  0.1300692E+04  0.7818609E-02  0.9029016E-01
       -1   -1    0    0    0  501  0.00000000000E+00  0.00000000000E+00  0.42308938136E+03  0.42308938139E+03  0.50400001928E-02 0. -1.
        1   -1    0    0  501    0  0.00000000000E+00  0.00000000000E+00 -0.99967081875E+03  0.99967081876E+03  0.50400001928E-02 0.  1.
    10030    2    1    2    0    0  0.00000000000E+00  0.00000000000E+00 -0.57658143739E+03  0.14227602002E+04  0.13006922900E+04 0.  0.
        2    1    3    3  502    0 -0.97339673042E+02  0.40566147512E+03  0.25744412753E+03  0.49021803634E+03  0.25500000920E-02 0. -1.
       -2    1    3    3    0  502  0.97339673042E+02 -0.40566147512E+03 -0.83402556492E+03  0.93254216382E+03  0.25500000920E-02 0.  1.
</event>
<event>
 5   0  0.5710383E-04  0.1325572E+04  0.7818609E-02  0.9009528E-01
       -1   -1    0    0    0  501  0.00000000000E+00  0.00000000000E+00  0.35493714878E+03  0.35493714882E+03  0.50400001928E-02 0. -1.
        1   -1    0    0  501    0  0.00000000000E+00  0.00000000000E+00 -0.12376432008E+04  0.12376432008E+04  0.50400001928E-02 0.  1.
    10030    2    1    2    0    0  0.00000000000E+00  0.00000000000E+00 -0.88270605199E+03  0.15925803496E+04  0.13255724030E+04 0.  0.
        1    1    3    3  502    0  0.17715695839E+03 -0.57128980782E+02  0.32288883797E+03  0.37270029523E+03  0.50400001928E-02 0. -1.
       -1    1    3    3    0  502 -0.17715695839E+03  0.57128980782E+02 -0.12055948900E+04  0.12198800544E+04  0.50400001928E-02 0.  1.
</event>
<event>
 5   0  0.1046253E-03  0.1302232E+04  0.7818609E-02  0.9027797E-01
        2   -1    0    0  501    0  0.00000000000E+00  0.00000000000E+00  0.84295194656E+03  0.84295194656E+03  0.25500000920E-02 0.  1.
       -2   -1    0    0    0  501  0.00000000000E+00  0.00000000000E+00 -0.50293760517E+03  0.50293760517E+03  0.25500000920E-02 0. -1.
    10030    2    1    2    0    0  0.00000000000E+00  0.00000000000E+00  0.34001434139E+03  0.13458895517E+04  0.13022322885E+04 0.  0.
        3    1    3    3  502    0  0.32167918908E+03  0.33644484771E+03 -0.30053573443E+03  0.55407073024E+03  0.10100000352E+00 0. -1.
       -3    1    3    3    0  502 -0.32167918908E+03 -0.33644484771E+03  0.64055007581E+03  0.79181882149E+03  0.10100000352E+00 0.  1.
</event>
<event>
 5   0  0.1081574E-03  0.1325046E+04  0.7818609E-02  0.9009936E-01
        2   -1    0    0  501    0  0.00000000000E+00  0.00000000000E+00  0.76510818895E+03  0.76510818896E+03  0.25500000920E-02 0.  1.
       -2   -1    0    0    0  501  0.00000000000E+00  0.00000000000E+00 -0.57369255594E+03  0.57369255594E+03  0.25500000920E-02 0. -1.
    10030    2    1    2    0    0  0.00000000000E+00  0.00000000000E+00  0.19141563302E+03  0.13388007449E+04  0.13250462218E+04 0.  0.
        5    1    3    3  502    0  0.43179558757E+03 -0.49108624047E+03 -0.11704971062E+02  0.65404298129E+03  0.46999998093E+01 0.  1.
       -5    1    3    3    0  502 -0.43179558757E+03  0.49108624047E+03  0.20312060408E+03  0.68475776361E+03  0.46999998093E+01 0. -1.
</event>
<event>
 5   0  0.5766027E-04  0.1306758E+04  0.7818609E-02  0.9024223E-01
       -1   -1    0    0    0  501  0.00000000000E+00  0.00000000000E+00  0.85115322065E+03  0.85115322066E+03  0.50400001928E-02 0.  1.
        1   -1    0    0  501    0  0.00000000000E+00  0.00000000000E+00 -0.50155963267E+03  0.50155963269E+03  0.50400001928E-02 0. -1.
    10030    2    1    2    0    0  0.00000000000E+00  0.00000000000E+00  0.34959358798E+03  0.13527128534E+04  0.13067579680E+04 0.  0.
        3    1    3    3  502    0 -0.36316211440E+03  0.53691976718E+03  0.25974692766E+03  0.69831084365E+03  0.10100000352E+00 0.  1.
       -3    1    3    3    0  502  0.36316211440E+03 -0.53691976718E+03  0.89846660318E+02  0.65440200970E+03  0.10100000352E+00 0. -1.
</event>
<event>
 5   0  0.5563545E-04  0.1297279E+04  0.7818609E-02  0.9031726E-01
       -1   -1    0    0    0  501  0.00000000000E+00  0.00000000000E+00  0.73777442127E+03  0.73777442129E+03  0.50400001928E-02 0. -1.
        1   -1    0    0  501    0  0.00000000000E+00  0.00000000000E+00 -0.57027319965E+03  0.57027319967E+03  0.50400001928E-02 0.  1.
    10030    2    1    2    0    0  0.00000000000E+00  0.00000000000E+00  0.16750122163E+03  0.13080476210E+04  0.12972786591E+04 0.  0.
        2    1    3    3  502    0  0.59432449832E+02  0.93136072460E+02 -0.56071591404E+03  0.57149705192E+03  0.25500000920E-02 0.  1.
       -2    1    3    3    0  502 -0.59432449832E+02 -0.93136072460E+02  0.72821713566E+03  0.73655056905E+03  0.25500000920E-02 0. -1.
</event>
<event>
 5   0  0.5563545E-04  0.1288913E+04  0.7818609E-02  0.9038404E-01
       -1   -1    0    0    0  501  0.00000000000E+00  0.00000000000E+00  0.27299059260E+03  0.27299059264E+03  0.50400001928E-02 0.  1.
        1   -1    0    0  501    0  0.00000000000E+00  0.00000000000E+00 -0.15213856508E+04  0.15213856508E+04  0.50400001928E-02 0. -1.
    10030    2    1    2    0    0  0.00000000000E+00  0.00000000000E+00 -0.12483950582E+04  0.17943762435E+04  0.12889126742E+04 0.  0.
        2    1    3    3  502    0 -0.40694464684E+03 -0.49542973918E+02 -0.13164616056E+04  0.13788145672E+04  0.25500000920E-02 0. -1.
       -2    1    3    3    0  502  0.40694464684E+03  0.49542973918E+02  0.68066547382E+02  0.41556167621E+03  0.25500000920E-02 0.  1.
</event>
<event>
 5   0  0.1103241E-03  0.1302782E+04  0.7818609E-02  0.9027362E-01
       -2   -1    0    0    0  501  0.00000000000E+00  0.00000000000E+00  0.95802176988E+03  0.95802176988E+03  0.25500000920E-02 0. -1.
        2   -1    0    0  501    0  0.00000000000E+00  0.00000000000E+00 -0.44290222765E+03  0.44290222765E+03  0.25500000920E-02 0.  1.
    10030    2    1    2    0    0  0.00000000000E+00  0.00000000000E+00  0.51511954223E+03  0.14009239975E+04  0.13027816026E+04 0.  0.
        4    1    3    3  502    0 -0.13379422327E+03 -0.49320431083E+03  0.69191572845E+03  0.86017461865E+03  0.12699999809E+01 0. -1.
       -4    1    3    3    0  502  0.13379422327E+03  0.49320431083E+03 -0.17679618622E+03  0.54074937888E+03  0.12699999809E+01 0.  1.
</event>
<event>
 5   0  0.5812938E-04  0.1288129E+04  0.7818609E-02  0.9039032E-01
       -1   -1    0    0    0  501  0.00000000000E+00  0.00000000000E+00  0.39686348968E+03  0.39686348971E+03  0.50400001928E-02 0. -1.
        1   -1    0    0  501    0  0.00000000000E+00  0.00000000000E+00 -0.10452437824E+04  0.10452437824E+04  0.50400001928E-02 0.  1.
    10030    2    1    2    0    0  0.00000000000E+00  0.00000000000E+00 -0.64838029274E+03  0.14421072721E+04  0.12881290232E+04 0.  0.
        5    1    3    3  502    0  0.40569354486E+03  0.86328361090E+02 -0.87579011331E+03  0.96905637134E+03  0.46999998093E+01 0. -1.
       -5    1    3    3    0  502 -0.40569354486E+03 -0.86328361090E+02  0.22740982056E+03  0.47305090081E+03  0.46999998093E+01 0.  1.
</event>
<event>
 5   0  0.1081574E-03  0.1298759E+04  0.7818609E-02  0.9030550E-01
       -2   -1    0    0    0  501  0.00000000000E+00  0.00000000000E+00  0.66779478757E+03  0.66779478758E+03  0.25500000920E-02 0. -1.
        2   -1    0    0  501    0  0.00000000000E+00  0.00000000000E+00 -0.63147183660E+03  0.63147183660E+03  0.25500000920E-02 0.  1.
    10030    2    1    2    0    0  0.00000000000E+00  0.00000000000E+00  0.36322950978E+02  0.12992666242E+04  0.12987587936E+04 0.  0.
        5    1    3    3  502    0  0.32001748200E+03  0.45638365344E+03 -0.31509680969E+03  0.64031657592E+03  0.46999998093E+01 0.  1.
       -5    1    3    3    0  502 -0.32001748200E+03 -0.45638365344E+03  0.35141976067E+03  0.65895004826E+03  0.46999998093E+01 0. -1.
</event>
<event>
 5   0  0.5563545E-04  0.1295584E+04  0.7818609E-02  0.9033074E-01
       -1   -1    0    0    0  501  0.00000000000E+00  0.00000000000E+00  0.41881635496E+03  0.41881635499E+03  0.50400001928E-02 0.  1.
        1   -1    0    0  501    0  0.00000000000E+00  0.00000000000E+00 -0.10019537008E+04  0.10019537008E+04  0.50400001928E-02 0. -1.
    10030    2    1    2    0    0  0.00000000000E+00  0.00000000000E+00 -0.58313734580E+03  0.14207700558E+04  0.12955841877E+04 0.  0.
        2    1    3    3  502    0 -0.48146431771E+03 -0.98101143232E+02 -0.75449886641E+03  0.90038895092E+03  0.25500000920E-02 0. -1.
       -2    1    3    3    0  502  0.48146431771E+03  0.98101143232E+02  0.17136152061E+03  0.52038110484E+03  0.25500000920E-02 0.  1.
</event>
<event>
 5   0  0.1101619E-03  0.1300034E+04  0.7818609E-02  0.9029538E-01
        2   -1    0    0  501    0  0.00000000000E+00  0.00000000000E+00  0.16255463088E+04  0.16255463088E+04  0.25500000920E-02 0. -1.
       -2   -1    0    0    0  501  0.00000000000E+00  0.00000000000E+00 -0.25992639714E+03  0.25992639716E+03  0.25500000920E-02 0.  1.
    10030    2    1    2    0    0  0.00000000000E+00  0.00000000000E+00  0.13656199116E+04  0.18854727059E+04  0.13000344541E+04 0.  0.
        1    1    3    3  502    0  0.46003161246E+03 -0.42559113437E+03  0.43258999078E+03  0.76150574408E+03  0.50400001928E-02 0. -1.
       -1    1    3    3    0  502 -0.46003161246E+03  0.42559113437E+03  0.93302992084E+03  0.11239669618E+04  0.50400001928E-02 0.  1.
</event>
<event>
 5   0  0.5812938E-04  0.1299423E+04  0.7818609E-02  0.9030023E-01
       -1   -1    0    0    0  501  0.00000000000E+00  0.00000000000E+00  0.47499071149E+03  0.47499071151E+03  0.50400001928E-02 0. -1.
        1   -1    0    0  501    0  0.00000000000E+00  0.00000000000E+00 -0.88870217353E+03  0.88870217354E+03  0.50400001928E-02 0.  1.
    10030    2    1    2    0    0  0.00000000000E+00  0.00000000000E+00 -0.41371146204E+03  0.13636928851E+04  0.12994233763E+04 0.  0.
        5    1    3    3  502    0 -0.55873502971E+03  0.29573894315E+03 -0.49587811189E+02  0.63413515668E+03  0.46999998093E+01 0. -1.
       -5    1    3    3    0  502  0.55873502971E+03 -0.29573894315E+03 -0.36412365085E+03  0.72955772837E+03  0.46999998093E+01 0.  1.
</event>
<event>
 5   0  0.5563545E-04  0.1304809E+04  0.7818609E-02  0.9025760E-01
        1   -1    0    0  501    0  0.00000000000E+00  0.00000000000E+00  0.16096047190E+04  0.16096047190E+04  0.50400001928E-02 0. -1.
       -1   -1    0    0    0  501  0.00000000000E+00  0.00000000000E+00 -0.26443228630E+03  0.26443228635E+03  0.50400001928E-02 0.  1.
    10030    2    1    2    0    0  0.00000000000E+00  0.00000000000E+00  0.13451724327E+04  0.18740370053E+04  0.13048087307E+04 0.  0.
        2    1    3    3  502    0  0.46444713614E+03 -0.32265217648E+03  0.20538200795E+03  0.60166214643E+03  0.25500000920E-02 0.  1.
       -2    1    3    3    0  502 -0.46444713614E+03  0.32265217648E+03  0.11397904247E+04  0.12723748589E+04  0.25500000920E-02 0. -1.
</event>
<event>
 5   0  0.1031295E-03  0.1294758E+04  0.7818609E-02  0.9033732E-01
       -2   -1    0    0    0  501  0.00000000000E+00  0.00000000000E+00  0.80165651404E+03  0.80165651404E+03  0.25500000920E-02 0. -1.
        2   -1    0    0  501    0  0.00000000000E+00  0.00000000000E+00 -0.52279222911E+03  0.52279222912E+03  0.25500000920E-02 0.  1.
    10030    2    1    2    0    0  0.00000000000E+00  0.00000000000E+00  0.27886428492E+03  0.13244487432E+04  0.12947583496E+04 0.  0.
        2    1    3    3  502    0  0.48485290902E+03 -0.42706133404E+03  0.18080802926E+03  0.67093611459E+03  0.25500000920E-02 0. -1.
       -2    1    3    3    0  502 -0.48485290902E+03  0.42706133404E+03  0.98056255658E+02  0.65351262857E+03  0.25500000920E-02 0.  1.
</event>
<event>
 5   0  0.1031295E-03  0.1303053E+04  0.7818609E-02  0.9027147E-01
        2   -1    0    0  501    0  0.00000000000E+00  0.00000000000E+00  0.15318604644E+04  0.15318604644E+04  0.25500000920E-02 0.  1.
       -2   -1    0    0    0  501  0.00000000000E+00  0.00000000000E+00 -0.27710544988E+03  0.27710544989E+03  0.25500000920E-02 0. -1.
    10030    2    1    2    0    0  0.00000000000E+00  0.00000000000E+00  0.12547550145E+04  0.18089659143E+04  0.13030531580E+04 0.  0.
        2    1    3    3  502    0 -0.39377643869E+03  0.90837551493E+02  0.13368482655E+04  0.13965939386E+04  0.25500000920E-02 0.  1.
       -2    1    3    3    0  502  0.39377643869E+03 -0.90837551493E+02 -0.82093251002E+02  0.41237197564E+03  0.25500000920E-02 0. -1.
</event>
<event>
 5   0  0.1103241E-03  0.1290330E+04  0.7818609E-02  0.9037269E-01
        2   -1    0    0  501    0  0.00000000000E+00  0.00000000000E+00  0.67466261084E+03  0.67466261084E+03  0.25500000920E-02 0.  1.
       -2   -1    0    0    0  501  0.00000000000E+00  0.00000000000E+00 -0.61695710004E+03  0.61695710005E+03  0.25500000920E-02 0. -1.
    10030    2    1    2    0    0  0.00000000000E+00  0.00000000000E+00  0.57705510794E+02  0.12916197109E+04  0.12903300165E+04 0.  0.
        4    1    3    3  502    0  0.60823377998E+03  0.15415860298E+03 -0.12137412456E+03  0.63909819042E+03  0.12699999809E+01 0.  1.
       -4    1    3    3    0  502 -0.60823377998E+03 -0.15415860298E+03  0.17907963535E+03  0.65252152047E+03  0.12699999809E+01 0. -1.
</event>
<event>
 5   0  0.1031295E-03  0.1305082E+04  0.7818609E-02  0.9025544E-01
        2   -1    0    0  501    0  0.00000000000E+00  0.00000000000E+00  0.68261788625E+03  0.68261788626E+03  0.25500000920E-02 0.  1.
       -2   -1    0    0    0  501  0.00000000000E+00  0.00000000000E+00 -0.62378979360E+03  0.62378979360E+03  0.25500000920E-02 0. -1.
    10030    2    1    2    0    0  0.00000000000E+00  0.00000000000E+00  0.58828092653E+02  0.13064076799E+04  0.13050824807E+04 0.  0.
        2    1    3    3  502    0  0.33678776696E+03 -0.53881382374E+03  0.17810353533E+03  0.65989939077E+03  0.25500000920E-02 0.  1.
       -2    1    3    3    0  502 -0.33678776696E+03  0.53881382374E+03 -0.11927544267E+03  0.64650828909E+03  0.25500000920E-02 0. -1.
</event>
<event>
 5   0  0.1031295E-03  0.1305091E+04  0.7818609E-02  0.9025538E-01
       -2   -1    0    0    0  501  0.00000000000E+00  0.00000000000E+00  0.32978335233E+03  0.32978335234E+03  0.25500000920E-02 0.  1.
        2   -1    0    0  501    0  0.00000000000E+00  0.00000000000E+00 -0.12911979367E+04  0.12911979367E+04  0.25500000920E-02 0. -1.
    10030    2    1    2    0    0  0.00000000000E+00  0.00000000000E+00 -0.96141458433E+03  0.16209812890E+04  0.13050909303E+04 0.  0.
        2    1    3    3  502    0  0.18467395724E+03  0.41545486229E+03 -0.10620961646E+04  0.11553161801E+04  0.25500000920E-02 0. -1.
       -2    1    3    3    0  502 -0.18467395724E+03 -0.41545486229E+03  0.10068158025E+03  0.46566510894E+03  0.25500000920E-02 0.  1.
</event>
<event>
 5   0  0.1046253E-03  0.1231350E+04  0.7818609E-02  0.9085850E-01
        2   -1    0    0  501    0  0.00000000000E+00  0.00000000000E+00  0.12836168307E+04  0.12836168307E+04  0.25500000920E-02 0. -1.
       -2   -1    0    0    0  501  0.00000000000E+00  0.00000000000E+00 -0.29530281358E+03  0.29530281359E+03  0.25500000920E-02 0.  1.
    10030    2    1    2    0    0  0.00000000000E+00  0.00000000000E+00  0.98831401714E+03  0.15789196443E+04  0.12313499286E+04 0.  0.
        3    1    3    3  502    0  0.93865529950E+01 -0.26192358157E+03 -0.22019770711E+03  0.34231434439E+03  0.10100000352E+00 0.  1.
       -3    1    3    3    0  502 -0.93865529950E+01  0.26192358157E+03  0.12085117242E+04  0.12366052999E+04  0.10100000352E+00 0. -1.
</event>
<event>
 5   0  0.6006119E-04  0.1289561E+04  0.7818609E-02  0.9037884E-01
        1   -1    0    0  501    0  0.00000000000E+00  0.00000000000E+00  0.20463916331E+04  0.20463916331E+04  0.50400001928E-02 0.  1.
       -1   -1    0    0    0  501  0.00000000000E+00  0.00000000000E+00 -0.20315866218E+03  0.20315866224E+03  0.50400001928E-02 0. -1.
    10030    2    1    2    0    0  0.00000000000E+00  0.00000000000E+00  0.18432329709E+04  0.22495502954E+04  0.12895614550E+04 0.  0.
        4    1    3    3  502    0  0.57409317572E+03 -0.27324851862E+03  0.11086276194E+04  0.12780080355E+04  0.12699999809E+01 0.  1.
       -4    1    3    3    0  502 -0.57409317572E+03  0.27324851862E+03  0.73460535150E+03  0.97154225986E+03  0.12699999809E+01 0. -1.
</event>
<event>
 5   0  0.5710383E-04  0.1355491E+04  0.7818609E-02  0.8986682E-01
       -1   -1    0    0    0  501  0.00000000000E+00  0.00000000000E+00  0.10686912478E+04  0.10686912478E+04  0.50400001928E-02 0.  1.
        1   -1    0    0  501    0  0.00000000000E+00  0.00000000000E+00 -0.42981474673E+03  0.42981474676E+03  0.50400001928E-02 0. -1.
    10030    2    1    2    0    0  0.00000000000E+00  0.00000000000E+00  0.63887650104E+03  0.14985059946E+04  0.13554914356E+04 0.  0.
        1    1    3    3  502    0 -0.94385561631E+02  0.53594537642E+03 -0.12715556604E+03  0.55885115975E+03  0.50400001928E-02 0. -1.
       -1    1    3    3    0  502  0.94385561631E+02 -0.53594537642E+03  0.76603206708E+03  0.93965483480E+03  0.50400001928E-02 0.  1.
</event>
<event>
 5   0  0.5766027E-04  0.1306009E+04  0.7818609E-02  0.9024814E-01
        1   -1    0    0  501    0  0.00000000000E+00  0.00000000000E+00  0.85513707957E+03  0.85513707958E+03  0.50400001928E-02 0. -1.
       -1   -1    0    0    0  501  0.00000000000E+00  0.00000000000E+00 -0.49865055310E+03  0.49865055313E+03  0.50400001928E-02 0.  1.
    10030    2    1    2    0    0  0.00000000000E+00  0.00000000000E+00  0.35648652647E+03  0.13537876327E+04  0.13060085417E+04 0.  0.
        3    1    3    3  502    0  0.67527407389E+02 -0.26633641879E+03  0.79229970793E+03  0.83859041022E+03  0.10100000352E+00 0. -1.
       -3    1    3    3    0  502 -0.67527407389E+02  0.26633641879E+03 -0.43581318147E+03  0.51519722249E+03  0.10100000352E+00 0.  1.
</event>
<event>
 5   0  0.5563545E-04  0.1297203E+04  0.7818609E-02  0.9031786E-01
       -1   -1    0    0    0  501  0.00000000000E+00  0.00000000000E+00  0.83371004888E+03  0.83371004889E+03  0.50400001928E-02 0. -1.
        1   -1    0    0  501    0  0.00000000000E+00  0.00000000000E+00 -0.50459290954E+03  0.50459290957E+03  0.50400001928E-02 0.  1.
    10030    2    1    2    0    0  0.00000000000E+00  0.00000000000E+00  0.32911713934E+03  0.13383029585E+04  0.12972034217E+04 0.  0.
        2    1    3    3  502    0 -0.53954141729E+03  0.39461118520E+02 -0.20457943079E+03  0.57837259993E+03  0.25500000920E-02 0.  1.
       -2    1    3    3    0  502  0.53954141729E+03 -0.39461118520E+02  0.53369657013E+03  0.75993035853E+03  0.25500000920E-02 0. -1.
</event>
<event>
 5   0  0.5710383E-04  0.1298181E+04  0.7818609E-02  0.9031008E-01
       -1   -1    0    0    0  501  0.00000000000E+00  0.00000000000E+00  0.48468193635E+03  0.48468193638E+03  0.50400001928E-02 0.  1.
        1   -1    0    0  501    0  0.00000000000E+00  0.00000000000E+00 -0.86926861099E+03  0.86926861100E+03  0.50400001928E-02 0. -1.
    10030    2    1    2    0    0  0.00000000000E+00  0.00000000000E+00 -0.38458667463E+03  0.13539505474E+04  0.12981814875E+04 0.  0.
        1    1    3    3  502    0 -0.16873732036E+03  0.62012154883E+03 -0.97299403618E+02  0.64999245579E+03  0.50400001928E-02 0.  1.
       -1    1    3    3    0  502  0.16873732036E+03 -0.62012154883E+03 -0.28728727102E+03  0.70395809160E+03  0.50400001928E-02 0. -1.
</event>
<event>
 5   0  0.1103241E-03  0.1299299E+04  0.7818609E-02  0.9030121E-01
        2   -1    0    0  501    0  0.00000000000E+00  0.00000000000E+00  0.65977013838E+03  0.65977013839E+03  0.25500000920E-02 0. -1.
       -2   -1    0    0    0  501  0.00000000000E+00  0.00000000000E+00 -0.63968435018E+03  0.63968435019E+03  0.25500000920E-02 0.  1.
    10030    2    1    2    0    0  0.00000000000E+00  0.00000000000E+00  0.20085788201E+02  0.12994544886E+04  0.12992992454E+04 0.  0.
        4    1    3    3  502    0 -0.36108696047E+03 -0.24473351236E+03  0.49151991444E+03  0.65716947912E+03  0.12699999809E+01 0. -1.
       -4    1    3    3    0  502  0.36108696047E+03  0.24473351236E+03 -0.47143412624E+03  0.64228500946E+03  0.12699999809E+01 0.  1.
</event>
<event>
 5   0  0.1103241E-03  0.1311652E+04  0.7818609E-02  0.9020376E-01
        2   -1    0    0  501    0  0.00000000000E+00  0.00000000000E+00  0.10443909888E+04  0.10443909888E+04  0.25500000920E-02 0. -1.
       -2   -1    0    0    0  501  0.00000000000E+00  0.00000000000E+00 -0.41182636010E+03  0.41182636010E+03  0.25500000920E-02 0.  1.
    10030    2    1    2    0    0  0.00000000000E+00  0.00000000000E+00  0.63256462872E+03  0.14562173489E+04  0.13116519957E+04 0.  0.
        4    1    3    3  502    0  0.24160971917E+03  0.59134958051E+03  0.15147392438E+03  0.65651774190E+03  0.12699999809E+01 0.  1.
       -4    1    3    3    0  502 -0.24160971917E+03 -0.59134958051E+03  0.48109070434E+03  0.79969960702E+03  0.12699999809E+01 0. -1.
</event>
<event>
 5   0  0.1031295E-03  0.1283255E+04  0.7818609E-02  0.9042951E-01
       -2   -1    0    0    0  501  0.00000000000E+00  0.00000000000E+00  0.43782012003E+03  0.43782012004E+03  0.25500000920E-02 0. -1.
        2   -1    0    0  501    0  0.00000000000E+00  0.00000000000E+00 -0.94030755954E+03  0.94030755955E+03  0.25500000920E-02 0.  1.
    10030    2    1    2    0    0  0.00000000000E+00  0.00000000000E+00 -0.50248743952E+03  0.13781276796E+04  0.12832545634E+04 0.  0.
        2    1    3    3  502    0  0.32953644455E+03 -0.68995588965E+02 -0.83782171099E+03  0.90293957660E+03  0.25500000920E-02 0.  1.
       -2    1    3    3    0  502 -0.32953644455E+03  0.68995588965E+02  0.33533427147E+03  0.47518810298E+03  0.25500000920E-02 0. -1.
</event>
<event>
 5   0  0.5812938E-04  0.1299407E+04  0.7818609E-02  0.9030035E-01
        1   -1    0    0  501    0  0.00000000000E+00  0.00000000000E+00  0.38048136318E+03  0.38048136321E+03  0.50400001928E-02 0. -1.
       -1   -1    0    0    0  501  0.00000000000E+00  0.00000000000E+00 -0.11094231175E+04  0.11094231175E+04  0.50400001928E-02 0.  1.
    10030    2    1    2    0    0  0.00000000000E+00  0.00000000000E+00 -0.72894175433E+03  0.14899044807E+04  0.12994072804E+04 0.  0.
        5    1    3    3  502    0 -0.39314546072E+03 -0.56919392324E+02  0.22498748648E+03  0.45655736723E+03  0.46999998093E+01 0. -1.
       -5    1    3    3    0  502  0.39314546072E+03  0.56919392324E+02 -0.95392924080E+03  0.10333471135E+04  0.46999998093E+01 0.  1.
</event>
<event>
 5   0  0.6006119E-04  0.1300021E+04  0.7818609E-02  0.9029548E-01
        1   -1    0    0  501    0  0.00000000000E+00  0.00000000000E+00  0.95150180147E+03  0.95150180148E+03  0.50400001928E-02 0.  1.
       -1   -1    0    0    0  501  0.00000000000E+00  0.00000000000E+00 -0.44404940289E+03  0.44404940292E+03  0.50400001928E-02 0. -1.
    10030    2    1    2    0    0  0.00000000000E+00  0.00000000000E+00  0.50745239858E+03  0.13955512044E+04  0.13000212411E+04 0.  0.
        4    1    3    3  502    0  0.47350398061E+02 -0.60052834911E+03  0.51587566816E+03  0.79309878084E+03  0.12699999809E+01 0.  1.
       -4    1    3    3    0  502 -0.47350398061E+02  0.60052834911E+03 -0.84232695760E+01  0.60245242356E+03  0.12699999809E+01 0. -1.
</event>
<event>
 5   0  0.5766027E-04  0.1307748E+04  0.7818609E-02  0.9023443E-01
        1   -1    0    0  501    0  0.00000000000E+00  0.00000000000E+00  0.85302692912E+03  0.85302692914E+03  0.50400001928E-02 0.  1.
       -1   -1    0    0    0  501  0.00000000000E+00  0.00000000000E+00 -0.50121674499E+03  0.50121674502E+03  0.50400001928E-02 0. -1.
    10030    2    1    2    0    0  0.00000000000E+00  0.00000000000E+00  0.35181018413E+03  0.13542436742E+04  0.13077482645E+04 0.  0.
        3    1    3    3  502    0 -0.18695831309E+03 -0.61390995798E+03  0.30571135010E+03  0.71084336328E+03  0.10100000352E+00 0.  1.
       -3    1    3    3    0  502  0.18695831309E+03  0.61390995798E+03  0.46098834034E+02  0.64340031088E+03  0.10100000352E+00 0. -1.
</event>
<event>
 5   0  0.4012375E-04  0.1296020E+04  0.7818609E-02  0.9032728E-01
       -3   -1    0    0    0  501  0.00000000000E+00  0.00000000000E+00  0.41935898963E+03  0.41935900179E+03  0.10100000352E+00 0. -1.
        3   -1    0    0  501    0  0.00000000000E+00  0.00000000000E+00 -0.10013300195E+04  0.10013300246E+04  0.10100000352E+00 0.  1.
    10030    2    1    2    0    0  0.00000000000E+00  0.00000000000E+00 -0.58197102992E+03  0.14206890264E+04  0.12960196874E+04 0.  0.
        5    1    3    3  502    0 -0.17307372172E+03 -0.49841150962E+03 -0.70337323982E+03  0.87927501419E+03  0.46999998093E+01 0.  1.
       -5    1    3    3    0  502  0.17307372172E+03  0.49841150962E+03  0.12140220991E+03  0.54141401224E+03  0.46999998093E+01 0. -1.
</event>
<event>
 5   0  0.6006119E-04  0.1306348E+04  0.7818609E-02  0.9024546E-01
       -1   -1    0    0    0  501  0.00000000000E+00  0.00000000000E+00  0.46702841850E+03  0.46702841852E+03  0.50400001928E-02 0.  1.
        1   -1    0    0  501    0  0.00000000000E+00  0.00000000000E+00 -0.91351227900E+03  0.91351227901E+03  0.50400001928E-02 0. -1.
    10030    2    1    2    0    0  0.00000000000E+00  0.00000000000E+00 -0.44648386050E+03  0.13805406975E+04  0.13063478786E+04 0.  0.
        4    1    3    3  502    0 -0.50437511207E+03  0.29912692304E+03  0.80783256316E+02  0.59194485990E+03  0.12699999809E+01 0.  1.
       -4    1    3    3    0  502  0.50437511207E+03 -0.29912692304E+03 -0.52726711682E+03  0.78859583764E+03  0.12699999809E+01 0. -1.
</event>
<event>
 5   0  0.6006119E-04  0.1292854E+04  0.7818609E-02  0.9035251E-01
       -1   -1    0    0    0  501  0.00000000000E+00  0.00000000000E+00  0.29093025987E+03  0.29093025992E+03  0.50400001928E-02 0. -1.
        1   -1    0    0  501    0  0.00000000000E+00  0.00000000000E+00 -0.14363168000E+04  0.14363168000E+04  0.50400001928E-02 0.  1.
    10030    2    1    2    0    0  0.00000000000E+00  0.00000000000E+00 -0.11453865401E+04  0.17272470599E+04  0.12928542376E+04 0.  0.
        4    1    3    3  502    0 -0.33315577534E+03 -0.49358796525E+03 -0.23671091026E+03  0.64082409288E+03  0.12699999809E+01 0. -1.
       -4    1    3    3    0  502  0.33315577534E+03  0.49358796525E+03 -0.90867562982E+03  0.10864229670E+04  0.12699999809E+01 0.  1.
</event>
<event>
 5   0  0.1046253E-03  0.1297511E+04  0.7818609E-02  0.9031541E-01
       -2   -1    0    0    0  501  0.00000000000E+00  0.00000000000E+00  0.35850532960E+03  0.35850532961E+03  0.25500000920E-02 0.  1.
        2   -1    0    0  501    0  0.00000000000E+00  0.00000000000E+00 -0.11739963936E+04  0.11739963936E+04  0.25500000920E-02 0. -1.
    10030    2    1    2    0    0  0.00000000000E+00  0.00000000000E+00 -0.81549106404E+03  0.15325017232E+04  0.12975114089E+04 0.  0.
        3    1    3    3  502    0 -0.24005516076E+03 -0.34359454409E+03 -0.99260328592E+03  0.10774715701E+04  0.10100000352E+00 0. -1.
       -3    1    3    3    0  502  0.24005516076E+03  0.34359454409E+03  0.17711222188E+03  0.45503015315E+03  0.10100000352E+00 0.  1.
</event>
<event>
 5   0  0.1031295E-03  0.1293678E+04  0.7818609E-02  0.9034593E-01
        2   -1    0    0  501    0  0.00000000000E+00  0.00000000000E+00  0.63677426907E+03  0.63677426908E+03  0.25500000920E-02 0.  1.
       -2   -1    0    0    0  501  0.00000000000E+00  0.00000000000E+00 -0.65706312776E+03  0.65706312777E+03  0.25500000920E-02 0. -1.
    10030    2    1    2    0    0  0.00000000000E+00  0.00000000000E+00 -0.20288858693E+02  0.12938373968E+04  0.12936783107E+04 0.  0.
        2    1    3    3  502    0  0.20235950510E+03  0.13957492366E+03 -0.60852425046E+03  0.65630198234E+03  0.25500000920E-02 0. -1.
       -2    1    3    3    0  502 -0.20235950510E+03 -0.13957492366E+03  0.58823539177E+03  0.63753541451E+03  0.25500000920E-02 0.  1.
</event>
<event>
 5   0  0.1046253E-03  0.1318103E+04  0.7818609E-02  0.9015331E-01
       -2   -1    0    0    0  501  0.00000000000E+00  0.00000000000E+00  0.30893789615E+03  0.30893789616E+03  0.25500000920E-02 0.  1.
        2   -1    0    0  501    0  0.00000000000E+00  0.00000000000E+00 -0.14059416933E+04  0.14059416933E+04  0.25500000920E-02 0. -1.
    10030    2    1    2    0    0  0.00000000000E+00  0.00000000000E+00 -0.10970037971E+04  0.17148795894E+04  0.13181026801E+04 0.  0.
        3    1    3    3  502    0  0.19521526242E+03 -0.78088922204E+02 -0.13611370774E+04  0.13772803027E+04  0.10100000352E+00 0. -1.
       -3    1    3    3    0  502 -0.19521526242E+03  0.78088922204E+02  0.26413328029E+03  0.33759928674E+03  0.10100000352E+00 0.  1.
</event>
<event>
 5   0  0.1081574E-03  0.1433145E+04  0.7818609E-02  0.8930170E-01
       -2   -1    0    0    0  501  0.00000000000E+00  0.00000000000E+00  0.24810631050E+03  0.24810631052E+03  0.25500000920E-02 0. -1.
        2   -1    0    0  501    0  0.00000000000E+00  0.00000000000E+00 -0.20695812787E+04  0.20695812787E+04  0.25500000920E-02 0.  1.
    10030    2    1    2    0    0  0.00000000000E+00  0.00000000000E+00 -0.18214749682E+04  0.23176875893E+04  0.14331450385E+04 0.  0.
        5    1    3    3  502    0 -0.46274280000E+03 -0.52734726062E+03 -0.11463616520E+04  0.13440212645E+04  0.46999998093E+01 0.  1.
       -5    1    3    3    0  502  0.46274280000E+03  0.52734726062E+03 -0.67511331626E+03  0.97366632479E+03  0.46999998093E+01 0. -1.
</event>
<event>
 5   0  0.5812938E-04  0.1304794E+04  0.7818609E-02  0.9025772E-01
       -1   -1    0    0    0  501  0.00000000000E+00  0.00000000000E+00  0.39447782472E+03  0.39447782475E+03  0.50400001928E-02 0.  1.
        1   -1    0    0  501    0  0.00000000000E+00  0.00000000000E+00 -0.10789508121E+04  0.10789508121E+04  0.50400001928E-02 0. -1.
    10030    2    1    2    0    0  0.00000000000E+00  0.00000000000E+00 -0.68447298735E+03  0.14734286368E+04  0.13047944962E+04 0.  0.
        5    1    3    3  502    0  0.57487232285E+03  0.14112425134E+01  0.60388128369E+01  0.57492498332E+03  0.46999998093E+01 0.  1.
       -5    1    3    3    0  502 -0.57487232285E+03 -0.14112425134E+01 -0.69051180019E+03  0.89850365352E+03  0.46999998093E+01 0. -1.
</event>
<event>
 5   0  0.5563545E-04  0.1299805E+04  0.7818609E-02  0.9029720E-01
        1   -1    0    0  501    0  0.00000000000E+00  0.00000000000E+00  0.62541894988E+03  0.62541894990E+03  0.50400001928E-02 0. -1.
       -1   -1    0    0    0  501  0.00000000000E+00  0.00000000000E+00 -0.67534478406E+03  0.67534478408E+03  0.50400001928E-02 0.  1.
    10030    2    1    2    0    0  0.00000000000E+00  0.00000000000E+00 -0.49925834181E+02  0.13007637340E+04  0.12998052557E+04 0.  0.
        2    1    3    3  502    0 -0.28842802728E+03 -0.54668049093E+03  0.17599138170E+03  0.64266885137E+03  0.25500000920E-02 0. -1.
       -2    1    3    3    0  502  0.28842802728E+03  0.54668049093E+03 -0.22591721588E+03  0.65809488261E+03  0.25500000920E-02 0.  1.
</event>
<event>
 5   0  0.5812938E-04  0.1299631E+04  0.7818609E-02  0.9029858E-01
        1   -1    0    0  501    0  0.00000000000E+00  0.00000000000E+00  0.33960464246E+03  0.33960464250E+03  0.50400001928E-02 0. -1.
       -1   -1    0    0    0  501  0.00000000000E+00  0.00000000000E+00 -0.12433873424E+04  0.12433873424E+04  0.50400001928E-02 0.  1.
    10030    2    1    2    0    0  0.00000000000E+00  0.00000000000E+00 -0.90378269997E+03  0.15829919849E+04  0.12996308921E+04 0.  0.
        5    1    3    3  502    0  0.17056725166E+03 -0.62686919000E+03 -0.46822638941E+03  0.80082220901E+03  0.46999998093E+01 0.  1.
       -5    1    3    3    0  502 -0.17056725166E+03  0.62686919000E+03 -0.43555631056E+03  0.78216977593E+03  0.46999998093E+01 0. -1.
</event>
<event>
 5   0  0.1031295E-03  0.1305549E+04  0.7818609E-02  0.9025176E-01
       -2   -1    0    0    0  501  0.00000000000E+00  0.00000000000E+00  0.24320883352E+03  0.24320883354E+03  0.25500000920E-02 0.  1.
        2   -1    0    0  501    0  0.00000000000E+00  0.00000000000E+00 -0.17520530720E+04  0.17520530720E+04  0.25500000920E-02 0. -1.
    10030    2    1    2    0    0  0.00000000000E+00  0.00000000000E+00 -0.15088442384E+04  0.19952619055E+04  0.13055493616E+04 0.  0.
        2    1    3    3  502    0 -0.32727671682E+03 -0.53328951404E+03 -0.10387299168E+04  0.12126283830E+04  0.25500000920E-02 0. -1.
       -2    1    3    3    0  502  0.32727671682E+03  0.53328951404E+03 -0.47011432166E+03  0.78263352253E+03  0.25500000920E-02 0.  1.
</event>
<event>
 5   0  0.1101619E-03  0.1331225E+04  0.7818609E-02  0.9005163E-01
       -2   -1    0    0    0  501  0.00000000000E+00  0.00000000000E+00  0.37346538537E+03  0.37346538538E+03  0.25500000920E-02 0.  1.
        2   -1    0    0  501    0  0.00000000000E+00  0.00000000000E+00 -0.11862952470E+04  0.11862952470E+04  0.25500000920E-02 0. -1.
    10030    2    1    2    0    0  0.00000000000E+00  0.00000000000E+00 -0.81282986159E+03  0.15597606323E+04  0.13312253176E+04 0.  0.
        1    1    3    3  502    0  0.48820113905E+03  0.38086161987E+03 -0.12026686951E+03  0.63076148074E+03  0.50400001928E-02 0. -1.
       -1    1    3    3    0  502 -0.48820113905E+03 -0.38086161987E+03 -0.69256299209E+03  0.92899915161E+03  0.50400001928E-02 0.  1.
</event>
<event>
 5   0  0.1101619E-03  0.1301983E+04  0.7818609E-02  0.9027994E-01
       -2   -1    0    0    0  501  0.00000000000E+00  0.00000000000E+00  0.47427403125E+03  0.47427403125E+03  0.25500000920E-02 0.  1.
        2   -1    0    0  501    0  0.00000000000E+00  0.00000000000E+00 -0.89355464136E+03  0.89355464136E+03  0.25500000920E-02 0. -1.
    10030    2    1    2    0    0  0.00000000000E+00  0.00000000000E+00 -0.41928061011E+03  0.13678286726E+04  0.13019827371E+04 0.  0.
        1    1    3    3  502    0  0.55370559528E+03 -0.31573911217E+03 -0.70627986271E+02  0.64130288138E+03  0.50400001928E-02 0.  1.
       -1    1    3    3    0  502 -0.55370559528E+03  0.31573911217E+03 -0.34865262384E+03  0.72652579124E+03  0.50400001928E-02 0. -1.
</event>
<event>
 5   0  0.1046253E-03  0.1293336E+04  0.7818609E-02  0.9034867E-01
       -2   -1    0    0    0  501  0.00000000000E+00  0.00000000000E+00  0.33038385206E+03  0.33038385207E+03  0.25500000920E-02 0. -1.
        2   -1    0    0  501    0  0.00000000000E+00  0.00000000000E+00 -0.12657380350E+04  0.12657380350E+04  0.25500000920E-02 0.  1.
    10030    2    1    2    0    0  0.00000000000E+00  0.00000000000E+00 -0.93535418293E+03  0.15961218871E+04  0.12933358538E+04 0.  0.
        3    1    3    3  502    0 -0.54302421768E+02  0.63861744768E+03 -0.36152620136E+03  0.73585474244E+03  0.10100000352E+00 0. -1.
       -3    1    3    3    0  502  0.54302421768E+02 -0.63861744768E+03 -0.57382798157E+03  0.86026714463E+03  0.10100000352E+00 0.  1.
</event>
<event>
 5   0  0.6006119E-04  0.1302615E+04  0.7818609E-02  0.9027494E-01
       -1   -1    0    0    0  501  0.00000000000E+00  0.00000000000E+00  0.86085646160E+03  0.86085646162E+03  0.50400001928E-02 0. -1.
        1   -1    0    0  501    0  0.00000000000E+00  0.00000000000E+00 -0.49276703728E+03  0.49276703731E+03  0.50400001928E-02 0.  1.
    10030    2    1    2    0    0  0.00000000000E+00  0.00000000000E+00  0.36808942432E+03  0.13536234989E+04  0.13026153510E+04 0.  0.
        4    1    3    3  502    0 -0.60076739492E+03  0.20179335235E+03  0.27970007213E+02  0.63437051795E+03  0.12699999809E+01 0.  1.
       -4    1    3    3    0  502  0.60076739492E+03 -0.20179335235E+03  0.34011941711E+03  0.71925298097E+03  0.12699999809E+01 0. -1.
</event>
<event>
 5   0  0.1046253E-03  0.1301322E+04  0.7818609E-02  0.9028517E-01
       -2   -1    0    0    0  501  0.00000000000E+00  0.00000000000E+00  0.41838188677E+03  0.41838188678E+03  0.25500000920E-02 0.  1.
        2   -1    0    0  501    0  0.00000000000E+00  0.00000000000E+00 -0.10118984949E+04  0.10118984949E+04  0.25500000920E-02 0. -1.
    10030    2    1    2    0    0  0.00000000000E+00  0.00000000000E+00 -0.59351660817E+03  0.14302803817E+04  0.13013224067E+04 0.  0.
        3    1    3    3  502    0  0.41988094094E+03 -0.25730885479E+03  0.17065180400E+03  0.52118125420E+03  0.10100000352E+00 0.  1.
       -3    1    3    3    0  502 -0.41988094094E+03  0.25730885479E+03 -0.76416841217E+03  0.90909912753E+03  0.10100000352E+00 0. -1.
</event>
<event>
 5   0  0.5563545E-04  0.1299524E+04  0.7818609E-02  0.9029943E-01
       -1   -1    0    0    0  501  0.00000000000E+00  0.00000000000E+00  0.40575572125E+03  0.40575572128E+03  0.50400001928E-02 0. -1.
        1   -1    0    0  501    0  0.00000000000E+00  0.00000000000E+00 -0.10405048782E+04  0.10405048782E+04  0.50400001928E-02 0.  1.
    10030    2    1    2    0    0  0.00000000000E+00  0.00000000000E+00 -0.63474915698E+03  0.14462605995E+04  0.12995242319E+04 0.  0.
        2    1    3    3  502    0  0.39244625441E+03  0.32470031733E+03  0.13159605258E+03  0.52608162839E+03  0.25500000920E-02 0. -1.
       -2    1    3    3    0  502 -0.39244625441E+03 -0.32470031733E+03 -0.76634520956E+03  0.92017897112E+03  0.25500000920E-02 0.  1.
</event>
<event>
 5   0  0.4012375E-04  0.1297770E+04  0.7818609E-02  0.9031335E-01
       -4   -1    0    0    0  501  0.00000000000E+00  0.00000000000E+00  0.12251486814E+04  0.12251493397E+04  0.12699999809E+01 0. -1.
        4   -1    0    0  501    0  0.00000000000E+00  0.00000000000E+00 -0.34367213166E+03  0.34367447822E+03  0.12699999809E+01 0.  1.
    10030    2    1    2    0    0  0.00000000000E+00  0.00000000000E+00  0.88147654975E+03  0.15688238179E+04  0.12977701121E+04 0.  0.
        4    1    3    3  502    0  0.41804327655E+03  0.25270297648E+03 -0.75590104839E+02  0.49430198486E+03  0.12699999809E+01 0.  1.
       -4    1    3    3    0  502 -0.41804327655E+03 -0.25270297648E+03  0.95706665459E+03  0.10745218330E+04  0.12699999809E+01 0. -1.
</event>
<event>
 5   0  0.1046253E-03  0.1301051E+04  0.7818609E-02  0.9028732E-01
       -2   -1    0    0    0  501  0.00000000000E+00  0.00000000000E+00  0.72207498709E+03  0.72207498709E+03  0.25500000920E-02 0. -1.
        2   -1    0    0  501    0  0.00000000000E+00  0.00000000000E+00 -0.58606555236E+03  0.58606555237E+03  0.25500000920E-02 0.  1.
    10030    2    1    2    0    0  0.00000000000E+00  0.00000000000E+00  0.13600943473E+03  0.13081405395E+04  0.13010507694E+04 0.  0.
        3    1    3    3  502    0 -0.16694875313E+03  0.10350001314E+03  0.69154470200E+03  0.71890070521E+03  0.10100000352E+00 0. -1.
       -3    1    3    3    0  502  0.16694875313E+03 -0.10350001314E+03 -0.55553526727E+03  0.58923983425E+03  0.10100000352E+00 0.  1.
</event>
<event>
 5   0  0.5563545E-04  0.1298162E+04  0.7818609E-02  0.9031024E-01
        1   -1    0    0  501    0  0.00000000000E+00  0.00000000000E+00  0.10042262738E+04  0.10042262738E+04  0.50400001928E-02 0.  1.
       -1   -1    0    0    0  501  0.00000000000E+00  0.00000000000E+00 -0.41953320297E+03  0.41953320300E+03  0.50400001928E-02 0. -1.
    10030    2    1    2    0    0  0.00000000000E+00  0.00000000000E+00  0.58469307084E+03  0.14237594768E+04  0.12981621858E+04 0.  0.
        2    1    3    3  502    0  0.57984109831E+02  0.31382951418E+03  0.91223366077E+03  0.96644781174E+03  0.25500000920E-02 0.  1.
       -2    1    3    3    0  502 -0.57984109831E+02 -0.31382951418E+03 -0.32754058993E+03  0.45731166509E+03  0.25500000920E-02 0. -1.
</event>
<event>
 5   0  0.5563545E-04  0.1310244E+04  0.7818609E-02  0.9021480E-01
       -1   -1    0    0    0  501  0.00000000000E+00  0.00000000000E+00  0.81547104574E+03  0.81547104575E+03  0.50400001928E-02 0. -1.
        1   -1    0    0  501    0  0.00000000000E+00  0.00000000000E+00 -0.52630336702E+03  0.52630336704E+03  0.50400001928E-02 0.  1.
    10030    2    1    2    0    0  0.00000000000E+00  0.00000000000E+00  0.28916767872E+03  0.13417744128E+04  0.13102444918E+04 0.  0.
        2    1    3    3  502    0 -0.29452798271E+03 -0.26381934903E+03 -0.39032455477E+03  0.55560835089E+03  0.25500000920E-02 0.  1.
       -2    1    3    3    0  502  0.29452798271E+03  0.26381934903E+03  0.67949223349E+03  0.78616606191E+03  0.25500000920E-02 0. -1.
</event>
<event>
 5   0  0.5812938E-04  0.1288191E+04  0.7818609E-02  0.9038983E-01
       -1   -1    0    0    0  501  0.00000000000E+00  0.00000000000E+00  0.27647543487E+03  0.27647543492E+03  0.50400001928E-02 0. -1.
        1   -1    0    0  501    0  0.00000000000E+00  0.00000000000E+00 -0.15005272942E+04  0.15005272942E+04  0.50400001928E-02 0.  1.
    10030    2    1    2    0    0  0.00000000000E+00  0.00000000000E+00 -0.12240518593E+04  0.17770027291E+04  0.12881908807E+04 0.  0.
        5    1    3    3  502    0 -0.24605677063E+03 -0.15278130278E+03  0.18155200253E+03  0.34186149311E+03  0.46999998093E+01 0. -1.
       -5    1    3    3    0  502  0.24605677063E+03  0.15278130278E+03 -0.14056038619E+04  0.14351412360E+04  0.46999998093E+01 0.  1.
</event>
<event>
 5   0  0.1031295E-03  0.1299572E+04  0.7818609E-02  0.9029905E-01
       -2   -1    0    0    0  501  0.00000000000E+00  0.00000000000E+00  0.21481645655E+03  0.21481645657E+03  0.25500000920E-02 0.  1.
        2   -1    0    0  501    0  0.00000000000E+00  0.00000000000E+00 -0.19655008490E+04  0.19655008490E+04  0.25500000920E-02 0. -1.
    10030    2    1    2    0    0  0.00000000000E+00  0.00000000000E+00 -0.17506843924E+04  0.21803173055E+04  0.12995721261E+04 0.  0.
        2    1    3    3  502    0  0.18520573725E+03 -0.61453158657E+03 -0.70530642224E+03  0.95362853631E+03  0.25500000920E-02 0. -1.
       -2    1    3    3    0  502 -0.18520573725E+03  0.61453158657E+03 -0.10453779702E+04  0.12266887692E+04  0.25500000920E-02 0.  1.
</event>
<event>
 5   0  0.1031295E-03  0.1298811E+04  0.7818609E-02  0.9030508E-01
        2   -1    0    0  501    0  0.00000000000E+00  0.00000000000E+00  0.70789347276E+03  0.70789347277E+03  0.25500000920E-02 0. -1.
       -2   -1    0    0    0  501  0.00000000000E+00  0.00000000000E+00 -0.59575023051E+03  0.59575023052E+03  0.25500000920E-02 0.  1.
    10030    2    1    2    0    0  0.00000000000E+00  0.00000000000E+00  0.11214324225E+03  0.13036437033E+04  0.12988113021E+04 0.  0.
        2    1    3    3  502    0  0.78229126107E+02 -0.58838713822E+03  0.32050673013E+03  0.67456933273E+03  0.25500000920E-02 0. -1.
       -2    1    3    3    0  502 -0.78229126107E+02  0.58838713822E+03 -0.20836348788E+03  0.62907437055E+03  0.25500000920E-02 0.  1.
</event>
<event>
 5   0  0.5766027E-04  0.1290673E+04  0.7818609E-02  0.9036994E-01
       -1   -1    0    0    0  501  0.00000000000E+00  0.00000000000E+00  0.17819792934E+03  0.17819792941E+03  0.50400001928E-02 0. -1.
        1   -1    0    0  501    0  0.00000000000E+00  0.00000000000E+00 -0.23370612705E+04  0.23370612705E+04  0.50400001928E-02 0.  1.
    10030    2    1    2    0    0  0.00000000000E+00  0.00000000000E+00 -0.21588633412E+04  0.25152591999E+04  0.12906734354E+04 0.  0.
        3    1    3    3  502    0  0.32825248089E+03 -0.39739332371E+02 -0.21594419592E+04  0.21846094597E+04  0.10100000352E+00 0.  1.
       -3    1    3    3    0  502 -0.32825248089E+03  0.39739332371E+02  0.57861804474E+00  0.33064974028E+03  0.10100000352E+00 0. -1.
</event>
<event>
 5   0  0.1103241E-03  0.1282961E+04  0.7818609E-02  0.9043187E-01
        2   -1    0    0  501    0  0.00000000000E+00  0.00000000000E+00  0.17619808160E+04  0.17619808160E+04  0.25500000920E-02 0. -1.
       -2   -1    0    0    0  501  0.00000000000E+00  0.00000000000E+00 -0.23354252013E+03  0.23354252015E+03  0.25500000920E-02 0.  1.
    10030    2    1    2    0    0  0.00000000000E+00  0.00000000000E+00  0.15284382959E+04  0.19955233361E+04  0.12829613248E+04 0.  0.
        4    1    3    3  502    0  0.13832837586E+03  0.45863113359E+03  0.10062721694E+03  0.48949433700E+03  0.12699999809E+01 0.  1.
       -4    1    3    3    0  502 -0.13832837586E+03 -0.45863113359E+03  0.14278110789E+04  0.15060289991E+04  0.12699999809E+01 0. -1.
</event>
<event>
 5   0  0.5710383E-04  0.1297719E+04  0.7818609E-02  0.9031376E-01
       -1   -1    0    0    0  501  0.00000000000E+00  0.00000000000E+00  0.42333450492E+03  0.42333450495E+03  0.50400001928E-02 0.  1.
        1   -1    0    0  501    0  0.00000000000E+00  0.00000000000E+00 -0.99453019126E+03  0.99453019127E+03  0.50400001928E-02 0. -1.
    10030    2    1    2    0    0  0.00000000000E+00  0.00000000000E+00 -0.57119568634E+03  0.14178646962E+04  0.12977194553E+04 0.  0.
        1    1    3    3  502    0 -0.32036117833E+03  0.43649506021E+03  0.10508186508E+03  0.55154457713E+03  0.50400001928E-02 0.  1.
       -1    1    3    3    0  502  0.32036117833E+03 -0.43649506021E+03 -0.67627755142E+03  0.86632011909E+03  0.50400001928E-02 0. -1.
</event>
<event>
 5   0  0.1031295E-03  0.1290249E+04  0.7818609E-02  0.9037334E-01
       -2   -1    0    0    0  501  0.00000000000E+00  0.00000000000E+00  0.45003898067E+03  0.45003898068E+03  0.25500000920E-02 0. -1.
        2   -1    0    0  501    0  0.00000000000E+00  0.00000000000E+00 -0.92477721517E+03  0.92477721517E+03  0.25500000920E-02 0.  1.
    10030    2    1    2    0    0  0.00000000000E+00  0.00000000000E+00 -0.47473823450E+03  0.13748161959E+04  0.12902492709E+04 0.  0.
        2    1    3    3  502    0 -0.14334459159E+03 -0.56262677109E+03  0.62291533173E+02  0.58393217979E+03  0.25500000920E-02 0. -1.
       -2    1    3    3    0  502  0.14334459159E+03  0.56262677109E+03 -0.53702976767E+03  0.79088401606E+03  0.25500000920E-02 0.  1.
</event>
<event>
 5   0  0.5766027E-04  0.1291264E+04  0.7818609E-02  0.9036522E-01
        1   -1    0    0  501    0  0.00000000000E+00  0.00000000000E+00  0.60242599956E+03  0.60242599958E+03  0.50400001928E-02 0.  1.
       -1   -1    0    0    0  501  0.00000000000E+00  0.00000000000E+00 -0.69193697578E+03  0.69193697580E+03  0.50400001928E-02 0. -1.
    10030    2    1    2    0    0  0.00000000000E+00  0.00000000000E+00 -0.89510976222E+02  0.12943629754E+04  0.12912642244E+04 0.  0.
        3    1    3    3  502    0 -0.32634324295E+03  0.21042497028E+03  0.47229455593E+03  0.61142516966E+03  0.10100000352E+00 0.  1.
       -3    1    3    3    0  502  0.32634324295E+03 -0.21042497028E+03 -0.56180553215E+03  0.68293780572E+03  0.10100000352E+00 0. -1.
</event>
<event>
 5   0  0.1101619E-03  0.1305656E+04  0.7818609E-02  0.9025092E-01
       -2   -1    0    0    0  501  0.00000000000E+00  0.00000000000E+00  0.51620183436E+03  0.51620183436E+03  0.25500000920E-02 0. -1.
        2   -1    0    0  501    0  0.00000000000E+00  0.00000000000E+00 -0.82561628058E+03  0.82561628059E+03  0.25500000920E-02 0.  1.
    10030    2    1    2    0    0  0.00000000000E+00  0.00000000000E+00 -0.30941444622E+03  0.13418181149E+04  0.13056563691E+04 0.  0.
        1    1    3    3  502    0  0.19198013135E+03  0.60528638277E+03 -0.31041816571E+03  0.70681497836E+03  0.50400001928E-02 0. -1.
       -1    1    3    3    0  502 -0.19198013135E+03 -0.60528638277E+03  0.10037194866E+01  0.63500313659E+03  0.50400001928E-02 0.  1.
</event>
<event>
 5   0  0.4012375E-04  0.1297031E+04  0.7818609E-02  0.9031923E-01
        4   -1    0    0  501    0  0.00000000000E+00  0.00000000000E+00  0.31680307119E+03  0.31680561677E+03  0.12699999809E+01 0. -1.
       -4   -1    0    0    0  501  0.00000000000E+00  0.00000000000E+00 -0.13275440053E+04  0.13275446128E+04  0.12699999809E+01 0.  1.
    10030    2    1    2    0    0  0.00000000000E+00  0.00000000000E+00 -0.10107409341E+04  0.16443502296E+04  0.12970313958E+04 0.  0.
        4    1    3    3  502    0  0.24571180710E+03  0.24897101755E+03  0.18694659725E+03  0.39662514148E+03  0.12699999809E+01 0. -1.
       -4    1    3    3    0  502 -0.24571180710E+03 -0.24897101755E+03 -0.11976875314E+04  0.12477250881E+04  0.12699999809E+01 0.  1.
</event>
<event>
 5   0  0.5710383E-04  0.1305993E+04  0.7818609E-02  0.9024826E-01
       -1   -1    0    0    0  501  0.00000000000E+00  0.00000000000E+00  0.33521414728E+03  0.33521414732E+03  0.50400001928E-02 0.  1.
        1   -1    0    0  501    0  0.00000000000E+00  0.00000000000E+00 -0.12720351265E+04  0.12720351265E+04  0.50400001928E-02 0. -1.
    10030    2    1    2    0    0  0.00000000000E+00  0.00000000000E+00 -0.93682097926E+03  0.16072492739E+04  0.13059926038E+04 0.  0.
        1    1    3    3  502    0  0.46696975379E+03 -0.94527738924E+02 -0.10179687359E+04  0.11239468811E+04  0.50400001928E-02 0. -1.
       -1    1    3    3    0  502 -0.46696975379E+03  0.94527738924E+02  0.81147756612E+02  0.48330239272E+03  0.50400001928E-02 0.  1.
</event>
<event>
 5   0  0.6006119E-04  0.1301786E+04  0.7818609E-02  0.9028150E-01
       -1   -1    0    0    0  501  0.00000000000E+00  0.00000000000E+00  0.50066709856E+03  0.50066709859E+03  0.50400001928E-02 0. -1.
        1   -1    0    0  501    0  0.00000000000E+00  0.00000000000E+00 -0.84619403376E+03  0.84619403377E+03  0.50400001928E-02 0.  1.
    10030    2    1    2    0    0  0.00000000000E+00  0.00000000000E+00 -0.34552693520E+03  0.13468611324E+04  0.13017857147E+04 0.  0.
        4    1    3    3  502    0  0.33022365293E+03 -0.40718911617E+03  0.22635176154E+03  0.57104060288E+03  0.12699999809E+01 0. -1.
       -4    1    3    3    0  502 -0.33022365293E+03  0.40718911617E+03 -0.57187869674E+03  0.77582052948E+03  0.12699999809E+01 0.  1.
</event>
<event>
 5   0  0.6006119E-04  0.1301819E+04  0.7818609E-02  0.9028124E-01
       -1   -1    0    0    0  501  0.00000000000E+00  0.00000000000E+00  0.30258360493E+03  0.30258360497E+03  0.50400001928E-02 0. -1.
        1   -1    0    0  501    0  0.00000000000E+00  0.00000000000E+00 -0.14002185791E+04  0.14002185791E+04  0.50400001928E-02 0.  1.
    10030    2    1    2    0    0  0.00000000000E+00  0.00000000000E+00 -0.10976349741E+04  0.17028021840E+04  0.13018190126E+04 0.  0.
        4    1    3    3  502    0  0.48727325588E+03 -0.24969598046E+03 -0.10092290256E+04  0.11481847184E+04  0.12699999809E+01 0.  1.
       -4    1    3    3    0  502 -0.48727325588E+03  0.24969598046E+03 -0.88405948519E+02  0.55461746563E+03  0.12699999809E+01 0. -1.
</event>
<event>
 5   0  0.1031295E-03  0.1315997E+04  0.7818609E-02  0.9016974E-01
        2   -1    0    0  501    0  0.00000000000E+00  0.00000000000E+00  0.74303017598E+03  0.74303017599E+03  0.25500000920E-02 0. -1.
       -2   -1    0    0    0  501  0.00000000000E+00  0.00000000000E+00 -0.58269816424E+03  0.58269816425E+03  0.25500000920E-02 0.  1.
    10030    2    1    2    0    0  0.00000000000E+00  0.00000000000E+00  0.16033201174E+03  0.13257283402E+04  0.13159974461E+04 0.  0.
        2    1    3    3  502    0 -0.35111219583E+03 -0.47192111814E+03  0.37725853334E+03  0.69879418772E+03  0.25500000920E-02 0. -1.
       -2    1    3    3    0  502  0.35111219583E+03  0.47192111814E+03 -0.21692652159E+03  0.62693415251E+03  0.25500000920E-02 0.  1.
</event>
<event>
 5   0  0.1031295E-03  0.1297498E+04  0.7818609E-02  0.9031552E-01
        2   -1    0    0  501    0  0.00000000000E+00  0.00000000000E+00  0.17638195148E+04  0.17638195148E+04  0.25500000920E-02 0.  1.
       -2   -1    0    0    0  501  0.00000000000E+00  0.00000000000E+00 -0.23861573123E+03  0.23861573124E+03  0.25500000920E-02 0. -1.
    10030    2    1    2    0    0  0.00000000000E+00  0.00000000000E+00  0.15252037836E+04  0.20024352461E+04  0.12974977199E+04 0.  0.
        2    1    3    3  502    0 -0.14806583545E+03  0.35383598206E+03  0.15700791165E+04  0.16162524016E+04  0.25500000920E-02 0.  1.
       -2    1    3    3    0  502  0.14806583545E+03 -0.35383598206E+03 -0.44875332873E+02  0.38618284443E+03  0.25500000920E-02 0. -1.
</event>
<event>
 5   0  0.1103241E-03  0.1300354E+04  0.7818609E-02  0.9029285E-01
       -2   -1    0    0    0  501  0.00000000000E+00  0.00000000000E+00  0.70890028724E+03  0.70890028724E+03  0.25500000920E-02 0.  1.
        2   -1    0    0  501    0  0.00000000000E+00  0.00000000000E+00 -0.59631773993E+03  0.59631773994E+03  0.25500000920E-02 0. -1.
    10030    2    1    2    0    0  0.00000000000E+00  0.00000000000E+00  0.11258254731E+03  0.13052180272E+04  0.13003535167E+04 0.  0.
        4    1    3    3  502    0 -0.62600586165E+03  0.40322075203E+02 -0.11528382960E+03  0.63780967603E+03  0.12699999809E+01 0.  1.
       -4    1    3    3    0  502  0.62600586165E+03 -0.40322075203E+02  0.22786637691E+03  0.66740835115E+03  0.12699999809E+01 0. -1.
</event>
<event>
 5   0  0.1081574E-03  0.1286684E+04  0.7818609E-02  0.9040192E-01
        2   -1    0    0  501    0  0.00000000000E+00  0.00000000000E+00  0.90926562004E+03  0.90926562004E+03  0.25500000920E-02 0. -1.
       -2   -1    0    0    0  501  0.00000000000E+00  0.00000000000E+00 -0.45519051085E+03  0.45519051086E+03  0.25500000920E-02 0.  1.
    10030    2    1    2    0    0  0.00000000000E+00  0.00000000000E+00  0.45407510918E+03  0.13644561309E+04  0.12866842380E+04 0.  0.
        5    1    3    3  502    0 -0.27956392744E+03  0.50769287260E+03 -0.69050295041E+02  0.58369347749E+03  0.46999998093E+01 0.  1.
       -5    1    3    3    0  502  0.27956392744E+03 -0.50769287260E+03  0.52312540423E+03  0.78076265341E+03  0.46999998093E+01 0. -1.
</event>
<event>
 5   0  0.1031295E-03  0.1329292E+04  0.7818609E-02  0.9006653E-01
       -2   -1    0    0    0  501  0.00000000000E+00  0.00000000000E+00  0.51735304010E+03  0.51735304011E+03  0.25500000920E-02 0. -1.
        2   -1    0    0  501    0  0.00000000000E+00  0.00000000000E+00 -0.85387405252E+03  0.85387405253E+03  0.25500000920E-02 0.  1.
    10030    2    1    2    0    0  0.00000000000E+00  0.00000000000E+00 -0.33652101242E+03  0.13712270926E+04  0.13292920476E+04 0.  0.
        2    1    3    3  502    0 -0.56463057926E+03 -0.31683689164E+02  0.19195884692E+03  0.59720996819E+03  0.25500000920E-02 0. -1.
       -2    1    3    3    0  502  0.56463057926E+03  0.31683689164E+02 -0.52847985935E+03  0.77401712444E+03  0.25500000920E-02 0.  1.
</event>
<event>
 5   0  0.1101619E-03  0.1310701E+04  0.7818609E-02  0.9021122E-01
        2   -1    0    0  501    0  0.00000000000E+00  0.00000000000E+00  0.17601573993E+04  0.17601573993E+04  0.25500000920E-02 0.  1.
       -2   -1    0    0    0  501  0.00000000000E+00  0.00000000000E+00 -0.24400329923E+03  0.24400329925E+03  0.25500000920E-02 0. -1.
    10030    2    1    2    0    0  0.00000000000E+00  0.00000000000E+00  0.15161541001E+04  0.20041606986E+04  0.13107009005E+04 0.  0.
        1    1    3    3  502    0  0.19491785778E+03 -0.58668539865E+03  0.42555502531E+03  0.75052635388E+03  0.50400001928E-02 0. -1.
       -1    1    3    3    0  502 -0.19491785778E+03  0.58668539865E+03  0.10905990748E+04  0.12536343447E+04  0.50400001928E-02 0.  1.
</event>
<event>
 5   0  0.1103241E-03  0.1299248E+04  0.7818609E-02  0.9030162E-01
        2   -1    0    0  501    0  0.00000000000E+00  0.00000000000E+00  0.22353900202E+04  0.22353900202E+04  0.25500000920E-02 0. -1.
       -2   -1    0    0    0  501  0.00000000000E+00  0.00000000000E+00 -0.18878650824E+03  0.18878650825E+03  0.25500000920E-02 0.  1.
    10030    2    1    2    0    0  0.00000000000E+00  0.00000000000E+00  0.20466035120E+04  0.24241765284E+04  0.12992482080E+04 0.  0.
        4    1    3    3  502    0 -0.19442591957E+03  0.52321908820E+03  0.16433927026E+04  0.17355981218E+04  0.12699999809E+01 0. -1.
       -4    1    3    3    0  502  0.19442591957E+03 -0.52321908820E+03  0.40321080935E+03  0.68857840667E+03  0.12699999809E+01 0.  1.
</event>
<event>
 5   0  0.1103241E-03  0.1301230E+04  0.7818609E-02  0.9028590E-01
       -2   -1    0    0    0  501  0.00000000000E+00  0.00000000000E+00  0.55810534012E+03  0.55810534013E+03  0.25500000920E-02 0. -1.
        2   -1    0    0  501    0  0.00000000000E+00  0.00000000000E+00 -0.75845877485E+03  0.75845877485E+03  0.25500000920E-02 0.  1.
    10030    2    1    2    0    0  0.00000000000E+00  0.00000000000E+00 -0.20035343472E+03  0.13165641150E+04  0.13012300220E+04 0.  0.
        4    1    3    3  502    0 -0.55925218627E+03  0.15936615196E+03  0.19504540566E+03  0.61335544459E+03  0.12699999809E+01 0. -1.
       -4    1    3    3    0  502  0.55925218627E+03 -0.15936615196E+03 -0.39539884039E+03  0.70320867039E+03  0.12699999809E+01 0.  1.
</event>
<event>
 5   0  0.1081574E-03  0.1152431E+04  0.7818609E-02  0.9155544E-01
       -2   -1    0    0    0  501  0.00000000000E+00  0.00000000000E+00  0.39267604430E+03  0.39267604431E+03  0.25500000920E-02 0. -1.
        2   -1    0    0  501    0  0.00000000000E+00  0.00000000000E+00 -0.84554252492E+03  0.84554252492E+03  0.25500000920E-02 0.  1.
    10030    2    1    2    0    0  0.00000000000E+00  0.00000000000E+00 -0.45286648062E+03  0.12382185692E+04  0.11524309853E+04 0.  0.
        5    1    3    3  502    0 -0.56598943175E+02 -0.54243599745E+03 -0.42618081700E+03  0.69216503125E+03  0.46999998093E+01 0.  1.
       -5    1    3    3    0  502  0.56598943175E+02  0.54243599745E+03 -0.26685663617E+02  0.54605353798E+03  0.46999998093E+01 0. -1.
</event>
<event>
 5   0  0.6006119E-04  0.1298038E+04  0.7818609E-02  0.9031122E-01
        1   -1    0    0  501    0  0.00000000000E+00  0.00000000000E+00  0.11342542654E+04  0.11342542654E+04  0.50400001928E-02 0. -1.
       -1   -1    0    0    0  501  0.00000000000E+00  0.00000000000E+00 -0.37136793813E+03  0.37136793816E+03  0.50400001928E-02 0.  1.
    10030    2    1    2    0    0  0.00000000000E+00  0.00000000000E+00  0.76288632723E+03  0.15056222035E+04  0.12980380085E+04 0.  0.
        4    1    3    3  502    0 -0.80722500905E+02  0.60409171253E+03  0.64024121460E+03  0.88394193535E+03  0.12699999809E+01 0.  1.
       -4    1    3    3    0  502  0.80722500905E+02 -0.60409171253E+03  0.12264511264E+03  0.62168026819E+03  0.12699999809E+01 0. -1.
</event>
<event>
 5   0  0.1081574E-03  0.1282763E+04  0.7818609E-02  0.9043347E-01
       -2   -1    0    0    0  501  0.00000000000E+00  0.00000000000E+00  0.23236539018E+03  0.23236539019E+03  0.25500000920E-02 0.  1.
        2   -1    0    0  501    0  0.00000000000E+00  0.00000000000E+00 -0.17703580349E+04  0.17703580349E+04  0.25500000920E-02 0. -1.
    10030    2    1    2    0    0  0.00000000000E+00  0.00000000000E+00 -0.15379926447E+04  0.20027234251E+04  0.12827625432E+04 0.  0.
        5    1    3    3  502    0  0.52947817200E+03  0.11230304321E+03 -0.13061887747E+04  0.14138989756E+04  0.46999998093E+01 0.  1.
       -5    1    3    3    0  502 -0.52947817200E+03 -0.11230304321E+03 -0.23180387004E+03  0.58882444947E+03  0.46999998093E+01 0. -1.
</event>
<event>
 5   0  0.1046253E-03  0.1292253E+04  0.7818609E-02  0.9035731E-01
        2   -1    0    0  501    0  0.00000000000E+00  0.00000000000E+00  0.37592386573E+03  0.37592386574E+03  0.25500000920E-02 0.  1.
       -2   -1    0    0    0  501  0.00000000000E+00  0.00000000000E+00 -0.11105421133E+04  0.11105421133E+04  0.25500000920E-02 0. -1.
    10030    2    1    2    0    0  0.00000000000E+00  0.00000000000E+00 -0.73461824758E+03  0.14864659790E+04  0.12922527374E+04 0.  0.
        3    1    3    3  502    0  0.37885375721E+03 -0.26733991275E+03  0.15029406660E+03  0.48743113868E+03  0.10100000352E+00 0.  1.
       -3    1    3    3    0  502 -0.37885375721E+03  0.26733991275E+03 -0.88491231417E+03  0.99903484037E+03  0.10100000352E+00 0. -1.
</event>
<event>
 5   0  0.4012375E-04  0.1303905E+04  0.7818609E-02  0.9026474E-01
       -4   -1    0    0    0  501  0.00000000000E+00  0.00000000000E+00  0.19097678258E+04  0.19097682481E+04  0.12699999809E+01 0.  1.
        4   -1    0    0  501    0  0.00000000000E+00  0.00000000000E+00 -0.22256001261E+03  0.22256363609E+03  0.12699999809E+01 0. -1.
    10030    2    1    2    0    0  0.00000000000E+00  0.00000000000E+00  0.16872078132E+04  0.21323318842E+04  0.13039053107E+04 0.  0.
        3    1    3    3  502    0 -0.19489814197E+03 -0.30267205522E+03  0.17324943599E+04  0.17695006007E+04  0.10100000352E+00 0.  1.
       -3    1    3    3    0  502  0.19489814197E+03  0.30267205522E+03 -0.45286546661E+02  0.36283128347E+03  0.10100000352E+00 0. -1.
</event>
<event>
 5   0  0.5710383E-04  0.1303705E+04  0.7818609E-02  0.9026632E-01
       -1   -1    0    0    0  501  0.00000000000E+00  0.00000000000E+00  0.69425383253E+03  0.69425383255E+03  0.50400001928E-02 0.  1.
        1   -1    0    0  501    0  0.00000000000E+00  0.00000000000E+00 -0.61204063732E+03  0.61204063734E+03  0.50400001928E-02 0. -1.
    10030    2    1    2    0    0  0.00000000000E+00  0.00000000000E+00  0.82213195209E+02  0.13062944699E+04  0.13037048104E+04 0.  0.
        1    1    3    3  502    0 -0.35911990904E+03  0.35541799195E+03 -0.37156402223E+03  0.62717531896E+03  0.50400001928E-02 0. -1.
       -1    1    3    3    0  502  0.35911990904E+03 -0.35541799195E+03  0.45377721744E+03  0.67911915093E+03  0.50400001928E-02 0.  1.
</event>
<event>
 5   0  0.5812938E-04  0.1292006E+04  0.7818609E-02  0.9035929E-01
       -1   -1    0    0    0  501  0.00000000000E+00  0.00000000000E+00  0.20157839021E+03  0.20157839028E+03  0.50400001928E-02 0.  1.
        1   -1    0    0  501    0  0.00000000000E+00  0.00000000000E+00 -0.20702596702E+04  0.20702596702E+04  0.50400001928E-02 0. -1.
    10030    2    1    2    0    0  0.00000000000E+00  0.00000000000E+00 -0.18686812799E+04  0.22718380604E+04  0.12920055909E+04 0.  0.
        5    1    3    3  502    0 -0.57418856753E+03  0.25290827921E+03 -0.66397040572E+03  0.91352826910E+03  0.46999998093E+01 0.  1.
       -5    1    3    3    0  502  0.57418856753E+03 -0.25290827921E+03 -0.12047108742E+04  0.13583097913E+04  0.46999998093E+01 0. -1.
</event>
<event>
 5   0  0.5812938E-04  0.1299190E+04  0.7818609E-02  0.9030208E-01
        1   -1    0    0  501    0  0.00000000000E+00  0.00000000000E+00  0.17701128540E+04  0.17701128540E+04  0.50400001928E-02 0. -1.
       -1   -1    0    0    0  501  0.00000000000E+00  0.00000000000E+00 -0.23838793229E+03  0.23838793234E+03  0.50400001928E-02 0.  1.
    10030    2    1    2    0    0  0.00000000000E+00  0.00000000000E+00  0.15317249217E+04  0.20085007864E+04  0.12991898141E+04 0.  0.
        5    1    3    3  502    0 -0.32942459778E+03 -0.17495774053E+03  0.15880198751E+04  0.16312449204E+04  0.46999998093E+01 0. -1.
       -5    1    3    3    0  502  0.32942459778E+03  0.17495774053E+03 -0.56294953425E+02  0.37725586592E+03  0.46999998093E+01 0.  1.
</event>
<event>
 5   0  0.4012375E-04  0.1311665E+04  0.7818609E-02  0.9020366E-01
       -3   -1    0    0    0  501  0.00000000000E+00  0.00000000000E+00  0.61616686930E+03  0.61616687757E+03  0.10100000352E+00 0. -1.
        3   -1    0    0  501    0  0.00000000000E+00  0.00000000000E+00 -0.69805153707E+03  0.69805154438E+03  0.10100000352E+00 0.  1.
    10030    2    1    2    0    0  0.00000000000E+00  0.00000000000E+00 -0.81884667777E+02  0.13142184220E+04  0.13116649579E+04 0.  0.
        5    1    3    3  502    0  0.79931845170E+02  0.52859078612E+03 -0.42154605645E+03  0.68082338882E+03  0.46999998093E+01 0.  1.
       -5    1    3    3    0  502 -0.79931845170E+02 -0.52859078612E+03  0.33966138868E+03  0.63339503314E+03  0.46999998093E+01 0. -1.
</event>
<event>
 5   0  0.1101619E-03  0.1290407E+04  0.7818609E-02  0.9037207E-01
        2   -1    0    0  501    0  0.00000000000E+00  0.00000000000E+00  0.66881225586E+03  0.66881225587E+03  0.25500000920E-02 0.  1.
       -2   -1    0    0    0  501  0.00000000000E+00  0.00000000000E+00 -0.62242851758E+03  0.62242851759E+03  0.25500000920E-02 0. -1.
    10030    2    1    2    0    0  0.00000000000E+00  0.00000000000E+00  0.46383738283E+02  0.12912407735E+04  0.12904074100E+04 0.  0.
        1    1    3    3  502    0 -0.21150201358E+03 -0.94935157831E+02 -0.57931162113E+03  0.62397735564E+03  0.50400001928E-02 0. -1.
       -1    1    3    3    0  502  0.21150201358E+03  0.94935157831E+02  0.62569535942E+03  0.66726341782E+03  0.50400001928E-02 0.  1.
</event>
<event>
 5   0  0.1101619E-03  0.1225019E+04  0.7818609E-02  0.9091235E-01
        2   -1    0    0  501    0  0.00000000000E+00  0.00000000000E+00  0.43878181508E+03  0.43878181509E+03  0.25500000920E-02 0.  1.
       -2   -1    0    0    0  501  0.00000000000E+00  0.00000000000E+00 -0.85502217744E+03  0.85502217744E+03  0.25500000920E-02 0. -1.
    10030    2    1    2    0    0  0.00000000000E+00  0.00000000000E+00 -0.41624036236E+03  0.12938039925E+04  0.12250194822E+04 0.  0.
        1    1    3    3  502    0 -0.18818724959E+03  0.54679419384E+03 -0.42137313566E+03  0.71550936458E+03  0.50400001928E-02 0. -1.
       -1    1    3    3    0  502  0.18818724959E+03 -0.54679419384E+03  0.51327733051E+01  0.57829462795E+03  0.50400001928E-02 0.  1.
</event>
<event>
 5   0  0.6006119E-04  0.1263574E+04  0.7818609E-02  0.9058961E-01
       -1   -1    0    0    0  501  0.00000000000E+00  0.00000000000E+00  0.46831952358E+03  0.46831952360E+03  0.50400001928E-02 0. -1.
        1   -1    0    0  501    0  0.00000000000E+00  0.00000000000E+00 -0.85231281758E+03  0.85231281759E+03  0.50400001928E-02 0.  1.
    10030    2    1    2    0    0  0.00000000000E+00  0.00000000000E+00 -0.38399329400E+03  0.13206323412E+04  0.12635738723E+04 0.  0.
        4    1    3    3  502    0 -0.53065408159E+03 -0.79869054733E+02  0.15649727767E+03  0.55898643188E+03  0.12699999809E+01 0. -1.
       -4    1    3    3    0  502  0.53065408159E+03  0.79869054733E+02 -0.54049057167E+03  0.76164590931E+03  0.12699999809E+01 0.  1.
</event>
<event>
 5   0  0.1031295E-03  0.1300281E+04  0.7818609E-02  0.9029342E-01
       -2   -1    0    0    0  501  0.00000000000E+00  0.00000000000E+00  0.38053581205E+03  0.38053581206E+03  0.25500000920E-02 0.  1.
        2   -1    0    0  501    0  0.00000000000E+00  0.00000000000E+00 -0.11107573196E+04  0.11107573196E+04  0.25500000920E-02 0. -1.
    10030    2    1    2    0    0  0.00000000000E+00  0.00000000000E+00 -0.73022150753E+03  0.14912931316E+04  0.13002814136E+04 0.  0.
        2    1    3    3  502    0  0.52433699257E+03 -0.35176499489E+03 -0.18737804207E+03  0.65861857252E+03  0.25500000920E-02 0.  1.
       -2    1    3    3    0  502 -0.52433699257E+03  0.35176499489E+03 -0.54284346546E+03  0.83267455912E+03  0.25500000920E-02 0. -1.
</event>
<event>
 5   0  0.4012375E-04  0.1306066E+04  0.7818609E-02  0.9024769E-01
        3   -1    0    0  501    0  0.00000000000E+00  0.00000000000E+00  0.90485926772E+03  0.90485927336E+03  0.10100000352E+00 0.  1.
       -3   -1    0    0    0  501  0.00000000000E+00  0.00000000000E+00 -0.47129077571E+03  0.47129078653E+03  0.10100000352E+00 0. -1.
    10030    2    1    2    0    0  0.00000000000E+00  0.00000000000E+00  0.43356849201E+03  0.13761500599E+04  0.13060655994E+04 0.  0.
        2    1    3    3  502    0 -0.53221364786E+03  0.37787112031E+03  0.23822014417E+03  0.69482860306E+03  0.25500000920E-02 0. -1.
       -2    1    3    3    0  502  0.53221364786E+03 -0.37787112031E+03  0.19534834784E+03  0.68132145683E+03  0.25500000920E-02 0.  1.
</event>
<event>
 5   0  0.1081574E-03  0.1295119E+04  0.7818609E-02  0.9033445E-01
        2   -1    0    0  501    0  0.00000000000E+00  0.00000000000E+00  0.11682756694E+04  0.11682756694E+04  0.25500000920E-02 0. -1.
       -2   -1    0    0    0  501  0.00000000000E+00  0.00000000000E+00 -0.35893371844E+03  0.35893371845E+03  0.25500000920E-02 0.  1.
    10030    2    1    2    0    0  0.00000000000E+00  0.00000000000E+00  0.80934195094E+03  0.15272093878E+04  0.12951193461E+04 0.  0.
        5    1    3    3  502    0  0.45337168574E+03 -0.32487563869E+03  0.16748166150E+02  0.55802567783E+03  0.46999998093E+01 0.  1.
       -5    1    3    3    0  502 -0.45337168574E+03  0.32487563869E+03  0.79259378479E+03  0.96918371001E+03  0.46999998093E+01 0. -1.
</event>
<event>
 5   0  0.1081574E-03  0.1304768E+04  0.7818609E-02  0.9025793E-01
        2   -1    0    0  501    0  0.00000000000E+00  0.00000000000E+00  0.19136355942E+04  0.19136355942E+04  0.25500000920E-02 0.  1.
       -2   -1    0    0    0  501  0.00000000000E+00  0.00000000000E+00 -0.22240647566E+03  0.22240647567E+03  0.25500000920E-02 0. -1.
    10030    2    1    2    0    0  0.00000000000E+00  0.00000000000E+00  0.16912291186E+04  0.21360420699E+04  0.13047680993E+04 0.  0.
        5    1    3    3  502    0  0.38405396344E+01  0.14989220857E+03  0.18850154988E+04  0.18909753951E+04  0.46999998093E+01 0.  1.
       -5    1    3    3    0  502 -0.38405396344E+01 -0.14989220857E+03 -0.19378638027E+03  0.24506667482E+03  0.46999998093E+01 0. -1.
</event>
<event>
 5   0  0.5710383E-04  0.1275279E+04  0.7818609E-02  0.9049402E-01
       -1   -1    0    0    0  501  0.00000000000E+00  0.00000000000E+00  0.59768876025E+03  0.59768876027E+03  0.50400001928E-02 0. -1.
        1   -1    0    0  501    0  0.00000000000E+00  0.00000000000E+00 -0.68026111970E+03  0.68026111972E+03  0.50400001928E-02 0.  1.
    10030    2    1    2    0    0  0.00000000000E+00  0.00000000000E+00 -0.82572359457E+02  0.12779498800E+04  0.12752794600E+04 0.  0.
        1    1    3    3  502    0  0.26558894625E+03 -0.50915021123E+01  0.53960084446E+03  0.60144200313E+03  0.50400001928E-02 0. -1.
       -1    1    3    3    0  502 -0.26558894625E+03  0.50915021123E+01 -0.62217320391E+03  0.67650787686E+03  0.50400001928E-02 0.  1.
</event>
<event>
 5   0  0.6006119E-04  0.1302223E+04  0.7818609E-02  0.9027804E-01
       -1   -1    0    0    0  501  0.00000000000E+00  0.00000000000E+00  0.89019110783E+03  0.89019110785E+03  0.50400001928E-02 0.  1.
        1   -1    0    0  501    0  0.00000000000E+00  0.00000000000E+00 -0.47624202984E+03  0.47624202987E+03  0.50400001928E-02 0. -1.
    10030    2    1    2    0    0  0.00000000000E+00  0.00000000000E+00  0.41394907799E+03  0.13664331377E+04  0.13022233605E+04 0.  0.
        4    1    3    3  502    0  0.25800219534E+02  0.20596420175E+03  0.85454106337E+03  0.87939123581E+03  0.12699999809E+01 0.  1.
       -4    1    3    3    0  502 -0.25800219534E+02 -0.20596420175E+03 -0.44059198538E+03  0.48704190190E+03  0.12699999809E+01 0. -1.
</event>
<event>
 5   0  0.1046253E-03  0.1302101E+04  0.7818609E-02  0.9027901E-01
        2   -1    0    0  501    0  0.00000000000E+00  0.00000000000E+00  0.88773748596E+03  0.88773748596E+03  0.25500000920E-02 0. -1.
       -2   -1    0    0    0  501  0.00000000000E+00  0.00000000000E+00 -0.47746875161E+03  0.47746875162E+03  0.25500000920E-02 0.  1.
    10030    2    1    2    0    0  0.00000000000E+00  0.00000000000E+00  0.41026873435E+03  0.13652062376E+04  0.13021012391E+04 0.  0.
        3    1    3    3  502    0  0.57510788099E+03 -0.49498837711E+02  0.52083814985E+03  0.77747771559E+03  0.10100000352E+00 0. -1.
       -3    1    3    3    0  502 -0.57510788099E+03  0.49498837711E+02 -0.11056941550E+03  0.58772852198E+03  0.10100000352E+00 0.  1.
</event>
<event>
 5   0  0.1101619E-03  0.1179450E+04  0.7818609E-02  0.9131037E-01
        2   -1    0    0  501    0  0.00000000000E+00  0.00000000000E+00  0.10013607004E+04  0.10013607004E+04  0.25500000920E-02 0. -1.
       -2   -1    0    0    0  501  0.00000000000E+00  0.00000000000E+00 -0.34730280447E+03  0.34730280448E+03  0.25500000920E-02 0.  1.
    10030    2    1    2    0    0  0.00000000000E+00  0.00000000000E+00  0.65405789588E+03  0.13486635048E+04  0.11794496675E+04 0.  0.
        1    1    3    3  502    0  0.20528510726E+03 -0.42058499927E+03  0.73731216296E+03  0.87330575548E+03  0.50400001928E-02 0. -1.
       -1    1    3    3    0  502 -0.20528510726E+03  0.42058499927E+03 -0.83254267078E+02  0.47535774937E+03  0.50400001928E-02 0.  1.
</event>
<event>
 5   0  0.1081574E-03  0.1302783E+04  0.7818609E-02  0.9027361E-01
        2   -1    0    0  501    0  0.00000000000E+00  0.00000000000E+00  0.13108918399E+04  0.13108918399E+04  0.25500000920E-02 0.  1.
       -2   -1    0    0    0  501  0.00000000000E+00  0.00000000000E+00 -0.32368116159E+03  0.32368116160E+03  0.25500000920E-02 0. -1.
    10030    2    1    2    0    0  0.00000000000E+00  0.00000000000E+00  0.98721067831E+03  0.16345730015E+04  0.13027831646E+04 0.  0.
        5    1    3    3  502    0 -0.41646256266E+02  0.35058517384E+03  0.11804133621E+04  0.12320885399E+04  0.46999998093E+01 0.  1.
       -5    1    3    3    0  502  0.41646256266E+02 -0.35058517384E+03 -0.19320268381E+03  0.40248446157E+03  0.46999998093E+01 0. -1.
</event>
<event>
 5   0  0.4012375E-04  0.1313055E+04  0.7818609E-02  0.9019276E-01
        4   -1    0    0  501    0  0.00000000000E+00  0.00000000000E+00  0.11131388990E+04  0.11131396235E+04  0.12699999809E+01 0.  1.
       -4   -1    0    0    0  501  0.00000000000E+00  0.00000000000E+00 -0.38721667988E+03  0.38721876256E+03  0.12699999809E+01 0. -1.
    10030    2    1    2    0    0  0.00000000000E+00  0.00000000000E+00  0.72592221916E+03  0.15003583861E+04  0.13130545375E+04 0.  0.
        3    1    3    3  502    0  0.32776814284E+03 -0.25223873518E+03  0.94556756200E+03  0.10320631567E+04  0.10100000352E+00 0.  1.
       -3    1    3    3    0  502 -0.32776814284E+03  0.25223873518E+03 -0.21964534284E+03  0.46829522934E+03  0.10100000352E+00 0. -1.
</event>
<event>
 5   0  0.1046253E-03  0.1302022E+04  0.7818609E-02  0.9027963E-01
       -2   -1    0    0    0  501  0.00000000000E+00  0.00000000000E+00  0.50654945571E+03  0.50654945572E+03  0.25500000920E-02 0. -1.
        2   -1    0    0  501    0  0.00000000000E+00  0.00000000000E+00 -0.83667126979E+03  0.83667126979E+03  0.25500000920E-02 0.  1.
    10030    2    1    2    0    0  0.00000000000E+00  0.00000000000E+00 -0.33012181408E+03  0.13432207255E+04  0.13020220833E+04 0.  0.
        3    1    3    3  502    0  0.15328787306E+03 -0.38919524125E+03 -0.67968927097E+03  0.79808998435E+03  0.10100000352E+00 0.  1.
       -3    1    3    3    0  502 -0.15328787306E+03  0.38919524125E+03  0.34956745690E+03  0.54513074116E+03  0.10100000352E+00 0. -1.
</event>
<event>
 5   0  0.1103241E-03  0.1302269E+04  0.7818609E-02  0.9027768E-01
       -2   -1    0    0    0  501  0.00000000000E+00  0.00000000000E+00  0.12469414528E+04  0.12469414528E+04  0.25500000920E-02 0.  1.
        2   -1    0    0  501    0  0.00000000000E+00  0.00000000000E+00 -0.34001273346E+03  0.34001273347E+03  0.25500000920E-02 0. -1.
    10030    2    1    2    0    0  0.00000000000E+00  0.00000000000E+00  0.90692871937E+03  0.15869541863E+04  0.13022687462E+04 0.  0.
        4    1    3    3  502    0  0.42881324011E+02 -0.40894760375E+03  0.10687070767E+04  0.11450822587E+04  0.12699999809E+01 0.  1.
       -4    1    3    3    0  502 -0.42881324011E+02  0.40894760375E+03 -0.16177835735E+03  0.44187192757E+03  0.12699999809E+01 0. -1.
</event>
<event>
 5   0  0.5812938E-04  0.1310786E+04  0.7818609E-02  0.9021055E-01
        1   -1    0    0  501    0  0.00000000000E+00  0.00000000000E+00  0.64690977928E+03  0.64690977930E+03  0.50400001928E-02 0.  1.
       -1   -1    0    0    0  501  0.00000000000E+00  0.00000000000E+00 -0.66398747513E+03  0.66398747515E+03  0.50400001928E-02 0. -1.
    10030    2    1    2    0    0  0.00000000000E+00  0.00000000000E+00 -0.17077695847E+02  0.13108972544E+04  0.13107860100E+04 0.  0.
        5    1    3    3  502    0 -0.20342755452E+03 -0.40252975019E+03  0.46700642992E+03  0.64925346769E+03  0.46999998093E+01 0.  1.
       -5    1    3    3    0  502  0.20342755452E+03  0.40252975019E+03 -0.48408412577E+03  0.66164378675E+03  0.46999998093E+01 0. -1.
</event>
<event>
 5   0  0.1046253E-03  0.1285470E+04  0.7818609E-02  0.9041168E-01
       -2   -1    0    0    0  501  0.00000000000E+00  0.00000000000E+00  0.77013756982E+03  0.77013756983E+03  0.25500000920E-02 0. -1.
        2   -1    0    0  501    0  0.00000000000E+00  0.00000000000E+00 -0.53640809441E+03  0.53640809441E+03  0.25500000920E-02 0.  1.
    10030    2    1    2    0    0  0.00000000000E+00  0.00000000000E+00  0.23372947542E+03  0.13065456642E+04  0.12854696049E+04 0.  0.
        3    1    3    3  502    0  0.29464392830E+03 -0.56792182748E+03  0.54559028091E+02  0.64212689117E+03  0.10100000352E+00 0.  1.
       -3    1    3    3    0  502 -0.29464392830E+03  0.56792182748E+03  0.17917044733E+03  0.66441877307E+03  0.10100000352E+00 0. -1.
</event>
<event>
 5   0  0.1103241E-03  0.1299674E+04  0.7818609E-02  0.9029824E-01
       -2   -1    0    0    0  501  0.00000000000E+00  0.00000000000E+00  0.35755905215E+03  0.35755905216E+03  0.25500000920E-02 0. -1.
        2   -1    0    0  501    0  0.00000000000E+00  0.00000000000E+00 -0.11810305528E+04  0.11810305528E+04  0.25500000920E-02 0.  1.
    10030    2    1    2    0    0  0.00000000000E+00  0.00000000000E+00 -0.82347150064E+03  0.15385896050E+04  0.12996740592E+04 0.  0.
        4    1    3    3  502    0 -0.18562217759E+03  0.51572768448E+03  0.15130965040E+01  0.54811909264E+03  0.12699999809E+01 0. -1.
       -4    1    3    3    0  502  0.18562217759E+03 -0.51572768448E+03 -0.82498459715E+03  0.99047051232E+03  0.12699999809E+01 0.  1.
</event>
<event>
 5   0  0.1101619E-03  0.1348463E+04  0.7818609E-02  0.8991993E-01
        2   -1    0    0  501    0  0.00000000000E+00  0.00000000000E+00  0.21565503491E+04  0.21565503491E+04  0.25500000920E-02 0.  1.
       -2   -1    0    0    0  501  0.00000000000E+00  0.00000000000E+00 -0.21079406088E+03  0.21079406089E+03  0.25500000920E-02 0. -1.
    10030    2    1    2    0    0  0.00000000000E+00  0.00000000000E+00  0.19457562882E+04  0.23673444100E+04  0.13484628369E+04 0.  0.
        1    1    3    3  502    0 -0.13446148304E+03  0.24469293003E+03 -0.10453415234E+03  0.29813069191E+03  0.50400001928E-02 0. -1.
       -1    1    3    3    0  502  0.13446148304E+03 -0.24469293003E+03  0.20502904405E+04  0.20692137181E+04  0.50400001928E-02 0.  1.
</event>
<event>
 5   0  0.6006119E-04  0.1302355E+04  0.7818609E-02  0.9027699E-01
        1   -1    0    0  501    0  0.00000000000E+00  0.00000000000E+00  0.85821484616E+03  0.85821484618E+03  0.50400001928E-02 0. -1.
       -1   -1    0    0    0  501  0.00000000000E+00  0.00000000000E+00 -0.49408649938E+03  0.49408649941E+03  0.50400001928E-02 0.  1.
    10030    2    1    2    0    0  0.00000000000E+00  0.00000000000E+00  0.36412834678E+03  0.13523013456E+04  0.13023553572E+04 0.  0.
        4    1    3    3  502    0  0.44668787018E+03  0.44780546363E+03  0.34282742421E+03  0.71943869948E+03  0.12699999809E+01 0. -1.
       -4    1    3    3    0  502 -0.44668787018E+03 -0.44780546363E+03  0.21300922573E+02  0.63286264610E+03  0.12699999809E+01 0.  1.
</event>
<event>
 5   0  0.1046253E-03  0.1358423E+04  0.7818609E-02  0.8984477E-01
       -2   -1    0    0    0  501  0.00000000000E+00  0.00000000000E+00  0.71694469550E+03  0.71694469551E+03  0.25500000920E-02 0.  1.
        2   -1    0    0  501    0  0.00000000000E+00  0.00000000000E+00 -0.64346397142E+03  0.64346397142E+03  0.25500000920E-02 0. -1.
    10030    2    1    2    0    0  0.00000000000E+00  0.00000000000E+00  0.73480724087E+02  0.13604086669E+04  0.13584227340E+04 0.  0.
        3    1    3    3  502    0  0.71967776304E+02 -0.10988919825E+03 -0.63062193828E+03  0.64415761732E+03  0.10100000352E+00 0. -1.
       -3    1    3    3    0  502 -0.71967776304E+02  0.10988919825E+03  0.70410266236E+03  0.71625104961E+03  0.10100000352E+00 0.  1.
</event>
<event>
 5   0  0.1081574E-03  0.1304388E+04  0.7818609E-02  0.9026093E-01
       -2   -1    0    0    0  501  0.00000000000E+00  0.00000000000E+00  0.99047763822E+03  0.99047763823E+03  0.25500000920E-02 0.  1.
        2   -1    0    0  501    0  0.00000000000E+00  0.00000000000E+00 -0.42944625268E+03  0.42944625269E+03  0.25500000920E-02 0. -1.
    10030    2    1    2    0    0  0.00000000000E+00  0.00000000000E+00  0.56103138554E+03  0.14199238909E+04  0.13043878413E+04 0.  0.
        5    1    3    3  502    0 -0.22583773611E+02 -0.16286495341E+03 -0.40649479797E+03  0.43851468694E+03  0.46999998093E+01 0. -1.
       -5    1    3    3    0  502  0.22583773611E+02  0.16286495341E+03  0.96752618351E+03  0.98140920398E+03  0.46999998093E+01 0.  1.
</event>
<event>
 5   0  0.5766027E-04  0.1296700E+04  0.7818609E-02  0.9032186E-01
       -1   -1    0    0    0  501  0.00000000000E+00  0.00000000000E+00  0.38172252374E+03  0.38172252378E+03  0.50400001928E-02 0.  1.
        1   -1    0    0  501    0  0.00000000000E+00  0.00000000000E+00 -0.11012134847E+04  0.11012134847E+04  0.50400001928E-02 0. -1.
    10030    2    1    2    0    0  0.00000000000E+00  0.00000000000E+00 -0.71949096098E+03  0.14829360085E+04  0.12967004135E+04 0.  0.
        3    1    3    3  502    0 -0.29509760316E+03  0.57303118360E+03 -0.27960496207E+03  0.70258542383E+03  0.10100000352E+00 0. -1.
       -3    1    3    3    0  502  0.29509760316E+03 -0.57303118360E+03 -0.43988599891E+03  0.78035058468E+03  0.10100000352E+00 0.  1.
</event>
<event>
 5   0  0.4012375E-04  0.1302752E+04  0.7818609E-02  0.9027386E-01
        3   -1    0    0  501    0  0.00000000000E+00  0.00000000000E+00  0.19681938998E+03  0.19681941590E+03  0.10100000352E+00 0. -1.
       -3   -1    0    0    0  501  0.00000000000E+00  0.00000000000E+00 -0.21557365533E+04  0.21557365557E+04  0.10100000352E+00 0.  1.
    10030    2    1    2    0    0  0.00000000000E+00  0.00000000000E+00 -0.19589171633E+04  0.23525559716E+04  0.13027521432E+04 0.  0.
        3    1    3    3  502    0 -0.63490120224E+03  0.10957363026E+03 -0.11525256451E+04  0.13203867955E+04  0.10100000352E+00 0.  1.
       -3    1    3    3    0  502  0.63490120224E+03 -0.10957363026E+03 -0.80639151826E+03  0.10321691760E+04  0.10100000352E+00 0. -1.
</event>
<event>
 5   0  0.6006119E-04  0.1300034E+04  0.7818609E-02  0.9029538E-01
       -1   -1    0    0    0  501  0.00000000000E+00  0.00000000000E+00  0.39718497503E+03  0.39718497507E+03  0.50400001928E-02 0. -1.
        1   -1    0    0  501    0  0.00000000000E+00  0.00000000000E+00 -0.10637923296E+04  0.10637923296E+04  0.50400001928E-02 0.  1.
    10030    2    1    2    0    0  0.00000000000E+00  0.00000000000E+00 -0.66660735459E+03  0.14609773047E+04  0.13000343533E+04 0.  0.
        4    1    3    3  502    0  0.20541322210E+03  0.58813550419E+03 -0.12480109074E+03  0.63535414397E+03  0.12699999809E+01 0. -1.
       -4    1    3    3    0  502 -0.20541322210E+03 -0.58813550419E+03 -0.54180626385E+03  0.82562316074E+03  0.12699999809E+01 0.  1.
</event>
<event>
 5   0  0.1103241E-03  0.1301201E+04  0.7818609E-02  0.9028613E-01
       -2   -1    0    0    0  501  0.00000000000E+00  0.00000000000E+00  0.37331695978E+03  0.37331695979E+03  0.25500000920E-02 0. -1.
        2   -1    0    0  501    0  0.00000000000E+00  0.00000000000E+00 -0.11338377698E+04  0.11338377698E+04  0.25500000920E-02 0.  1.
    10030    2    1    2    0    0  0.00000000000E+00  0.00000000000E+00 -0.76052081002E+03  0.15071547296E+04  0.13012007825E+04 0.  0.
        4    1    3    3  502    0 -0.38913324557E+03  0.42839954275E+03 -0.72450229659E+03  0.92728422918E+03  0.12699999809E+01 0.  1.
       -4    1    3    3    0  502  0.38913324557E+03 -0.42839954275E+03 -0.36018513439E+02  0.57987050041E+03  0.12699999809E+01 0. -1.
</event>
<event>
 5   0  0.5766027E-04  0.1304013E+04  0.7818609E-02  0.9026389E-01
       -1   -1    0    0    0  501  0.00000000000E+00  0.00000000000E+00  0.92187735069E+03  0.92187735070E+03  0.50400001928E-02 0.  1.
        1   -1    0    0  501    0  0.00000000000E+00  0.00000000000E+00 -0.46113785604E+03  0.46113785607E+03  0.50400001928E-02 0. -1.
    10030    2    1    2    0    0  0.00000000000E+00  0.00000000000E+00  0.46073949464E+03  0.13830152068E+04  0.13040131059E+04 0.  0.
        3    1    3    3  502    0  0.20176125718E+03 -0.47204900152E+03  0.65668575290E+03  0.83353107501E+03  0.10100000352E+00 0.  1.
       -3    1    3    3    0  502 -0.20176125718E+03  0.47204900152E+03 -0.19594625826E+03  0.54948413177E+03  0.10100000352E+00 0. -1.
</event>
<event>
 5   0  0.1081574E-03  0.1292446E+04  0.7818609E-02  0.9035577E-01
       -2   -1    0    0    0  501  0.00000000000E+00  0.00000000000E+00  0.71716554424E+03  0.71716554424E+03  0.25500000920E-02 0. -1.
        2   -1    0    0  501    0  0.00000000000E+00  0.00000000000E+00 -0.58229778570E+03  0.58229778571E+03  0.25500000920E-02 0.  1.
    10030    2    1    2    0    0  0.00000000000E+00  0.00000000000E+00  0.13486775854E+03  0.12994633300E+04  0.12924456018E+04 0.  0.
        5    1    3    3  502    0 -0.49914869538E+02 -0.48834353473E+03  0.48996677633E+03  0.69358520314E+03  0.46999998093E+01 0. -1.
       -5    1    3    3    0  502  0.49914869538E+02  0.48834353473E+03 -0.35509901780E+03  0.60587812681E+03  0.46999998093E+01 0.  1.
</event>
<event>
 5   0  0.1031295E-03  0.1295006E+04  0.7818609E-02  0.9033535E-01
        2   -1    0    0  501    0  0.00000000000E+00  0.00000000000E+00  0.39403225484E+03  0.39403225484E+03  0.25500000920E-02 0. -1.
       -2   -1    0    0    0  501  0.00000000000E+00  0.00000000000E+00 -0.10640244173E+04  0.10640244173E+04  0.25500000920E-02 0.  1.
    10030    2    1    2    0    0  0.00000000000E+00  0.00000000000E+00 -0.66999216248E+03  0.14580566722E+04  0.12950056994E+04 0.  0.
        2    1    3    3  502    0 -0.23481383536E+03 -0.59298487508E+03 -0.20915939963E+03  0.67120507582E+03  0.25500000920E-02 0. -1.
       -2    1    3    3    0  502  0.23481383536E+03  0.59298487508E+03 -0.46083276285E+03  0.78685159634E+03  0.25500000920E-02 0.  1.
</event>
<event>
 5   0  0.1081574E-03  0.1295275E+04  0.7818609E-02  0.9033321E-01
        2   -1    0    0  501    0  0.00000000000E+00  0.00000000000E+00  0.36989728062E+03  0.36989728063E+03  0.25500000920E-02 0. -1.
       -2   -1    0    0    0  501  0.00000000000E+00  0.00000000000E+00 -0.11339209681E+04  0.11339209681E+04  0.25500000920E-02 0.  1.
    10030    2    1    2    0    0  0.00000000000E+00  0.00000000000E+00 -0.76402368750E+03  0.15038182487E+04  0.12952749246E+04 0.  0.
        5    1    3    3  502    0  0.18246276351E+03  0.30273635570E+03  0.24800780097E+03  0.43182394615E+03  0.46999998093E+01 0. -1.
       -5    1    3    3    0  502 -0.18246276351E+03 -0.30273635570E+03 -0.10120314885E+04  0.10719943026E+04  0.46999998093E+01 0.  1.
</event>
<event>
 5   0  0.5812938E-04  0.1295595E+04  0.7818609E-02  0.9033065E-01
        1   -1    0    0  501    0  0.00000000000E+00  0.00000000000E+00  0.14102198168E+04  0.14102198168E+04  0.50400001928E-02 0.  1.
       -1   -1    0    0    0  501  0.00000000000E+00  0.00000000000E+00 -0.29757197568E+03  0.29757197572E+03  0.50400001928E-02 0. -1.
    10030    2    1    2    0    0  0.00000000000E+00  0.00000000000E+00  0.11126478411E+04  0.17077917925E+04  0.12955954570E+04 0.  0.
        5    1    3    3  502    0  0.18831901261E+03  0.61065296638E+03  0.69618917665E+03  0.94501987045E+03  0.46999998093E+01 0.  1.
       -5    1    3    3    0  502 -0.18831901261E+03 -0.61065296638E+03  0.41645866444E+03  0.76277192204E+03  0.46999998093E+01 0. -1.
</event>
<event>
 5   0  0.6006119E-04  0.1297118E+04  0.7818609E-02  0.9031854E-01
        1   -1    0    0  501    0  0.00000000000E+00  0.00000000000E+00  0.10545452847E+04  0.10545452847E+04  0.50400001928E-02 0. -1.
       -1   -1    0    0    0  501  0.00000000000E+00  0.00000000000E+00 -0.39887206296E+03  0.39887206299E+03  0.50400001928E-02 0.  1.
    10030    2    1    2    0    0  0.00000000000E+00  0.00000000000E+00  0.65567322177E+03  0.14534173477E+04  0.12971178100E+04 0.  0.
        4    1    3    3  502    0 -0.25576279342E+03 -0.20784276205E+02  0.99524360853E+03  0.10277928030E+04  0.12699999809E+01 0. -1.
       -4    1    3    3    0  502  0.25576279342E+03  0.20784276205E+02 -0.33957038676E+03  0.42562454476E+03  0.12699999809E+01 0.  1.
</event>
<event>
 5   0  0.1046253E-03  0.1290541E+04  0.7818609E-02  0.9037100E-01
       -2   -1    0    0    0  501  0.00000000000E+00  0.00000000000E+00  0.82293942121E+03  0.82293942121E+03  0.25500000920E-02 0.  1.
        2   -1    0    0  501    0  0.00000000000E+00  0.00000000000E+00 -0.50595947660E+03  0.50595947661E+03  0.25500000920E-02 0. -1.
    10030    2    1    2    0    0  0.00000000000E+00  0.00000000000E+00  0.31697994460E+03  0.13288988978E+04  0.12905409700E+04 0.  0.
        3    1    3    3  502    0 -0.45738556934E+03 -0.44750676015E+03  0.72892048857E+02  0.64403192499E+03  0.10100000352E+00 0. -1.
       -3    1    3    3    0  502  0.45738556934E+03  0.44750676015E+03  0.24408789575E+03  0.68486697283E+03  0.10100000352E+00 0.  1.
</event>
<event>
 5   0  0.5563545E-04  0.1243991E+04  0.7818609E-02  0.9075199E-01
       -1   -1    0    0    0  501  0.00000000000E+00  0.00000000000E+00  0.38945978080E+03  0.38945978083E+03  0.50400001928E-02 0. -1.
        1   -1    0    0  501    0  0.00000000000E+00  0.00000000000E+00 -0.99337216675E+03  0.99337216676E+03  0.50400001928E-02 0.  1.
    10030    2    1    2    0    0  0.00000000000E+00  0.00000000000E+00 -0.60391238595E+03  0.13828319476E+04  0.12439911677E+04 0.  0.
        2    1    3    3  502    0 -0.38223071546E+03 -0.48920203291E+03 -0.34442428121E+03  0.70996269926E+03  0.25500000920E-02 0. -1.
       -2    1    3    3    0  502  0.38223071546E+03  0.48920203291E+03 -0.25948810474E+03  0.67286924833E+03  0.25500000920E-02 0.  1.
</event>
<event>
 5   0  0.1103241E-03  0.1342357E+04  0.7818609E-02  0.8996634E-01
        2   -1    0    0  501    0  0.00000000000E+00  0.00000000000E+00  0.52918545787E+03  0.52918545787E+03  0.25500000920E-02 0.  1.
       -2   -1    0    0    0  501  0.00000000000E+00  0.00000000000E+00 -0.85127208830E+03  0.85127208831E+03  0.25500000920E-02 0. -1.
    10030    2    1    2    0    0  0.00000000000E+00  0.00000000000E+00 -0.32208663043E+03  0.13804575462E+04  0.13423573441E+04 0.  0.
        4    1    3    3  502    0 -0.39230057655E+03 -0.63951261899E+02 -0.71721668887E+03  0.81999444995E+03  0.12699999809E+01 0. -1.
       -4    1    3    3    0  502  0.39230057655E+03  0.63951261899E+02  0.39513005843E+03  0.56046309623E+03  0.12699999809E+01 0.  1.
</event>
<event>
 5   0  0.6006119E-04  0.1288206E+04  0.7818609E-02  0.9038971E-01
        1   -1    0    0  501    0  0.00000000000E+00  0.00000000000E+00  0.87603290798E+03  0.87603290799E+03  0.50400001928E-02 0. -1.
       -1   -1    0    0    0  501  0.00000000000E+00  0.00000000000E+00 -0.47357632231E+03  0.47357632233E+03  0.50400001928E-02 0.  1.
    10030    2    1    2    0    0  0.00000000000E+00  0.00000000000E+00  0.40245658567E+03  0.13496092303E+04  0.12882056401E+04 0.  0.
        4    1    3    3  502    0 -0.63859653302E+03 -0.72467861503E+02  0.24579668564E+03  0.68809501270E+03  0.12699999809E+01 0. -1.
       -4    1    3    3    0  502  0.63859653302E+03  0.72467861503E+02  0.15665990003E+03  0.66151421762E+03  0.12699999809E+01 0.  1.
</event>
<event>
 5   0  0.5710383E-04  0.1301161E+04  0.7818609E-02  0.9028645E-01
       -1   -1    0    0    0  501  0.00000000000E+00  0.00000000000E+00  0.31834216701E+03  0.31834216705E+03  0.50400001928E-02 0. -1.
        1   -1    0    0  501    0  0.00000000000E+00  0.00000000000E+00 -0.13295606192E+04  0.13295606192E+04  0.50400001928E-02 0.  1.
    10030    2    1    2    0    0  0.00000000000E+00  0.00000000000E+00 -0.10112184522E+04  0.16479027863E+04  0.13011613408E+04 0.  0.
        1    1    3    3  502    0 -0.97219171676E+01 -0.63351977841E+03 -0.31855739974E+03  0.70916898005E+03  0.50400001928E-02 0. -1.
       -1    1    3    3    0  502  0.97219171676E+01  0.63351977841E+03 -0.69266105245E+03  0.93873380620E+03  0.50400001928E-02 0.  1.
</event>
<event>
 5   0  0.5812938E-04  0.1302560E+04  0.7818609E-02  0.9027538E-01
       -1   -1    0    0    0  501  0.00000000000E+00  0.00000000000E+00  0.85319205559E+03  0.85319205560E+03  0.50400001928E-02 0. -1.
        1   -1    0    0  501    0  0.00000000000E+00  0.00000000000E+00 -0.49715104157E+03  0.49715104160E+03  0.50400001928E-02 0.  1.
    10030    2    1    2    0    0  0.00000000000E+00  0.00000000000E+00  0.35604101402E+03  0.13503430972E+04  0.13025595098E+04 0.  0.
        5    1    3    3  502    0  0.17464859758E+03 -0.20443573376E+03 -0.43690648900E+03  0.51303554653E+03  0.46999998093E+01 0.  1.
       -5    1    3    3    0  502 -0.17464859758E+03  0.20443573376E+03  0.79294750302E+03  0.83730755067E+03  0.46999998093E+01 0. -1.
</event>
<event>
 5   0  0.5766027E-04  0.1304189E+04  0.7818609E-02  0.9026250E-01
        1   -1    0    0  501    0  0.00000000000E+00  0.00000000000E+00  0.40197676807E+03  0.40197676810E+03  0.50400001928E-02 0. -1.
       -1   -1    0    0    0  501  0.00000000000E+00  0.00000000000E+00 -0.10578399880E+04  0.10578399881E+04  0.50400001928E-02 0.  1.
    10030    2    1    2    0    0  0.00000000000E+00  0.00000000000E+00 -0.65586321997E+03  0.14598167562E+04  0.13041887893E+04 0.  0.
        3    1    3    3  502    0  0.32289681291E+03  0.48255022394E+03 -0.66018584774E+03  0.87918282181E+03  0.10100000352E+00 0.  1.
       -3    1    3    3    0  502 -0.32289681291E+03 -0.48255022394E+03  0.43226277687E+01  0.58063393435E+03  0.10100000352E+00 0. -1.
</event>
<event>
 5   0  0.1031295E-03  0.1298401E+04  0.7818609E-02  0.9030834E-01
        2   -1    0    0  501    0  0.00000000000E+00  0.00000000000E+00  0.26021890028E+04  0.26021890028E+04  0.25500000920E-02 0. -1.
       -2   -1    0    0    0  501  0.00000000000E+00  0.00000000000E+00 -0.16196410344E+03  0.16196410346E+03  0.25500000920E-02 0.  1.
    10030    2    1    2    0    0  0.00000000000E+00  0.00000000000E+00  0.24402248993E+04  0.27641531062E+04  0.12984008762E+04 0.  0.
        2    1    3    3  502    0 -0.82011690505E+02  0.46074217620E+03  0.21779994178E+04  0.22277097509E+04  0.25500000920E-02 0. -1.
       -2    1    3    3    0  502  0.82011690505E+02 -0.46074217620E+03  0.26222548153E+03  0.53644335533E+03  0.25500000920E-02 0.  1.
</event>
<event>
 5   0  0.6006119E-04  0.1297728E+04  0.7818609E-02  0.9031369E-01
       -1   -1    0    0    0  501  0.00000000000E+00  0.00000000000E+00  0.70935093519E+03  0.70935093521E+03  0.50400001928E-02 0.  1.
        1   -1    0    0  501    0  0.00000000000E+00  0.00000000000E+00 -0.59353476549E+03  0.59353476551E+03  0.50400001928E-02 0. -1.
    10030    2    1    2    0    0  0.00000000000E+00  0.00000000000E+00  0.11581616971E+03  0.13028857007E+04  0.12977279237E+04 0.  0.
        4    1    3    3  502    0 -0.20189977962E+03 -0.58940040097E+03  0.23991975216E+03  0.66762223903E+03  0.12699999809E+01 0.  1.
       -4    1    3    3    0  502  0.20189977962E+03  0.58940040097E+03 -0.12410358246E+03  0.63526346168E+03  0.12699999809E+01 0. -1.
</event>
<event>
 5   0  0.1081574E-03  0.1297921E+04  0.7818609E-02  0.9031216E-01
       -2   -1    0    0    0  501  0.00000000000E+00  0.00000000000E+00  0.50934863675E+03  0.50934863676E+03  0.25500000920E-02 0. -1.
        2   -1    0    0  501    0  0.00000000000E+00  0.00000000000E+00 -0.82683953372E+03  0.82683953372E+03  0.25500000920E-02 0.  1.
    10030    2    1    2    0    0  0.00000000000E+00  0.00000000000E+00 -0.31749089697E+03  0.13361881705E+04  0.12979207824E+04 0.  0.
        5    1    3    3  502    0 -0.43059580050E+03  0.32817704010E+03  0.20959478969E+03  0.58057297467E+03  0.46999998093E+01 0. -1.
       -5    1    3    3    0  502  0.43059580050E+03 -0.32817704010E+03 -0.52708568665E+03  0.75561519581E+03  0.46999998093E+01 0.  1.
</event>
<event>
 5   0  0.4012375E-04  0.1315649E+04  0.7818609E-02  0.9017247E-01
       -3   -1    0    0    0  501  0.00000000000E+00  0.00000000000E+00  0.60596207018E+03  0.60596207860E+03  0.10100000352E+00 0. -1.
        3   -1    0    0  501    0  0.00000000000E+00  0.00000000000E+00 -0.71412555233E+03  0.71412555947E+03  0.10100000352E+00 0.  1.
    10030    2    1    2    0    0  0.00000000000E+00  0.00000000000E+00 -0.10816348214E+03  0.13200876381E+04  0.13156489020E+04 0.  0.
        3    1    3    3  502    0  0.28290222638E+03  0.50347241484E+03 -0.37012833160E+03  0.68593959956E+03  0.10100000352E+00 0.  1.
       -3    1    3    3    0  502 -0.28290222638E+03 -0.50347241484E+03  0.26196484945E+03  0.63414803851E+03  0.10100000352E+00 0. -1.
</event>
<event>
 5   0  0.1103241E-03  0.1307985E+04  0.7818609E-02  0.9023257E-01
        2   -1    0    0  501    0  0.00000000000E+00  0.00000000000E+00  0.69590176604E+03  0.69590176604E+03  0.25500000920E-02 0.  1.
       -2   -1    0    0    0  501  0.00000000000E+00  0.00000000000E+00 -0.61460738500E+03  0.61460738501E+03  0.25500000920E-02 0. -1.
    10030    2    1    2    0    0  0.00000000000E+00  0.00000000000E+00  0.81294381037E+02  0.13105091510E+04  0.13079852670E+04 0.  0.
        4    1    3    3  502    0  0.16875319683E+03 -0.50033572331E+01 -0.59239637917E+03  0.61598519299E+03  0.12699999809E+01 0. -1.
       -4    1    3    3    0  502 -0.16875319683E+03  0.50033572331E+01  0.67369076021E+03  0.69452395806E+03  0.12699999809E+01 0.  1.
</event>
<event>
 5   0  0.5710383E-04  0.1313482E+04  0.7818609E-02  0.9018942E-01
       -1   -1    0    0    0  501  0.00000000000E+00  0.00000000000E+00  0.40135269541E+03  0.40135269544E+03  0.50400001928E-02 0. -1.
        1   -1    0    0  501    0  0.00000000000E+00  0.00000000000E+00 -0.10746370813E+04  0.10746370813E+04  0.50400001928E-02 0.  1.
    10030    2    1    2    0    0  0.00000000000E+00  0.00000000000E+00 -0.67328438585E+03  0.14759897767E+04  0.13134816164E+04 0.  0.
        1    1    3    3  502    0  0.14968556386E+03  0.22041523654E+02  0.38150124903E+03  0.41040808939E+03  0.50400001928E-02 0. -1.
       -1    1    3    3    0  502 -0.14968556386E+03 -0.22041523654E+02 -0.10547856349E+04  0.10655816873E+04  0.50400001928E-02 0.  1.
</event>
<event>
 5   0  0.1081574E-03  0.1357406E+04  0.7818609E-02  0.8985241E-01
       -2   -1    0    0    0  501  0.00000000000E+00  0.00000000000E+00  0.39451240410E+03  0.39451240411E+03  0.25500000920E-02 0.  1.
        2   -1    0    0  501    0  0.00000000000E+00  0.00000000000E+00 -0.11676126995E+04  0.11676126995E+04  0.25500000920E-02 0. -1.
    10030    2    1    2    0    0  0.00000000000E+00  0.00000000000E+00 -0.77310029545E+03  0.15621251037E+04  0.13574058983E+04 0.  0.
        5    1    3    3  502    0 -0.15733219380E+03  0.65955222506E+03 -0.42016199642E+03  0.79769715433E+03  0.46999998093E+01 0.  1.
       -5    1    3    3    0  502  0.15733219380E+03 -0.65955222506E+03 -0.35293829903E+03  0.76442794933E+03  0.46999998093E+01 0. -1.
</event>
<event>
 5   0  0.4012375E-04  0.1258460E+04  0.7818609E-02  0.9063171E-01
        3   -1    0    0  501    0  0.00000000000E+00  0.00000000000E+00  0.44937822156E+03  0.44937823291E+03  0.10100000352E+00 0. -1.
       -3   -1    0    0    0  501  0.00000000000E+00  0.00000000000E+00 -0.88106286195E+03  0.88106286774E+03  0.10100000352E+00 0.  1.
    10030    2    1    2    0    0  0.00000000000E+00  0.00000000000E+00 -0.43168464039E+03  0.13304411006E+04  0.12584601279E+04 0.  0.
        1    1    3    3  502    0  0.26237999994E+03  0.28893652182E+03  0.30594967885E+03  0.49591610584E+03  0.50400001928E-02 0. -1.
       -1    1    3    3    0  502 -0.26237999994E+03 -0.28893652182E+03 -0.73763431924E+03  0.83452499481E+03  0.50400001928E-02 0.  1.
</event>
<event>
 5   0  0.1101619E-03  0.1300854E+04  0.7818609E-02  0.9028888E-01
       -2   -1    0    0    0  501  0.00000000000E+00  0.00000000000E+00  0.96104896596E+03  0.96104896596E+03  0.25500000920E-02 0.  1.
        2   -1    0    0  501    0  0.00000000000E+00  0.00000000000E+00 -0.44020146235E+03  0.44020146236E+03  0.25500000920E-02 0. -1.
    10030    2    1    2    0    0  0.00000000000E+00  0.00000000000E+00  0.52084750361E+03  0.14012504283E+04  0.13008538123E+04 0.  0.
        1    1    3    3  502    0  0.89180773846E+02 -0.52395975910E+03 -0.14343610181E+03  0.55050972281E+03  0.50400001928E-02 0. -1.
       -1    1    3    3    0  502 -0.89180773846E+02  0.52395975910E+03  0.66428360541E+03  0.85074070552E+03  0.50400001928E-02 0.  1.
</event>
<event>
 5   0  0.1046253E-03  0.1211852E+04  0.7818609E-02  0.9102545E-01
       -2   -1    0    0    0  501  0.00000000000E+00  0.00000000000E+00  0.61966721111E+03  0.61966721112E+03  0.25500000920E-02 0. -1.
        2   -1    0    0  501    0  0.00000000000E+00  0.00000000000E+00 -0.59248973129E+03  0.59248973129E+03  0.25500000920E-02 0.  1.
    10030    2    1    2    0    0  0.00000000000E+00  0.00000000000E+00  0.27177479824E+02  0.12121569424E+04  0.12118522342E+04 0.  0.
        3    1    3    3  502    0 -0.48380482726E+03 -0.29762790211E+03  0.22458482914E+03  0.61080916387E+03  0.10100000352E+00 0.  1.
       -3    1    3    3    0  502  0.48380482726E+03  0.29762790211E+03 -0.19740734932E+03  0.60134777854E+03  0.10100000352E+00 0. -1.
</event>
<event>
 5   0  0.5710383E-04  0.1303893E+04  0.7818609E-02  0.9026484E-01
        1   -1    0    0  501    0  0.00000000000E+00  0.00000000000E+00  0.16571652913E+04  0.16571652913E+04  0.50400001928E-02 0. -1.
       -1   -1    0    0    0  501  0.00000000000E+00  0.00000000000E+00 -0.25648265343E+03  0.25648265348E+03  0.50400001928E-02 0.  1.
    10030    2    1    2    0    0  0.00000000000E+00  0.00000000000E+00  0.14006826379E+04  0.19136479448E+04  0.13038928654E+04 0.  0.
        1    1    3    3  502    0 -0.18307875793E+03  0.44950232531E+03  0.61514027682E+02  0.48923833424E+03  0.50400001928E-02 0. -1.
       -1    1    3    3    0  502  0.18307875793E+03 -0.44950232531E+03  0.13391686102E+04  0.14244096105E+04  0.50400001928E-02 0.  1.
</event>
<event>
 5   0  0.5563545E-04  0.1319775E+04  0.7818609E-02  0.9014029E-01
       -1   -1    0    0    0  501  0.00000000000E+00  0.00000000000E+00  0.26037611822E+03  0.26037611826E+03  0.50400001928E-02 0. -1.
        1   -1    0    0  501    0  0.00000000000E+00  0.00000000000E+00 -0.16723937720E+04  0.16723937721E+04  0.50400001928E-02 0.  1.
    10030    2    1    2    0    0  0.00000000000E+00  0.00000000000E+00 -0.14120176538E+04  0.19327698903E+04  0.13197748271E+04 0.  0.
        2    1    3    3  502    0 -0.37985894612E+03  0.60125212149E+02  0.79284880040E+02  0.39267537776E+03  0.25500000920E-02 0.  1.
       -2    1    3    3    0  502  0.37985894612E+03 -0.60125212149E+02 -0.14913025339E+04  0.15400945126E+04  0.25500000920E-02 0. -1.
</event>
<event>
 5   0  0.1101619E-03  0.1301539E+04  0.7818609E-02  0.9028346E-01
        2   -1    0    0  501    0  0.00000000000E+00  0.00000000000E+00  0.18926899925E+03  0.18926899927E+03  0.25500000920E-02 0. -1.
       -2   -1    0    0    0  501  0.00000000000E+00  0.00000000000E+00 -0.22375604856E+04  0.22375604856E+04  0.25500000920E-02 0.  1.
    10030    2    1    2    0    0  0.00000000000E+00  0.00000000000E+00 -0.20482914863E+04  0.24268294848E+04  0.13015388337E+04 0.  0.
        1    1    3    3  502    0  0.19775909637E+03 -0.83683029104E+02 -0.21695978556E+04  0.21801986984E+04  0.50400001928E-02 0.  1.
       -1    1    3    3    0  502 -0.19775909637E+03  0.83683029104E+02  0.12130636928E+03  0.24663078642E+03  0.50400001928E-02 0. -1.
</event>
<event>
 5   0  0.1046253E-03  0.1305628E+04  0.7818609E-02  0.9025114E-01
        2   -1    0    0  501    0  0.00000000000E+00  0.00000000000E+00  0.25469664065E+04  0.25469664065E+04  0.25500000920E-02 0. -1.
       -2   -1    0    0    0  501  0.00000000000E+00  0.00000000000E+00 -0.16732303241E+03  0.16732303243E+03  0.25500000920E-02 0.  1.
    10030    2    1    2    0    0  0.00000000000E+00  0.00000000000E+00  0.23796433741E+04  0.27142894389E+04  0.13056280368E+04 0.  0.
        3    1    3    3  502    0 -0.34441327587E+03  0.23739930953E+03  0.14789913544E+03  0.44368130592E+03  0.10100000352E+00 0.  1.
       -3    1    3    3    0  502  0.34441327587E+03 -0.23739930953E+03  0.22317442386E+04  0.22706081330E+04  0.10100000352E+00 0. -1.
</event>
<event>
 5   0  0.5812938E-04  0.1300121E+04  0.7818609E-02  0.9029469E-01
       -1   -1    0    0    0  501  0.00000000000E+00  0.00000000000E+00  0.32330101790E+03  0.32330101794E+03  0.50400001928E-02 0. -1.
        1   -1    0    0  501    0  0.00000000000E+00  0.00000000000E+00 -0.13070742919E+04  0.13070742919E+04  0.50400001928E-02 0.  1.
    10030    2    1    2    0    0  0.00000000000E+00  0.00000000000E+00 -0.98377327401E+03  0.16303753099E+04  0.13001206853E+04 0.  0.
        5    1    3    3  502    0  0.50999589705E+03  0.38130371755E+03 -0.65571741039E+03  0.91404362714E+03  0.46999998093E+01 0.  1.
       -5    1    3    3    0  502 -0.50999589705E+03 -0.38130371755E+03 -0.32805586361E+03  0.71633168272E+03  0.46999998093E+01 0. -1.
</event>
<event>
 5   0  0.1046253E-03  0.1301664E+04  0.7818609E-02  0.9028247E-01
        2   -1    0    0  501    0  0.00000000000E+00  0.00000000000E+00  0.15551676157E+04  0.15551676157E+04  0.25500000920E-02 0.  1.
       -2   -1    0    0    0  501  0.00000000000E+00  0.00000000000E+00 -0.27237068168E+03  0.27237068169E+03  0.25500000920E-02 0. -1.
    10030    2    1    2    0    0  0.00000000000E+00  0.00000000000E+00  0.12827969340E+04  0.18275382974E+04  0.13016636488E+04 0.  0.
        3    1    3    3  502    0  0.59041029633E+03  0.15820171644E+03  0.32754843472E+03  0.69346960163E+03  0.10100000352E+00 0. -1.
       -3    1    3    3    0  502 -0.59041029633E+03 -0.15820171644E+03  0.95524849929E+03  0.11340686958E+04  0.10100000352E+00 0.  1.
</event>
<event>
 5   0  0.5563545E-04  0.1303581E+04  0.7818609E-02  0.9026730E-01
        1   -1    0    0  501    0  0.00000000000E+00  0.00000000000E+00  0.91588822391E+03  0.91588822392E+03  0.50400001928E-02 0.  1.
       -1   -1    0    0    0  501  0.00000000000E+00  0.00000000000E+00 -0.46384562767E+03  0.46384562770E+03  0.50400001928E-02 0. -1.
    10030    2    1    2    0    0  0.00000000000E+00  0.00000000000E+00  0.45204259624E+03  0.13797338516E+04  0.13035808347E+04 0.  0.
        2    1    3    3  502    0  0.61997490133E+03 -0.13771154380E+03  0.38120650772E+03  0.74071030039E+03  0.25500000920E-02 0. -1.
       -2    1    3    3    0  502 -0.61997490133E+03  0.13771154380E+03  0.70836088517E+02  0.63902355122E+03  0.25500000920E-02 0.  1.
</event>
<event>
 5   0  0.6006119E-04  0.1292923E+04  0.7818609E-02  0.9035196E-01
       -1   -1    0    0    0  501  0.00000000000E+00  0.00000000000E+00  0.48551252617E+03  0.48551252620E+03  0.50400001928E-02 0. -1.
        1   -1    0    0  501    0  0.00000000000E+00  0.00000000000E+00 -0.86076540079E+03  0.86076540080E+03  0.50400001928E-02 0.  1.
    10030    2    1    2    0    0  0.00000000000E+00  0.00000000000E+00 -0.37525287461E+03  0.13462779270E+04  0.12929228658E+04 0.  0.
        4    1    3    3  502    0 -0.53842714981E+03  0.30618095254E+03  0.51069950988E+01  0.61941768270E+03  0.12699999809E+01 0. -1.
       -4    1    3    3    0  502  0.53842714981E+03 -0.30618095254E+03 -0.38035986971E+03  0.72686024429E+03  0.12699999809E+01 0.  1.
</event>
<event>
 5   0  0.1046253E-03  0.1332278E+04  0.7818609E-02  0.9004353E-01
        2   -1    0    0  501    0  0.00000000000E+00  0.00000000000E+00  0.30323791543E+03  0.30323791545E+03  0.25500000920E-02 0.  1.
       -2   -1    0    0    0  501  0.00000000000E+00  0.00000000000E+00 -0.14633440521E+04  0.14633440521E+04  0.25500000920E-02 0. -1.
    10030    2    1    2    0    0  0.00000000000E+00  0.00000000000E+00 -0.11601061367E+04  0.17665819675E+04  0.13322783492E+04 0.  0.
        3    1    3    3  502    0  0.12628101624E+02  0.64241790275E+03 -0.81306900169E+03  0.10363114601E+04  0.10100000352E+00 0. -1.
       -3    1    3    3    0  502 -0.12628101624E+02 -0.64241790275E+03 -0.34703713498E+03  0.73027050740E+03  0.10100000352E+00 0.  1.
</event>
<event>
 5   0  0.5766027E-04  0.1300903E+04  0.7818609E-02  0.9028849E-01
       -1   -1    0    0    0  501  0.00000000000E+00  0.00000000000E+00  0.54865750944E+03  0.54865750946E+03  0.50400001928E-02 0.  1.
        1   -1    0    0  501    0  0.00000000000E+00  0.00000000000E+00 -0.77113184668E+03  0.77113184670E+03  0.50400001928E-02 0. -1.
    10030    2    1    2    0    0  0.00000000000E+00  0.00000000000E+00 -0.22247433724E+03  0.13197893562E+04  0.13009031916E+04 0.  0.
        3    1    3    3  502    0 -0.78163727032E+02  0.17257349537E+03  0.52004732703E+03  0.55348027254E+03  0.10100000352E+00 0.  1.
       -3    1    3    3    0  502  0.78163727032E+02 -0.17257349537E+03 -0.74252166428E+03  0.76630908363E+03  0.10100000352E+00 0. -1.
</event>
<event>
 5   0  0.5710383E-04  0.1283653E+04  0.7818609E-02  0.9042630E-01
       -1   -1    0    0    0  501  0.00000000000E+00  0.00000000000E+00  0.51062493205E+03  0.51062493208E+03  0.50400001928E-02 0.  1.
        1   -1    0    0  501    0  0.00000000000E+00  0.00000000000E+00 -0.80673885481E+03  0.80673885483E+03  0.50400001928E-02 0. -1.
    10030    2    1    2    0    0  0.00000000000E+00  0.00000000000E+00 -0.29611392276E+03  0.13173637869E+04  0.12836525588E+04 0.  0.
        1    1    3    3  502    0  0.28511155278E+01  0.13259240260E+03 -0.79252340369E+03  0.80354353927E+03  0.50400001928E-02 0. -1.
       -1    1    3    3    0  502 -0.28511155278E+01 -0.13259240260E+03  0.49640948093E+03  0.51382024763E+03  0.50400001928E-02 0.  1.
</event>
<event>
 5   0  0.6006119E-04  0.1301357E+04  0.7818609E-02  0.9028490E-01
       -1   -1    0    0    0  501  0.00000000000E+00  0.00000000000E+00  0.33672164701E+03  0.33672164705E+03  0.50400001928E-02 0. -1.
        1   -1    0    0  501    0  0.00000000000E+00  0.00000000000E+00 -0.12573657361E+04  0.12573657361E+04  0.50400001928E-02 0.  1.
    10030    2    1    2    0    0  0.00000000000E+00  0.00000000000E+00 -0.92064408912E+03  0.15940873832E+04  0.13013566177E+04 0.  0.
        4    1    3    3  502    0  0.15970424468E+03  0.54931106365E+03 -0.84011862443E+03  0.10163901841E+04  0.12699999809E+01 0.  1.
       -4    1    3    3    0  502 -0.15970424468E+03 -0.54931106365E+03 -0.80525464689E+02  0.57769719904E+03  0.12699999809E+01 0. -1.
</event>
<event>
 5   0  0.1031295E-03  0.1292242E+04  0.7818609E-02  0.9035740E-01
       -2   -1    0    0    0  501  0.00000000000E+00  0.00000000000E+00  0.49908586207E+03  0.49908586207E+03  0.25500000920E-02 0. -1.
        2   -1    0    0  501    0  0.00000000000E+00  0.00000000000E+00 -0.83647371470E+03  0.83647371470E+03  0.25500000920E-02 0.  1.
    10030    2    1    2    0    0  0.00000000000E+00  0.00000000000E+00 -0.33738785263E+03  0.13355595768E+04  0.12922417808E+04 0.  0.
        2    1    3    3  502    0  0.17543485781E+03  0.59472718532E+03 -0.35642646094E+03  0.71520461153E+03  0.25500000920E-02 0.  1.
       -2    1    3    3    0  502 -0.17543485781E+03 -0.59472718532E+03  0.19038608307E+02  0.62035496524E+03  0.25500000920E-02 0. -1.
</event>
<event>
 5   0  0.1031295E-03  0.1300696E+04  0.7818609E-02  0.9029014E-01
       -2   -1    0    0    0  501  0.00000000000E+00  0.00000000000E+00  0.13919838006E+03  0.13919838008E+03  0.25500000920E-02 0. -1.
        2   -1    0    0  501    0  0.00000000000E+00  0.00000000000E+00 -0.30384864443E+04  0.30384864443E+04  0.25500000920E-02 0.  1.
    10030    2    1    2    0    0  0.00000000000E+00  0.00000000000E+00 -0.28992880643E+04  0.31776848244E+04  0.13006957998E+04 0.  0.
        2    1    3    3  502    0 -0.40229596001E+03 -0.46402900946E+03 -0.19724110930E+04  0.20658098850E+04  0.25500000920E-02 0.  1.
       -2    1    3    3    0  502  0.40229596001E+03  0.46402900946E+03 -0.92687697122E+03  0.11118749394E+04  0.25500000920E-02 0. -1.
</event>
<event>
 5   0  0.1031295E-03  0.1303568E+04  0.7818609E-02  0.9026740E-01
        2   -1    0    0  501    0  0.00000000000E+00  0.00000000000E+00  0.18098529469E+04  0.18098529469E+04  0.25500000920E-02 0. -1.
       -2   -1    0    0    0  501  0.00000000000E+00  0.00000000000E+00 -0.23472767570E+03  0.23472767572E+03  0.25500000920E-02 0.  1.
    10030    2    1    2    0    0  0.00000000000E+00  0.00000000000E+00  0.15751252711E+04  0.20445806226E+04  0.13035682960E+04 0.  0.
        2    1    3    3  502    0  0.28676365949E+03 -0.22278862839E+03 -0.61364602444E+02  0.36828492201E+03  0.25500000920E-02 0.  1.
       -2    1    3    3    0  502 -0.28676365949E+03  0.22278862839E+03  0.16364898736E+04  0.16762957006E+04  0.25500000920E-02 0. -1.
</event>
<event>
 5   0  0.5563545E-04  0.1299178E+04  0.7818609E-02  0.9030218E-01
       -1   -1    0    0    0  501  0.00000000000E+00  0.00000000000E+00  0.47276431228E+03  0.47276431231E+03  0.50400001928E-02 0.  1.
        1   -1    0    0  501    0  0.00000000000E+00  0.00000000000E+00 -0.89254967584E+03  0.89254967586E+03  0.50400001928E-02 0. -1.
    10030    2    1    2    0    0  0.00000000000E+00  0.00000000000E+00 -0.41978536356E+03  0.13653139882E+04  0.12991776379E+04 0.  0.
        2    1    3    3  502    0 -0.38778935456E+03 -0.46167996403E+03  0.44150006372E+02  0.60454792677E+03  0.25500000920E-02 0. -1.
       -2    1    3    3    0  502  0.38778935456E+03  0.46167996403E+03 -0.46393536993E+03  0.76076606140E+03  0.25500000920E-02 0.  1.
</event>
<event>
 5   0  0.6006119E-04  0.1308796E+04  0.7818609E-02  0.9022619E-01
       -1   -1    0    0    0  501  0.00000000000E+00  0.00000000000E+00  0.48805678553E+03  0.48805678555E+03  0.50400001928E-02 0. -1.
        1   -1    0    0  501    0  0.00000000000E+00  0.00000000000E+00 -0.87743222912E+03  0.87743222913E+03  0.50400001928E-02 0.  1.
    10030    2    1    2    0    0  0.00000000000E+00  0.00000000000E+00 -0.38937544359E+03  0.13654890147E+04  0.13087960166E+04 0.  0.
        4    1    3    3  502    0  0.21295077986E+03  0.22360219536E+03 -0.79664556200E+03  0.85439554117E+03  0.12699999809E+01 0.  1.
       -4    1    3    3    0  502 -0.21295077986E+03 -0.22360219536E+03  0.40727011841E+03  0.51109347351E+03  0.12699999809E+01 0. -1.
</event>
<event>
 5   0  0.5766027E-04  0.1295396E+04  0.7818609E-02  0.9033224E-01
       -1   -1    0    0    0  501  0.00000000000E+00  0.00000000000E+00  0.10936697159E+04  0.10936697159E+04  0.50400001928E-02 0.  1.
        1   -1    0    0  501    0  0.00000000000E+00  0.00000000000E+00 -0.38358291924E+03  0.38358291928E+03  0.50400001928E-02 0. -1.
    10030    2    1    2    0    0  0.00000000000E+00  0.00000000000E+00  0.71008679661E+03  0.14772526351E+04  0.12953964989E+04 0.  0.
        3    1    3    3  502    0 -0.57484072225E+03 -0.10941836107E+03  0.67169070832E+03  0.89083256089E+03  0.10100000352E+00 0.  1.
       -3    1    3    3    0  502  0.57484072225E+03  0.10941836107E+03  0.38396088286E+02  0.58642007425E+03  0.10100000352E+00 0. -1.
</event>
<event>
 5   0  0.1081574E-03  0.1304445E+04  0.7818609E-02  0.9026047E-01
       -2   -1    0    0    0  501  0.00000000000E+00  0.00000000000E+00  0.22286933114E+03  0.22286933116E+03  0.25500000920E-02 0. -1.
        2   -1    0    0  501    0  0.00000000000E+00  0.00000000000E+00 -0.19087171024E+04  0.19087171024E+04  0.25500000920E-02 0.  1.
    10030    2    1    2    0    0  0.00000000000E+00  0.00000000000E+00 -0.16858477713E+04  0.21315864336E+04  0.13044454822E+04 0.  0.
        5    1    3    3  502    0  0.48996831775E+03  0.42450248118E+03 -0.95963417574E+03  0.11580980745E+04  0.46999998093E+01 0. -1.
       -5    1    3    3    0  502 -0.48996831775E+03 -0.42450248118E+03 -0.72621359556E+03  0.97348835909E+03  0.46999998093E+01 0.  1.
</event>
<event>
 5   0  0.6006119E-04  0.1303050E+04  0.7818609E-02  0.9027150E-01
        1   -1    0    0  501    0  0.00000000000E+00  0.00000000000E+00  0.16742473334E+04  0.16742473334E+04  0.50400001928E-02 0. -1.
       -1   -1    0    0    0  501  0.00000000000E+00  0.00000000000E+00 -0.25353776535E+03  0.25353776540E+03  0.50400001928E-02 0.  1.
    10030    2    1    2    0    0  0.00000000000E+00  0.00000000000E+00  0.14207095680E+04  0.19277850988E+04  0.13030501565E+04 0.  0.
        4    1    3    3  502    0 -0.36589429397E+03  0.46266656621E+03  0.30104323757E+03  0.66224438815E+03  0.12699999809E+01 0.  1.
       -4    1    3    3    0  502  0.36589429397E+03 -0.46266656621E+03  0.11196663305E+04  0.12655407106E+04  0.12699999809E+01 0. -1.
</event>
<event>
 5   0  0.1081574E-03  0.1316608E+04  0.7818609E-02  0.9016498E-01
       -2   -1    0    0    0  501  0.00000000000E+00  0.00000000000E+00  0.31870260182E+03  0.31870260183E+03  0.25500000920E-02 0.  1.
        2   -1    0    0  501    0  0.00000000000E+00  0.00000000000E+00 -0.13597757062E+04  0.13597757062E+04  0.25500000920E-02 0. -1.
    10030    2    1    2    0    0  0.00000000000E+00  0.00000000000E+00 -0.10410731044E+04  0.16784783080E+04  0.13166078466E+04 0.  0.
        5    1    3    3  502    0  0.54137202510E+03  0.28879225992E+03 -0.82452180224E+03  0.10277854500E+04  0.46999998093E+01 0. -1.
       -5    1    3    3    0  502 -0.54137202510E+03 -0.28879225992E+03 -0.21655130211E+03  0.65069285796E+03  0.46999998093E+01 0.  1.
</event>
<event>
 5   0  0.6006119E-04  0.1247813E+04  0.7818609E-02  0.9072006E-01
       -1   -1    0    0    0  501  0.00000000000E+00  0.00000000000E+00  0.45854487877E+03  0.45854487880E+03  0.50400001928E-02 0. -1.
        1   -1    0    0  501    0  0.00000000000E+00  0.00000000000E+00 -0.84890098732E+03  0.84890098734E+03  0.50400001928E-02 0.  1.
    10030    2    1    2    0    0  0.00000000000E+00  0.00000000000E+00 -0.39035610855E+03  0.13074458661E+04  0.12478128070E+04 0.  0.
        4    1    3    3  502    0  0.61025765199E+03  0.43377557069E+02 -0.67014982448E+02  0.61545806928E+03  0.12699999809E+01 0. -1.
       -4    1    3    3    0  502 -0.61025765199E+03 -0.43377557069E+02 -0.32334112610E+03  0.69198779686E+03  0.12699999809E+01 0.  1.
</event>
<event>
 5   0  0.5812938E-04  0.1301341E+04  0.7818609E-02  0.9028502E-01
        1   -1    0    0  501    0  0.00000000000E+00  0.00000000000E+00  0.13517463014E+04  0.13517463014E+04  0.50400001928E-02 0. -1.
       -1   -1    0    0    0  501  0.00000000000E+00  0.00000000000E+00 -0.31320385574E+03  0.31320385578E+03  0.50400001928E-02 0.  1.
    10030    2    1    2    0    0  0.00000000000E+00  0.00000000000E+00  0.10385424457E+04  0.16649501572E+04  0.13013410831E+04 0.  0.
        5    1    3    3  502    0  0.21176019232E+03  0.22807186010E+03 -0.21177635779E+03  0.37647107211E+03  0.46999998093E+01 0.  1.
       -5    1    3    3    0  502 -0.21176019232E+03 -0.22807186010E+03  0.12503188035E+04  0.12884790851E+04  0.46999998093E+01 0. -1.
</event>
<event>
 5   0  0.5766027E-04  0.1303194E+04  0.7818609E-02  0.9027036E-01
        1   -1    0    0  501    0  0.00000000000E+00  0.00000000000E+00  0.53583504031E+03  0.53583504033E+03  0.50400001928E-02 0.  1.
       -1   -1    0    0    0  501  0.00000000000E+00  0.00000000000E+00 -0.79236828393E+03  0.79236828394E+03  0.50400001928E-02 0. -1.
    10030    2    1    2    0    0  0.00000000000E+00  0.00000000000E+00 -0.25653324361E+03  0.13282033243E+04  0.13031940629E+04 0.  0.
        3    1    3    3  502    0  0.20156299592E+03  0.50037292391E+02 -0.75773330432E+03  0.78567877828E+03  0.10100000352E+00 0. -1.
       -3    1    3    3    0  502 -0.20156299592E+03 -0.50037292391E+02  0.50120006071E+03  0.54252454600E+03  0.10100000352E+00 0.  1.
</event>
<event>
 5   0  0.5710383E-04  0.1286679E+04  0.7818609E-02  0.9040196E-01
       -1   -1    0    0    0  501  0.00000000000E+00  0.00000000000E+00  0.90072819803E+03  0.90072819805E+03  0.50400001928E-02 0. -1.
        1   -1    0    0  501    0  0.00000000000E+00  0.00000000000E+00 -0.45950103294E+03  0.45950103296E+03  0.50400001928E-02 0.  1.
    10030    2    1    2    0    0  0.00000000000E+00  0.00000000000E+00  0.44122716510E+03  0.13602292310E+04  0.12866787282E+04 0.  0.
        1    1    3    3  502    0 -0.21305112183E+03 -0.58559992567E+03  0.38965221798E+03  0.73494687187E+03  0.50400001928E-02 0. -1.
       -1    1    3    3    0  502  0.21305112183E+03  0.58559992567E+03  0.51574947113E+02  0.62528235914E+03  0.50400001928E-02 0.  1.
</event>
<event>
 5   0  0.1103241E-03  0.1302298E+04  0.7818609E-02  0.9027745E-01
        2   -1    0    0  501    0  0.00000000000E+00  0.00000000000E+00  0.21584049450E+04  0.21584049450E+04  0.25500000920E-02 0. -1.
       -2   -1    0    0    0  501  0.00000000000E+00  0.00000000000E+00 -0.19643897379E+03  0.19643897381E+03  0.25500000920E-02 0.  1.
    10030    2    1    2    0    0  0.00000000000E+00  0.00000000000E+00  0.19619659712E+04  0.23548439188E+04  0.13022977424E+04 0.  0.
        4    1    3    3  502    0  0.16259008318E+03 -0.20805328295E+03 -0.95283878123E+02  0.28071753424E+03  0.12699999809E+01 0.  1.
       -4    1    3    3    0  502 -0.16259008318E+03  0.20805328295E+03  0.20572498493E+04  0.20741263845E+04  0.12699999809E+01 0. -1.
</event>
<event>
 5   0  0.1031295E-03  0.1298715E+04  0.7818609E-02  0.9030585E-01
       -2   -1    0    0    0  501  0.00000000000E+00  0.00000000000E+00  0.82058447821E+03  0.82058447821E+03  0.25500000920E-02 0. -1.
        2   -1    0    0  501    0  0.00000000000E+00  0.00000000000E+00 -0.51385977897E+03  0.51385977898E+03  0.25500000920E-02 0.  1.
    10030    2    1    2    0    0  0.00000000000E+00  0.00000000000E+00  0.30672469924E+03  0.13344442572E+04  0.12987153015E+04 0.  0.
        2    1    3    3  502    0 -0.23348575666E+03 -0.57122423426E+03  0.36104322820E+03  0.71495799667E+03  0.25500000920E-02 0. -1.
       -2    1    3    3    0  502  0.23348575666E+03  0.57122423426E+03 -0.54318528961E+02  0.61948626051E+03  0.25500000920E-02 0.  1.
</event>
<event>
 5   0  0.5766027E-04  0.1231484E+04  0.7818609E-02  0.9085737E-01
       -1   -1    0    0    0  501  0.00000000000E+00  0.00000000000E+00  0.56368886823E+03  0.56368886825E+03  0.50400001928E-02 0. -1.
        1   -1    0    0  501    0  0.00000000000E+00  0.00000000000E+00 -0.67260154353E+03  0.67260154355E+03  0.50400001928E-02 0.  1.
    10030    2    1    2    0    0  0.00000000000E+00  0.00000000000E+00 -0.10891267530E+03  0.12362904118E+04  0.12314836627E+04 0.  0.
        3    1    3    3  502    0  0.49590585622E+03  0.60398608723E+02 -0.41581601433E+03  0.64997967518E+03  0.10100000352E+00 0.  1.
       -3    1    3    3    0  502 -0.49590585622E+03 -0.60398608723E+02  0.30690333903E+03  0.58631073662E+03  0.10100000352E+00 0. -1.
</event>
<event>
 5   0  0.1046253E-03  0.1285677E+04  0.7818609E-02  0.9041001E-01
       -2   -1    0    0    0  501  0.00000000000E+00  0.00000000000E+00  0.33639392031E+03  0.33639392032E+03  0.25500000920E-02 0.  1.
        2   -1    0    0  501    0  0.00000000000E+00  0.00000000000E+00 -0.12284445289E+04  0.12284445289E+04  0.25500000920E-02 0. -1.
    10030    2    1    2    0    0  0.00000000000E+00  0.00000000000E+00 -0.89205060860E+03  0.15648384492E+04  0.12856768972E+04 0.  0.
        3    1    3    3  502    0  0.96713113484E+02  0.62861998713E+03 -0.55971315876E+03  0.84722803591E+03  0.10100000352E+00 0.  1.
       -3    1    3    3    0  502 -0.96713113484E+02 -0.62861998713E+03 -0.33233744984E+03  0.71761041332E+03  0.10100000352E+00 0. -1.
</event>
<event>
 5   0  0.5710383E-04  0.1296804E+04  0.7818609E-02  0.9032104E-01
        1   -1    0    0  501    0  0.00000000000E+00  0.00000000000E+00  0.44689411474E+03  0.44689411477E+03  0.50400001928E-02 0. -1.
       -1   -1    0    0    0  501  0.00000000000E+00  0.00000000000E+00 -0.94077106788E+03  0.94077106789E+03  0.50400001928E-02 0.  1.
    10030    2    1    2    0    0  0.00000000000E+00  0.00000000000E+00 -0.49387695314E+03  0.13876651827E+04  0.12968038457E+04 0.  0.
        1    1    3    3  502    0 -0.43550629186E+03 -0.45173411541E+03 -0.42177426847E+03  0.75605752086E+03  0.50400001928E-02 0. -1.
       -1    1    3    3    0  502  0.43550629186E+03  0.45173411541E+03 -0.72102684666E+02  0.63160766180E+03  0.50400001928E-02 0.  1.
</event>
<event>
 5   0  0.6006119E-04  0.1171570E+04  0.7818609E-02  0.9138111E-01
       -1   -1    0    0    0  501  0.00000000000E+00  0.00000000000E+00  0.47056724328E+03  0.47056724330E+03  0.50400001928E-02 0.  1.
        1   -1    0    0  501    0  0.00000000000E+00  0.00000000000E+00 -0.72921414288E+03  0.72921414290E+03  0.50400001928E-02 0. -1.
    10030    2    1    2    0    0  0.00000000000E+00  0.00000000000E+00 -0.25864689961E+03  0.11997813862E+04  0.11715703803E+04 0.  0.
        4    1    3    3  502    0 -0.28490467904E+03  0.33410873100E+03 -0.52640147796E+03  0.68549212188E+03  0.12699999809E+01 0. -1.
       -4    1    3    3    0  502  0.28490467904E+03 -0.33410873100E+03  0.26775457835E+03  0.51428926432E+03  0.12699999809E+01 0.  1.
</event>
<event>
 5   0  0.5812938E-04  0.1294862E+04  0.7818609E-02  0.9033649E-01
       -1   -1    0    0    0  501  0.00000000000E+00  0.00000000000E+00  0.83348922593E+03  0.83348922595E+03  0.50400001928E-02 0.  1.
        1   -1    0    0  501    0  0.00000000000E+00  0.00000000000E+00 -0.50290656555E+03  0.50290656558E+03  0.50400001928E-02 0. -1.
    10030    2    1    2    0    0  0.00000000000E+00  0.00000000000E+00  0.33058266038E+03  0.13363957915E+04  0.12948624700E+04 0.  0.
        5    1    3    3  502    0  0.83703788804E+02 -0.17254997931E+03 -0.47289968989E+03  0.51032933123E+03  0.46999998093E+01 0. -1.
       -5    1    3    3    0  502 -0.83703788804E+02  0.17254997931E+03  0.80348235027E+03  0.82606646029E+03  0.46999998093E+01 0.  1.
</event>
<event>
 5   0  0.1046253E-03  0.1299402E+04  0.7818609E-02  0.9030039E-01
       -2   -1    0    0    0  501  0.00000000000E+00  0.00000000000E+00  0.40978543638E+03  0.40978543639E+03  0.25500000920E-02 0.  1.
        2   -1    0    0  501    0  0.00000000000E+00  0.00000000000E+00 -0.10300793774E+04  0.10300793774E+04  0.25500000920E-02 0. -1.
    10030    2    1    2    0    0  0.00000000000E+00  0.00000000000E+00 -0.62029394105E+03  0.14398648138E+04  0.12994022121E+04 0.  0.
        3    1    3    3  502    0  0.18841920044E+03 -0.46942042071E+03  0.14167195404E+03  0.52528875796E+03  0.10100000352E+00 0.  1.
       -3    1    3    3    0  502 -0.18841920044E+03  0.46942042071E+03 -0.76196589509E+03  0.91457605586E+03  0.10100000352E+00 0. -1.
</event>
<event>
 5   0  0.5710383E-04  0.1301179E+04  0.7818609E-02  0.9028631E-01
        1   -1    0    0  501    0  0.00000000000E+00  0.00000000000E+00  0.60635151977E+03  0.60635151979E+03  0.50400001928E-02 0.  1.
       -1   -1    0    0    0  501  0.00000000000E+00  0.00000000000E+00 -0.69805452261E+03  0.69805452263E+03  0.50400001928E-02 0. -1.
    10030    2    1    2    0    0  0.00000000000E+00  0.00000000000E+00 -0.91703002847E+02  0.13044060424E+04  0.13011785745E+04 0.  0.
        1    1    3    3  502    0 -0.34866678394E+03 -0.54017704002E+03  0.53927585395E+02  0.64518830218E+03  0.50400001928E-02 0. -1.
       -1    1    3    3    0  502  0.34866678394E+03  0.54017704002E+03 -0.14563058824E+03  0.65921774023E+03  0.50400001928E-02 0.  1.
</event>
<event>
 5   0  0.1101619E-03  0.1296331E+04  0.7818609E-02  0.9032480E-01
        2   -1    0    0  501    0  0.00000000000E+00  0.00000000000E+00  0.83421708573E+03  0.83421708573E+03  0.25500000920E-02 0.  1.
       -2   -1    0    0    0  501  0.00000000000E+00  0.00000000000E+00 -0.50360784333E+03  0.50360784333E+03  0.25500000920E-02 0. -1.
    10030    2    1    2    0    0  0.00000000000E+00  0.00000000000E+00  0.33060924240E+03  0.13378249291E+04  0.12963306174E+04 0.  0.
        1    1    3    3  502    0  0.59873356335E+03  0.95950545204E+02 -0.71000394171E+02  0.61051571888E+03  0.50400001928E-02 0. -1.
       -1    1    3    3    0  502 -0.59873356335E+03 -0.95950545204E+02  0.40160963657E+03  0.72730921018E+03  0.50400001928E-02 0.  1.
</event>
<event>
 5   0  0.6006119E-04  0.1232390E+04  0.7818609E-02  0.9084968E-01
        1   -1    0    0  501    0  0.00000000000E+00  0.00000000000E+00  0.70136072919E+03  0.70136072921E+03  0.50400001928E-02 0. -1.
       -1   -1    0    0    0  501  0.00000000000E+00  0.00000000000E+00 -0.54137113299E+03  0.54137113301E+03  0.50400001928E-02 0.  1.
    10030    2    1    2    0    0  0.00000000000E+00  0.00000000000E+00  0.15998959620E+03  0.12427318622E+04  0.12323902833E+04 0.  0.
        4    1    3    3  502    0 -0.51535259857E+03 -0.25618530390E+03 -0.14202458623E+03  0.59278310265E+03  0.12699999809E+01 0.  1.
       -4    1    3    3    0  502  0.51535259857E+03  0.25618530390E+03  0.30201418243E+03  0.64994875958E+03  0.12699999809E+01 0. -1.
</event>
<event>
 5   0  0.5812938E-04  0.1319082E+04  0.7818609E-02  0.9014568E-01
        1   -1    0    0  501    0  0.00000000000E+00  0.00000000000E+00  0.71734292403E+03  0.71734292405E+03  0.50400001928E-02 0. -1.
       -1   -1    0    0    0  501  0.00000000000E+00  0.00000000000E+00 -0.60639671127E+03  0.60639671129E+03  0.50400001928E-02 0.  1.
    10030    2    1    2    0    0  0.00000000000E+00  0.00000000000E+00  0.11094621276E+03  0.13237396353E+04  0.13190820900E+04 0.  0.
        5    1    3    3  502    0 -0.20464923420E+03  0.23554680543E+03 -0.52761953354E+03  0.61299924044E+03  0.46999998093E+01 0.  1.
       -5    1    3    3    0  502  0.20464923420E+03 -0.23554680543E+03  0.63856574630E+03  0.71074039491E+03  0.46999998093E+01 0. -1.
</event>
<event>
 5   0  0.5563545E-04  0.1298085E+04  0.7818609E-02  0.9031085E-01
       -1   -1    0    0    0  501  0.00000000000E+00  0.00000000000E+00  0.69566964616E+03  0.69566964618E+03  0.50400001928E-02 0. -1.
        1   -1    0    0  501    0  0.00000000000E+00  0.00000000000E+00 -0.60554039843E+03  0.60554039845E+03  0.50400001928E-02 0.  1.
    10030    2    1    2    0    0  0.00000000000E+00  0.00000000000E+00  0.90129247730E+02  0.13012100446E+04  0.12980848581E+04 0.  0.
        2    1    3    3  502    0 -0.45766747481E+03 -0.45980040457E+03  0.25520370920E+02  0.64925127561E+03  0.25500000920E-02 0.  1.
       -2    1    3    3    0  502  0.45766747481E+03  0.45980040457E+03  0.64608876810E+02  0.65195876903E+03  0.25500000920E-02 0. -1.
</event>
<event>
 5   0  0.5563545E-04  0.1303049E+04  0.7818609E-02  0.9027151E-01
        1   -1    0    0  501    0  0.00000000000E+00  0.00000000000E+00  0.20649768434E+04  0.20649768434E+04  0.50400001928E-02 0. -1.
       -1   -1    0    0    0  501  0.00000000000E+00  0.00000000000E+00 -0.20556360931E+03  0.20556360938E+03  0.50400001928E-02 0.  1.
    10030    2    1    2    0    0  0.00000000000E+00  0.00000000000E+00  0.18594132341E+04  0.22705404528E+04  0.13030488758E+04 0.  0.
        2    1    3    3  502    0 -0.20015626752E+03  0.60379204203E+03  0.68416652072E+03  0.93419012494E+03  0.25500000920E-02 0. -1.
       -2    1    3    3    0  502  0.20015626752E+03 -0.60379204203E+03  0.11752467133E+04  0.13363503278E+04  0.25500000920E-02 0.  1.
</event>
<event>
 5   0  0.5812938E-04  0.1300732E+04  0.7818609E-02  0.9028985E-01
        1   -1    0    0  501    0  0.00000000000E+00  0.00000000000E+00  0.14049590126E+04  0.14049590126E+04  0.50400001928E-02 0.  1.
       -1   -1    0    0    0  501  0.00000000000E+00  0.00000000000E+00 -0.30105921002E+03  0.30105921006E+03  0.50400001928E-02 0. -1.
    10030    2    1    2    0    0  0.00000000000E+00  0.00000000000E+00  0.11038998026E+04  0.17060182227E+04  0.13007318717E+04 0.  0.
        5    1    3    3  502    0  0.38629187293E+03  0.11732825846E+03 -0.11678581409E+03  0.42029554804E+03  0.46999998093E+01 0. -1.
       -5    1    3    3    0  502 -0.38629187293E+03 -0.11732825846E+03  0.12206856167E+04  0.12857226747E+04  0.46999998093E+01 0.  1.
</event>
<event>
 5   0  0.1031295E-03  0.1281050E+04  0.7818609E-02  0.9044729E-01
        2   -1    0    0  501    0  0.00000000000E+00  0.00000000000E+00  0.71137408015E+03  0.71137408015E+03  0.25500000920E-02 0.  1.
       -2   -1    0    0    0  501  0.00000000000E+00  0.00000000000E+00 -0.57673185940E+03  0.57673185941E+03  0.25500000920E-02 0. -1.
    10030    2    1    2    0    0  0.00000000000E+00  0.00000000000E+00  0.13464222075E+03  0.12881059396E+04  0.12810497195E+04 0.  0.
        2    1    3    3  502    0  0.39461881507E+03  0.33056547495E+03  0.45056952924E+03  0.68411288770E+03  0.25500000920E-02 0.  1.
       -2    1    3    3    0  502 -0.39461881507E+03 -0.33056547495E+03 -0.31592730849E+03  0.60399305186E+03  0.25500000920E-02 0. -1.
</event>
<event>
 5   0  0.5710383E-04  0.1290453E+04  0.7818609E-02  0.9037171E-01
        1   -1    0    0  501    0  0.00000000000E+00  0.00000000000E+00  0.13213387107E+04  0.13213387107E+04  0.50400001928E-02 0.  1.
       -1   -1    0    0    0  501  0.00000000000E+00  0.00000000000E+00 -0.31507225116E+03  0.31507225121E+03  0.50400001928E-02 0. -1.
    10030    2    1    2    0    0  0.00000000000E+00  0.00000000000E+00  0.10062664595E+04  0.16364109619E+04  0.12904528851E+04 0.  0.
        1    1    3    3  502    0 -0.58919366965E+03  0.21659040250E+03  0.31395139379E+03  0.70187325102E+03  0.50400001928E-02 0.  1.
       -1    1    3    3    0  502  0.58919366965E+03 -0.21659040250E+03  0.69231506575E+03  0.93453771090E+03  0.50400001928E-02 0. -1.
</event>
<event>
 5   0  0.5710383E-04  0.1258967E+04  0.7818609E-02  0.9062753E-01
       -1   -1    0    0    0  501  0.00000000000E+00  0.00000000000E+00  0.21279275583E+03  0.21279275589E+03  0.50400001928E-02 0.  1.
        1   -1    0    0  501    0  0.00000000000E+00  0.00000000000E+00 -0.18621367644E+04  0.18621367644E+04  0.50400001928E-02 0. -1.
    10030    2    1    2    0    0  0.00000000000E+00  0.00000000000E+00 -0.16493440086E+04  0.20749295203E+04  0.12589665824E+04 0.  0.
        1    1    3    3  502    0  0.19836502628E+03  0.31983030880E+03  0.69502663615E+01  0.37641521795E+03  0.50400001928E-02 0.  1.
       -1    1    3    3    0  502 -0.19836502628E+03 -0.31983030880E+03 -0.16562942750E+04  0.16985143024E+04  0.50400001928E-02 0. -1.
</event>
<event>
 5   0  0.5710383E-04  0.1299333E+04  0.7818609E-02  0.9030094E-01
        1   -1    0    0  501    0  0.00000000000E+00  0.00000000000E+00  0.49070635163E+03  0.49070635165E+03  0.50400001928E-02 0. -1.
       -1   -1    0    0    0  501  0.00000000000E+00  0.00000000000E+00 -0.86012063300E+03  0.86012063302E+03  0.50400001928E-02 0.  1.
    10030    2    1    2    0    0  0.00000000000E+00  0.00000000000E+00 -0.36941428138E+03  0.13508269847E+04  0.12993331487E+04 0.  0.
        1    1    3    3  502    0  0.30778566120E+03 -0.30857155429E+03 -0.68558731765E+03  0.81239053879E+03  0.50400001928E-02 0.  1.
       -1    1    3    3    0  502 -0.30778566120E+03  0.30857155429E+03  0.31617303627E+03  0.53843644588E+03  0.50400001928E-02 0. -1.
</event>
<event>
 5   0  0.4012375E-04  0.1296623E+04  0.7818609E-02  0.9032247E-01
        3   -1    0    0  501    0  0.00000000000E+00  0.00000000000E+00  0.27522977965E+03  0.27522979818E+03  0.10100000352E+00 0. -1.
       -3   -1    0    0    0  501  0.00000000000E+00  0.00000000000E+00 -0.15271163630E+04  0.15271163664E+04  0.10100000352E+00 0.  1.
    10030    2    1    2    0    0  0.00000000000E+00  0.00000000000E+00 -0.12518865834E+04  0.18023461646E+04  0.12966231832E+04 0.  0.
        3    1    3    3  502    0  0.28512003001E+03 -0.24557738556E+03 -0.13597771730E+04  0.14108847062E+04  0.10100000352E+00 0.  1.
       -3    1    3    3    0  502 -0.28512003001E+03  0.24557738556E+03  0.10789058964E+03  0.39146145831E+03  0.10100000352E+00 0. -1.
</event>
<event>
 5   0  0.1103241E-03  0.1303074E+04  0.7818609E-02  0.9027131E-01
       -2   -1    0    0    0  501  0.00000000000E+00  0.00000000000E+00  0.88071975908E+03  0.88071975909E+03  0.25500000920E-02 0.  1.
        2   -1    0    0  501    0  0.00000000000E+00  0.00000000000E+00 -0.48199240853E+03  0.48199240854E+03  0.25500000920E-02 0. -1.
    10030    2    1    2    0    0  0.00000000000E+00  0.00000000000E+00  0.39872735055E+03  0.13627121676E+04  0.13030736555E+04 0.  0.
        4    1    3    3  502    0 -0.23955072008E+03  0.47471566264E+03 -0.19437735111E+03  0.56614810374E+03  0.12699999809E+01 0. -1.
       -4    1    3    3    0  502  0.23955072008E+03 -0.47471566264E+03  0.59310470165E+03  0.79656406388E+03  0.12699999809E+01 0.  1.
</event>
<event>
 5   0  0.5766027E-04  0.1298899E+04  0.7818609E-02  0.9030438E-01
        1   -1    0    0  501    0  0.00000000000E+00  0.00000000000E+00  0.61908036697E+03  0.61908036699E+03  0.50400001928E-02 0.  1.
       -1   -1    0    0    0  501  0.00000000000E+00  0.00000000000E+00 -0.68130874797E+03  0.68130874798E+03  0.50400001928E-02 0. -1.
    10030    2    1    2    0    0  0.00000000000E+00  0.00000000000E+00 -0.62228380997E+02  0.13003891150E+04  0.12988993336E+04 0.  0.
        3    1    3    3  502    0 -0.31156168076E+03 -0.39443137682E+03  0.38062149922E+03  0.63049149701E+03  0.10100000352E+00 0.  1.
       -3    1    3    3    0  502  0.31156168076E+03  0.39443137682E+03 -0.44284988022E+03  0.66989761796E+03  0.10100000352E+00 0. -1.
</event>
<event>
 5   0  0.1103241E-03  0.1303018E+04  0.7818609E-02  0.9027175E-01
        2   -1    0    0  501    0  0.00000000000E+00  0.00000000000E+00  0.93889155695E+03  0.93889155696E+03  0.25500000920E-02 0.  1.
       -2   -1    0    0    0  501  0.00000000000E+00  0.00000000000E+00 -0.45209066081E+03  0.45209066082E+03  0.25500000920E-02 0. -1.
    10030    2    1    2    0    0  0.00000000000E+00  0.00000000000E+00  0.48680089614E+03  0.13909822178E+04  0.13030181955E+04 0.  0.
        4    1    3    3  502    0  0.49158536730E+03 -0.24579149972E+03  0.61686478289E+03  0.82619211322E+03  0.12699999809E+01 0.  1.
       -4    1    3    3    0  502 -0.49158536730E+03  0.24579149972E+03 -0.13006388675E+03  0.56479010456E+03  0.12699999809E+01 0. -1.
</event>
<event>
 5   0  0.1046253E-03  0.1314807E+04  0.7818609E-02  0.9017905E-01
       -2   -1    0    0    0  501  0.00000000000E+00  0.00000000000E+00  0.87571724317E+03  0.87571724317E+03  0.25500000920E-02 0.  1.
        2   -1    0    0  501    0  0.00000000000E+00  0.00000000000E+00 -0.49351497574E+03  0.49351497575E+03  0.25500000920E-02 0. -1.
    10030    2    1    2    0    0  0.00000000000E+00  0.00000000000E+00  0.38220226742E+03  0.13692322189E+04  0.13148073228E+04 0.  0.
        3    1    3    3  502    0  0.37564648339E+03 -0.28639160585E+03 -0.28504381276E+03  0.55170682231E+03  0.10100000352E+00 0. -1.
       -3    1    3    3    0  502 -0.37564648339E+03  0.28639160585E+03  0.66724608018E+03  0.81752539661E+03  0.10100000352E+00 0.  1.
</event>
<event>
 5   0  0.1101619E-03  0.1277535E+04  0.7818609E-02  0.9047572E-01
       -2   -1    0    0    0  501  0.00000000000E+00  0.00000000000E+00  0.45103282817E+03  0.45103282818E+03  0.25500000920E-02 0. -1.
        2   -1    0    0  501    0  0.00000000000E+00  0.00000000000E+00 -0.90464312003E+03  0.90464312004E+03  0.25500000920E-02 0.  1.
    10030    2    1    2    0    0  0.00000000000E+00  0.00000000000E+00 -0.45361029187E+03  0.13556759482E+04  0.12775347274E+04 0.  0.
        1    1    3    3  502    0  0.34103672073E+03  0.34751882601E+03  0.21194336251E+03  0.53103236084E+03  0.50400001928E-02 0. -1.
       -1    1    3    3    0  502 -0.34103672073E+03 -0.34751882601E+03 -0.66555365438E+03  0.82464358738E+03  0.50400001928E-02 0.  1.
</event>
<event>
 5   0  0.1103241E-03  0.1299162E+04  0.7818609E-02  0.9030230E-01
        2   -1    0    0  501    0  0.00000000000E+00  0.00000000000E+00  0.25790219976E+03  0.25790219977E+03  0.25500000920E-02 0. -1.
       -2   -1    0    0    0  501  0.00000000000E+00  0.00000000000E+00 -0.16361076761E+04  0.16361076761E+04  0.25500000920E-02 0.  1.
    10030    2    1    2    0    0  0.00000000000E+00  0.00000000000E+00 -0.13782054763E+04  0.18940098759E+04  0.12991624513E+04 0.  0.
        4    1    3    3  502    0 -0.33462107954E+03 -0.28221940994E+03  0.10576254944E+02  0.43787273526E+03  0.12699999809E+01 0. -1.
       -4    1    3    3    0  502  0.33462107954E+03  0.28221940994E+03 -0.13887817313E+04  0.14561371406E+04  0.12699999809E+01 0.  1.
</event>
<event>
 5   0  0.5766027E-04  0.1276826E+04  0.7818609E-02  0.9048147E-01
       -1   -1    0    0    0  501  0.00000000000E+00  0.00000000000E+00  0.23925430631E+03  0.23925430636E+03  0.50400001928E-02 0.  1.
        1   -1    0    0  501    0  0.00000000000E+00  0.00000000000E+00 -0.17035066214E+04  0.17035066214E+04  0.50400001928E-02 0. -1.
    10030    2    1    2    0    0  0.00000000000E+00  0.00000000000E+00 -0.14642523151E+04  0.19427609277E+04  0.12768262138E+04 0.  0.
        3    1    3    3  502    0  0.30582811454E+03  0.20200163118E+02  0.11998849376E+03  0.32914454434E+03  0.10100000352E+00 0.  1.
       -3    1    3    3    0  502 -0.30582811454E+03 -0.20200163118E+02 -0.15842408088E+04  0.16136163834E+04  0.10100000352E+00 0. -1.
</event>
<event>
 5   0  0.1046253E-03  0.1298023E+04  0.7818609E-02  0.9031134E-01
       -2   -1    0    0    0  501  0.00000000000E+00  0.00000000000E+00  0.87588157698E+03  0.87588157698E+03  0.25500000920E-02 0.  1.
        2   -1    0    0  501    0  0.00000000000E+00  0.00000000000E+00 -0.48090540661E+03  0.48090540661E+03  0.25500000920E-02 0. -1.
    10030    2    1    2    0    0  0.00000000000E+00  0.00000000000E+00  0.39497617037E+03  0.13567869836E+04  0.12980233987E+04 0.  0.
        3    1    3    3  502    0 -0.61705772159E+03 -0.19653979774E+03  0.15279674254E+03  0.66538333207E+03  0.10100000352E+00 0. -1.
       -3    1    3    3    0  502  0.61705772159E+03  0.19653979774E+03  0.24217942783E+03  0.69140365152E+03  0.10100000352E+00 0.  1.
</event>
<event>
 5   0  0.5710383E-04  0.1304526E+04  0.7818609E-02  0.9025984E-01
       -1   -1    0    0    0  501  0.00000000000E+00  0.00000000000E+00  0.43535150843E+03  0.43535150846E+03  0.50400001928E-02 0.  1.
        1   -1    0    0  501    0  0.00000000000E+00  0.00000000000E+00 -0.97724933007E+03  0.97724933008E+03  0.50400001928E-02 0. -1.
    10030    2    1    2    0    0  0.00000000000E+00  0.00000000000E+00 -0.54189782163E+03  0.14126008385E+04  0.13045259215E+04 0.  0.
        1    1    3    3  502    0 -0.32110878291E+03 -0.15892217420E+03  0.31925672655E+03  0.47988745074E+03  0.50400001928E-02 0.  1.
       -1    1    3    3    0  502  0.32110878291E+03  0.15892217420E+03 -0.86115454818E+03  0.93271338780E+03  0.50400001928E-02 0. -1.
</event>
<event>
 5   0  0.1103241E-03  0.1297537E+04  0.7818609E-02  0.9031521E-01
       -2   -1    0    0    0  501  0.00000000000E+00  0.00000000000E+00  0.34007940873E+03  0.34007940874E+03  0.25500000920E-02 0. -1.
        2   -1    0    0  501    0  0.00000000000E+00  0.00000000000E+00 -0.12376536270E+04  0.12376536270E+04  0.25500000920E-02 0.  1.
    10030    2    1    2    0    0  0.00000000000E+00  0.00000000000E+00 -0.89757421828E+03  0.15777330358E+04  0.12975369185E+04 0.  0.
        4    1    3    3  502    0 -0.60271894320E+03 -0.18562356405E+03 -0.26368906805E+03  0.68356402007E+03  0.12699999809E+01 0. -1.
       -4    1    3    3    0  502  0.60271894320E+03  0.18562356405E+03 -0.63388515023E+03  0.89416901568E+03  0.12699999809E+01 0.  1.
</event>
<event>
 5   0  0.1031295E-03  0.1303915E+04  0.7818609E-02  0.9026466E-01
        2   -1    0    0  501    0  0.00000000000E+00  0.00000000000E+00  0.62260342424E+03  0.62260342424E+03  0.25500000920E-02 0. -1.
       -2   -1    0    0    0  501  0.00000000000E+00  0.00000000000E+00 -0.68269582696E+03  0.68269582696E+03  0.25500000920E-02 0.  1.
    10030    2    1    2    0    0  0.00000000000E+00  0.00000000000E+00 -0.60092402724E+02  0.13052992512E+04  0.13039152727E+04 0.  0.
        2    1    3    3  502    0 -0.21169028649E+03 -0.31248624626E+03 -0.56220080876E+03  0.67714856632E+03  0.25500000920E-02 0.  1.
       -2    1    3    3    0  502  0.21169028649E+03  0.31248624626E+03  0.50210840604E+03  0.62815068488E+03  0.25500000920E-02 0. -1.
</event>
<event>
 5   0  0.1101619E-03  0.1303329E+04  0.7818609E-02  0.9026929E-01
        2   -1    0    0  501    0  0.00000000000E+00  0.00000000000E+00  0.36126053598E+03  0.36126053599E+03  0.25500000920E-02 0.  1.
       -2   -1    0    0    0  501  0.00000000000E+00  0.00000000000E+00 -0.11755138544E+04  0.11755138544E+04  0.25500000920E-02 0. -1.
    10030    2    1    2    0    0  0.00000000000E+00  0.00000000000E+00 -0.81425331846E+03  0.15367743904E+04  0.13033292218E+04 0.  0.
        1    1    3    3  502    0 -0.51770558490E+02 -0.14263032184E+03 -0.11543942939E+04  0.11643237459E+04  0.50400001928E-02 0. -1.
       -1    1    3    3    0  502  0.51770558490E+02  0.14263032184E+03  0.34014097543E+03  0.37245064455E+03  0.50400001928E-02 0.  1.
</event>
<event>
 5   0  0.1046253E-03  0.1302376E+04  0.7818609E-02  0.9027683E-01
        2   -1    0    0  501    0  0.00000000000E+00  0.00000000000E+00  0.75987785251E+03  0.75987785252E+03  0.25500000920E-02 0. -1.
       -2   -1    0    0    0  501  0.00000000000E+00  0.00000000000E+00 -0.55804510080E+03  0.55804510080E+03  0.25500000920E-02 0.  1.
    10030    2    1    2    0    0  0.00000000000E+00  0.00000000000E+00  0.20183275171E+03  0.13179229533E+04  0.13023764629E+04 0.  0.
        3    1    3    3  502    0 -0.54627964178E+02  0.41579182832E+03 -0.40320607190E+03  0.58175785821E+03  0.10100000352E+00 0.  1.
       -3    1    3    3    0  502  0.54627964178E+02 -0.41579182832E+03  0.60503882362E+03  0.73616509511E+03  0.10100000352E+00 0. -1.
</event>
<event>
 5   0  0.4012375E-04  0.1309846E+04  0.7818609E-02  0.9021793E-01
       -3   -1    0    0    0  501  0.00000000000E+00  0.00000000000E+00  0.40082943022E+03  0.40082944295E+03  0.10100000352E+00 0. -1.
        3   -1    0    0  501    0  0.00000000000E+00  0.00000000000E+00 -0.10700919237E+04  0.10700919285E+04  0.10100000352E+00 0.  1.
    10030    2    1    2    0    0  0.00000000000E+00  0.00000000000E+00 -0.66926249349E+03  0.14709213714E+04  0.13098463252E+04 0.  0.
        5    1    3    3  502    0 -0.19575873208E+03  0.49236385684E+03  0.97616322557E+02  0.53879001952E+03  0.46999998093E+01 0. -1.
       -5    1    3    3    0  502  0.19575873208E+03 -0.49236385684E+03 -0.76687881605E+03  0.93213135191E+03  0.46999998093E+01 0.  1.
</event>
<event>
 5   0  0.1031295E-03  0.1251357E+04  0.7818609E-02  0.9069054E-01
        2   -1    0    0  501    0  0.00000000000E+00  0.00000000000E+00  0.24480279285E+04  0.24480279285E+04  0.25500000920E-02 0. -1.
       -2   -1    0    0    0  501  0.00000000000E+00  0.00000000000E+00 -0.15991393422E+03  0.15991393424E+03  0.25500000920E-02 0.  1.
    10030    2    1    2    0    0  0.00000000000E+00  0.00000000000E+00  0.22881139943E+04  0.26079418627E+04  0.12513573065E+04 0.  0.
        2    1    3    3  502    0 -0.32034520764E+03 -0.11439422522E+03  0.49628299929E+02  0.34375872205E+03  0.25500000920E-02 0.  1.
       -2    1    3    3    0  502  0.32034520764E+03  0.11439422522E+03  0.22384856943E+04  0.22641831407E+04  0.25500000920E-02 0. -1.
</event>
<event>
 5   0  0.5563545E-04  0.1288358E+04  0.7818609E-02  0.9038849E-01
        1   -1    0    0  501    0  0.00000000000E+00  0.00000000000E+00  0.10572154162E+04  0.10572154162E+04  0.50400001928E-02 0. -1.
       -1   -1    0    0    0  501  0.00000000000E+00  0.00000000000E+00 -0.39250904021E+03  0.39250904024E+03  0.50400001928E-02 0.  1.
    10030    2    1    2    0    0  0.00000000000E+00  0.00000000000E+00  0.66470637595E+03  0.14497244564E+04  0.12883580377E+04 0.  0.
        2    1    3    3  502    0  0.39225300220E+03  0.87105611729E+02  0.89892148429E+03  0.98463680626E+03  0.25500000920E-02 0. -1.
       -2    1    3    3    0  502 -0.39225300220E+03 -0.87105611729E+02 -0.23421510834E+03  0.46508765014E+03  0.25500000920E-02 0.  1.
</event>
<event>
 5   0  0.5563545E-04  0.1314081E+04  0.7818609E-02  0.9018473E-01
        1   -1    0    0  501    0  0.00000000000E+00  0.00000000000E+00  0.18220601668E+04  0.18220601668E+04  0.50400001928E-02 0. -1.
       -1   -1    0    0    0  501  0.00000000000E+00  0.00000000000E+00 -0.23693066401E+03  0.23693066406E+03  0.50400001928E-02 0.  1.
    10030    2    1    2    0    0  0.00000000000E+00  0.00000000000E+00  0.15851295028E+04  0.20589908308E+04  0.13140805534E+04 0.  0.
        2    1    3    3  502    0 -0.27423077254E+03 -0.38646526697E+03  0.79434910730E+02  0.48048706978E+03  0.25500000920E-02 0.  1.
       -2    1    3    3    0  502  0.27423077254E+03  0.38646526697E+03  0.15056945920E+04  0.15785037611E+04  0.25500000920E-02 0. -1.
</event>
<event>
 5   0  0.6006119E-04  0.1294480E+04  0.7818609E-02  0.9033954E-01
       -1   -1    0    0    0  501  0.00000000000E+00  0.00000000000E+00  0.53991077815E+03  0.53991077817E+03  0.50400001928E-02 0.  1.
        1   -1    0    0  501    0  0.00000000000E+00  0.00000000000E+00 -0.77590496695E+03  0.77590496697E+03  0.50400001928E-02 0. -1.
    10030    2    1    2    0    0  0.00000000000E+00  0.00000000000E+00 -0.23599418880E+03  0.13158157451E+04  0.12944797480E+04 0.  0.
        4    1    3    3  502    0  0.53394061113E+03 -0.57334589968E+01  0.25380816521E+03  0.59122385472E+03  0.12699999809E+01 0.  1.
       -4    1    3    3    0  502 -0.53394061113E+03  0.57334589968E+01 -0.48980235401E+03  0.72459189042E+03  0.12699999809E+01 0. -1.
</event>
<event>
 5   0  0.5812938E-04  0.1300172E+04  0.7818609E-02  0.9029429E-01
        1   -1    0    0  501    0  0.00000000000E+00  0.00000000000E+00  0.60133678021E+03  0.60133678023E+03  0.50400001928E-02 0.  1.
       -1   -1    0    0    0  501  0.00000000000E+00  0.00000000000E+00 -0.70278712679E+03  0.70278712681E+03  0.50400001928E-02 0. -1.
    10030    2    1    2    0    0  0.00000000000E+00  0.00000000000E+00 -0.10145034659E+03  0.13041239070E+04  0.13001719087E+04 0.  0.
        5    1    3    3  502    0 -0.63701857012E+03  0.91056229456E+02 -0.14323219564E+03  0.65925825552E+03  0.46999998093E+01 0.  1.
       -5    1    3    3    0  502  0.63701857012E+03 -0.91056229456E+02  0.41781849054E+02  0.64486565152E+03  0.46999998093E+01 0. -1.
</event>
<event>
 5   0  0.5812938E-04  0.1306960E+04  0.7818609E-02  0.9024064E-01
        1   -1    0    0  501    0  0.00000000000E+00  0.00000000000E+00  0.78940530297E+03  0.78940530299E+03  0.50400001928E-02 0.  1.
       -1   -1    0    0    0  501  0.00000000000E+00  0.00000000000E+00 -0.54095907604E+03  0.54095907607E+03  0.50400001928E-02 0. -1.
    10030    2    1    2    0    0  0.00000000000E+00  0.00000000000E+00  0.24844622693E+03  0.13303643791E+04  0.13069597750E+04 0.  0.
        5    1    3    3  502    0 -0.21380560807E+03  0.43491482410E+03 -0.32197602692E+03  0.58185427228E+03  0.46999998093E+01 0. -1.
       -5    1    3    3    0  502  0.21380560807E+03 -0.43491482410E+03  0.57042225385E+03  0.74851010678E+03  0.46999998093E+01 0.  1.
</event>
<event>
 5   0  0.1046253E-03  0.1303458E+04  0.7818609E-02  0.9026827E-01
        2   -1    0    0  501    0  0.00000000000E+00  0.00000000000E+00  0.12155010771E+04  0.12155010771E+04  0.25500000920E-02 0.  1.
       -2   -1    0    0    0  501  0.00000000000E+00  0.00000000000E+00 -0.34944496858E+03  0.34944496859E+03  0.25500000920E-02 0. -1.
    10030    2    1    2    0    0  0.00000000000E+00  0.00000000000E+00  0.86605610848E+03  0.15649460456E+04  0.13034580710E+04 0.  0.
        3    1    3    3  502    0 -0.10746957506E+03  0.61190511932E+03  0.19661699164E+03  0.65164087980E+03  0.10100000352E+00 0. -1.
       -3    1    3    3    0  502  0.10746957506E+03 -0.61190511932E+03  0.66943911684E+03  0.91330516585E+03  0.10100000352E+00 0.  1.
</event>
<event>
 5   0  0.1046253E-03  0.1302666E+04  0.7818609E-02  0.9027454E-01
        2   -1    0    0  501    0  0.00000000000E+00  0.00000000000E+00  0.97223987317E+03  0.97223987317E+03  0.25500000920E-02 0.  1.
       -2   -1    0    0    0  501  0.00000000000E+00  0.00000000000E+00 -0.43634748669E+03  0.43634748670E+03  0.25500000920E-02 0. -1.
    10030    2    1    2    0    0  0.00000000000E+00  0.00000000000E+00  0.53589238648E+03  0.14085873599E+04  0.13026656135E+04 0.  0.
        3    1    3    3  502    0 -0.27808787582E+03  0.19101362965E+03 -0.33450577311E+03  0.47509282865E+03  0.10100000352E+00 0. -1.
       -3    1    3    3    0  502  0.27808787582E+03 -0.19101362965E+03  0.87039815959E+03  0.93349453122E+03  0.10100000352E+00 0.  1.
</event>
<event>
 5   0  0.5812938E-04  0.1277108E+04  0.7818609E-02  0.9047918E-01
        1   -1    0    0  501    0  0.00000000000E+00  0.00000000000E+00  0.14758137535E+04  0.14758137535E+04  0.50400001928E-02 0.  1.
       -1   -1    0    0    0  501  0.00000000000E+00  0.00000000000E+00 -0.27628908432E+03  0.27628908437E+03  0.50400001928E-02 0. -1.
    10030    2    1    2    0    0  0.00000000000E+00  0.00000000000E+00  0.11995246692E+04  0.17521028379E+04  0.12771080309E+04 0.  0.
        5    1    3    3  502    0 -0.51399516575E+03 -0.19527791664E+03  0.15435041686E+03  0.57111350564E+03  0.46999998093E+01 0. -1.
       -5    1    3    3    0  502  0.51399516575E+03  0.19527791664E+03  0.10451742523E+04  0.11809893322E+04  0.46999998093E+01 0.  1.
</event>
<event>
 5   0  0.1101619E-03  0.1304382E+04  0.7818609E-02  0.9026098E-01
       -2   -1    0    0    0  501  0.00000000000E+00  0.00000000000E+00  0.88430105355E+03  0.88430105355E+03  0.25500000920E-02 0.  1.
        2   -1    0    0  501    0  0.00000000000E+00  0.00000000000E+00 -0.48100466891E+03  0.48100466892E+03  0.25500000920E-02 0. -1.
    10030    2    1    2    0    0  0.00000000000E+00  0.00000000000E+00  0.40329638463E+03  0.13653057225E+04  0.13043817470E+04 0.  0.
        1    1    3    3  502    0 -0.47297359774E+03 -0.43990685523E+03  0.29603117700E+03  0.71053256310E+03  0.50400001928E-02 0.  1.
       -1    1    3    3    0  502  0.47297359774E+03  0.43990685523E+03  0.10726520764E+03  0.65477315937E+03  0.50400001928E-02 0. -1.
</event>
<event>
 5   0  0.5563545E-04  0.1297103E+04  0.7818609E-02  0.9031866E-01
        1   -1    0    0  501    0  0.00000000000E+00  0.00000000000E+00  0.66836012542E+03  0.66836012544E+03  0.50400001928E-02 0.  1.
       -1   -1    0    0    0  501  0.00000000000E+00  0.00000000000E+00 -0.62933006962E+03  0.62933006964E+03  0.50400001928E-02 0. -1.
    10030    2    1    2    0    0  0.00000000000E+00  0.00000000000E+00  0.39030055795E+02  0.12976901951E+04  0.12971031174E+04 0.  0.
        2    1    3    3  502    0  0.58960194777E+03 -0.11421831246E+03 -0.22542806330E+03  0.64147805219E+03  0.25500000920E-02 0. -1.
       -2    1    3    3    0  502 -0.58960194777E+03  0.11421831246E+03  0.26445811909E+03  0.65621214289E+03  0.25500000920E-02 0.  1.
</event>
<event>
 5   0  0.1046253E-03  0.1295029E+04  0.7818609E-02  0.9033516E-01
       -2   -1    0    0    0  501  0.00000000000E+00  0.00000000000E+00  0.54374099920E+03  0.54374099920E+03  0.25500000920E-02 0.  1.
        2   -1    0    0  501    0  0.00000000000E+00  0.00000000000E+00 -0.77109340229E+03  0.77109340229E+03  0.25500000920E-02 0. -1.
    10030    2    1    2    0    0  0.00000000000E+00  0.00000000000E+00 -0.22735240309E+03  0.13148344015E+04  0.12950291071E+04 0.  0.
        3    1    3    3  502    0  0.46853917375E+03 -0.26971039488E+03  0.24814794648E+03  0.59485298015E+03  0.10100000352E+00 0.  1.
       -3    1    3    3    0  502 -0.46853917375E+03  0.26971039488E+03 -0.47550034958E+03  0.71998142135E+03  0.10100000352E+00 0. -1.
</event>
<event>
 5   0  0.1103241E-03  0.1355694E+04  0.7818609E-02  0.8986529E-01
        2   -1    0    0  501    0  0.00000000000E+00  0.00000000000E+00  0.58535078644E+03  0.58535078644E+03  0.25500000920E-02 0.  1.
       -2   -1    0    0    0  501  0.00000000000E+00  0.00000000000E+00 -0.78495977505E+03  0.78495977505E+03  0.25500000920E-02 0. -1.
    10030    2    1    2    0    0  0.00000000000E+00  0.00000000000E+00 -0.19960898861E+03  0.13703105615E+04  0.13556943928E+04 0.  0.
        4    1    3    3  502    0  0.46082395792E+03  0.46679461102E+03 -0.27258389288E+03  0.71032353236E+03  0.12699999809E+01 0.  1.
       -4    1    3    3    0  502 -0.46082395792E+03 -0.46679461102E+03  0.72974904266E+02  0.65998702913E+03  0.12699999809E+01 0. -1.
</event>
<event>
 5   0  0.1081574E-03  0.1326545E+04  0.7818609E-02  0.9008776E-01
        2   -1    0    0  501    0  0.00000000000E+00  0.00000000000E+00  0.16897738635E+04  0.16897738635E+04  0.25500000920E-02 0.  1.
       -2   -1    0    0    0  501  0.00000000000E+00  0.00000000000E+00 -0.26034870964E+03  0.26034870966E+03  0.25500000920E-02 0. -1.
    10030    2    1    2    0    0  0.00000000000E+00  0.00000000000E+00  0.14294251538E+04  0.19501225731E+04  0.13265450538E+04 0.  0.
        5    1    3    3  502    0  0.49549367472E+03 -0.11907793451E+03  0.90639920492E+02  0.51762073119E+03  0.46999998093E+01 0. -1.
       -5    1    3    3    0  502 -0.49549367472E+03  0.11907793451E+03  0.13387852333E+04  0.14325018419E+04  0.46999998093E+01 0.  1.
</event>
<event>
 5   0  0.5710383E-04  0.1290576E+04  0.7818609E-02  0.9037072E-01
        1   -1    0    0  501    0  0.00000000000E+00  0.00000000000E+00  0.64837459187E+03  0.64837459189E+03  0.50400001928E-02 0.  1.
       -1   -1    0    0    0  501  0.00000000000E+00  0.00000000000E+00 -0.64221596365E+03  0.64221596367E+03  0.50400001928E-02 0. -1.
    10030    2    1    2    0    0  0.00000000000E+00  0.00000000000E+00  0.61586282149E+01  0.12905905556E+04  0.12905758612E+04 0.  0.
        1    1    3    3  502    0  0.89692289484E+02 -0.24439893212E+03  0.59352737050E+03  0.64811286392E+03  0.50400001928E-02 0.  1.
       -1    1    3    3    0  502 -0.89692289484E+02  0.24439893212E+03 -0.58736874229E+03  0.64247769164E+03  0.50400001928E-02 0. -1.
</event>
<event>
 5   0  0.5766027E-04  0.1291826E+04  0.7818609E-02  0.9036072E-01
        1   -1    0    0  501    0  0.00000000000E+00  0.00000000000E+00  0.25446719509E+03  0.25446719514E+03  0.50400001928E-02 0. -1.
       -1   -1    0    0    0  501  0.00000000000E+00  0.00000000000E+00 -0.16395182138E+04  0.16395182138E+04  0.50400001928E-02 0.  1.
    10030    2    1    2    0    0  0.00000000000E+00  0.00000000000E+00 -0.13850510187E+04  0.18939854089E+04  0.12918259964E+04 0.  0.
        3    1    3    3  502    0 -0.54454024039E+03  0.25155849601E+03 -0.34127223101E+03  0.69012498591E+03  0.10100000352E+00 0. -1.
       -3    1    3    3    0  502  0.54454024039E+03 -0.25155849601E+03 -0.10437787877E+04  0.12038604230E+04  0.10100000352E+00 0.  1.
</event>
<event>
 5   0  0.6006119E-04  0.1297223E+04  0.7818609E-02  0.9031770E-01
        1   -1    0    0  501    0  0.00000000000E+00  0.00000000000E+00  0.26362629567E+04  0.26362629567E+04  0.50400001928E-02 0. -1.
       -1   -1    0    0    0  501  0.00000000000E+00  0.00000000000E+00 -0.15958071653E+03  0.15958071661E+03  0.50400001928E-02 0.  1.
    10030    2    1    2    0    0  0.00000000000E+00  0.00000000000E+00  0.24766822402E+04  0.27958436733E+04  0.12972227746E+04 0.  0.
        4    1    3    3  502    0  0.14706074959E+03  0.44561036216E+03  0.27327928736E+03  0.54302729281E+03  0.12699999809E+01 0.  1.
       -4    1    3    3    0  502 -0.14706074959E+03 -0.44561036216E+03  0.22034029528E+04  0.22528163805E+04  0.12699999809E+01 0. -1.
</event>
<event>
 5   0  0.5812938E-04  0.1262025E+04  0.7818609E-02  0.9060233E-01
       -1   -1    0    0    0  501  0.00000000000E+00  0.00000000000E+00  0.67130840253E+03  0.67130840255E+03  0.50400001928E-02 0. -1.
        1   -1    0    0  501    0  0.00000000000E+00  0.00000000000E+00 -0.59313582757E+03  0.59313582760E+03  0.50400001928E-02 0.  1.
    10030    2    1    2    0    0  0.00000000000E+00  0.00000000000E+00  0.78172574957E+02  0.12644442301E+04  0.12620254592E+04 0.  0.
        5    1    3    3  502    0  0.92709735685E+02 -0.57921417849E+03 -0.19389069811E+03  0.61781862425E+03  0.46999998093E+01 0.  1.
       -5    1    3    3    0  502 -0.92709735685E+02  0.57921417849E+03  0.27206327307E+03  0.64662560590E+03  0.46999998093E+01 0. -1.
</event>
<event>
 5   0  0.1046253E-03  0.1312035E+04  0.7818609E-02  0.9020075E-01
        2   -1    0    0  501    0  0.00000000000E+00  0.00000000000E+00  0.12565169265E+04  0.12565169265E+04  0.25500000920E-02 0.  1.
       -2   -1    0    0    0  501  0.00000000000E+00  0.00000000000E+00 -0.34250169970E+03  0.34250169971E+03  0.25500000920E-02 0. -1.
    10030    2    1    2    0    0  0.00000000000E+00  0.00000000000E+00  0.91401522678E+03  0.15990186262E+04  0.13120353395E+04 0.  0.
        3    1    3    3  502    0  0.22241659549E+03 -0.55682725209E+03  0.13264770924E+03  0.61410190977E+03  0.10100000352E+00 0. -1.
       -3    1    3    3    0  502 -0.22241659549E+03  0.55682725209E+03  0.78136751754E+03  0.98491671642E+03  0.10100000352E+00 0.  1.
</event>
<event>
 5   0  0.5563545E-04  0.1355947E+04  0.7818609E-02  0.8986339E-01
       -1   -1    0    0    0  501  0.00000000000E+00  0.00000000000E+00  0.32446447839E+03  0.32446447843E+03  0.50400001928E-02 0.  1.
        1   -1    0    0  501    0  0.00000000000E+00  0.00000000000E+00 -0.14166353544E+04  0.14166353544E+04  0.50400001928E-02 0. -1.
    10030    2    1    2    0    0  0.00000000000E+00  0.00000000000E+00 -0.10921708760E+04  0.17410998328E+04  0.13559466824E+04 0.  0.
        2    1    3    3  502    0 -0.16491438143E+03  0.59706752496E+03 -0.19218773985E+03  0.64855416884E+03  0.25500000920E-02 0.  1.
       -2    1    3    3    0  502  0.16491438143E+03 -0.59706752496E+03 -0.89998313615E+03  0.10925456640E+04  0.25500000920E-02 0. -1.
</event>
<event>
 5   0  0.6006119E-04  0.1298529E+04  0.7818609E-02  0.9030732E-01
        1   -1    0    0  501    0  0.00000000000E+00  0.00000000000E+00  0.10045679660E+04  0.10045679661E+04  0.50400001928E-02 0. -1.
       -1   -1    0    0    0  501  0.00000000000E+00  0.00000000000E+00 -0.41962769045E+03  0.41962769048E+03  0.50400001928E-02 0.  1.
    10030    2    1    2    0    0  0.00000000000E+00  0.00000000000E+00  0.58494027559E+03  0.14241956565E+04  0.12985292227E+04 0.  0.
        4    1    3    3  502    0  0.61985000105E+03 -0.12565194731E+03  0.13149986209E+03  0.64598472296E+03  0.12699999809E+01 0.  1.
       -4    1    3    3    0  502 -0.61985000105E+03  0.12565194731E+03  0.45344041350E+03  0.77821093359E+03  0.12699999809E+01 0. -1.
</event>
<event>
 5   0  0.5766027E-04  0.1297071E+04  0.7818609E-02  0.9031891E-01
        1   -1    0    0  501    0  0.00000000000E+00  0.00000000000E+00  0.10671132714E+04  0.10671132714E+04  0.50400001928E-02 0. -1.
       -1   -1    0    0    0  501  0.00000000000E+00  0.00000000000E+00 -0.39414560436E+03  0.39414560439E+03  0.50400001928E-02 0.  1.
    10030    2    1    2    0    0  0.00000000000E+00  0.00000000000E+00  0.67296766705E+03  0.14612588758E+04  0.12970705537E+04 0.  0.
        3    1    3    3  502    0 -0.71054152826E+02  0.13258579495E+03  0.10471880606E+04  0.10579369216E+04  0.10100000352E+00 0. -1.
       -3    1    3    3    0  502  0.71054152826E+02 -0.13258579495E+03 -0.37422039350E+03  0.40332195424E+03  0.10100000352E+00 0.  1.
</event>
<event>
 5   0  0.6006119E-04  0.1301273E+04  0.7818609E-02  0.9028556E-01
       -1   -1    0    0    0  501  0.00000000000E+00  0.00000000000E+00  0.26717867618E+03  0.26717867622E+03  0.50400001928E-02 0. -1.
        1   -1    0    0  501    0  0.00000000000E+00  0.00000000000E+00 -0.15844382005E+04  0.15844382005E+04  0.50400001928E-02 0.  1.
    10030    2    1    2    0    0  0.00000000000E+00  0.00000000000E+00 -0.13172595243E+04  0.18516168767E+04  0.13012733778E+04 0.  0.
        4    1    3    3  502    0 -0.32851971878E+03 -0.21136540103E+03 -0.13989975731E+04  0.14525138074E+04  0.12699999809E+01 0.  1.
       -4    1    3    3    0  502  0.32851971878E+03  0.21136540103E+03  0.81738048792E+02  0.39910306927E+03  0.12699999809E+01 0. -1.
</event>
<event>
 5   0  0.1031295E-03  0.1285566E+04  0.7818609E-02  0.9041091E-01
       -2   -1    0    0    0  501  0.00000000000E+00  0.00000000000E+00  0.43348329869E+03  0.43348329869E+03  0.25500000920E-02 0.  1.
        2   -1    0    0  501    0  0.00000000000E+00  0.00000000000E+00 -0.95313873984E+03  0.95313873984E+03  0.25500000920E-02 0. -1.
    10030    2    1    2    0    0  0.00000000000E+00  0.00000000000E+00 -0.51965544115E+03  0.13866220385E+04  0.12855655955E+04 0.  0.
        2    1    3    3  502    0  0.33379668194E+02 -0.64116561104E+03 -0.29328514279E+03  0.70584964264E+03  0.25500000920E-02 0. -1.
       -2    1    3    3    0  502 -0.33379668194E+02  0.64116561104E+03 -0.22637029836E+03  0.68077239589E+03  0.25500000920E-02 0.  1.
</event>
<event>
 5   0  0.1081574E-03  0.1302827E+04  0.7818609E-02  0.9027327E-01
       -2   -1    0    0    0  501  0.00000000000E+00  0.00000000000E+00  0.39410313335E+03  0.39410313335E+03  0.25500000920E-02 0. -1.
        2   -1    0    0  501    0  0.00000000000E+00  0.00000000000E+00 -0.10767217028E+04  0.10767217028E+04  0.25500000920E-02 0.  1.
    10030    2    1    2    0    0  0.00000000000E+00  0.00000000000E+00 -0.68261856944E+03  0.14708248361E+04  0.13028267679E+04 0.  0.
        5    1    3    3  502    0 -0.47656487121E+03 -0.42911821712E+03 -0.47032984985E+03  0.79529163104E+03  0.46999998093E+01 0.  1.
       -5    1    3    3    0  502  0.47656487121E+03  0.42911821712E+03 -0.21228871959E+03  0.67553320511E+03  0.46999998093E+01 0. -1.
</event>
<event>
 5   0  0.1046253E-03  0.1293908E+04  0.7818609E-02  0.9034410E-01
        2   -1    0    0  501    0  0.00000000000E+00  0.00000000000E+00  0.44322366175E+03  0.44322366176E+03  0.25500000920E-02 0.  1.
       -2   -1    0    0    0  501  0.00000000000E+00  0.00000000000E+00 -0.94433039479E+03  0.94433039479E+03  0.25500000920E-02 0. -1.
    10030    2    1    2    0    0  0.00000000000E+00  0.00000000000E+00 -0.50110673304E+03  0.13875540566E+04  0.12939081505E+04 0.  0.
        3    1    3    3  502    0 -0.46488892284E+03 -0.36051797047E+03 -0.53920870066E+03  0.79802315172E+03  0.10100000352E+00 0. -1.
       -3    1    3    3    0  502  0.46488892284E+03  0.36051797047E+03  0.38101967617E+02  0.58953090483E+03  0.10100000352E+00 0.  1.
</event>
<event>
 5   0  0.1081574E-03  0.1279775E+04  0.7818609E-02  0.9045759E-01
        2   -1    0    0  501    0  0.00000000000E+00  0.00000000000E+00  0.75649948773E+03  0.75649948773E+03  0.25500000920E-02 0.  1.
       -2   -1    0    0    0  501  0.00000000000E+00  0.00000000000E+00 -0.54125077222E+03  0.54125077223E+03  0.25500000920E-02 0. -1.
    10030    2    1    2    0    0  0.00000000000E+00  0.00000000000E+00  0.21524871551E+03  0.12977502600E+04  0.12797748738E+04 0.  0.
        5    1    3    3  502    0  0.25614188714E+03 -0.58632749053E+03  0.11444560930E+03  0.65000652304E+03  0.46999998093E+01 0. -1.
       -5    1    3    3    0  502 -0.25614188714E+03  0.58632749053E+03  0.10080310620E+03  0.64774373692E+03  0.46999998093E+01 0.  1.
</event>
<event>
 5   0  0.6006119E-04  0.1297181E+04  0.7818609E-02  0.9031804E-01
       -1   -1    0    0    0  501  0.00000000000E+00  0.00000000000E+00  0.55439983655E+03  0.55439983657E+03  0.50400001928E-02 0. -1.
        1   -1    0    0  501    0  0.00000000000E+00  0.00000000000E+00 -0.75878389101E+03  0.75878389103E+03  0.50400001928E-02 0.  1.
    10030    2    1    2    0    0  0.00000000000E+00  0.00000000000E+00 -0.20438405446E+03  0.13131837276E+04  0.12971810439E+04 0.  0.
        4    1    3    3  502    0 -0.30895299989E+03 -0.38516059075E+03 -0.52793629931E+03  0.72285474740E+03  0.12699999809E+01 0.  1.
       -4    1    3    3    0  502  0.30895299989E+03  0.38516059075E+03  0.32355224485E+03  0.59032898019E+03  0.12699999809E+01 0. -1.
</event>
<event>
 5   0  0.5766027E-04  0.1310455E+04  0.7818609E-02  0.9021315E-01
        1   -1    0    0  501    0  0.00000000000E+00  0.00000000000E+00  0.62973604930E+03  0.62973604933E+03  0.50400001928E-02 0.  1.
       -1   -1    0    0    0  501  0.00000000000E+00  0.00000000000E+00 -0.68175093056E+03  0.68175093058E+03  0.50400001928E-02 0. -1.
    10030    2    1    2    0    0  0.00000000000E+00  0.00000000000E+00 -0.52014881256E+02  0.13114869799E+04  0.13104550929E+04 0.  0.
        3    1    3    3  502    0  0.41063704007E+03  0.19247350719E+03  0.44728597690E+03  0.63697220111E+03  0.10100000352E+00 0.  1.
       -3    1    3    3    0  502 -0.41063704007E+03 -0.19247350719E+03 -0.49930085816E+03  0.67451477879E+03  0.10100000352E+00 0. -1.
</event>
<event>
 5   0  0.5766027E-04  0.1301314E+04  0.7818609E-02  0.9028524E-01
       -1   -1    0    0    0  501  0.00000000000E+00  0.00000000000E+00  0.72045619768E+03  0.72045619770E+03  0.50400001928E-02 0. -1.
        1   -1    0    0  501    0  0.00000000000E+00  0.00000000000E+00 -0.58762019885E+03  0.58762019887E+03  0.50400001928E-02 0.  1.
    10030    2    1    2    0    0  0.00000000000E+00  0.00000000000E+00  0.13283599883E+03  0.13080763966E+04  0.13013141268E+04 0.  0.
        3    1    3    3  502    0  0.21764877734E+03 -0.38229569614E+03 -0.41548290146E+03  0.60510085206E+03  0.10100000352E+00 0.  1.
       -3    1    3    3    0  502 -0.21764877734E+03  0.38229569614E+03  0.54831890029E+03  0.70297554451E+03  0.10100000352E+00 0. -1.
</event>
<event>
 5   0  0.5812938E-04  0.1301289E+04  0.7818609E-02  0.9028543E-01
       -1   -1    0    0    0  501  0.00000000000E+00  0.00000000000E+00  0.62944222187E+03  0.62944222189E+03  0.50400001928E-02 0. -1.
        1   -1    0    0  501    0  0.00000000000E+00  0.00000000000E+00 -0.67256138076E+03  0.67256138078E+03  0.50400001928E-02 0.  1.
    10030    2    1    2    0    0  0.00000000000E+00  0.00000000000E+00 -0.43119158896E+02  0.13020036027E+04  0.13012894065E+04 0.  0.
        5    1    3    3  502    0 -0.53595193548E+03 -0.21844350120E+03  0.27584823906E+03  0.64115238544E+03  0.46999998093E+01 0.  1.
       -5    1    3    3    0  502  0.53595193548E+03  0.21844350120E+03 -0.31896739796E+03  0.66085121723E+03  0.46999998093E+01 0. -1.
</event>
<event>
 5   0  0.1031295E-03  0.1308362E+04  0.7818609E-02  0.9022960E-01
        2   -1    0    0  501    0  0.00000000000E+00  0.00000000000E+00  0.85739336591E+03  0.85739336591E+03  0.25500000920E-02 0.  1.
       -2   -1    0    0    0  501  0.00000000000E+00  0.00000000000E+00 -0.49913211582E+03  0.49913211583E+03  0.25500000920E-02 0. -1.
    10030    2    1    2    0    0  0.00000000000E+00  0.00000000000E+00  0.35826125009E+03  0.13565254817E+04  0.13083616699E+04 0.  0.
        2    1    3    3  502    0 -0.41858859482E+03  0.44533426721E+03  0.42098483321E+03  0.74213694900E+03  0.25500000920E-02 0.  1.
       -2    1    3    3    0  502  0.41858859482E+03 -0.44533426721E+03 -0.62723583126E+02  0.61438853274E+03  0.25500000920E-02 0. -1.
</event>
<event>
 5   0  0.1046253E-03  0.1304361E+04  0.7818609E-02  0.9026114E-01
       -2   -1    0    0    0  501  0.00000000000E+00  0.00000000000E+00  0.16554331475E+03  0.16554331477E+03  0.25500000920E-02 0. -1.
        2   -1    0    0  501    0  0.00000000000E+00  0.00000000000E+00 -0.25693534843E+04  0.25693534843E+04  0.25500000920E-02 0.  1.
    10030    2    1    2    0    0  0.00000000000E+00  0.00000000000E+00 -0.24038101695E+04  0.27348967991E+04  0.13043608283E+04 0.  0.
        3    1    3    3  502    0  0.28063371860E+02  0.54118089639E+03 -0.44106251450E+03  0.69871343722E+03  0.10100000352E+00 0. -1.
       -3    1    3    3    0  502 -0.28063371860E+02 -0.54118089639E+03 -0.19627476550E+04  0.20361833618E+04  0.10100000352E+00 0.  1.
</event>
<event>
 5   0  0.1046253E-03  0.1279702E+04  0.7818609E-02  0.9045818E-01
        2   -1    0    0  501    0  0.00000000000E+00  0.00000000000E+00  0.81043802036E+03  0.81043802036E+03  0.25500000920E-02 0.  1.
       -2   -1    0    0    0  501  0.00000000000E+00  0.00000000000E+00 -0.50517062940E+03  0.50517062941E+03  0.25500000920E-02 0. -1.
    10030    2    1    2    0    0  0.00000000000E+00  0.00000000000E+00  0.30526739096E+03  0.13156086498E+04  0.12797022854E+04 0.  0.
        3    1    3    3  502    0 -0.45238513052E+03  0.40807254260E+03 -0.48387782856E+02  0.61116028509E+03  0.10100000352E+00 0.  1.
       -3    1    3    3    0  502  0.45238513052E+03 -0.40807254260E+03  0.35365517381E+03  0.70444836468E+03  0.10100000352E+00 0. -1.
</event>
<event>
 5   0  0.5563545E-04  0.1297939E+04  0.7818609E-02  0.9031201E-01
        1   -1    0    0  501    0  0.00000000000E+00  0.00000000000E+00  0.13357795860E+04  0.13357795860E+04  0.50400001928E-02 0.  1.
       -1   -1    0    0    0  501  0.00000000000E+00  0.00000000000E+00 -0.31529253197E+03  0.31529253201E+03  0.50400001928E-02 0. -1.
    10030    2    1    2    0    0  0.00000000000E+00  0.00000000000E+00  0.10204870540E+04  0.16510721180E+04  0.12979388704E+04 0.  0.
        2    1    3    3  502    0 -0.17622560796E+02  0.19284953336E+03  0.12981686896E+04  0.13125332163E+04  0.25500000920E-02 0.  1.
       -2    1    3    3    0  502  0.17622560796E+02 -0.19284953336E+03 -0.27768163564E+03  0.33853890167E+03  0.25500000920E-02 0. -1.
</event>
<event>
 5   0  0.1103241E-03  0.1302324E+04  0.7818609E-02  0.9027724E-01
        2   -1    0    0  501    0  0.00000000000E+00  0.00000000000E+00  0.78597053455E+03  0.78597053456E+03  0.25500000920E-02 0.  1.
       -2   -1    0    0    0  501  0.00000000000E+00  0.00000000000E+00 -0.53947597963E+03  0.53947597964E+03  0.25500000920E-02 0. -1.
    10030    2    1    2    0    0  0.00000000000E+00  0.00000000000E+00  0.24649455492E+03  0.13254465142E+04  0.13023244206E+04 0.  0.
        4    1    3    3  502    0 -0.57248360594E+03  0.29870551080E+03  0.20869108445E+03  0.67861332354E+03  0.12699999809E+01 0.  1.
       -4    1    3    3    0  502  0.57248360594E+03 -0.29870551080E+03  0.37803470478E+02  0.64683319066E+03  0.12699999809E+01 0. -1.
</event>
<event>
 5   0  0.1046253E-03  0.1302130E+04  0.7818609E-02  0.9027878E-01
        2   -1    0    0  501    0  0.00000000000E+00  0.00000000000E+00  0.10594280481E+04  0.10594280481E+04  0.25500000920E-02 0.  1.
       -2   -1    0    0    0  501  0.00000000000E+00  0.00000000000E+00 -0.40010774755E+03  0.40010774756E+03  0.25500000920E-02 0. -1.
    10030    2    1    2    0    0  0.00000000000E+00  0.00000000000E+00  0.65932030051E+03  0.14595357956E+04  0.13021295942E+04 0.  0.
        3    1    3    3  502    0  0.65052055890E+03  0.10761046408E+02  0.30237492843E+03  0.71744226612E+03  0.10100000352E+00 0. -1.
       -3    1    3    3    0  502 -0.65052055890E+03 -0.10761046408E+02  0.35694537208E+03  0.74209352950E+03  0.10100000352E+00 0.  1.
</event>
<event>
 5   0  0.1046253E-03  0.1302635E+04  0.7818609E-02  0.9027478E-01
        2   -1    0    0  501    0  0.00000000000E+00  0.00000000000E+00  0.53948724852E+03  0.53948724853E+03  0.25500000920E-02 0.  1.
       -2   -1    0    0    0  501  0.00000000000E+00  0.00000000000E+00 -0.78632881438E+03  0.78632881438E+03  0.25500000920E-02 0. -1.
    10030    2    1    2    0    0  0.00000000000E+00  0.00000000000E+00 -0.24684156585E+03  0.13258160629E+04  0.13026348199E+04 0.  0.
        3    1    3    3  502    0  0.13845655086E+03  0.60416375988E+03  0.80215414379E+02  0.62499487049E+03  0.10100000352E+00 0. -1.
       -3    1    3    3    0  502 -0.13845655086E+03 -0.60416375988E+03 -0.32705698023E+03  0.70082119242E+03  0.10100000352E+00 0.  1.
</event>
<event>
 5   0  0.4012375E-04  0.1265909E+04  0.7818609E-02  0.9057045E-01
        3   -1    0    0  501    0  0.00000000000E+00  0.00000000000E+00  0.31586807357E+03  0.31586808972E+03  0.10100000352E+00 0. -1.
       -3   -1    0    0    0  501  0.00000000000E+00  0.00000000000E+00 -0.12683512238E+04  0.12683512279E+04  0.10100000352E+00 0.  1.
    10030    2    1    2    0    0  0.00000000000E+00  0.00000000000E+00 -0.95248315026E+03  0.15842193176E+04  0.12659094338E+04 0.  0.
        5    1    3    3  502    0  0.14585601628E+02  0.55778194837E+03 -0.10232012839E+03  0.56729616637E+03  0.46999998093E+01 0. -1.
       -5    1    3    3    0  502 -0.14585601628E+02 -0.55778194837E+03 -0.85016302187E+03  0.10169231512E+04  0.46999998093E+01 0.  1.
</event>
<event>
 5   0  0.1046253E-03  0.1298489E+04  0.7818609E-02  0.9030764E-01
       -2   -1    0    0    0  501  0.00000000000E+00  0.00000000000E+00  0.24433205939E+03  0.24433205940E+03  0.25500000920E-02 0.  1.
        2   -1    0    0  501    0  0.00000000000E+00  0.00000000000E+00 -0.17251861850E+04  0.17251861850E+04  0.25500000920E-02 0. -1.
    10030    2    1    2    0    0  0.00000000000E+00  0.00000000000E+00 -0.14808541256E+04  0.19695182444E+04  0.12984888039E+04 0.  0.
        3    1    3    3  502    0 -0.20500415962E+02  0.64807841431E+03 -0.79055844515E+03  0.10224522304E+04  0.10100000352E+00 0.  1.
       -3    1    3    3    0  502  0.20500415962E+02 -0.64807841431E+03 -0.69029568050E+03  0.94706601399E+03  0.10100000352E+00 0. -1.
</event>
<event>
 5   0  0.1081574E-03  0.1318801E+04  0.7818609E-02  0.9014788E-01
       -2   -1    0    0    0  501  0.00000000000E+00  0.00000000000E+00  0.22491899871E+03  0.22491899872E+03  0.25500000920E-02 0. -1.
        2   -1    0    0  501    0  0.00000000000E+00  0.00000000000E+00 -0.19331794527E+04  0.19331794527E+04  0.25500000920E-02 0.  1.
    10030    2    1    2    0    0  0.00000000000E+00  0.00000000000E+00 -0.17082604540E+04  0.21580984515E+04  0.13188006473E+04 0.  0.
        5    1    3    3  502    0  0.38614467342E+03 -0.23811853533E+03 -0.71080210560E+02  0.45921959018E+03  0.46999998093E+01 0. -1.
       -5    1    3    3    0  502 -0.38614467342E+03  0.23811853533E+03 -0.16371802435E+04  0.16988788613E+04  0.46999998093E+01 0.  1.
</event>
<event>
 5   0  0.5766027E-04  0.1298068E+04  0.7818609E-02  0.9031099E-01
       -1   -1    0    0    0  501  0.00000000000E+00  0.00000000000E+00  0.21301229480E+03  0.21301229486E+03  0.50400001928E-02 0.  1.
        1   -1    0    0  501    0  0.00000000000E+00  0.00000000000E+00 -0.19775611213E+04  0.19775611213E+04  0.50400001928E-02 0. -1.
    10030    2    1    2    0    0  0.00000000000E+00  0.00000000000E+00 -0.17645488265E+04  0.21905734162E+04  0.12980675370E+04 0.  0.
        3    1    3    3  502    0  0.13402127010E+03 -0.59000646169E+03 -0.48587440940E+03  0.77597891568E+03  0.10100000352E+00 0.  1.
       -3    1    3    3    0  502 -0.13402127010E+03  0.59000646169E+03 -0.12786744171E+04  0.14145945005E+04  0.10100000352E+00 0. -1.
</event>
<event>
 5   0  0.4012375E-04  0.1302199E+04  0.7818609E-02  0.9027823E-01
       -3   -1    0    0    0  501  0.00000000000E+00  0.00000000000E+00  0.42780535297E+03  0.42780536490E+03  0.10100000352E+00 0.  1.
        3   -1    0    0  501    0  0.00000000000E+00  0.00000000000E+00 -0.99094327729E+03  0.99094328243E+03  0.10100000352E+00 0. -1.
    10030    2    1    2    0    0  0.00000000000E+00  0.00000000000E+00 -0.56313792431E+03  0.14187486473E+04  0.13021994480E+04 0.  0.
        3    1    3    3  502    0 -0.15409138205E+02  0.22987848551E+02 -0.99030220204E+03  0.99068882314E+03  0.10100000352E+00 0. -1.
       -3    1    3    3    0  502  0.15409138205E+02 -0.22987848551E+02  0.42716427773E+03  0.42805982419E+03  0.10100000352E+00 0.  1.
</event>
<event>
 5   0  0.5563545E-04  0.1281570E+04  0.7818609E-02  0.9044309E-01
        1   -1    0    0  501    0  0.00000000000E+00  0.00000000000E+00  0.47053046532E+03  0.47053046534E+03  0.50400001928E-02 0.  1.
       -1   -1    0    0    0  501  0.00000000000E+00  0.00000000000E+00 -0.87264370986E+03  0.87264370987E+03  0.50400001928E-02 0. -1.
    10030    2    1    2    0    0  0.00000000000E+00  0.00000000000E+00 -0.40211324454E+03  0.13431741752E+04  0.12815700541E+04 0.  0.
        2    1    3    3  502    0  0.16364899688E+03  0.31088780760E+03  0.36058845549E+03  0.50344439349E+03  0.25500000920E-02 0.  1.
       -2    1    3    3    0  502 -0.16364899688E+03 -0.31088780760E+03 -0.76270170003E+03  0.83972978173E+03  0.25500000920E-02 0. -1.
</event>
<event>
 5   0  0.6006119E-04  0.1294623E+04  0.7818609E-02  0.9033840E-01
       -1   -1    0    0    0  501  0.00000000000E+00  0.00000000000E+00  0.88645216406E+03  0.88645216407E+03  0.50400001928E-02 0. -1.
        1   -1    0    0  501    0  0.00000000000E+00  0.00000000000E+00 -0.47268429258E+03  0.47268429260E+03  0.50400001928E-02 0.  1.
    10030    2    1    2    0    0  0.00000000000E+00  0.00000000000E+00  0.41376787148E+03  0.13591364567E+04  0.12946227467E+04 0.  0.
        4    1    3    3  502    0  0.47605716014E+03  0.43106515538E+03  0.12183578927E+03  0.65367664816E+03  0.12699999809E+01 0.  1.
       -4    1    3    3    0  502 -0.47605716014E+03 -0.43106515538E+03  0.29193208221E+03  0.70545980851E+03  0.12699999809E+01 0. -1.
</event>
<event>
 5   0  0.1046253E-03  0.1290371E+04  0.7818609E-02  0.9037236E-01
        2   -1    0    0  501    0  0.00000000000E+00  0.00000000000E+00  0.10797814654E+04  0.10797814654E+04  0.25500000920E-02 0. -1.
       -2   -1    0    0    0  501  0.00000000000E+00  0.00000000000E+00 -0.38550817744E+03  0.38550817745E+03  0.25500000920E-02 0.  1.
    10030    2    1    2    0    0  0.00000000000E+00  0.00000000000E+00  0.69427328799E+03  0.14652896429E+04  0.12903713958E+04 0.  0.
        3    1    3    3  502    0  0.64423721984E+02 -0.11012621846E+03 -0.37104012259E+03  0.39236332998E+03  0.10100000352E+00 0.  1.
       -3    1    3    3    0  502 -0.64423721984E+02  0.11012621846E+03  0.10653134106E+04  0.10729263129E+04  0.10100000352E+00 0. -1.
</event>
<event>
 5   0  0.1046253E-03  0.1276007E+04  0.7818609E-02  0.9048811E-01
       -2   -1    0    0    0  501  0.00000000000E+00  0.00000000000E+00  0.65245163341E+03  0.65245163341E+03  0.25500000920E-02 0.  1.
        2   -1    0    0  501    0  0.00000000000E+00  0.00000000000E+00 -0.62387545570E+03  0.62387545570E+03  0.25500000920E-02 0. -1.
    10030    2    1    2    0    0  0.00000000000E+00  0.00000000000E+00  0.28576177707E+02  0.12763270891E+04  0.12760071475E+04 0.  0.
        3    1    3    3  502    0 -0.59866037141E+03 -0.20818577371E+03  0.87196647364E+02  0.63979592229E+03  0.10100000352E+00 0.  1.
       -3    1    3    3    0  502  0.59866037141E+03  0.20818577371E+03 -0.58620469657E+02  0.63653116682E+03  0.10100000352E+00 0. -1.
</event>
<event>
 5   0  0.1101619E-03  0.1314498E+04  0.7818609E-02  0.9018146E-01
        2   -1    0    0  501    0  0.00000000000E+00  0.00000000000E+00  0.13851033909E+04  0.13851033909E+04  0.25500000920E-02 0. -1.
       -2   -1    0    0    0  501  0.00000000000E+00  0.00000000000E+00 -0.31187306433E+03  0.31187306434E+03  0.25500000920E-02 0.  1.
    10030    2    1    2    0    0  0.00000000000E+00  0.00000000000E+00  0.10732303266E+04  0.16969764553E+04  0.13144982905E+04 0.  0.
        1    1    3    3  502    0  0.40051334685E+02  0.20565771698E+03 -0.26760484470E+03  0.33986991466E+03  0.50400001928E-02 0.  1.
       -1    1    3    3    0  502 -0.40051334685E+02 -0.20565771698E+03  0.13408351713E+04  0.13571065406E+04  0.50400001928E-02 0. -1.
</event>
<event>
 5   0  0.5710383E-04  0.1304957E+04  0.7818609E-02  0.9025643E-01
        1   -1    0    0  501    0  0.00000000000E+00  0.00000000000E+00  0.13237230367E+04  0.13237230368E+04  0.50400001928E-02 0.  1.
       -1   -1    0    0    0  501  0.00000000000E+00  0.00000000000E+00 -0.32161445189E+03  0.32161445193E+03  0.50400001928E-02 0. -1.
    10030    2    1    2    0    0  0.00000000000E+00  0.00000000000E+00  0.10021085849E+04  0.16453374887E+04  0.13049574077E+04 0.  0.
        1    1    3    3  502    0 -0.31847554179E+03  0.51012562952E+03  0.18190174026E+03  0.62828582011E+03  0.50400001928E-02 0. -1.
       -1    1    3    3    0  502  0.31847554179E+03 -0.51012562952E+03  0.82020684460E+03  0.10170516686E+04  0.50400001928E-02 0.  1.
</event>
<event>
 5   0  0.1031295E-03  0.1261710E+04  0.7818609E-02  0.9060493E-01
       -2   -1    0    0    0  501  0.00000000000E+00  0.00000000000E+00  0.20359845750E+03  0.20359845751E+03  0.25500000920E-02 0.  1.
        2   -1    0    0  501    0  0.00000000000E+00  0.00000000000E+00 -0.19547205859E+04  0.19547205859E+04  0.25500000920E-02 0. -1.
    10030    2    1    2    0    0  0.00000000000E+00  0.00000000000E+00 -0.17511221284E+04  0.21583190434E+04  0.12617101032E+04 0.  0.
        2    1    3    3  502    0  0.56068204553E+03  0.27593118474E+03 -0.10234659809E+04  0.11991601182E+04  0.25500000920E-02 0.  1.
       -2    1    3    3    0  502 -0.56068204553E+03 -0.27593118474E+03 -0.72765614744E+03  0.95915892521E+03  0.25500000920E-02 0. -1.
</event>
<event>
 5   0  0.1046253E-03  0.1326829E+04  0.7818609E-02  0.9008556E-01
       -2   -1    0    0    0  501  0.00000000000E+00  0.00000000000E+00  0.17795520880E+03  0.17795520882E+03  0.25500000920E-02 0.  1.
        2   -1    0    0  501    0  0.00000000000E+00  0.00000000000E+00 -0.24731992490E+04  0.24731992490E+04  0.25500000920E-02 0. -1.
    10030    2    1    2    0    0  0.00000000000E+00  0.00000000000E+00 -0.22952440402E+04  0.26511544578E+04  0.13268288341E+04 0.  0.
        3    1    3    3  502    0 -0.95975084825E+00  0.74480062862E+02 -0.24648175238E+04  0.24659427481E+04  0.10100000352E+00 0. -1.
       -3    1    3    3    0  502  0.95975084825E+00 -0.74480062862E+02  0.16957348360E+03  0.18521170975E+03  0.10100000352E+00 0.  1.
</event>
<event>
 5   0  0.5710383E-04  0.1329622E+04  0.7818609E-02  0.9006399E-01
        1   -1    0    0  501    0  0.00000000000E+00  0.00000000000E+00  0.10019975128E+04  0.10019975128E+04  0.50400001928E-02 0. -1.
       -1   -1    0    0    0  501  0.00000000000E+00  0.00000000000E+00 -0.44109263980E+03  0.44109263983E+03  0.50400001928E-02 0.  1.
    10030    2    1    2    0    0  0.00000000000E+00  0.00000000000E+00  0.56090487302E+03  0.14430901527E+04  0.13296220937E+04 0.  0.
        1    1    3    3  502    0 -0.24655394070E+03  0.43840860500E+03  0.75227244476E+03  0.90493357865E+03  0.50400001928E-02 0. -1.
       -1    1    3    3    0  502  0.24655394070E+03 -0.43840860500E+03 -0.19136757174E+03  0.53815657400E+03  0.50400001928E-02 0.  1.
</event>
<event>
 5   0  0.1103241E-03  0.1249425E+04  0.7818609E-02  0.9070662E-01
        2   -1    0    0  501    0  0.00000000000E+00  0.00000000000E+00  0.58103642060E+03  0.58103642060E+03  0.25500000920E-02 0. -1.
       -2   -1    0    0    0  501  0.00000000000E+00  0.00000000000E+00 -0.67167218359E+03  0.67167218360E+03  0.25500000920E-02 0.  1.
    10030    2    1    2    0    0  0.00000000000E+00  0.00000000000E+00 -0.90635762997E+02  0.12527086042E+04  0.12494254702E+04 0.  0.
        4    1    3    3  502    0  0.96657522905E+02 -0.39271410690E+03 -0.52269645173E+03  0.66089351641E+03  0.12699999809E+01 0.  1.
       -4    1    3    3    0  502 -0.96657522905E+02  0.39271410690E+03  0.43206068873E+03  0.59181508779E+03  0.12699999809E+01 0. -1.
</event>
<event>
 5   0  0.5812938E-04  0.1298735E+04  0.7818609E-02  0.9030569E-01
       -1   -1    0    0    0  501  0.00000000000E+00  0.00000000000E+00  0.33652721438E+03  0.33652721442E+03  0.50400001928E-02 0. -1.
        1   -1    0    0  501    0  0.00000000000E+00  0.00000000000E+00 -0.12530288640E+04  0.12530288640E+04  0.50400001928E-02 0.  1.
    10030    2    1    2    0    0  0.00000000000E+00  0.00000000000E+00 -0.91650164961E+03  0.15895560784E+04  0.12987352512E+04 0.  0.
        5    1    3    3  502    0 -0.43060241534E+03 -0.46658400566E+03 -0.62488984098E+03  0.89085828154E+03  0.46999998093E+01 0.  1.
       -5    1    3    3    0  502  0.43060241534E+03  0.46658400566E+03 -0.29161180863E+03  0.69869779688E+03  0.46999998093E+01 0. -1.
</event>
<event>
 5   0  0.1081574E-03  0.1299327E+04  0.7818609E-02  0.9030099E-01
        2   -1    0    0  501    0  0.00000000000E+00  0.00000000000E+00  0.61205878060E+03  0.61205878060E+03  0.25500000920E-02 0.  1.
       -2   -1    0    0    0  501  0.00000000000E+00  0.00000000000E+00 -0.68957837921E+03  0.68957837921E+03  0.25500000920E-02 0. -1.
    10030    2    1    2    0    0  0.00000000000E+00  0.00000000000E+00 -0.77519598610E+02  0.13016371598E+04  0.12993267517E+04 0.  0.
        5    1    3    3  502    0  0.16982694738E+03  0.35488314073E+03 -0.55664827401E+03  0.68166166577E+03  0.46999998093E+01 0. -1.
       -5    1    3    3    0  502 -0.16982694738E+03 -0.35488314073E+03  0.47912867539E+03  0.61997549404E+03  0.46999998093E+01 0.  1.
</event>
<event>
 5   0  0.1103241E-03  0.1332903E+04  0.7818609E-02  0.9003872E-01
       -2   -1    0    0    0  501  0.00000000000E+00  0.00000000000E+00  0.42669607907E+03  0.42669607907E+03  0.25500000920E-02 0.  1.
        2   -1    0    0  501    0  0.00000000000E+00  0.00000000000E+00 -0.10409232935E+04  0.10409232935E+04  0.25500000920E-02 0. -1.
    10030    2    1    2    0    0  0.00000000000E+00  0.00000000000E+00 -0.61422721446E+03  0.14676193726E+04  0.13329034293E+04 0.  0.
        4    1    3    3  502    0  0.58015747301E+02 -0.13344461759E+03  0.40899055484E+03  0.43410618487E+03  0.12699999809E+01 0.  1.
       -4    1    3    3    0  502 -0.58015747301E+02  0.13344461759E+03 -0.10232177693E+04  0.10335131877E+04  0.12699999809E+01 0. -1.
</event>
<event>
 5   0  0.1046253E-03  0.1217308E+04  0.7818609E-02  0.9097840E-01
        2   -1    0    0  501    0  0.00000000000E+00  0.00000000000E+00  0.13419795086E+04  0.13419795086E+04  0.25500000920E-02 0.  1.
       -2   -1    0    0    0  501  0.00000000000E+00  0.00000000000E+00 -0.27605481916E+03  0.27605481917E+03  0.25500000920E-02 0. -1.
    10030    2    1    2    0    0  0.00000000000E+00  0.00000000000E+00  0.10659246894E+04  0.16180343278E+04  0.12173083596E+04 0.  0.
        3    1    3    3  502    0 -0.10233964008E+03  0.48398198693E+03  0.61618806740E+02  0.49850662297E+03  0.10100000352E+00 0. -1.
       -3    1    3    3    0  502  0.10233964008E+03 -0.48398198693E+03  0.10043058827E+04  0.11195277048E+04  0.10100000352E+00 0.  1.
</event>
<event>
 5   0  0.1046253E-03  0.1297127E+04  0.7818609E-02  0.9031846E-01
        2   -1    0    0  501    0  0.00000000000E+00  0.00000000000E+00  0.12815960349E+04  0.12815960349E+04  0.25500000920E-02 0.  1.
       -2   -1    0    0    0  501  0.00000000000E+00  0.00000000000E+00 -0.32821167451E+03  0.32821167451E+03  0.25500000920E-02 0. -1.
    10030    2    1    2    0    0  0.00000000000E+00  0.00000000000E+00  0.95338436036E+03  0.16098077094E+04  0.12971272577E+04 0.  0.
        3    1    3    3  502    0  0.10321371608E+03 -0.62764571534E+02  0.12675111183E+04  0.12732544552E+04  0.10100000352E+00 0.  1.
       -3    1    3    3    0  502 -0.10321371608E+03  0.62764571534E+02 -0.31412675792E+03  0.33655325414E+03  0.10100000352E+00 0. -1.
</event>
<event>
 5   0  0.1031295E-03  0.1302377E+04  0.7818609E-02  0.9027683E-01
        2   -1    0    0  501    0  0.00000000000E+00  0.00000000000E+00  0.92886406168E+03  0.92886406168E+03  0.25500000920E-02 0.  1.
       -2   -1    0    0    0  501  0.00000000000E+00  0.00000000000E+00 -0.45652137397E+03  0.45652137397E+03  0.25500000920E-02 0. -1.
    10030    2    1    2    0    0  0.00000000000E+00  0.00000000000E+00  0.47234268771E+03  0.13853854357E+04  0.13023767468E+04 0.  0.
        2    1    3    3  502    0 -0.51042506517E+03  0.16083844162E+03  0.63082116532E+03  0.82724729923E+03  0.25500000920E-02 0.  1.
       -2    1    3    3    0  502  0.51042506517E+03 -0.16083844162E+03 -0.15847847761E+03  0.55813813642E+03  0.25500000920E-02 0. -1.
</event>
<event>
 5   0  0.1046253E-03  0.1298484E+04  0.7818609E-02  0.9030768E-01
        2   -1    0    0  501    0  0.00000000000E+00  0.00000000000E+00  0.68271298826E+03  0.68271298827E+03  0.25500000920E-02 0.  1.
       -2   -1    0    0    0  501  0.00000000000E+00  0.00000000000E+00 -0.61741222075E+03  0.61741222075E+03  0.25500000920E-02 0. -1.
    10030    2    1    2    0    0  0.00000000000E+00  0.00000000000E+00  0.65300767517E+02  0.13001252090E+04  0.12984842582E+04 0.  0.
        3    1    3    3  502    0 -0.20189066188E+03  0.60870481435E+03  0.13394117380E+03  0.65515008861E+03  0.10100000352E+00 0.  1.
       -3    1    3    3    0  502  0.20189066188E+03 -0.60870481435E+03 -0.68640406279E+02  0.64497512041E+03  0.10100000352E+00 0. -1.
</event>
<event>
 5   0  0.4012375E-04  0.1301321E+04  0.7818609E-02  0.9028518E-01
       -3   -1    0    0    0  501  0.00000000000E+00  0.00000000000E+00  0.62442198269E+03  0.62442199086E+03  0.10100000352E+00 0.  1.
        3   -1    0    0  501    0  0.00000000000E+00  0.00000000000E+00 -0.67800154412E+03  0.67800155165E+03  0.10100000352E+00 0. -1.
    10030    2    1    2    0    0  0.00000000000E+00  0.00000000000E+00 -0.53579561434E+02  0.13024235425E+04  0.13013209883E+04 0.  0.
        3    1    3    3  502    0  0.62980409103E+03 -0.15111244568E+03  0.35479523327E+02  0.64865011455E+03  0.10100000352E+00 0.  1.
       -3    1    3    3    0  502 -0.62980409103E+03  0.15111244568E+03 -0.89059084761E+02  0.65377342796E+03  0.10100000352E+00 0. -1.
</event>
<event>
 5   0  0.5812938E-04  0.1299826E+04  0.7818609E-02  0.9029703E-01
       -1   -1    0    0    0  501  0.00000000000E+00  0.00000000000E+00  0.30143662020E+03  0.30143662024E+03  0.50400001928E-02 0. -1.
        1   -1    0    0  501    0  0.00000000000E+00  0.00000000000E+00 -0.14012472235E+04  0.14012472235E+04  0.50400001928E-02 0.  1.
    10030    2    1    2    0    0  0.00000000000E+00  0.00000000000E+00 -0.10998106033E+04  0.17026838438E+04  0.12998264917E+04 0.  0.
        5    1    3    3  502    0  0.39905407987E+03  0.45579872764E+03 -0.24167168380E+03  0.65224530012E+03  0.46999998093E+01 0.  1.
       -5    1    3    3    0  502 -0.39905407987E+03 -0.45579872764E+03 -0.85813891953E+03  0.10504385437E+04  0.46999998093E+01 0. -1.
</event>
<event>
 5   0  0.1101619E-03  0.1319643E+04  0.7818609E-02  0.9014131E-01
       -2   -1    0    0    0  501  0.00000000000E+00  0.00000000000E+00  0.80254995147E+03  0.80254995148E+03  0.25500000920E-02 0. -1.
        2   -1    0    0  501    0  0.00000000000E+00  0.00000000000E+00 -0.54247650020E+03  0.54247650021E+03  0.25500000920E-02 0.  1.
    10030    2    1    2    0    0  0.00000000000E+00  0.00000000000E+00  0.26007345127E+03  0.13450264517E+04  0.13196431168E+04 0.  0.
        1    1    3    3  502    0  0.28925217476E+02  0.10070549788E+03  0.79401667845E+03  0.80089996328E+03  0.50400001928E-02 0. -1.
       -1    1    3    3    0  502 -0.28925217476E+02 -0.10070549788E+03 -0.53394322718E+03  0.54412648840E+03  0.50400001928E-02 0.  1.
</event>
<event>
 5   0  0.5710383E-04  0.1331267E+04  0.7818609E-02  0.9005131E-01
       -1   -1    0    0    0  501  0.00000000000E+00  0.00000000000E+00  0.48866412761E+03  0.48866412764E+03  0.50400001928E-02 0. -1.
        1   -1    0    0  501    0  0.00000000000E+00  0.00000000000E+00 -0.90669268117E+03  0.90669268119E+03  0.50400001928E-02 0.  1.
    10030    2    1    2    0    0  0.00000000000E+00  0.00000000000E+00 -0.41802855356E+03  0.13953568088E+04  0.13312673482E+04 0.  0.
        1    1    3    3  502    0 -0.13393337601E+03  0.27774575460E+03  0.40928923688E+03  0.51244368750E+03  0.50400001928E-02 0. -1.
       -1    1    3    3    0  502  0.13393337601E+03 -0.27774575460E+03 -0.82731779044E+03  0.88291312133E+03  0.50400001928E-02 0.  1.
</event>
<event>
 5   0  0.1103241E-03  0.1296567E+04  0.7818609E-02  0.9032292E-01
        2   -1    0    0  501    0  0.00000000000E+00  0.00000000000E+00  0.50752706340E+03  0.50752706341E+03  0.25500000920E-02 0.  1.
       -2   -1    0    0    0  501  0.00000000000E+00  0.00000000000E+00 -0.82807764738E+03  0.82807764738E+03  0.25500000920E-02 0. -1.
    10030    2    1    2    0    0  0.00000000000E+00  0.00000000000E+00 -0.32055058397E+03  0.13356047108E+04  0.12965674940E+04 0.  0.
        4    1    3    3  502    0  0.30551462876E+03 -0.55983294736E+03 -0.40507395458E+02  0.63905757121E+03  0.12699999809E+01 0.  1.
       -4    1    3    3    0  502 -0.30551462876E+03  0.55983294736E+03 -0.28004318852E+03  0.69654713959E+03  0.12699999809E+01 0. -1.
</event>
<event>
 5   0  0.1103241E-03  0.1295602E+04  0.7818609E-02  0.9033060E-01
       -2   -1    0    0    0  501  0.00000000000E+00  0.00000000000E+00  0.32964660189E+03  0.32964660190E+03  0.25500000920E-02 0. -1.
        2   -1    0    0  501    0  0.00000000000E+00  0.00000000000E+00 -0.12730172917E+04  0.12730172917E+04  0.25500000920E-02 0.  1.
    10030    2    1    2    0    0  0.00000000000E+00  0.00000000000E+00 -0.94337068981E+03  0.16026638936E+04  0.12956015195E+04 0.  0.
        4    1    3    3  502    0  0.58190450654E+03 -0.21313282237E+02 -0.12054816040E+03  0.59464323977E+03  0.12699999809E+01 0. -1.
       -4    1    3    3    0  502 -0.58190450654E+03  0.21313282237E+02 -0.82282252940E+03  0.10080206538E+04  0.12699999809E+01 0.  1.
</event>
<event>
 5   0  0.4012375E-04  0.1309251E+04  0.7818609E-02  0.9022261E-01
        3   -1    0    0  501    0  0.00000000000E+00  0.00000000000E+00  0.10017649347E+04  0.10017649398E+04  0.10100000352E+00 0. -1.
       -3   -1    0    0    0  501  0.00000000000E+00  0.00000000000E+00 -0.42777930160E+03  0.42777931353E+03  0.10100000352E+00 0.  1.
    10030    2    1    2    0    0  0.00000000000E+00  0.00000000000E+00  0.57398563309E+03  0.14295442533E+04  0.13092506502E+04 0.  0.
        2    1    3    3  502    0 -0.17243224186E+03  0.61024607124E+03  0.10957942467E+03  0.64353771903E+03  0.25500000920E-02 0.  1.
       -2    1    3    3    0  502  0.17243224186E+03 -0.61024607124E+03  0.46440620842E+03  0.78600653428E+03  0.25500000920E-02 0. -1.
</event>
<event>
 5   0  0.1103241E-03  0.1301590E+04  0.7818609E-02  0.9028306E-01
       -2   -1    0    0    0  501  0.00000000000E+00  0.00000000000E+00  0.51434102671E+03  0.51434102671E+03  0.25500000920E-02 0. -1.
        2   -1    0    0  501    0  0.00000000000E+00  0.00000000000E+00 -0.82344944680E+03  0.82344944681E+03  0.25500000920E-02 0.  1.
    10030    2    1    2    0    0  0.00000000000E+00  0.00000000000E+00 -0.30910842009E+03  0.13377904735E+04  0.13015895419E+04 0.  0.
        4    1    3    3  502    0  0.25320179760E+03  0.35712477531E+03 -0.64948955752E+03  0.78325446291E+03  0.12699999809E+01 0.  1.
       -4    1    3    3    0  502 -0.25320179760E+03 -0.35712477531E+03  0.34038113743E+03  0.55453601061E+03  0.12699999809E+01 0. -1.
</event>
<event>
 5   0  0.1101619E-03  0.1305128E+04  0.7818609E-02  0.9025508E-01
       -2   -1    0    0    0  501  0.00000000000E+00  0.00000000000E+00  0.30389693054E+03  0.30389693055E+03  0.25500000920E-02 0. -1.
        2   -1    0    0  501    0  0.00000000000E+00  0.00000000000E+00 -0.14012642145E+04  0.14012642145E+04  0.25500000920E-02 0.  1.
    10030    2    1    2    0    0  0.00000000000E+00  0.00000000000E+00 -0.10973672840E+04  0.17051611451E+04  0.13051281833E+04 0.  0.
        1    1    3    3  502    0  0.72858419361E+02 -0.36278561044E+02 -0.13946067319E+04  0.13969797493E+04  0.50400001928E-02 0.  1.
       -1    1    3    3    0  502 -0.72858419361E+02  0.36278561044E+02  0.29723944794E+03  0.30818139577E+03  0.50400001928E-02 0. -1.
</event>
<event>
 5   0  0.6006119E-04  0.1295541E+04  0.7818609E-02  0.9033108E-01
        1   -1    0    0  501    0  0.00000000000E+00  0.00000000000E+00  0.13876776728E+04  0.13876776728E+04  0.50400001928E-02 0. -1.
       -1   -1    0    0    0  501  0.00000000000E+00  0.00000000000E+00 -0.30238066225E+03  0.30238066229E+03  0.50400001928E-02 0.  1.
    10030    2    1    2    0    0  0.00000000000E+00  0.00000000000E+00  0.10852970105E+04  0.16900583351E+04  0.12955414215E+04 0.  0.
        4    1    3    3  502    0  0.14498865882E+03 -0.43926365041E+03 -0.48905912374E+02  0.46515338000E+03  0.12699999809E+01 0.  1.
       -4    1    3    3    0  502 -0.14498865882E+03  0.43926365041E+03  0.11342029229E+04  0.12249049551E+04  0.12699999809E+01 0. -1.
</event>
<event>
 5   0  0.4012375E-04  0.1299638E+04  0.7818609E-02  0.9029853E-01
        3   -1    0    0  501    0  0.00000000000E+00  0.00000000000E+00  0.31560131080E+03  0.31560132696E+03  0.10100000352E+00 0. -1.
       -3   -1    0    0    0  501  0.00000000000E+00  0.00000000000E+00 -0.13379682040E+04  0.13379682078E+04  0.10100000352E+00 0.  1.
    10030    2    1    2    0    0  0.00000000000E+00  0.00000000000E+00 -0.10223668932E+04  0.16535695348E+04  0.12996376964E+04 0.  0.
        4    1    3    3  502    0  0.19047451015E+02 -0.33981782298E+03  0.19312277704E+03  0.39132720084E+03  0.12699999809E+01 0. -1.
       -4    1    3    3    0  502 -0.19047451015E+02  0.33981782298E+03 -0.12154896702E+04  0.12622423339E+04  0.12699999809E+01 0.  1.
</event>
<event>
 5   0  0.5812938E-04  0.1311280E+04  0.7818609E-02  0.9020667E-01
        1   -1    0    0  501    0  0.00000000000E+00  0.00000000000E+00  0.66968776829E+03  0.66968776831E+03  0.50400001928E-02 0. -1.
       -1   -1    0    0    0  501  0.00000000000E+00  0.00000000000E+00 -0.64188733364E+03  0.64188733366E+03  0.50400001928E-02 0.  1.
    10030    2    1    2    0    0  0.00000000000E+00  0.00000000000E+00  0.27800434645E+02  0.13115751020E+04  0.13112804368E+04 0.  0.
        5    1    3    3  502    0 -0.21584745054E+03 -0.57015957452E+03 -0.22733844042E+03  0.65067420328E+03  0.46999998093E+01 0.  1.
       -5    1    3    3    0  502  0.21584745054E+03  0.57015957452E+03  0.25513887506E+03  0.66090089869E+03  0.46999998093E+01 0. -1.
</event>
<event>
 5   0  0.1103241E-03  0.1299051E+04  0.7818609E-02  0.9030318E-01
        2   -1    0    0  501    0  0.00000000000E+00  0.00000000000E+00  0.72493081196E+03  0.72493081197E+03  0.25500000920E-02 0. -1.
       -2   -1    0    0    0  501  0.00000000000E+00  0.00000000000E+00 -0.58196335792E+03  0.58196335793E+03  0.25500000920E-02 0.  1.
    10030    2    1    2    0    0  0.00000000000E+00  0.00000000000E+00  0.14296745404E+03  0.13068941699E+04  0.12990506835E+04 0.  0.
        4    1    3    3  502    0 -0.20117895596E+03  0.45521768188E+03 -0.34839150596E+03  0.60751490891E+03  0.12699999809E+01 0.  1.
       -4    1    3    3    0  502  0.20117895596E+03 -0.45521768188E+03  0.49135896000E+03  0.69937926099E+03  0.12699999809E+01 0. -1.
</event>
<event>
 5   0  0.1101619E-03  0.1298194E+04  0.7818609E-02  0.9030998E-01
       -2   -1    0    0    0  501  0.00000000000E+00  0.00000000000E+00  0.64443010342E+03  0.64443010343E+03  0.25500000920E-02 0. -1.
        2   -1    0    0  501    0  0.00000000000E+00  0.00000000000E+00 -0.65379799616E+03  0.65379799616E+03  0.25500000920E-02 0.  1.
    10030    2    1    2    0    0  0.00000000000E+00  0.00000000000E+00 -0.93678927332E+01  0.12982280996E+04  0.12981943002E+04 0.  0.
        1    1    3    3  502    0  0.23960368762E+03 -0.59285035318E+03  0.10687899525E+03  0.64830902203E+03  0.50400001928E-02 0. -1.
       -1    1    3    3    0  502 -0.23960368762E+03  0.59285035318E+03 -0.11624688798E+03  0.64991907756E+03  0.50400001928E-02 0.  1.
</event>
<event>
 5   0  0.1031295E-03  0.1303120E+04  0.7818609E-02  0.9027095E-01
       -2   -1    0    0    0  501  0.00000000000E+00  0.00000000000E+00  0.53816505396E+03  0.53816505396E+03  0.25500000920E-02 0.  1.
        2   -1    0    0  501    0  0.00000000000E+00  0.00000000000E+00 -0.78884772381E+03  0.78884772382E+03  0.25500000920E-02 0. -1.
    10030    2    1    2    0    0  0.00000000000E+00  0.00000000000E+00 -0.25068266985E+03  0.13270127778E+04  0.13031197610E+04 0.  0.
        2    1    3    3  502    0  0.32318418337E+03 -0.53973591301E+03 -0.29806073586E+03  0.69613437958E+03  0.25500000920E-02 0. -1.
       -2    1    3    3    0  502 -0.32318418337E+03  0.53973591301E+03  0.47378066010E+02  0.63087839820E+03  0.25500000920E-02 0.  1.
</event>
<event>
 5   0  0.1081574E-03  0.1315612E+04  0.7818609E-02  0.9017275E-01
       -2   -1    0    0    0  501  0.00000000000E+00  0.00000000000E+00  0.63284472729E+03  0.63284472730E+03  0.25500000920E-02 0.  1.
        2   -1    0    0  501    0  0.00000000000E+00  0.00000000000E+00 -0.68375210866E+03  0.68375210867E+03  0.25500000920E-02 0. -1.
    10030    2    1    2    0    0  0.00000000000E+00  0.00000000000E+00 -0.50907381371E+02  0.13165968360E+04  0.13156122784E+04 0.  0.
        5    1    3    3  502    0 -0.12030521630E+03 -0.64134729508E+03 -0.10850452325E+03  0.66150965189E+03  0.46999998093E+01 0. -1.
       -5    1    3    3    0  502  0.12030521630E+03  0.64134729508E+03  0.57597141880E+02  0.65508718407E+03  0.46999998093E+01 0.  1.
</event>
<event>
 5   0  0.1031295E-03  0.1274270E+04  0.7818609E-02  0.9050222E-01
       -2   -1    0    0    0  501  0.00000000000E+00  0.00000000000E+00  0.50094990064E+03  0.50094990065E+03  0.25500000920E-02 0. -1.
        2   -1    0    0  501    0  0.00000000000E+00  0.00000000000E+00 -0.81034237086E+03  0.81034237086E+03  0.25500000920E-02 0.  1.
    10030    2    1    2    0    0  0.00000000000E+00  0.00000000000E+00 -0.30939247022E+03  0.13112922715E+04  0.12742698775E+04 0.  0.
        2    1    3    3  502    0 -0.40526032913E+03 -0.48916820641E+03 -0.20531335788E+03  0.66758897793E+03  0.25500000920E-02 0. -1.
       -2    1    3    3    0  502  0.40526032913E+03  0.48916820641E+03 -0.10407911234E+03  0.64370329357E+03  0.25500000920E-02 0.  1.
</event>
<event>
 5   0  0.5766027E-04  0.1275254E+04  0.7818609E-02  0.9049422E-01
        1   -1    0    0  501    0  0.00000000000E+00  0.00000000000E+00  0.12092637184E+04  0.12092637185E+04  0.50400001928E-02 0. -1.
       -1   -1    0    0    0  501  0.00000000000E+00  0.00000000000E+00 -0.33621154398E+03  0.33621154402E+03  0.50400001928E-02 0.  1.
    10030    2    1    2    0    0  0.00000000000E+00  0.00000000000E+00  0.87305217446E+03  0.15454752625E+04  0.12752543619E+04 0.  0.
        3    1    3    3  502    0 -0.53227844898E+01  0.46120800087E+03 -0.97020895249E+02  0.47133238423E+03  0.10100000352E+00 0.  1.
       -3    1    3    3    0  502  0.53227844898E+01 -0.46120800087E+03  0.97007306971E+03  0.10741428782E+04  0.10100000352E+00 0. -1.
</event>
<event>
 5   0  0.1101619E-03  0.1299693E+04  0.7818609E-02  0.9029808E-01
       -2   -1    0    0    0  501  0.00000000000E+00  0.00000000000E+00  0.24661204261E+03  0.24661204262E+03  0.25500000920E-02 0.  1.
        2   -1    0    0  501    0  0.00000000000E+00  0.00000000000E+00 -0.17124094312E+04  0.17124094312E+04  0.25500000920E-02 0. -1.
    10030    2    1    2    0    0  0.00000000000E+00  0.00000000000E+00 -0.14657973886E+04  0.19590214738E+04  0.12996934833E+04 0.  0.
        1    1    3    3  502    0  0.55867948570E+03  0.94467050118E+02 -0.12125264878E+04  0.13383823351E+04  0.50400001928E-02 0. -1.
       -1    1    3    3    0  502 -0.55867948570E+03 -0.94467050118E+02 -0.25327090079E+03  0.62063913872E+03  0.50400001928E-02 0.  1.
</event>
<event>
 5   0  0.5563545E-04  0.1305764E+04  0.7818609E-02  0.9025007E-01
        1   -1    0    0  501    0  0.00000000000E+00  0.00000000000E+00  0.61012270233E+03  0.61012270235E+03  0.50400001928E-02 0.  1.
       -1   -1    0    0    0  501  0.00000000000E+00  0.00000000000E+00 -0.69863805280E+03  0.69863805281E+03  0.50400001928E-02 0. -1.
    10030    2    1    2    0    0  0.00000000000E+00  0.00000000000E+00 -0.88515350469E+02  0.13087607552E+04  0.13057640472E+04 0.  0.
        2    1    3    3  502    0 -0.63090040874E+03 -0.12151195687E+02 -0.21218907996E+03  0.66573807385E+03  0.25500000920E-02 0.  1.
       -2    1    3    3    0  502  0.63090040874E+03  0.12151195687E+02  0.12367372949E+03  0.64302268131E+03  0.25500000920E-02 0. -1.
</event>
<event>
 5   0  0.6006119E-04  0.1294912E+04  0.7818609E-02  0.9033609E-01
       -1   -1    0    0    0  501  0.00000000000E+00  0.00000000000E+00  0.36090438089E+03  0.36090438092E+03  0.50400001928E-02 0.  1.
        1   -1    0    0  501    0  0.00000000000E+00  0.00000000000E+00 -0.11615252165E+04  0.11615252165E+04  0.50400001928E-02 0. -1.
    10030    2    1    2    0    0  0.00000000000E+00  0.00000000000E+00 -0.80062083558E+03  0.15224295974E+04  0.12949124127E+04 0.  0.
        4    1    3    3  502    0  0.40834714784E+03 -0.47529912316E+03 -0.20877119147E+03  0.66048745099E+03  0.12699999809E+01 0.  1.
       -4    1    3    3    0  502 -0.40834714784E+03  0.47529912316E+03 -0.59184964411E+03  0.86194214641E+03  0.12699999809E+01 0. -1.
</event>
<event>
 5   0  0.1046253E-03  0.1269473E+04  0.7818609E-02  0.9054130E-01
        2   -1    0    0  501    0  0.00000000000E+00  0.00000000000E+00  0.11534721033E+04  0.11534721033E+04  0.25500000920E-02 0.  1.
       -2   -1    0    0    0  501  0.00000000000E+00  0.00000000000E+00 -0.34928466066E+03  0.34928466067E+03  0.25500000920E-02 0. -1.
    10030    2    1    2    0    0  0.00000000000E+00  0.00000000000E+00  0.80418744265E+03  0.15027567640E+04  0.12694725081E+04 0.  0.
        3    1    3    3  502    0 -0.19662175344E+03 -0.54753341048E+03  0.70258616912E+03  0.91218434801E+03  0.10100000352E+00 0.  1.
       -3    1    3    3    0  502  0.19662175344E+03  0.54753341048E+03  0.10160127353E+03  0.59057241597E+03  0.10100000352E+00 0. -1.
</event>
<event>
 5   0  0.1081574E-03  0.1303181E+04  0.7818609E-02  0.9027047E-01
        2   -1    0    0  501    0  0.00000000000E+00  0.00000000000E+00  0.68797066206E+03  0.68797066207E+03  0.25500000920E-02 0. -1.
       -2   -1    0    0    0  501  0.00000000000E+00  0.00000000000E+00 -0.61713400257E+03  0.61713400258E+03  0.25500000920E-02 0.  1.
    10030    2    1    2    0    0  0.00000000000E+00  0.00000000000E+00  0.70836659492E+02  0.13051046646E+04  0.13031808598E+04 0.  0.
        5    1    3    3  502    0 -0.15206106157E+03 -0.56265728214E+03  0.32712519326E+03  0.66838519257E+03  0.46999998093E+01 0. -1.
       -5    1    3    3    0  502  0.15206106157E+03  0.56265728214E+03 -0.25628853377E+03  0.63671947208E+03  0.46999998093E+01 0.  1.
</event>
<event>
 5   0  0.4012375E-04  0.1304317E+04  0.7818609E-02  0.9026149E-01
        3   -1    0    0  501    0  0.00000000000E+00  0.00000000000E+00  0.44746328426E+03  0.44746329566E+03  0.10100000352E+00 0. -1.
       -3   -1    0    0    0  501  0.00000000000E+00  0.00000000000E+00 -0.95049273328E+03  0.95049273864E+03  0.10100000352E+00 0.  1.
    10030    2    1    2    0    0  0.00000000000E+00  0.00000000000E+00 -0.50302944902E+03  0.13979560343E+04  0.13043168508E+04 0.  0.
        5    1    3    3  502    0  0.61396442262E+03 -0.21301967840E+03 -0.19321451238E+03  0.67799972966E+03  0.46999998093E+01 0. -1.
       -5    1    3    3    0  502 -0.61396442262E+03  0.21301967840E+03 -0.30981493664E+03  0.71995630464E+03  0.46999998093E+01 0.  1.
</event>
<event>
 5   0  0.4012375E-04  0.1289848E+04  0.7818609E-02  0.9037655E-01
       -3   -1    0    0    0  501  0.00000000000E+00  0.00000000000E+00  0.45047573226E+03  0.45047574358E+03  0.10100000352E+00 0. -1.
        3   -1    0    0  501    0  0.00000000000E+00  0.00000000000E+00 -0.92330595091E+03  0.92330595644E+03  0.10100000352E+00 0.  1.
    10030    2    1    2    0    0  0.00000000000E+00  0.00000000000E+00 -0.47283021865E+03  0.13737817000E+04  0.12898479537E+04 0.  0.
        4    1    3    3  502    0 -0.49203666092E+02  0.63016766379E+03 -0.37278199667E+03  0.73382580711E+03  0.12699999809E+01 0.  1.
       -4    1    3    3    0  502  0.49203666092E+02 -0.63016766379E+03 -0.10004822198E+03  0.63995589291E+03  0.12699999809E+01 0. -1.
</event>
<event>
 5   0  0.1081574E-03  0.1306745E+04  0.7818609E-02  0.9024233E-01
        2   -1    0    0  501    0  0.00000000000E+00  0.00000000000E+00  0.18690721539E+04  0.18690721539E+04  0.25500000920E-02 0.  1.
       -2   -1    0    0    0  501  0.00000000000E+00  0.00000000000E+00 -0.22839989457E+03  0.22839989459E+03  0.25500000920E-02 0. -1.
    10030    2    1    2    0    0  0.00000000000E+00  0.00000000000E+00  0.16406722594E+04  0.20974720485E+04  0.13067453967E+04 0.  0.
        5    1    3    3  502    0 -0.16914122355E+03 -0.28048477653E+03 -0.87074905095E+02  0.33894629732E+03  0.46999998093E+01 0. -1.
       -5    1    3    3    0  502  0.16914122355E+03  0.28048477653E+03  0.17277471645E+04  0.17585257512E+04  0.46999998093E+01 0.  1.
</event>
<event>
 5   0  0.1101619E-03  0.1273422E+04  0.7818609E-02  0.9050912E-01
       -2   -1    0    0    0  501  0.00000000000E+00  0.00000000000E+00  0.42169872469E+03  0.42169872470E+03  0.25500000920E-02 0.  1.
        2   -1    0    0  501    0  0.00000000000E+00  0.00000000000E+00 -0.96135137077E+03  0.96135137078E+03  0.25500000920E-02 0. -1.
    10030    2    1    2    0    0  0.00000000000E+00  0.00000000000E+00 -0.53965264608E+03  0.13830500955E+04  0.12734216066E+04 0.  0.
        1    1    3    3  502    0 -0.21003821340E+03 -0.43135313154E+03 -0.72445453701E+03  0.86891653880E+03  0.50400001928E-02 0. -1.
       -1    1    3    3    0  502  0.21003821340E+03  0.43135313154E+03  0.18480189093E+03  0.51413355667E+03  0.50400001928E-02 0.  1.
</event>
<event>
 5   0  0.6006119E-04  0.1297796E+04  0.7818609E-02  0.9031315E-01
        1   -1    0    0  501    0  0.00000000000E+00  0.00000000000E+00  0.55141260554E+03  0.55141260556E+03  0.50400001928E-02 0. -1.
       -1   -1    0    0    0  501  0.00000000000E+00  0.00000000000E+00 -0.76361777365E+03  0.76361777367E+03  0.50400001928E-02 0.  1.
    10030    2    1    2    0    0  0.00000000000E+00  0.00000000000E+00 -0.21220516812E+03  0.13150303792E+04  0.12977957717E+04 0.  0.
        4    1    3    3  502    0  0.43107975723E+03 -0.43050365401E+03 -0.33246056150E+03  0.69404235539E+03  0.12699999809E+01 0.  1.
       -4    1    3    3    0  502 -0.43107975723E+03  0.43050365401E+03  0.12025539339E+03  0.62098802384E+03  0.12699999809E+01 0. -1.
</event>
<event>
 5   0  0.5812938E-04  0.1302994E+04  0.7818609E-02  0.9027194E-01
        1   -1    0    0  501    0  0.00000000000E+00  0.00000000000E+00  0.43483881136E+03  0.43483881139E+03  0.50400001928E-02 0. -1.
       -1   -1    0    0    0  501  0.00000000000E+00  0.00000000000E+00 -0.97610533237E+03  0.97610533238E+03  0.50400001928E-02 0.  1.
    10030    2    1    2    0    0  0.00000000000E+00  0.00000000000E+00 -0.54126652101E+03  0.14109441438E+04  0.13029942172E+04 0.  0.
        5    1    3    3  502    0 -0.59672015726E+03 -0.14771528848E+03 -0.37050109526E+02  0.61586488222E+03  0.46999998093E+01 0. -1.
       -5    1    3    3    0  502  0.59672015726E+03  0.14771528848E+03 -0.50421641149E+03  0.79507926155E+03  0.46999998093E+01 0.  1.
</event>
<event>
 5   0  0.1081574E-03  0.1249215E+04  0.7818609E-02  0.9070837E-01
        2   -1    0    0  501    0  0.00000000000E+00  0.00000000000E+00  0.45783677394E+03  0.45783677395E+03  0.25500000920E-02 0.  1.
       -2   -1    0    0    0  501  0.00000000000E+00  0.00000000000E+00 -0.85212514740E+03  0.85212514741E+03  0.25500000920E-02 0. -1.
    10030    2    1    2    0    0  0.00000000000E+00  0.00000000000E+00 -0.39428837346E+03  0.13099619214E+04  0.12492145188E+04 0.  0.
        5    1    3    3  502    0 -0.61092985097E+03  0.11554217613E+03 -0.13486888591E+03  0.63623657837E+03  0.46999998093E+01 0.  1.
       -5    1    3    3    0  502  0.61092985097E+03 -0.11554217613E+03 -0.25941948755E+03  0.67372534299E+03  0.46999998093E+01 0. -1.
</event>
<event>
 5   0  0.1031295E-03  0.1306528E+04  0.7818609E-02  0.9024405E-01
        2   -1    0    0  501    0  0.00000000000E+00  0.00000000000E+00  0.14714864162E+04  0.14714864162E+04  0.25500000920E-02 0.  1.
       -2   -1    0    0    0  501  0.00000000000E+00  0.00000000000E+00 -0.29001540179E+03  0.29001540180E+03  0.25500000920E-02 0. -1.
    10030    2    1    2    0    0  0.00000000000E+00  0.00000000000E+00  0.11814710144E+04  0.17615018180E+04  0.13065278018E+04 0.  0.
        2    1    3    3  502    0  0.83708584961E+02  0.53011885640E+03  0.88583836686E+02  0.54394873401E+03  0.25500000920E-02 0. -1.
       -2    1    3    3    0  502 -0.83708584961E+02 -0.53011885640E+03  0.10928871777E+04  0.12175530840E+04  0.25500000920E-02 0.  1.
</event>
<event>
 5   0  0.1046253E-03  0.1304838E+04  0.7818609E-02  0.9025737E-01
        2   -1    0    0  501    0  0.00000000000E+00  0.00000000000E+00  0.13359477775E+04  0.13359477775E+04  0.25500000920E-02 0.  1.
       -2   -1    0    0    0  501  0.00000000000E+00  0.00000000000E+00 -0.31861329611E+03  0.31861329612E+03  0.25500000920E-02 0. -1.
    10030    2    1    2    0    0  0.00000000000E+00  0.00000000000E+00  0.10173344814E+04  0.16545610736E+04  0.13048382656E+04 0.  0.
        3    1    3    3  502    0  0.38337035130E+03  0.41958656490E+03  0.10245527746E+03  0.57751433383E+03  0.10100000352E+00 0. -1.
       -3    1    3    3    0  502 -0.38337035130E+03 -0.41958656490E+03  0.91487920389E+03  0.10770467398E+04  0.10100000352E+00 0.  1.
</event>
<event>
 5   0  0.5710383E-04  0.1289324E+04  0.7818609E-02  0.9038075E-01
        1   -1    0    0  501    0  0.00000000000E+00  0.00000000000E+00  0.79824874526E+03  0.79824874527E+03  0.50400001928E-02 0.  1.
       -1   -1    0    0    0  501  0.00000000000E+00  0.00000000000E+00 -0.52062570679E+03  0.52062570681E+03  0.50400001928E-02 0. -1.
    10030    2    1    2    0    0  0.00000000000E+00  0.00000000000E+00  0.27762303847E+03  0.13188744521E+04  0.12893235703E+04 0.  0.
        1    1    3    3  502    0 -0.19987002122E+03  0.55529855487E+03 -0.12652585351E+03  0.60358371586E+03  0.50400001928E-02 0. -1.
       -1    1    3    3    0  502  0.19987002122E+03 -0.55529855487E+03  0.40414889198E+03  0.71529073623E+03  0.50400001928E-02 0.  1.
</event>
<event>
 5   0  0.1046253E-03  0.1294167E+04  0.7818609E-02  0.9034203E-01
        2   -1    0    0  501    0  0.00000000000E+00  0.00000000000E+00  0.78692570501E+03  0.78692570501E+03  0.25500000920E-02 0. -1.
       -2   -1    0    0    0  501  0.00000000000E+00  0.00000000000E+00 -0.53209249265E+03  0.53209249266E+03  0.25500000920E-02 0.  1.
    10030    2    1    2    0    0  0.00000000000E+00  0.00000000000E+00  0.25483321236E+03  0.13190181977E+04  0.12941673152E+04 0.  0.
        3    1    3    3  502    0  0.11721428691E+03 -0.57888195244E+03  0.39682887718E+03  0.71155932422E+03  0.10100000352E+00 0. -1.
       -3    1    3    3    0  502 -0.11721428691E+03  0.57888195244E+03 -0.14199566483E+03  0.60745887346E+03  0.10100000352E+00 0.  1.
</event>
<event>
 5   0  0.1081574E-03  0.1295572E+04  0.7818609E-02  0.9033084E-01
       -2   -1    0    0    0  501  0.00000000000E+00  0.00000000000E+00  0.31309881153E+03  0.31309881154E+03  0.25500000920E-02 0. -1.
        2   -1    0    0  501    0  0.00000000000E+00  0.00000000000E+00 -0.13402367299E+04  0.13402367299E+04  0.25500000920E-02 0.  1.
    10030    2    1    2    0    0  0.00000000000E+00  0.00000000000E+00 -0.10271379184E+04  0.16533355415E+04  0.12955717307E+04 0.  0.
        5    1    3    3  502    0 -0.43762020287E+03  0.30139535759E+03 -0.40786036969E+02  0.53295046144E+03  0.46999998093E+01 0. -1.
       -5    1    3    3    0  502  0.43762020287E+03 -0.30139535759E+03 -0.98635188143E+03  0.11203850800E+04  0.46999998093E+01 0.  1.
</event>
<event>
 5   0  0.5710383E-04  0.1220869E+04  0.7818609E-02  0.9094783E-01
        1   -1    0    0  501    0  0.00000000000E+00  0.00000000000E+00  0.73935386965E+03  0.73935386966E+03  0.50400001928E-02 0.  1.
       -1   -1    0    0    0  501  0.00000000000E+00  0.00000000000E+00 -0.50399455310E+03  0.50399455313E+03  0.50400001928E-02 0. -1.
    10030    2    1    2    0    0  0.00000000000E+00  0.00000000000E+00  0.23535931654E+03  0.12433484228E+04  0.12208690727E+04 0.  0.
        1    1    3    3  502    0 -0.63217040015E+02 -0.47654212453E+03 -0.26546758249E+03  0.54914645404E+03  0.50400001928E-02 0. -1.
       -1    1    3    3    0  502  0.63217040015E+02  0.47654212453E+03  0.50082689903E+03  0.69420196876E+03  0.50400001928E-02 0.  1.
</event>
<event>
 5   0  0.5563545E-04  0.1303901E+04  0.7818609E-02  0.9026477E-01
        1   -1    0    0  501    0  0.00000000000E+00  0.00000000000E+00  0.19928851583E+04  0.19928851584E+04  0.50400001928E-02 0. -1.
       -1   -1    0    0    0  501  0.00000000000E+00  0.00000000000E+00 -0.21327839778E+03  0.21327839784E+03  0.50400001928E-02 0.  1.
    10030    2    1    2    0    0  0.00000000000E+00  0.00000000000E+00  0.17796067606E+04  0.22061635562E+04  0.13039008453E+04 0.  0.
        2    1    3    3  502    0  0.66894772163E+02  0.31245534233E+03  0.18513081407E+04  0.18786817408E+04  0.25500000920E-02 0. -1.
       -2    1    3    3    0  502 -0.66894772163E+02 -0.31245534233E+03 -0.71701380115E+02  0.32748181539E+03  0.25500000920E-02 0.  1.
</event>
<event>
 5   0  0.1103241E-03  0.1289838E+04  0.7818609E-02  0.9037663E-01
        2   -1    0    0  501    0  0.00000000000E+00  0.00000000000E+00  0.15798633998E+04  0.15798633998E+04  0.25500000920E-02 0.  1.
       -2   -1    0    0    0  501  0.00000000000E+00  0.00000000000E+00 -0.26326361500E+03  0.26326361502E+03  0.25500000920E-02 0. -1.
    10030    2    1    2    0    0  0.00000000000E+00  0.00000000000E+00  0.13165997848E+04  0.18431270149E+04  0.12898380516E+04 0.  0.
        4    1    3    3  502    0  0.65431357573E+02 -0.50696875917E+03  0.96407168942E+02  0.52018702449E+03  0.12699999809E+01 0. -1.
       -4    1    3    3    0  502 -0.65431357573E+02  0.50696875917E+03  0.12201926159E+04  0.13229399904E+04  0.12699999809E+01 0.  1.
</event>
<event>
 5   0  0.1103241E-03  0.1309453E+04  0.7818609E-02  0.9022102E-01
       -2   -1    0    0    0  501  0.00000000000E+00  0.00000000000E+00  0.89019192070E+03  0.89019192070E+03  0.25500000920E-02 0.  1.
        2   -1    0    0  501    0  0.00000000000E+00  0.00000000000E+00 -0.48154458312E+03  0.48154458313E+03  0.25500000920E-02 0. -1.
    10030    2    1    2    0    0  0.00000000000E+00  0.00000000000E+00  0.40864733758E+03  0.13717365038E+04  0.13094534697E+04 0.  0.
        4    1    3    3  502    0  0.39490562679E+03  0.15330514085E+02  0.75114814431E+03  0.84877006682E+03  0.12699999809E+01 0.  1.
       -4    1    3    3    0  502 -0.39490562679E+03 -0.15330514085E+02 -0.34250080672E+03  0.52296643701E+03  0.12699999809E+01 0. -1.
</event>
<event>
 5   0  0.1031295E-03  0.1293151E+04  0.7818609E-02  0.9035014E-01
        2   -1    0    0  501    0  0.00000000000E+00  0.00000000000E+00  0.17717151139E+04  0.17717151139E+04  0.25500000920E-02 0. -1.
       -2   -1    0    0    0  501  0.00000000000E+00  0.00000000000E+00 -0.23596347824E+03  0.23596347825E+03  0.25500000920E-02 0.  1.
    10030    2    1    2    0    0  0.00000000000E+00  0.00000000000E+00  0.15357516356E+04  0.20076785921E+04  0.12931512838E+04 0.  0.
        2    1    3    3  502    0  0.58992498642E+03 -0.10783638121E+02  0.11784425065E+04  0.13178977644E+04  0.25500000920E-02 0. -1.
       -2    1    3    3    0  502 -0.58992498642E+03  0.10783638121E+02  0.35730912916E+03  0.68978082768E+03  0.25500000920E-02 0.  1.
</event>
<event>
 5   0  0.1101619E-03  0.1304147E+04  0.7818609E-02  0.9026283E-01
       -2   -1    0    0    0  501  0.00000000000E+00  0.00000000000E+00  0.30137408628E+03  0.30137408629E+03  0.25500000920E-02 0.  1.
        2   -1    0    0  501    0  0.00000000000E+00  0.00000000000E+00 -0.14108716119E+04  0.14108716119E+04  0.25500000920E-02 0. -1.
    10030    2    1    2    0    0  0.00000000000E+00  0.00000000000E+00 -0.11094975256E+04  0.17122456982E+04  0.13041474501E+04 0.  0.
        1    1    3    3  502    0 -0.60416143735E+03 -0.24388961537E+03 -0.51983990950E+03  0.83350268050E+03  0.50400001928E-02 0.  1.
       -1    1    3    3    0  502  0.60416143735E+03  0.24388961537E+03 -0.58965761611E+03  0.87874301769E+03  0.50400001928E-02 0. -1.
</event>
<event>
 5   0  0.1103241E-03  0.1306089E+04  0.7818609E-02  0.9024751E-01
        2   -1    0    0  501    0  0.00000000000E+00  0.00000000000E+00  0.10843099023E+04  0.10843099023E+04  0.25500000920E-02 0. -1.
       -2   -1    0    0    0  501  0.00000000000E+00  0.00000000000E+00 -0.39330723458E+03  0.39330723458E+03  0.25500000920E-02 0.  1.
    10030    2    1    2    0    0  0.00000000000E+00  0.00000000000E+00  0.69100266776E+03  0.14776171369E+04  0.13060887093E+04 0.  0.
        4    1    3    3  502    0  0.54435013032E+03 -0.32913937896E+03  0.17840303086E+03  0.66066561094E+03  0.12699999809E+01 0. -1.
       -4    1    3    3    0  502 -0.54435013032E+03  0.32913937896E+03  0.51259963691E+03  0.81695152599E+03  0.12699999809E+01 0.  1.
</event>
<event>
 5   0  0.1081574E-03  0.1309529E+04  0.7818609E-02  0.9022043E-01
       -2   -1    0    0    0  501  0.00000000000E+00  0.00000000000E+00  0.67044972997E+03  0.67044972998E+03  0.25500000920E-02 0.  1.
        2   -1    0    0  501    0  0.00000000000E+00  0.00000000000E+00 -0.63944611666E+03  0.63944611667E+03  0.25500000920E-02 0. -1.
    10030    2    1    2    0    0  0.00000000000E+00  0.00000000000E+00  0.31003613309E+02  0.13098958466E+04  0.13095288867E+04 0.  0.
        5    1    3    3  502    0  0.35070001219E+03 -0.52249066032E+03 -0.16540073858E+03  0.65066618400E+03  0.46999998093E+01 0. -1.
       -5    1    3    3    0  502 -0.35070001219E+03  0.52249066032E+03  0.19640435189E+03  0.65922966265E+03  0.46999998093E+01 0.  1.
</event>
<event>
 5   0  0.5710383E-04  0.1332302E+04  0.7818609E-02  0.9004334E-01
        1   -1    0    0  501    0  0.00000000000E+00  0.00000000000E+00  0.68019561306E+03  0.68019561308E+03  0.50400001928E-02 0.  1.
       -1   -1    0    0    0  501  0.00000000000E+00  0.00000000000E+00 -0.65239650131E+03  0.65239650133E+03  0.50400001928E-02 0. -1.
    10030    2    1    2    0    0  0.00000000000E+00  0.00000000000E+00  0.27799111743E+02  0.13325921144E+04  0.13323021252E+04 0.  0.
        1    1    3    3  502    0 -0.15083087609E+03  0.32875846354E+03  0.57341845207E+03  0.67796814212E+03  0.50400001928E-02 0.  1.
       -1    1    3    3    0  502  0.15083087609E+03 -0.32875846354E+03 -0.54561934033E+03  0.65462397229E+03  0.50400001928E-02 0. -1.
</event>
<event>
 5   0  0.5766027E-04  0.1287507E+04  0.7818609E-02  0.9039531E-01
        1   -1    0    0  501    0  0.00000000000E+00  0.00000000000E+00  0.50072955249E+03  0.50072955252E+03  0.50400001928E-02 0. -1.
       -1   -1    0    0    0  501  0.00000000000E+00  0.00000000000E+00 -0.82762999688E+03  0.82762999690E+03  0.50400001928E-02 0.  1.
    10030    2    1    2    0    0  0.00000000000E+00  0.00000000000E+00 -0.32690044439E+03  0.13283595494E+04  0.12875073561E+04 0.  0.
        3    1    3    3  502    0  0.50717088926E+03  0.20734796470E+02 -0.57195074509E+03  0.76470903467E+03  0.10100000352E+00 0.  1.
       -3    1    3    3    0  502 -0.50717088926E+03 -0.20734796470E+02  0.24505030070E+03  0.56365051474E+03  0.10100000352E+00 0. -1.
</event>
<event>
 5   0  0.6006119E-04  0.1295419E+04  0.7818609E-02  0.9033206E-01
       -1   -1    0    0    0  501  0.00000000000E+00  0.00000000000E+00  0.32357641749E+03  0.32357641753E+03  0.50400001928E-02 0. -1.
        1   -1    0    0  501    0  0.00000000000E+00  0.00000000000E+00 -0.12965336480E+04  0.12965336481E+04  0.50400001928E-02 0.  1.
    10030    2    1    2    0    0  0.00000000000E+00  0.00000000000E+00 -0.97295723056E+03  0.16201100656E+04  0.12954191801E+04 0.  0.
        4    1    3    3  502    0  0.35739179642E+03 -0.34904849349E+03 -0.10020758328E+04  0.11196969834E+04  0.12699999809E+01 0.  1.
       -4    1    3    3    0  502 -0.35739179642E+03  0.34904849349E+03  0.29118602241E+02  0.50041308222E+03  0.12699999809E+01 0. -1.
</event>
<event>
 5   0  0.5710383E-04  0.1294857E+04  0.7818609E-02  0.9033654E-01
       -1   -1    0    0    0  501  0.00000000000E+00  0.00000000000E+00  0.75755400780E+03  0.75755400782E+03  0.50400001928E-02 0. -1.
        1   -1    0    0  501    0  0.00000000000E+00  0.00000000000E+00 -0.55331185807E+03  0.55331185809E+03  0.50400001928E-02 0.  1.
    10030    2    1    2    0    0  0.00000000000E+00  0.00000000000E+00  0.20424214974E+03  0.13108658659E+04  0.12948569275E+04 0.  0.
        1    1    3    3  502    0  0.14758087304E+03 -0.35979557791E+03 -0.42189868524E+03  0.57378695750E+03  0.50400001928E-02 0.  1.
       -1    1    3    3    0  502 -0.14758087304E+03  0.35979557791E+03  0.62614083498E+03  0.73707890841E+03  0.50400001928E-02 0. -1.
</event>
<event>
 5   0  0.1101619E-03  0.1297831E+04  0.7818609E-02  0.9031287E-01
        2   -1    0    0  501    0  0.00000000000E+00  0.00000000000E+00  0.88646921963E+03  0.88646921963E+03  0.25500000920E-02 0.  1.
       -2   -1    0    0    0  501  0.00000000000E+00  0.00000000000E+00 -0.47502108920E+03  0.47502108921E+03  0.25500000920E-02 0. -1.
    10030    2    1    2    0    0  0.00000000000E+00  0.00000000000E+00  0.41144813043E+03  0.13614903088E+04  0.12978313824E+04 0.  0.
        1    1    3    3  502    0 -0.23964888069E+03  0.20884567659E+03  0.79919679693E+03  0.86009512433E+03  0.50400001928E-02 0.  1.
       -1    1    3    3    0  502  0.23964888069E+03 -0.20884567659E+03 -0.38774866650E+03  0.50139518451E+03  0.50400001928E-02 0. -1.
</event>
<event>
 5   0  0.1103241E-03  0.1291187E+04  0.7818609E-02  0.9036584E-01
        2   -1    0    0  501    0  0.00000000000E+00  0.00000000000E+00  0.58969821260E+03  0.58969821261E+03  0.25500000920E-02 0. -1.
       -2   -1    0    0    0  501  0.00000000000E+00  0.00000000000E+00 -0.70678650399E+03  0.70678650400E+03  0.25500000920E-02 0.  1.
    10030    2    1    2    0    0  0.00000000000E+00  0.00000000000E+00 -0.11708829139E+03  0.12964847166E+04  0.12911866451E+04 0.  0.
        4    1    3    3  502    0  0.21005631071E+03 -0.11412667182E+03  0.54361698339E+03  0.59385990640E+03  0.12699999809E+01 0. -1.
       -4    1    3    3    0  502 -0.21005631071E+03  0.11412667182E+03 -0.66070527478E+03  0.70262481021E+03  0.12699999809E+01 0.  1.
</event>
<event>
 5   0  0.1031295E-03  0.1285728E+04  0.7818609E-02  0.9040960E-01
        2   -1    0    0  501    0  0.00000000000E+00  0.00000000000E+00  0.63577199053E+03  0.63577199054E+03  0.25500000920E-02 0. -1.
       -2   -1    0    0    0  501  0.00000000000E+00  0.00000000000E+00 -0.65003521511E+03  0.65003521511E+03  0.25500000920E-02 0.  1.
    10030    2    1    2    0    0  0.00000000000E+00  0.00000000000E+00 -0.14263224575E+02  0.12858072057E+04  0.12857280935E+04 0.  0.
        2    1    3    3  502    0  0.46086280875E+03 -0.77597871139E+02  0.43432303420E+03  0.63800662703E+03  0.25500000920E-02 0. -1.
       -2    1    3    3    0  502 -0.46086280875E+03  0.77597871139E+02 -0.44858625877E+03  0.64780057862E+03  0.25500000920E-02 0.  1.
</event>
<event>
 5   0  0.5812938E-04  0.1301336E+04  0.7818609E-02  0.9028506E-01
        1   -1    0    0  501    0  0.00000000000E+00  0.00000000000E+00  0.12513286012E+04  0.12513286012E+04  0.50400001928E-02 0. -1.
       -1   -1    0    0    0  501  0.00000000000E+00  0.00000000000E+00 -0.33833553630E+03  0.33833553634E+03  0.50400001928E-02 0.  1.
    10030    2    1    2    0    0  0.00000000000E+00  0.00000000000E+00  0.91299306488E+03  0.15896641375E+04  0.13013361340E+04 0.  0.
        5    1    3    3  502    0 -0.54189425724E+03  0.15576052514E+03  0.59843674467E+02  0.56702211826E+03  0.46999998093E+01 0.  1.
       -5    1    3    3    0  502  0.54189425724E+03 -0.15576052514E+03  0.85314939041E+03  0.10226420193E+04  0.46999998093E+01 0. -1.
</event>
<event>
 5   0  0.5766027E-04  0.1300542E+04  0.7818609E-02  0.9029136E-01
        1   -1    0    0  501    0  0.00000000000E+00  0.00000000000E+00  0.98343311056E+03  0.98343311058E+03  0.50400001928E-02 0. -1.
       -1   -1    0    0    0  501  0.00000000000E+00  0.00000000000E+00 -0.42997541649E+03  0.42997541652E+03  0.50400001928E-02 0.  1.
    10030    2    1    2    0    0  0.00000000000E+00  0.00000000000E+00  0.55345769407E+03  0.14134085271E+04  0.13005415200E+04 0.  0.
        3    1    3    3  502    0 -0.47652932967E+03  0.42082306581E+03  0.12819358922E+03  0.64854133351E+03  0.10100000352E+00 0.  1.
       -3    1    3    3    0  502  0.47652932967E+03 -0.42082306581E+03  0.42526410485E+03  0.76486719359E+03  0.10100000352E+00 0. -1.
</event>
<event>
 5   0  0.1101619E-03  0.1305699E+04  0.7818609E-02  0.9025058E-01
       -2   -1    0    0    0  501  0.00000000000E+00  0.00000000000E+00  0.11926745721E+04  0.11926745721E+04  0.25500000920E-02 0.  1.
        2   -1    0    0  501    0  0.00000000000E+00  0.00000000000E+00 -0.35735836015E+03  0.35735836016E+03  0.25500000920E-02 0. -1.
    10030    2    1    2    0    0  0.00000000000E+00  0.00000000000E+00  0.83531621198E+03  0.15500329323E+04  0.13056986318E+04 0.  0.
        1    1    3    3  502    0  0.40039423969E+03  0.14622426917E+03  0.10046753492E+04  0.10913613707E+04  0.50400001928E-02 0.  1.
       -1    1    3    3    0  502 -0.40039423969E+03 -0.14622426917E+03 -0.16935913721E+03  0.45867156163E+03  0.50400001928E-02 0. -1.
</event>
<event>
 5   0  0.6006119E-04  0.1295695E+04  0.7818609E-02  0.9032986E-01
       -1   -1    0    0    0  501  0.00000000000E+00  0.00000000000E+00  0.21302553223E+04  0.21302553224E+04  0.50400001928E-02 0.  1.
        1   -1    0    0  501    0  0.00000000000E+00  0.00000000000E+00 -0.19702162119E+03  0.19702162126E+03  0.50400001928E-02 0. -1.
    10030    2    1    2    0    0  0.00000000000E+00  0.00000000000E+00  0.19332337012E+04  0.23272769436E+04  0.12956949598E+04 0.  0.
        4    1    3    3  502    0  0.32696928942E+03 -0.32389188412E+03  0.17855754870E+04  0.18439350047E+04  0.12699999809E+01 0.  1.
       -4    1    3    3    0  502 -0.32696928942E+03  0.32389188412E+03  0.14765821417E+03  0.48334193894E+03  0.12699999809E+01 0. -1.
</event>
<event>
 5   0  0.5766027E-04  0.1323346E+04  0.7818609E-02  0.9011254E-01
       -1   -1    0    0    0  501  0.00000000000E+00  0.00000000000E+00  0.54985453035E+03  0.54985453038E+03  0.50400001928E-02 0. -1.
        1   -1    0    0  501    0  0.00000000000E+00  0.00000000000E+00 -0.79623035077E+03  0.79623035079E+03  0.50400001928E-02 0.  1.
    10030    2    1    2    0    0  0.00000000000E+00  0.00000000000E+00 -0.24637582042E+03  0.13460848812E+04  0.13233455567E+04 0.  0.
        3    1    3    3  502    0  0.49585200799E+03 -0.24126755027E+03  0.24878920387E+03  0.60495894307E+03  0.10100000352E+00 0. -1.
       -3    1    3    3    0  502 -0.49585200799E+03  0.24126755027E+03 -0.49516502429E+03  0.74112593810E+03  0.10100000352E+00 0.  1.
</event>
<event>
 5   0  0.5710383E-04  0.1294282E+04  0.7818609E-02  0.9034112E-01
       -1   -1    0    0    0  501  0.00000000000E+00  0.00000000000E+00  0.92370603226E+03  0.92370603228E+03  0.50400001928E-02 0.  1.
        1   -1    0    0  501    0  0.00000000000E+00  0.00000000000E+00 -0.45338157624E+03  0.45338157627E+03  0.50400001928E-02 0. -1.
    10030    2    1    2    0    0  0.00000000000E+00  0.00000000000E+00  0.47032445602E+03  0.13770876085E+04  0.12942817265E+04 0.  0.
        1    1    3    3  502    0 -0.30332939417E+03 -0.60791295781E+02  0.83993535981E+03  0.89509536458E+03  0.50400001928E-02 0.  1.
       -1    1    3    3    0  502  0.30332939417E+03  0.60791295781E+02 -0.36961090380E+03  0.48199224396E+03  0.50400001928E-02 0. -1.
</event>
<event>
 5   0  0.4012375E-04  0.1306193E+04  0.7818609E-02  0.9024668E-01
       -3   -1    0    0    0  501  0.00000000000E+00  0.00000000000E+00  0.50973007043E+03  0.50973008043E+03  0.10100000352E+00 0.  1.
        3   -1    0    0  501    0  0.00000000000E+00  0.00000000000E+00 -0.83678653447E+03  0.83678654056E+03  0.10100000352E+00 0. -1.
    10030    2    1    2    0    0  0.00000000000E+00  0.00000000000E+00 -0.32705646404E+03  0.13465166210E+04  0.13061933547E+04 0.  0.
        5    1    3    3  502    0  0.42437714246E+03  0.14369075160E+03 -0.65334939685E+03  0.79223135226E+03  0.46999998093E+01 0. -1.
       -5    1    3    3    0  502 -0.42437714246E+03 -0.14369075160E+03  0.32629293281E+03  0.55428526874E+03  0.46999998093E+01 0.  1.
</event>
<event>
 5   0  0.5812938E-04  0.1311422E+04  0.7818609E-02  0.9020556E-01
       -1   -1    0    0    0  501  0.00000000000E+00  0.00000000000E+00  0.73817846636E+03  0.73817846638E+03  0.50400001928E-02 0.  1.
        1   -1    0    0  501    0  0.00000000000E+00  0.00000000000E+00 -0.58245627900E+03  0.58245627902E+03  0.50400001928E-02 0. -1.
    10030    2    1    2    0    0  0.00000000000E+00  0.00000000000E+00  0.15572218736E+03  0.13206347454E+04  0.13114216451E+04 0.  0.
        5    1    3    3  502    0 -0.63514761259E+03  0.68020932849E+02 -0.71148895266E+02  0.64274691160E+03  0.46999998093E+01 0. -1.
       -5    1    3    3    0  502  0.63514761259E+03 -0.68020932849E+02  0.22687108263E+03  0.67788783380E+03  0.46999998093E+01 0.  1.
</event>
<event>
 5   0  0.5766027E-04  0.1250782E+04  0.7818609E-02  0.9069532E-01
        1   -1    0    0  501    0  0.00000000000E+00  0.00000000000E+00  0.19950247896E+04  0.19950247896E+04  0.50400001928E-02 0.  1.
       -1   -1    0    0    0  501  0.00000000000E+00  0.00000000000E+00 -0.19604471811E+03  0.19604471818E+03  0.50400001928E-02 0. -1.
    10030    2    1    2    0    0  0.00000000000E+00  0.00000000000E+00  0.17989800715E+04  0.21910695078E+04  0.12507822714E+04 0.  0.
        3    1    3    3  502    0 -0.72153208963E+02  0.14191481245E+03  0.19589325302E+04  0.19653911996E+04  0.10100000352E+00 0.  1.
       -3    1    3    3    0  502  0.72153208963E+02 -0.14191481245E+03 -0.15995245866E+03  0.22567830819E+03  0.10100000352E+00 0. -1.
</event>
<event>
 5   0  0.1103241E-03  0.1282467E+04  0.7818609E-02  0.9043586E-01
        2   -1    0    0  501    0  0.00000000000E+00  0.00000000000E+00  0.10513004009E+04  0.10513004009E+04  0.25500000920E-02 0. -1.
       -2   -1    0    0    0  501  0.00000000000E+00  0.00000000000E+00 -0.39111581158E+03  0.39111581158E+03  0.25500000920E-02 0.  1.
    10030    2    1    2    0    0  0.00000000000E+00  0.00000000000E+00  0.66018458935E+03  0.14424162125E+04  0.12824667006E+04 0.  0.
        4    1    3    3  502    0  0.28747046256E+03  0.28168615916E+03 -0.23135856682E+03  0.46423567124E+03  0.12699999809E+01 0. -1.
       -4    1    3    3    0  502 -0.28747046256E+03 -0.28168615916E+03  0.89154315617E+03  0.97818054127E+03  0.12699999809E+01 0.  1.
</event>
<event>
 5   0  0.1101619E-03  0.1383899E+04  0.7818609E-02  0.8965557E-01
       -2   -1    0    0    0  501  0.00000000000E+00  0.00000000000E+00  0.60914267595E+03  0.60914267595E+03  0.25500000920E-02 0.  1.
        2   -1    0    0  501    0  0.00000000000E+00  0.00000000000E+00 -0.78601280223E+03  0.78601280223E+03  0.25500000920E-02 0. -1.
    10030    2    1    2    0    0  0.00000000000E+00  0.00000000000E+00 -0.17687012628E+03  0.13951554782E+04  0.13838987560E+04 0.  0.
        1    1    3    3  502    0  0.31594153184E+03 -0.46003851987E+03 -0.50083392579E+03  0.74985939519E+03  0.50400001928E-02 0. -1.
       -1    1    3    3    0  502 -0.31594153184E+03  0.46003851987E+03  0.32396379951E+03  0.64529608299E+03  0.50400001928E-02 0.  1.
</event>
<event>
 5   0  0.6006119E-04  0.1305648E+04  0.7818609E-02  0.9025098E-01
       -1   -1    0    0    0  501  0.00000000000E+00  0.00000000000E+00  0.59648955799E+03  0.59648955801E+03  0.50400001928E-02 0.  1.
        1   -1    0    0  501    0  0.00000000000E+00  0.00000000000E+00 -0.71447906066E+03  0.71447906068E+03  0.50400001928E-02 0. -1.
    10030    2    1    2    0    0  0.00000000000E+00  0.00000000000E+00 -0.11798950267E+03  0.13109686187E+04  0.13056481902E+04 0.  0.
        4    1    3    3  502    0 -0.25031357727E+03  0.45851442681E+03  0.33411734426E+03  0.62010352296E+03  0.12699999809E+01 0.  1.
       -4    1    3    3    0  502  0.25031357727E+03 -0.45851442681E+03 -0.45210684693E+03  0.69086509573E+03  0.12699999809E+01 0. -1.
</event>
<event>
 5   0  0.1081574E-03  0.1308777E+04  0.7818609E-02  0.9022634E-01
        2   -1    0    0  501    0  0.00000000000E+00  0.00000000000E+00  0.18937138644E+04  0.18937138644E+04  0.25500000920E-02 0.  1.
       -2   -1    0    0    0  501  0.00000000000E+00  0.00000000000E+00 -0.22612930600E+03  0.22612930601E+03  0.25500000920E-02 0. -1.
    10030    2    1    2    0    0  0.00000000000E+00  0.00000000000E+00  0.16675845584E+04  0.21198431705E+04  0.13087768365E+04 0.  0.
        5    1    3    3  502    0 -0.30486384446E+03 -0.16721728882E+03 -0.64087872474E+02  0.35359995863E+03  0.46999998093E+01 0. -1.
       -5    1    3    3    0  502  0.30486384446E+03  0.16721728882E+03  0.17316724309E+04  0.17662432118E+04  0.46999998093E+01 0.  1.
</event>
<event>
 5   0  0.6006119E-04  0.1306599E+04  0.7818609E-02  0.9024348E-01
       -1   -1    0    0    0  501  0.00000000000E+00  0.00000000000E+00  0.39938335932E+03  0.39938335935E+03  0.50400001928E-02 0. -1.
        1   -1    0    0  501    0  0.00000000000E+00  0.00000000000E+00 -0.10686479518E+04  0.10686479518E+04  0.50400001928E-02 0.  1.
    10030    2    1    2    0    0  0.00000000000E+00  0.00000000000E+00 -0.66926459248E+03  0.14680313112E+04  0.13065989575E+04 0.  0.
        4    1    3    3  502    0  0.50014969941E+02 -0.22373518005E+03  0.35270185159E+03  0.42066511268E+03  0.12699999809E+01 0. -1.
       -4    1    3    3    0  502 -0.50014969941E+02  0.22373518005E+03 -0.10219664441E+04  0.10473661985E+04  0.12699999809E+01 0.  1.
</event>
<event>
 5   0  0.5710383E-04  0.1303868E+04  0.7818609E-02  0.9026504E-01
        1   -1    0    0  501    0  0.00000000000E+00  0.00000000000E+00  0.31369666629E+03  0.31369666633E+03  0.50400001928E-02 0.  1.
       -1   -1    0    0    0  501  0.00000000000E+00  0.00000000000E+00 -0.13548687469E+04  0.13548687469E+04  0.50400001928E-02 0. -1.
    10030    2    1    2    0    0  0.00000000000E+00  0.00000000000E+00 -0.10411720806E+04  0.16685654132E+04  0.13038677988E+04 0.  0.
        1    1    3    3  502    0  0.23769198443E+03 -0.48620335229E+03 -0.98574871195E+03  0.11245406628E+04  0.50400001928E-02 0. -1.
       -1    1    3    3    0  502 -0.23769198443E+03  0.48620335229E+03 -0.55423368664E+02  0.54402475041E+03  0.50400001928E-02 0.  1.
</event>
<event>
 5   0  0.5710383E-04  0.1303542E+04  0.7818609E-02  0.9026761E-01
       -1   -1    0    0    0  501  0.00000000000E+00  0.00000000000E+00  0.88161940053E+03  0.88161940055E+03  0.50400001928E-02 0. -1.
        1   -1    0    0  501    0  0.00000000000E+00  0.00000000000E+00 -0.48184669762E+03  0.48184669764E+03  0.50400001928E-02 0.  1.
    10030    2    1    2    0    0  0.00000000000E+00  0.00000000000E+00  0.39977270292E+03  0.13634660982E+04  0.13035419391E+04 0.  0.
        1    1    3    3  502    0 -0.11943831068E+03  0.29809886285E+03  0.79312482650E+03  0.85567250308E+03  0.50400001928E-02 0. -1.
       -1    1    3    3    0  502  0.11943831068E+03 -0.29809886285E+03 -0.39335212358E+03  0.50779359512E+03  0.50400001928E-02 0.  1.
</event>
<event>
 5   0  0.5766027E-04  0.1221061E+04  0.7818609E-02  0.9094619E-01
       -1   -1    0    0    0  501  0.00000000000E+00  0.00000000000E+00  0.28557492298E+03  0.28557492303E+03  0.50400001928E-02 0. -1.
        1   -1    0    0  501    0  0.00000000000E+00  0.00000000000E+00 -0.13052524661E+04  0.13052524661E+04  0.50400001928E-02 0.  1.
    10030    2    1    2    0    0  0.00000000000E+00  0.00000000000E+00 -0.10196775432E+04  0.15908273892E+04  0.12210608053E+04 0.  0.
        3    1    3    3  502    0 -0.34123734342E+03 -0.41755063039E+03 -0.13686705111E+03  0.55634885941E+03  0.10100000352E+00 0. -1.
       -3    1    3    3    0  502  0.34123734342E+03  0.41755063039E+03 -0.88281049204E+03  0.10344785298E+04  0.10100000352E+00 0.  1.
</event>
<event>
 5   0  0.1081574E-03  0.1285639E+04  0.7818609E-02  0.9041032E-01
       -2   -1    0    0    0  501  0.00000000000E+00  0.00000000000E+00  0.64126765691E+03  0.64126765692E+03  0.25500000920E-02 0.  1.
        2   -1    0    0  501    0  0.00000000000E+00  0.00000000000E+00 -0.64437494382E+03  0.64437494382E+03  0.25500000920E-02 0. -1.
    10030    2    1    2    0    0  0.00000000000E+00  0.00000000000E+00 -0.31072869032E+01  0.12856426007E+04  0.12856388457E+04 0.  0.
        5    1    3    3  502    0 -0.21953607226E+02 -0.62755812693E+03 -0.13897149952E+03  0.64315342743E+03  0.46999998093E+01 0.  1.
       -5    1    3    3    0  502  0.21953607226E+02  0.62755812693E+03  0.13586421261E+03  0.64248917330E+03  0.46999998093E+01 0. -1.
</event>
<event>
 5   0  0.1101619E-03  0.1285332E+04  0.7818609E-02  0.9041278E-01
        2   -1    0    0  501    0  0.00000000000E+00  0.00000000000E+00  0.76694947882E+03  0.76694947883E+03  0.25500000920E-02 0.  1.
       -2   -1    0    0    0  501  0.00000000000E+00  0.00000000000E+00 -0.53852261515E+03  0.53852261516E+03  0.25500000920E-02 0. -1.
    10030    2    1    2    0    0  0.00000000000E+00  0.00000000000E+00  0.22842686367E+03  0.13054720940E+04  0.12853320801E+04 0.  0.
        1    1    3    3  502    0 -0.19536570111E+03 -0.52759958341E+03  0.42971001653E+03  0.70794051722E+03  0.50400001928E-02 0.  1.
       -1    1    3    3    0  502  0.19536570111E+03  0.52759958341E+03 -0.20128315286E+03  0.59753157677E+03  0.50400001928E-02 0. -1.
</event>
<event>
 5   0  0.6006119E-04  0.1293979E+04  0.7818609E-02  0.9034353E-01
       -1   -1    0    0    0  501  0.00000000000E+00  0.00000000000E+00  0.32595463846E+03  0.32595463850E+03  0.50400001928E-02 0.  1.
        1   -1    0    0  501    0  0.00000000000E+00  0.00000000000E+00 -0.12842145556E+04  0.12842145556E+04  0.50400001928E-02 0. -1.
    10030    2    1    2    0    0  0.00000000000E+00  0.00000000000E+00 -0.95825991712E+03  0.16101691941E+04  0.12939794298E+04 0.  0.
        4    1    3    3  502    0  0.56195192545E+03 -0.25740970139E+03 -0.71700797357E+03  0.94665292898E+03  0.12699999809E+01 0. -1.
       -4    1    3    3    0  502 -0.56195192545E+03  0.25740970139E+03 -0.24125194356E+03  0.66351626511E+03  0.12699999809E+01 0.  1.
</event>
<event>
 5   0  0.5766027E-04  0.1295664E+04  0.7818609E-02  0.9033011E-01
       -1   -1    0    0    0  501  0.00000000000E+00  0.00000000000E+00  0.31480649553E+03  0.31480649557E+03  0.50400001928E-02 0.  1.
        1   -1    0    0  501    0  0.00000000000E+00  0.00000000000E+00 -0.13331567211E+04  0.13331567211E+04  0.50400001928E-02 0. -1.
    10030    2    1    2    0    0  0.00000000000E+00  0.00000000000E+00 -0.10183502256E+04  0.16479632167E+04  0.12956641469E+04 0.  0.
        3    1    3    3  502    0 -0.41244700124E+01 -0.56211131677E+03 -0.99589251667E+02  0.57088017389E+03  0.10100000352E+00 0.  1.
       -3    1    3    3    0  502  0.41244700124E+01  0.56211131677E+03 -0.91876097392E+03  0.10770830428E+04  0.10100000352E+00 0. -1.
</event>
<event>
 5   0  0.1081574E-03  0.1292788E+04  0.7818609E-02  0.9035304E-01
        2   -1    0    0  501    0  0.00000000000E+00  0.00000000000E+00  0.10343338871E+04  0.10343338871E+04  0.25500000920E-02 0.  1.
       -2   -1    0    0    0  501  0.00000000000E+00  0.00000000000E+00 -0.40395576247E+03  0.40395576248E+03  0.25500000920E-02 0. -1.
    10030    2    1    2    0    0  0.00000000000E+00  0.00000000000E+00  0.63037812466E+03  0.14382896496E+04  0.12927878929E+04 0.  0.
        5    1    3    3  502    0  0.82876801237E+02 -0.61795577939E+03  0.12551617823E+03  0.63601439485E+03  0.46999998093E+01 0.  1.
       -5    1    3    3    0  502 -0.82876801237E+02  0.61795577939E+03  0.50486194643E+03  0.80227525477E+03  0.46999998093E+01 0. -1.
</event>
<event>
 5   0  0.5766027E-04  0.1306384E+04  0.7818609E-02  0.9024518E-01
        1   -1    0    0  501    0  0.00000000000E+00  0.00000000000E+00  0.59144878364E+03  0.59144878366E+03  0.50400001928E-02 0.  1.
       -1   -1    0    0    0  501  0.00000000000E+00  0.00000000000E+00 -0.72138103090E+03  0.72138103092E+03  0.50400001928E-02 0. -1.
    10030    2    1    2    0    0  0.00000000000E+00  0.00000000000E+00 -0.12993224727E+03  0.13128298146E+04  0.13063842211E+04 0.  0.
        3    1    3    3  502    0  0.26266461097E+03 -0.20395278708E+03 -0.62994144370E+03  0.71233115186E+03  0.10100000352E+00 0. -1.
       -3    1    3    3    0  502 -0.26266461097E+03  0.20395278708E+03  0.50000919643E+03  0.60049866272E+03  0.10100000352E+00 0.  1.
</event>
<event>
 5   0  0.5710383E-04  0.1312685E+04  0.7818609E-02  0.9019566E-01
       -1   -1    0    0    0  501  0.00000000000E+00  0.00000000000E+00  0.41856717971E+03  0.41856717974E+03  0.50400001928E-02 0.  1.
        1   -1    0    0  501    0  0.00000000000E+00  0.00000000000E+00 -0.10291900650E+04  0.10291900650E+04  0.50400001928E-02 0. -1.
    10030    2    1    2    0    0  0.00000000000E+00  0.00000000000E+00 -0.61062288528E+03  0.14477572447E+04  0.13126845515E+04 0.  0.
        1    1    3    3  502    0  0.18573329683E+03 -0.60274417487E+03 -0.50562574104E+03  0.80836550392E+03  0.50400001928E-02 0. -1.
       -1    1    3    3    0  502 -0.18573329683E+03  0.60274417487E+03 -0.10499714423E+03  0.63939174081E+03  0.50400001928E-02 0.  1.
</event>
<event>
 5   0  0.1103241E-03  0.1293458E+04  0.7818609E-02  0.9034769E-01
        2   -1    0    0  501    0  0.00000000000E+00  0.00000000000E+00  0.13576040056E+04  0.13576040056E+04  0.25500000920E-02 0.  1.
       -2   -1    0    0    0  501  0.00000000000E+00  0.00000000000E+00 -0.30808588605E+03  0.30808588606E+03  0.25500000920E-02 0. -1.
    10030    2    1    2    0    0  0.00000000000E+00  0.00000000000E+00  0.10495181196E+04  0.16656898917E+04  0.12934583611E+04 0.  0.
        4    1    3    3  502    0  0.49348172765E+03  0.11515262138E+03  0.10422362629E+04  0.11588970542E+04  0.12699999809E+01 0.  1.
       -4    1    3    3    0  502 -0.49348172765E+03 -0.11515262138E+03  0.72818566724E+01  0.50679283744E+03  0.12699999809E+01 0. -1.
</event>
<event>
 5   0  0.1031295E-03  0.1331237E+04  0.7818609E-02  0.9005154E-01
       -2   -1    0    0    0  501  0.00000000000E+00  0.00000000000E+00  0.42889910480E+03  0.42889910481E+03  0.25500000920E-02 0.  1.
        2   -1    0    0  501    0  0.00000000000E+00  0.00000000000E+00 -0.10329890535E+04  0.10329890535E+04  0.25500000920E-02 0. -1.
    10030    2    1    2    0    0  0.00000000000E+00  0.00000000000E+00 -0.60408994870E+03  0.14618881583E+04  0.13312371394E+04 0.  0.
        2    1    3    3  502    0 -0.98260877273E+02 -0.10587717295E+03  0.41147977998E+03  0.43609721978E+03  0.25500000920E-02 0.  1.
       -2    1    3    3    0  502  0.98260877273E+02  0.10587717295E+03 -0.10155697287E+04  0.10257909385E+04  0.25500000920E-02 0. -1.
</event>
<event>
 5   0  0.5563545E-04  0.1293285E+04  0.7818609E-02  0.9034907E-01
       -1   -1    0    0    0  501  0.00000000000E+00  0.00000000000E+00  0.32897220422E+03  0.32897220426E+03  0.50400001928E-02 0.  1.
        1   -1    0    0  501    0  0.00000000000E+00  0.00000000000E+00 -0.12710697792E+04  0.12710697792E+04  0.50400001928E-02 0. -1.
    10030    2    1    2    0    0  0.00000000000E+00  0.00000000000E+00 -0.94209757500E+03  0.16000419835E+04  0.12932851612E+04 0.  0.
        2    1    3    3  502    0  0.41373013710E+03  0.10177747070E+03 -0.10728575940E+04  0.11543633297E+04  0.25500000920E-02 0. -1.
       -2    1    3    3    0  502 -0.41373013710E+03 -0.10177747070E+03  0.13076001899E+03  0.44567865381E+03  0.25500000920E-02 0.  1.
</event>
<event>
 5   0  0.1031295E-03  0.1299347E+04  0.7818609E-02  0.9030083E-01
        2   -1    0    0  501    0  0.00000000000E+00  0.00000000000E+00  0.15498088946E+04  0.15498088946E+04  0.25500000920E-02 0.  1.
       -2   -1    0    0    0  501  0.00000000000E+00  0.00000000000E+00 -0.27234049939E+03  0.27234049940E+03  0.25500000920E-02 0. -1.
    10030    2    1    2    0    0  0.00000000000E+00  0.00000000000E+00  0.12774683952E+04  0.18221493940E+04  0.12993471104E+04 0.  0.
        2    1    3    3  502    0  0.38383741494E+01 -0.57972801155E+03  0.10499298313E+04  0.11993548062E+04  0.25500000920E-02 0.  1.
       -2    1    3    3    0  502 -0.38383741494E+01  0.57972801155E+03  0.22753856385E+03  0.62279458775E+03  0.25500000920E-02 0. -1.
</event>
<event>
 5   0  0.5563545E-04  0.1298939E+04  0.7818609E-02  0.9030407E-01
        1   -1    0    0  501    0  0.00000000000E+00  0.00000000000E+00  0.11086437488E+04  0.11086437488E+04  0.50400001928E-02 0. -1.
       -1   -1    0    0    0  501  0.00000000000E+00  0.00000000000E+00 -0.38047453711E+03  0.38047453714E+03  0.50400001928E-02 0.  1.
    10030    2    1    2    0    0  0.00000000000E+00  0.00000000000E+00  0.72816921171E+03  0.14891182860E+04  0.12989391320E+04 0.  0.
        2    1    3    3  502    0  0.54135523728E+03 -0.59455248920E+02  0.76974295598E+03  0.94292345280E+03  0.25500000920E-02 0. -1.
       -2    1    3    3    0  502 -0.54135523728E+03  0.59455248920E+02 -0.41573744271E+02  0.54619483317E+03  0.25500000920E-02 0.  1.
</event>
<event>
 5   0  0.4012375E-04  0.1295331E+04  0.7818609E-02  0.9033276E-01
       -3   -1    0    0    0  501  0.00000000000E+00  0.00000000000E+00  0.43649751318E+03  0.43649752486E+03  0.10100000352E+00 0. -1.
        3   -1    0    0  501    0  0.00000000000E+00  0.00000000000E+00 -0.96099211322E+03  0.96099211853E+03  0.10100000352E+00 0.  1.
    10030    2    1    2    0    0  0.00000000000E+00  0.00000000000E+00 -0.52449460004E+03  0.13974896434E+04  0.12953311229E+04 0.  0.
        2    1    3    3  502    0 -0.37882000970E+03  0.32936781809E+03  0.17927542333E+03  0.53303605577E+03  0.25500000920E-02 0. -1.
       -2    1    3    3    0  502  0.37882000970E+03 -0.32936781809E+03 -0.70377002337E+03  0.86445358761E+03  0.25500000920E-02 0.  1.
</event>
<event>
 5   0  0.5710383E-04  0.1324067E+04  0.7818609E-02  0.9010695E-01
       -1   -1    0    0    0  501  0.00000000000E+00  0.00000000000E+00  0.76127811916E+03  0.76127811917E+03  0.50400001928E-02 0. -1.
        1   -1    0    0  501    0  0.00000000000E+00  0.00000000000E+00 -0.57572694645E+03  0.57572694648E+03  0.50400001928E-02 0.  1.
    10030    2    1    2    0    0  0.00000000000E+00  0.00000000000E+00  0.18555117270E+03  0.13370050656E+04  0.13240669575E+04 0.  0.
        1    1    3    3  502    0  0.64267462278E+03  0.63604390413E+02 -0.54291444273E+02  0.64809239325E+03  0.50400001928E-02 0. -1.
       -1    1    3    3    0  502 -0.64267462278E+03 -0.63604390413E+02  0.23984261698E+03  0.68891267240E+03  0.50400001928E-02 0.  1.
</event>
<event>
 5   0  0.1031295E-03  0.1303046E+04  0.7818609E-02  0.9027153E-01
        2   -1    0    0  501    0  0.00000000000E+00  0.00000000000E+00  0.84614653516E+03  0.84614653516E+03  0.25500000920E-02 0.  1.
       -2   -1    0    0    0  501  0.00000000000E+00  0.00000000000E+00 -0.50166524599E+03  0.50166524600E+03  0.25500000920E-02 0. -1.
    10030    2    1    2    0    0  0.00000000000E+00  0.00000000000E+00  0.34448128916E+03  0.13478117812E+04  0.13030461384E+04 0.  0.
        2    1    3    3  502    0 -0.45685631932E+03  0.15528197401E+03  0.62506134326E+03  0.78964034269E+03  0.25500000920E-02 0.  1.
       -2    1    3    3    0  502  0.45685631932E+03 -0.15528197401E+03 -0.28058005410E+03  0.55817143847E+03  0.25500000920E-02 0. -1.
</event>
<event>
 5   0  0.1103241E-03  0.1301358E+04  0.7818609E-02  0.9028489E-01
        2   -1    0    0  501    0  0.00000000000E+00  0.00000000000E+00  0.52826154971E+03  0.52826154972E+03  0.25500000920E-02 0. -1.
       -2   -1    0    0    0  501  0.00000000000E+00  0.00000000000E+00 -0.80146502195E+03  0.80146502195E+03  0.25500000920E-02 0.  1.
    10030    2    1    2    0    0  0.00000000000E+00  0.00000000000E+00 -0.27320347224E+03  0.13297265717E+04  0.13013579900E+04 0.  0.
        4    1    3    3  502    0 -0.25500534117E+03  0.43652120040E+03  0.28196576129E+03  0.57886508433E+03  0.12699999809E+01 0. -1.
       -4    1    3    3    0  502  0.25500534117E+03 -0.43652120040E+03 -0.55516923353E+03  0.75086148734E+03  0.12699999809E+01 0.  1.
</event>
<event>
 5   0  0.1101619E-03  0.1302121E+04  0.7818609E-02  0.9027885E-01
       -2   -1    0    0    0  501  0.00000000000E+00  0.00000000000E+00  0.42304976710E+03  0.42304976711E+03  0.25500000920E-02 0.  1.
        2   -1    0    0  501    0  0.00000000000E+00  0.00000000000E+00 -0.10019616559E+04  0.10019616559E+04  0.25500000920E-02 0. -1.
    10030    2    1    2    0    0  0.00000000000E+00  0.00000000000E+00 -0.57891188877E+03  0.14250114230E+04  0.13021208011E+04 0.  0.
        1    1    3    3  502    0 -0.34051061892E+03  0.55431431507E+03 -0.31773672969E+03  0.72399480034E+03  0.50400001928E-02 0. -1.
       -1    1    3    3    0  502  0.34051061892E+03 -0.55431431507E+03 -0.26117515907E+03  0.70101662265E+03  0.50400001928E-02 0.  1.
</event>
<event>
 5   0  0.1101619E-03  0.1356032E+04  0.7818609E-02  0.8986275E-01
       -2   -1    0    0    0  501  0.00000000000E+00  0.00000000000E+00  0.19575096603E+03  0.19575096605E+03  0.25500000920E-02 0. -1.
        2   -1    0    0  501    0  0.00000000000E+00  0.00000000000E+00 -0.23484209443E+04  0.23484209443E+04  0.25500000920E-02 0.  1.
    10030    2    1    2    0    0  0.00000000000E+00  0.00000000000E+00 -0.21526699783E+04  0.25441719104E+04  0.13560319591E+04 0.  0.
        1    1    3    3  502    0 -0.26137639917E+03  0.50415376259E+03 -0.38134182031E+03  0.68403963505E+03  0.50400001928E-02 0. -1.
       -1    1    3    3    0  502  0.26137639917E+03 -0.50415376259E+03 -0.17713281580E+04  0.18601322753E+04  0.50400001928E-02 0.  1.
</event>
<event>
 5   0  0.5563545E-04  0.1244887E+04  0.7818609E-02  0.9074450E-01
       -1   -1    0    0    0  501  0.00000000000E+00  0.00000000000E+00  0.13262940149E+04  0.13262940149E+04  0.50400001928E-02 0. -1.
        1   -1    0    0  501    0  0.00000000000E+00  0.00000000000E+00 -0.29211912758E+03  0.29211912763E+03  0.50400001928E-02 0.  1.
    10030    2    1    2    0    0  0.00000000000E+00  0.00000000000E+00  0.10341748873E+04  0.16184131425E+04  0.12448869034E+04 0.  0.
        2    1    3    3  502    0  0.33544999115E+03 -0.22419455021E+02  0.11981024991E+04  0.12443789322E+04  0.25500000920E-02 0. -1.
       -2    1    3    3    0  502 -0.33544999115E+03  0.22419455021E+02 -0.16392761185E+03  0.37403421028E+03  0.25500000920E-02 0.  1.
</event>
<event>
 5   0  0.4012375E-04  0.1302638E+04  0.7818609E-02  0.9027476E-01
       -4   -1    0    0    0  501  0.00000000000E+00  0.00000000000E+00  0.11348462851E+04  0.11348469957E+04  0.12699999809E+01 0. -1.
        4   -1    0    0  501    0  0.00000000000E+00  0.00000000000E+00 -0.37380791263E+03  0.37381007002E+03  0.12699999809E+01 0.  1.
    10030    2    1    2    0    0  0.00000000000E+00  0.00000000000E+00  0.76103837247E+03  0.15086570657E+04  0.13026383756E+04 0.  0.
        5    1    3    3  502    0 -0.62993972844E+02 -0.19173169657E+03 -0.33666334698E+03  0.39254755544E+03  0.46999998093E+01 0.  1.
       -5    1    3    3    0  502  0.62993972844E+02  0.19173169657E+03  0.10977017195E+04  0.11161095103E+04  0.46999998093E+01 0. -1.
</event>
<event>
 5   0  0.1101619E-03  0.1292623E+04  0.7818609E-02  0.9035436E-01
        2   -1    0    0  501    0  0.00000000000E+00  0.00000000000E+00  0.16758551677E+04  0.16758551677E+04  0.25500000920E-02 0. -1.
       -2   -1    0    0    0  501  0.00000000000E+00  0.00000000000E+00 -0.24925703200E+03  0.24925703201E+03  0.25500000920E-02 0.  1.
    10030    2    1    2    0    0  0.00000000000E+00  0.00000000000E+00  0.14265981357E+04  0.19251121997E+04  0.12926232014E+04 0.  0.
        1    1    3    3  502    0 -0.58700374965E+03  0.65842416112E+02  0.32262906528E+03  0.67305136479E+03  0.50400001928E-02 0. -1.
       -1    1    3    3    0  502  0.58700374965E+03 -0.65842416112E+02  0.11039690704E+04  0.12520608349E+04  0.50400001928E-02 0.  1.
</event>
<event>
 5   0  0.1081574E-03  0.1282590E+04  0.7818609E-02  0.9043486E-01
        2   -1    0    0  501    0  0.00000000000E+00  0.00000000000E+00  0.23873255184E+03  0.23873255186E+03  0.25500000920E-02 0.  1.
       -2   -1    0    0    0  501  0.00000000000E+00  0.00000000000E+00 -0.17226779571E+04  0.17226779571E+04  0.25500000920E-02 0. -1.
    10030    2    1    2    0    0  0.00000000000E+00  0.00000000000E+00 -0.14839454052E+04  0.19614105090E+04  0.12825900432E+04 0.  0.
        5    1    3    3  502    0 -0.31568407827E+03 -0.54826482322E+03 -0.90226385244E+03  0.11019768160E+04  0.46999998093E+01 0. -1.
       -5    1    3    3    0  502  0.31568407827E+03  0.54826482322E+03 -0.58168155280E+03  0.85943369292E+03  0.46999998093E+01 0.  1.
</event>
<event>
 5   0  0.1103241E-03  0.1305501E+04  0.7818609E-02  0.9025214E-01
       -2   -1    0    0    0  501  0.00000000000E+00  0.00000000000E+00  0.32837493987E+03  0.32837493988E+03  0.25500000920E-02 0.  1.
        2   -1    0    0  501    0  0.00000000000E+00  0.00000000000E+00 -0.12975502197E+04  0.12975502197E+04  0.25500000920E-02 0. -1.
    10030    2    1    2    0    0  0.00000000000E+00  0.00000000000E+00 -0.96917527983E+03  0.16259251596E+04  0.13055006325E+04 0.  0.
        4    1    3    3  502    0  0.60034223528E+03 -0.25598506680E+03 -0.49943968985E+03  0.82181553318E+03  0.12699999809E+01 0. -1.
       -4    1    3    3    0  502 -0.60034223528E+03  0.25598506680E+03 -0.46973558998E+03  0.80410962640E+03  0.12699999809E+01 0.  1.
</event>
<event>
 5   0  0.5710383E-04  0.1297602E+04  0.7818609E-02  0.9031469E-01
       -1   -1    0    0    0  501  0.00000000000E+00  0.00000000000E+00  0.21314377050E+03  0.21314377056E+03  0.50400001928E-02 0.  1.
        1   -1    0    0  501    0  0.00000000000E+00  0.00000000000E+00 -0.19749233786E+04  0.19749233786E+04  0.50400001928E-02 0. -1.
    10030    2    1    2    0    0  0.00000000000E+00  0.00000000000E+00 -0.17617796081E+04  0.21880671492E+04  0.12976018117E+04 0.  0.
        1    1    3    3  502    0 -0.10077478392E+03 -0.23059876908E+03  0.12749153178E+03  0.28210891527E+03  0.50400001928E-02 0.  1.
       -1    1    3    3    0  502  0.10077478392E+03  0.23059876908E+03 -0.18892711399E+04  0.19059582339E+04  0.50400001928E-02 0. -1.
</event>
<event>
 5   0  0.1046253E-03  0.1302523E+04  0.7818609E-02  0.9027567E-01
       -2   -1    0    0    0  501  0.00000000000E+00  0.00000000000E+00  0.49448503014E+03  0.49448503015E+03  0.25500000920E-02 0.  1.
        2   -1    0    0  501    0  0.00000000000E+00  0.00000000000E+00 -0.85774410368E+03  0.85774410368E+03  0.25500000920E-02 0. -1.
    10030    2    1    2    0    0  0.00000000000E+00  0.00000000000E+00 -0.36325907354E+03  0.13522291338E+04  0.13025231191E+04 0.  0.
        3    1    3    3  502    0 -0.11026434501E+03  0.46180217408E+03 -0.64442380365E+03  0.80043833159E+03  0.10100000352E+00 0. -1.
       -3    1    3    3    0  502  0.11026434501E+03 -0.46180217408E+03  0.28116473011E+03  0.55179080223E+03  0.10100000352E+00 0.  1.
</event>
<event>
 5   0  0.1101619E-03  0.1304125E+04  0.7818609E-02  0.9026300E-01
        2   -1    0    0  501    0  0.00000000000E+00  0.00000000000E+00  0.25148712333E+04  0.25148712333E+04  0.25500000920E-02 0.  1.
       -2   -1    0    0    0  501  0.00000000000E+00  0.00000000000E+00 -0.16906846513E+03  0.16906846515E+03  0.25500000920E-02 0. -1.
    10030    2    1    2    0    0  0.00000000000E+00  0.00000000000E+00  0.23458027682E+04  0.26839396984E+04  0.13041248705E+04 0.  0.
        1    1    3    3  502    0  0.56444354979E+03 -0.19335003142E+03  0.63149763530E+03  0.86877501056E+03  0.50400001928E-02 0.  1.
       -1    1    3    3    0  502 -0.56444354979E+03  0.19335003142E+03  0.17143051329E+04  0.18151646879E+04  0.50400001928E-02 0. -1.
</event>
<event>
 5   0  0.6006119E-04  0.1287049E+04  0.7818609E-02  0.9039899E-01
        1   -1    0    0  501    0  0.00000000000E+00  0.00000000000E+00  0.18570735973E+04  0.18570735973E+04  0.50400001928E-02 0. -1.
       -1   -1    0    0    0  501  0.00000000000E+00  0.00000000000E+00 -0.22299794704E+03  0.22299794710E+03  0.50400001928E-02 0.  1.
    10030    2    1    2    0    0  0.00000000000E+00  0.00000000000E+00  0.16340756503E+04  0.20800715444E+04  0.12870487167E+04 0.  0.
        4    1    3    3  502    0 -0.30635694744E+02 -0.14214543246E+03 -0.19609752908E+03  0.24413054617E+03  0.12699999809E+01 0.  1.
       -4    1    3    3    0  502  0.30635694744E+02  0.14214543246E+03  0.18301731794E+04  0.18359409983E+04  0.12699999809E+01 0. -1.
</event>
<event>
 5   0  0.1046253E-03  0.1298442E+04  0.7818609E-02  0.9030801E-01
        2   -1    0    0  501    0  0.00000000000E+00  0.00000000000E+00  0.10198894183E+04  0.10198894183E+04  0.25500000920E-02 0.  1.
       -2   -1    0    0    0  501  0.00000000000E+00  0.00000000000E+00 -0.41326849777E+03  0.41326849777E+03  0.25500000920E-02 0. -1.
    10030    2    1    2    0    0  0.00000000000E+00  0.00000000000E+00  0.60662092051E+03  0.14331579161E+04  0.12984424019E+04 0.  0.
        3    1    3    3  502    0 -0.25164573933E+03 -0.54100918719E+03  0.20888824881E+02  0.59703674254E+03  0.10100000352E+00 0. -1.
       -3    1    3    3    0  502  0.25164573933E+03  0.54100918719E+03  0.58573209563E+03  0.83612117351E+03  0.10100000352E+00 0.  1.
</event>
<event>
 5   0  0.1101619E-03  0.1293874E+04  0.7818609E-02  0.9034438E-01
       -2   -1    0    0    0  501  0.00000000000E+00  0.00000000000E+00  0.54119751453E+03  0.54119751454E+03  0.25500000920E-02 0. -1.
        2   -1    0    0  501    0  0.00000000000E+00  0.00000000000E+00 -0.77333553100E+03  0.77333553100E+03  0.25500000920E-02 0.  1.
    10030    2    1    2    0    0  0.00000000000E+00  0.00000000000E+00 -0.23213801647E+03  0.13145330455E+04  0.12938736681E+04 0.  0.
        1    1    3    3  502    0  0.53057087886E+03 -0.28627037477E+03 -0.35448832515E+03  0.69936982896E+03  0.50400001928E-02 0. -1.
       -1    1    3    3    0  502 -0.53057087886E+03  0.28627037477E+03  0.12235030868E+03  0.61516321658E+03  0.50400001928E-02 0.  1.
</event>
<event>
 5   0  0.5563545E-04  0.1280950E+04  0.7818609E-02  0.9044810E-01
        1   -1    0    0  501    0  0.00000000000E+00  0.00000000000E+00  0.16997883059E+04  0.16997883059E+04  0.50400001928E-02 0.  1.
       -1   -1    0    0    0  501  0.00000000000E+00  0.00000000000E+00 -0.24132895650E+03  0.24132895655E+03  0.50400001928E-02 0. -1.
    10030    2    1    2    0    0  0.00000000000E+00  0.00000000000E+00  0.14584593494E+04  0.19411172625E+04  0.12809498635E+04 0.  0.
        2    1    3    3  502    0  0.36564948896E+03 -0.50525913647E+03  0.94998474724E+03  0.11364230567E+04  0.25500000920E-02 0.  1.
       -2    1    3    3    0  502 -0.36564948896E+03  0.50525913647E+03  0.50847460216E+03  0.80469420578E+03  0.25500000920E-02 0. -1.
</event>
<event>
 5   0  0.1081574E-03  0.1285036E+04  0.7818609E-02  0.9041517E-01
        2   -1    0    0  501    0  0.00000000000E+00  0.00000000000E+00  0.12437913754E+04  0.12437913754E+04  0.25500000920E-02 0. -1.
       -2   -1    0    0    0  501  0.00000000000E+00  0.00000000000E+00 -0.33191188027E+03  0.33191188028E+03  0.25500000920E-02 0.  1.
    10030    2    1    2    0    0  0.00000000000E+00  0.00000000000E+00  0.91187949514E+03  0.15757032557E+04  0.12850356168E+04 0.  0.
        5    1    3    3  502    0 -0.22085524903E+03  0.56004539564E+03  0.73116274428E+03  0.94712667306E+03  0.46999998093E+01 0. -1.
       -5    1    3    3    0  502  0.22085524903E+03 -0.56004539564E+03  0.18071675087E+03  0.62857658264E+03  0.46999998093E+01 0.  1.
</event>
<event>
 5   0  0.5710383E-04  0.1304755E+04  0.7818609E-02  0.9025803E-01
        1   -1    0    0  501    0  0.00000000000E+00  0.00000000000E+00  0.66402416035E+03  0.66402416037E+03  0.50400001928E-02 0.  1.
       -1   -1    0    0    0  501  0.00000000000E+00  0.00000000000E+00 -0.64093511685E+03  0.64093511687E+03  0.50400001928E-02 0. -1.
    10030    2    1    2    0    0  0.00000000000E+00  0.00000000000E+00  0.23089043501E+02  0.13049592772E+04  0.13047550005E+04 0.  0.
        1    1    3    3  502    0 -0.72442108858E+02  0.20457620565E+02 -0.63657701854E+03  0.64101222604E+03  0.50400001928E-02 0. -1.
       -1    1    3    3    0  502  0.72442108858E+02 -0.20457620565E+02  0.65966606204E+03  0.66394705121E+03  0.50400001928E-02 0.  1.
</event>
<event>
 5   0  0.1101619E-03  0.1249999E+04  0.7818609E-02  0.9070184E-01
       -2   -1    0    0    0  501  0.00000000000E+00  0.00000000000E+00  0.21241109622E+03  0.21241109624E+03  0.25500000920E-02 0. -1.
        2   -1    0    0  501    0  0.00000000000E+00  0.00000000000E+00 -0.18390003144E+04  0.18390003144E+04  0.25500000920E-02 0.  1.
    10030    2    1    2    0    0  0.00000000000E+00  0.00000000000E+00 -0.16265892182E+04  0.20514114106E+04  0.12499985164E+04 0.  0.
        1    1    3    3  502    0 -0.33905932409E+03 -0.25781002991E+03 -0.15639158074E+04  0.16208824416E+04  0.50400001928E-02 0.  1.
       -1    1    3    3    0  502  0.33905932409E+03  0.25781002991E+03 -0.62673410802E+02  0.43052896908E+03  0.50400001928E-02 0. -1.
</event>
<event>
 5   0  0.1031295E-03  0.1295505E+04  0.7818609E-02  0.9033138E-01
        2   -1    0    0  501    0  0.00000000000E+00  0.00000000000E+00  0.27169941482E+04  0.27169941482E+04  0.25500000920E-02 0.  1.
       -2   -1    0    0    0  501  0.00000000000E+00  0.00000000000E+00 -0.15442911283E+03  0.15442911285E+03  0.25500000920E-02 0. -1.
    10030    2    1    2    0    0  0.00000000000E+00  0.00000000000E+00  0.25625650354E+04  0.28714232611E+04  0.12955045286E+04 0.  0.
        2    1    3    3  502    0 -0.13153547827E+03 -0.12403852725E+03 -0.97371588645E+02  0.20534937197E+03  0.25500000920E-02 0. -1.
       -2    1    3    3    0  502  0.13153547827E+03  0.12403852725E+03  0.26599366241E+04  0.26660738891E+04  0.25500000920E-02 0.  1.
</event>
<event>
 5   0  0.5812938E-04  0.1329590E+04  0.7818609E-02  0.9006424E-01
       -1   -1    0    0    0  501  0.00000000000E+00  0.00000000000E+00  0.78443129992E+03  0.78443129994E+03  0.50400001928E-02 0.  1.
        1   -1    0    0  501    0  0.00000000000E+00  0.00000000000E+00 -0.56340471718E+03  0.56340471720E+03  0.50400001928E-02 0. -1.
    10030    2    1    2    0    0  0.00000000000E+00  0.00000000000E+00  0.22102658274E+03  0.13478360171E+04  0.13295898536E+04 0.  0.
        5    1    3    3  502    0 -0.21372554344E+03  0.28021536450E+03  0.68192498447E+03  0.76762167301E+03  0.46999998093E+01 0.  1.
       -5    1    3    3    0  502  0.21372554344E+03 -0.28021536450E+03 -0.46089840173E+03  0.58021434413E+03  0.46999998093E+01 0. -1.
</event>
<event>
 5   0  0.5766027E-04  0.1287734E+04  0.7818609E-02  0.9039349E-01
        1   -1    0    0  501    0  0.00000000000E+00  0.00000000000E+00  0.99329029040E+03  0.99329029041E+03  0.50400001928E-02 0.  1.
       -1   -1    0    0    0  501  0.00000000000E+00  0.00000000000E+00 -0.41736498642E+03  0.41736498645E+03  0.50400001928E-02 0. -1.
    10030    2    1    2    0    0  0.00000000000E+00  0.00000000000E+00  0.57592530398E+03  0.14106552769E+04  0.12877338057E+04 0.  0.
        3    1    3    3  502    0  0.41163027784E+03 -0.49125246799E+03  0.22046884345E+03  0.67777208121E+03  0.10100000352E+00 0. -1.
       -3    1    3    3    0  502 -0.41163027784E+03  0.49125246799E+03  0.35545646053E+03  0.73288319565E+03  0.10100000352E+00 0.  1.
</event>
<event>
 5   0  0.1046253E-03  0.1296634E+04  0.7818609E-02  0.9032239E-01
        2   -1    0    0  501    0  0.00000000000E+00  0.00000000000E+00  0.27714929526E+04  0.27714929527E+04  0.25500000920E-02 0.  1.
       -2   -1    0    0    0  501  0.00000000000E+00  0.00000000000E+00 -0.15165650082E+03  0.15165650084E+03  0.25500000920E-02 0. -1.
    10030    2    1    2    0    0  0.00000000000E+00  0.00000000000E+00  0.26198364518E+04  0.29231494535E+04  0.12966339858E+04 0.  0.
        3    1    3    3  502    0  0.51626855154E+03  0.22603008028E+03  0.58747764323E+03  0.81409631248E+03  0.10100000352E+00 0. -1.
       -3    1    3    3    0  502 -0.51626855154E+03 -0.22603008028E+03  0.20323588086E+04  0.21090531410E+04  0.10100000352E+00 0.  1.
</event>
<event>
 5   0  0.1081574E-03  0.1297844E+04  0.7818609E-02  0.9031276E-01
        2   -1    0    0  501    0  0.00000000000E+00  0.00000000000E+00  0.14946874602E+04  0.14946874602E+04  0.25500000920E-02 0.  1.
       -2   -1    0    0    0  501  0.00000000000E+00  0.00000000000E+00 -0.28173112161E+03  0.28173112162E+03  0.25500000920E-02 0. -1.
    10030    2    1    2    0    0  0.00000000000E+00  0.00000000000E+00  0.12129563386E+04  0.17764185819E+04  0.12978443276E+04 0.  0.
        5    1    3    3  502    0  0.29893720924E+03 -0.13590498602E+03  0.13725407830E+04  0.14112844898E+04  0.46999998093E+01 0.  1.
       -5    1    3    3    0  502 -0.29893720924E+03  0.13590498602E+03 -0.15958444435E+03  0.36513409204E+03  0.46999998093E+01 0. -1.
</event>
<event>
 5   0  0.5812938E-04  0.1284415E+04  0.7818609E-02  0.9042016E-01
        1   -1    0    0  501    0  0.00000000000E+00  0.00000000000E+00  0.19075555883E+04  0.19075555883E+04  0.50400001928E-02 0. -1.
       -1   -1    0    0    0  501  0.00000000000E+00  0.00000000000E+00 -0.21620888761E+03  0.21620888767E+03  0.50400001928E-02 0.  1.
    10030    2    1    2    0    0  0.00000000000E+00  0.00000000000E+00  0.16913467007E+04  0.21237644760E+04  0.12844149982E+04 0.  0.
        5    1    3    3  502    0  0.61100660248E+03  0.15134414124E+03  0.63538594886E+03  0.89441126523E+03  0.46999998093E+01 0.  1.
       -5    1    3    3    0  502 -0.61100660248E+03 -0.15134414124E+03  0.10559607518E+04  0.12293532107E+04  0.46999998093E+01 0. -1.
</event>
<event>
 5   0  0.1101619E-03  0.1305428E+04  0.7818609E-02  0.9025272E-01
        2   -1    0    0  501    0  0.00000000000E+00  0.00000000000E+00  0.87961882914E+03  0.87961882914E+03  0.25500000920E-02 0. -1.
       -2   -1    0    0    0  501  0.00000000000E+00  0.00000000000E+00 -0.48434122807E+03  0.48434122807E+03  0.25500000920E-02 0.  1.
    10030    2    1    2    0    0  0.00000000000E+00  0.00000000000E+00  0.39527760107E+03  0.13639600572E+04  0.13054281504E+04 0.  0.
        1    1    3    3  502    0 -0.39499966210E+03  0.23511973562E+02 -0.34472952025E+03  0.52480090331E+03  0.50400001928E-02 0.  1.
       -1    1    3    3    0  502  0.39499966210E+03 -0.23511973562E+02  0.74000712132E+03  0.83915915390E+03  0.50400001928E-02 0. -1.
</event>
<event>
 5   0  0.5710383E-04  0.1300644E+04  0.7818609E-02  0.9029054E-01
       -1   -1    0    0    0  501  0.00000000000E+00  0.00000000000E+00  0.73591247494E+03  0.73591247495E+03  0.50400001928E-02 0.  1.
        1   -1    0    0  501    0  0.00000000000E+00  0.00000000000E+00 -0.57468632474E+03  0.57468632476E+03  0.50400001928E-02 0. -1.
    10030    2    1    2    0    0  0.00000000000E+00  0.00000000000E+00  0.16122615020E+03  0.13105987997E+04  0.13006442028E+04 0.  0.
        1    1    3    3  502    0 -0.53950288675E+03  0.35154318953E+03  0.17226445443E+03  0.66657409281E+03  0.50400001928E-02 0.  1.
       -1    1    3    3    0  502  0.53950288675E+03 -0.35154318953E+03 -0.11038304235E+02  0.64402470691E+03  0.50400001928E-02 0. -1.
</event>
<event>
 5   0  0.1046253E-03  0.1297411E+04  0.7818609E-02  0.9031620E-01
        2   -1    0    0  501    0  0.00000000000E+00  0.00000000000E+00  0.10114729206E+04  0.10114729206E+04  0.25500000920E-02 0.  1.
       -2   -1    0    0    0  501  0.00000000000E+00  0.00000000000E+00 -0.41604583532E+03  0.41604583532E+03  0.25500000920E-02 0. -1.
    10030    2    1    2    0    0  0.00000000000E+00  0.00000000000E+00  0.59542708529E+03  0.14275187559E+04  0.12974114169E+04 0.  0.
        3    1    3    3  502    0  0.13842464094E+03 -0.23624414105E+03  0.94477531668E+03  0.98365292894E+03  0.10100000352E+00 0.  1.
       -3    1    3    3    0  502 -0.13842464094E+03  0.23624414105E+03 -0.34934823139E+03  0.44386582700E+03  0.10100000352E+00 0. -1.
</event>
<event>
 5   0  0.1103241E-03  0.1294014E+04  0.7818609E-02  0.9034325E-01
        2   -1    0    0  501    0  0.00000000000E+00  0.00000000000E+00  0.11764274646E+04  0.11764274646E+04  0.25500000920E-02 0.  1.
       -2   -1    0    0    0  501  0.00000000000E+00  0.00000000000E+00 -0.35583866169E+03  0.35583866170E+03  0.25500000920E-02 0. -1.
    10030    2    1    2    0    0  0.00000000000E+00  0.00000000000E+00  0.82058880293E+03  0.15322661263E+04  0.12940144892E+04 0.  0.
        4    1    3    3  502    0 -0.29058514818E+03 -0.27403948848E+03  0.10130087023E+04  0.10889102871E+04  0.12699999809E+01 0.  1.
       -4    1    3    3    0  502  0.29058514818E+03  0.27403948848E+03 -0.19241989935E+03  0.44335583921E+03  0.12699999809E+01 0. -1.
</event>
<event>
 5   0  0.1031295E-03  0.1303431E+04  0.7818609E-02  0.9026849E-01
       -2   -1    0    0    0  501  0.00000000000E+00  0.00000000000E+00  0.67121644862E+03  0.67121644862E+03  0.25500000920E-02 0.  1.
        2   -1    0    0  501    0  0.00000000000E+00  0.00000000000E+00 -0.63278068696E+03  0.63278068697E+03  0.25500000920E-02 0. -1.
    10030    2    1    2    0    0  0.00000000000E+00  0.00000000000E+00  0.38435761654E+02  0.13039971356E+04  0.13034305589E+04 0.  0.
        2    1    3    3  502    0  0.28796823934E+03  0.56032599434E+03  0.18614926972E+03  0.65691892759E+03  0.25500000920E-02 0.  1.
       -2    1    3    3    0  502 -0.28796823934E+03 -0.56032599434E+03 -0.14771350806E+03  0.64707820800E+03  0.25500000920E-02 0. -1.
</event>
<event>
 5   0  0.1031295E-03  0.1320189E+04  0.7818609E-02  0.9013707E-01
       -2   -1    0    0    0  501  0.00000000000E+00  0.00000000000E+00  0.39100868823E+03  0.39100868824E+03  0.25500000920E-02 0. -1.
        2   -1    0    0  501    0  0.00000000000E+00  0.00000000000E+00 -0.11143602454E+04  0.11143602454E+04  0.25500000920E-02 0.  1.
    10030    2    1    2    0    0  0.00000000000E+00  0.00000000000E+00 -0.72335155722E+03  0.15053689337E+04  0.13201886801E+04 0.  0.
        2    1    3    3  502    0 -0.15860594263E+03  0.31671472364E+03  0.27346525619E+03  0.44749000833E+03  0.25500000920E-02 0. -1.
       -2    1    3    3    0  502  0.15860594263E+03 -0.31671472364E+03 -0.99681681340E+03  0.10578789253E+04  0.25500000920E-02 0.  1.
</event>
<event>
 5   0  0.1101619E-03  0.1183591E+04  0.7818609E-02  0.9127342E-01
       -2   -1    0    0    0  501  0.00000000000E+00  0.00000000000E+00  0.24726021797E+03  0.24726021798E+03  0.25500000920E-02 0. -1.
        2   -1    0    0  501    0  0.00000000000E+00  0.00000000000E+00 -0.14164099366E+04  0.14164099366E+04  0.25500000920E-02 0.  1.
    10030    2    1    2    0    0  0.00000000000E+00  0.00000000000E+00 -0.11691497186E+04  0.16636701546E+04  0.11835908578E+04 0.  0.
        1    1    3    3  502    0  0.57118729534E+03  0.15316341733E+03 -0.61625173042E+03  0.85409610351E+03  0.50400001928E-02 0. -1.
       -1    1    3    3    0  502 -0.57118729534E+03 -0.15316341733E+03 -0.55289798822E+03  0.80957405107E+03  0.50400001928E-02 0.  1.
</event>
<event>
 5   0  0.5812938E-04  0.1290810E+04  0.7818609E-02  0.9036885E-01
        1   -1    0    0  501    0  0.00000000000E+00  0.00000000000E+00  0.62224618717E+03  0.62224618719E+03  0.50400001928E-02 0. -1.
       -1   -1    0    0    0  501  0.00000000000E+00  0.00000000000E+00 -0.66942589287E+03  0.66942589288E+03  0.50400001928E-02 0.  1.
    10030    2    1    2    0    0  0.00000000000E+00  0.00000000000E+00 -0.47179705691E+02  0.12916720801E+04  0.12908101479E+04 0.  0.
        5    1    3    3  502    0 -0.16772933540E+03  0.25302511044E+03  0.54632603714E+03  0.62501925196E+03  0.46999998093E+01 0. -1.
       -5    1    3    3    0  502  0.16772933540E+03 -0.25302511044E+03 -0.59350574283E+03  0.66665282812E+03  0.46999998093E+01 0.  1.
</event>
<event>
 5   0  0.5710383E-04  0.1287958E+04  0.7818609E-02  0.9039170E-01
        1   -1    0    0  501    0  0.00000000000E+00  0.00000000000E+00  0.82818356796E+03  0.82818356798E+03  0.50400001928E-02 0.  1.
       -1   -1    0    0    0  501  0.00000000000E+00  0.00000000000E+00 -0.50074505807E+03  0.50074505809E+03  0.50400001928E-02 0. -1.
    10030    2    1    2    0    0  0.00000000000E+00  0.00000000000E+00  0.32743850990E+03  0.13289286261E+04  0.12879578081E+04 0.  0.
        1    1    3    3  502    0 -0.43410655031E+03  0.39822246539E+03 -0.10470862916E+03  0.59832560200E+03  0.50400001928E-02 0. -1.
       -1    1    3    3    0  502  0.43410655031E+03 -0.39822246539E+03  0.43214713906E+03  0.73060302407E+03  0.50400001928E-02 0.  1.
</event>
<event>
 5   0  0.1101619E-03  0.1258206E+04  0.7818609E-02  0.9063381E-01
       -2   -1    0    0    0  501  0.00000000000E+00  0.00000000000E+00  0.40536147422E+03  0.40536147422E+03  0.25500000920E-02 0.  1.
        2   -1    0    0  501    0  0.00000000000E+00  0.00000000000E+00 -0.97634023039E+03  0.97634023040E+03  0.25500000920E-02 0. -1.
    10030    2    1    2    0    0  0.00000000000E+00  0.00000000000E+00 -0.57097875618E+03  0.13817017046E+04  0.12582062075E+04 0.  0.
        1    1    3    3  502    0 -0.18204604133E+03 -0.53889988579E+03 -0.58059792774E+03  0.81280243712E+03  0.50400001928E-02 0. -1.
       -1    1    3    3    0  502  0.18204604133E+03  0.53889988579E+03  0.96191715624E+01  0.56889926750E+03  0.50400001928E-02 0.  1.
</event>
<event>
 5   0  0.5563545E-04  0.1289733E+04  0.7818609E-02  0.9037747E-01
       -1   -1    0    0    0  501  0.00000000000E+00  0.00000000000E+00  0.66638250554E+03  0.66638250556E+03  0.50400001928E-02 0.  1.
        1   -1    0    0  501    0  0.00000000000E+00  0.00000000000E+00 -0.62404528694E+03  0.62404528696E+03  0.50400001928E-02 0. -1.
    10030    2    1    2    0    0  0.00000000000E+00  0.00000000000E+00  0.42337218603E+02  0.12904277925E+04  0.12897330916E+04 0.  0.
        2    1    3    3  502    0 -0.17057083694E+03 -0.41167916023E+02 -0.59970060939E+03  0.62484400344E+03  0.25500000920E-02 0. -1.
       -2    1    3    3    0  502  0.17057083694E+03  0.41167916023E+02  0.64203782799E+03  0.66558378909E+03  0.25500000920E-02 0.  1.
</event>
<event>
 5   0  0.5766027E-04  0.1303587E+04  0.7818609E-02  0.9026725E-01
        1   -1    0    0  501    0  0.00000000000E+00  0.00000000000E+00  0.70580102482E+03  0.70580102483E+03  0.50400001928E-02 0. -1.
       -1   -1    0    0    0  501  0.00000000000E+00  0.00000000000E+00 -0.60191886532E+03  0.60191886534E+03  0.50400001928E-02 0.  1.
    10030    2    1    2    0    0  0.00000000000E+00  0.00000000000E+00  0.10388215949E+03  0.13077198902E+04  0.13035872844E+04 0.  0.
        3    1    3    3  502    0 -0.39072512725E+03 -0.17711857849E+02  0.57499126664E+03  0.69540980859E+03  0.10100000352E+00 0. -1.
       -3    1    3    3    0  502  0.39072512725E+03  0.17711857849E+02 -0.47110910715E+03  0.61231008158E+03  0.10100000352E+00 0.  1.
</event>
<event>
 5   0  0.6006119E-04  0.1301001E+04  0.7818609E-02  0.9028771E-01
       -1   -1    0    0    0  501  0.00000000000E+00  0.00000000000E+00  0.39371212540E+03  0.39371212543E+03  0.50400001928E-02 0.  1.
        1   -1    0    0  501    0  0.00000000000E+00  0.00000000000E+00 -0.10747730546E+04  0.10747730546E+04  0.50400001928E-02 0. -1.
    10030    2    1    2    0    0  0.00000000000E+00  0.00000000000E+00 -0.68106092923E+03  0.14684851801E+04  0.13010014353E+04 0.  0.
        4    1    3    3  502    0 -0.19195193821E+03 -0.61677349079E+03 -0.42718967661E+03  0.77443380494E+03  0.12699999809E+01 0.  1.
       -4    1    3    3    0  502  0.19195193821E+03  0.61677349079E+03 -0.25387125262E+03  0.69405137514E+03  0.12699999809E+01 0. -1.
</event>
<event>
 5   0  0.1101619E-03  0.1279601E+04  0.7818609E-02  0.9045900E-01
       -2   -1    0    0    0  501  0.00000000000E+00  0.00000000000E+00  0.26012973206E+03  0.26012973208E+03  0.25500000920E-02 0.  1.
        2   -1    0    0  501    0  0.00000000000E+00  0.00000000000E+00 -0.15736180227E+04  0.15736180227E+04  0.25500000920E-02 0. -1.
    10030    2    1    2    0    0  0.00000000000E+00  0.00000000000E+00 -0.13134882906E+04  0.18337477547E+04  0.12796012420E+04 0.  0.
        1    1    3    3  502    0  0.18786373658E+03 -0.55508423623E+03 -0.10247190020E+04  0.11804492052E+04  0.50400001928E-02 0. -1.
       -1    1    3    3    0  502 -0.18786373658E+03  0.55508423623E+03 -0.28876928858E+03  0.65329854958E+03  0.50400001928E-02 0.  1.
</event>
<event>
 5   0  0.5563545E-04  0.1307573E+04  0.7818609E-02  0.9023581E-01
        1   -1    0    0  501    0  0.00000000000E+00  0.00000000000E+00  0.15303469809E+04  0.15303469809E+04  0.50400001928E-02 0. -1.
       -1   -1    0    0    0  501  0.00000000000E+00  0.00000000000E+00 -0.27930717289E+03  0.27930717293E+03  0.50400001928E-02 0.  1.
    10030    2    1    2    0    0  0.00000000000E+00  0.00000000000E+00  0.12510398080E+04  0.18096541539E+04  0.13075731549E+04 0.  0.
        2    1    3    3  502    0 -0.14267569375E+03 -0.56262046086E+03  0.20908527086E+03  0.61693985693E+03  0.25500000920E-02 0.  1.
       -2    1    3    3    0  502  0.14267569375E+03  0.56262046086E+03  0.10419545372E+04  0.11927142969E+04  0.25500000920E-02 0. -1.
</event>
<event>
 5   0  0.5766027E-04  0.1297000E+04  0.7818609E-02  0.9031947E-01
       -1   -1    0    0    0  501  0.00000000000E+00  0.00000000000E+00  0.71916216300E+03  0.71916216301E+03  0.50400001928E-02 0.  1.
        1   -1    0    0  501    0  0.00000000000E+00  0.00000000000E+00 -0.58478102004E+03  0.58478102006E+03  0.50400001928E-02 0. -1.
    10030    2    1    2    0    0  0.00000000000E+00  0.00000000000E+00  0.13438114296E+03  0.13039431831E+04  0.12970002055E+04 0.  0.
        3    1    3    3  502    0 -0.24906452268E+03  0.13507146222E+03  0.65364410083E+03  0.71241003440E+03  0.10100000352E+00 0.  1.
       -3    1    3    3    0  502  0.24906452268E+03 -0.13507146222E+03 -0.51926295787E+03  0.59153314867E+03  0.10100000352E+00 0. -1.
</event>
<event>
 5   0  0.5812938E-04  0.1282454E+04  0.7818609E-02  0.9043596E-01
       -1   -1    0    0    0  501  0.00000000000E+00  0.00000000000E+00  0.27445272570E+03  0.27445272575E+03  0.50400001928E-02 0.  1.
        1   -1    0    0  501    0  0.00000000000E+00  0.00000000000E+00 -0.14981523299E+04  0.14981523299E+04  0.50400001928E-02 0. -1.
    10030    2    1    2    0    0  0.00000000000E+00  0.00000000000E+00 -0.12236996042E+04  0.17726050556E+04  0.12824538830E+04 0.  0.
        5    1    3    3  502    0 -0.30896747264E+03  0.50555130813E+03 -0.95071916467E+03  0.11202374946E+04  0.46999998093E+01 0. -1.
       -5    1    3    3    0  502  0.30896747264E+03 -0.50555130813E+03 -0.27298043950E+03  0.65236756100E+03  0.46999998093E+01 0.  1.
</event>
<event>
 5   0  0.1101619E-03  0.1303210E+04  0.7818609E-02  0.9027024E-01
        2   -1    0    0  501    0  0.00000000000E+00  0.00000000000E+00  0.15341436453E+04  0.15341436453E+04  0.25500000920E-02 0.  1.
       -2   -1    0    0    0  501  0.00000000000E+00  0.00000000000E+00 -0.27675945986E+03  0.27675945987E+03  0.25500000920E-02 0. -1.
    10030    2    1    2    0    0  0.00000000000E+00  0.00000000000E+00  0.12573841855E+04  0.18109031052E+04  0.13032095252E+04 0.  0.
        1    1    3    3  502    0 -0.60923625262E+02 -0.49648480823E+03  0.12089608621E+04  0.13083559221E+04  0.50400001928E-02 0.  1.
       -1    1    3    3    0  502  0.60923625262E+02  0.49648480823E+03  0.48423323376E+02  0.50254718305E+03  0.50400001928E-02 0. -1.
</event>
<event>
 5   0  0.4012375E-04  0.1307932E+04  0.7818609E-02  0.9023299E-01
       -3   -1    0    0    0  501  0.00000000000E+00  0.00000000000E+00  0.79075943420E+03  0.79075944065E+03  0.10100000352E+00 0.  1.
        3   -1    0    0  501    0  0.00000000000E+00  0.00000000000E+00 -0.54083644333E+03  0.54083645276E+03  0.10100000352E+00 0. -1.
    10030    2    1    2    0    0  0.00000000000E+00  0.00000000000E+00  0.24992299087E+03  0.13315958934E+04  0.13079320020E+04 0.  0.
        1    1    3    3  502    0  0.19288071747E+03  0.57303448272E+02 -0.50853829040E+03  0.54689839018E+03  0.50400001928E-02 0. -1.
       -1    1    3    3    0  502 -0.19288071747E+03 -0.57303448272E+02  0.75846128127E+03  0.78469750323E+03  0.50400001928E-02 0.  1.
</event>
<event>
 5   0  0.5812938E-04  0.1278885E+04  0.7818609E-02  0.9046479E-01
       -1   -1    0    0    0  501  0.00000000000E+00  0.00000000000E+00  0.12349511392E+04  0.12349511392E+04  0.50400001928E-02 0. -1.
        1   -1    0    0  501    0  0.00000000000E+00  0.00000000000E+00 -0.33109543672E+03  0.33109543676E+03  0.50400001928E-02 0.  1.
    10030    2    1    2    0    0  0.00000000000E+00  0.00000000000E+00  0.90385570243E+03  0.15660465759E+04  0.12788849624E+04 0.  0.
        5    1    3    3  502    0 -0.13942326435E+03  0.17736010181E+03  0.11845769004E+04  0.12058772638E+04  0.46999998093E+01 0. -1.
       -5    1    3    3    0  502  0.13942326435E+03 -0.17736010181E+03 -0.28072119802E+03  0.36016931209E+03  0.46999998093E+01 0.  1.
</event>
<event>
 5   0  0.1031295E-03  0.1296198E+04  0.7818609E-02  0.9032585E-01
       -2   -1    0    0    0  501  0.00000000000E+00  0.00000000000E+00  0.30895635000E+03  0.30895635001E+03  0.25500000920E-02 0.  1.
        2   -1    0    0  501    0  0.00000000000E+00  0.00000000000E+00 -0.13595208270E+04  0.13595208270E+04  0.25500000920E-02 0. -1.
    10030    2    1    2    0    0  0.00000000000E+00  0.00000000000E+00 -0.10505644770E+04  0.16684771770E+04  0.12961984300E+04 0.  0.
        2    1    3    3  502    0 -0.36834697713E+03 -0.50234690193E+03 -0.75554750342E+03  0.97922619214E+03  0.25500000920E-02 0. -1.
       -2    1    3    3    0  502  0.36834697713E+03  0.50234690193E+03 -0.29501697360E+03  0.68925098488E+03  0.25500000920E-02 0.  1.
</event>
<event>
 5   0  0.5563545E-04  0.1300571E+04  0.7818609E-02  0.9029113E-01
       -1   -1    0    0    0  501  0.00000000000E+00  0.00000000000E+00  0.86849083790E+03  0.86849083792E+03  0.50400001928E-02 0.  1.
        1   -1    0    0  501    0  0.00000000000E+00  0.00000000000E+00 -0.48690337949E+03  0.48690337951E+03  0.50400001928E-02 0. -1.
    10030    2    1    2    0    0  0.00000000000E+00  0.00000000000E+00  0.38158745842E+03  0.13553942174E+04  0.13005708348E+04 0.  0.
        2    1    3    3  502    0  0.37239377034E+03  0.11218992178E+03  0.73392203486E+03  0.83060535274E+03  0.25500000920E-02 0.  1.
       -2    1    3    3    0  502 -0.37239377034E+03 -0.11218992178E+03 -0.35233457645E+03  0.52478886469E+03  0.25500000920E-02 0. -1.
</event>
<event>
 5   0  0.1081574E-03  0.1290481E+04  0.7818609E-02  0.9037148E-01
        2   -1    0    0  501    0  0.00000000000E+00  0.00000000000E+00  0.17360037020E+04  0.17360037020E+04  0.25500000920E-02 0.  1.
       -2   -1    0    0    0  501  0.00000000000E+00  0.00000000000E+00 -0.23982409784E+03  0.23982409785E+03  0.25500000920E-02 0. -1.
    10030    2    1    2    0    0  0.00000000000E+00  0.00000000000E+00  0.14961796041E+04  0.19758277998E+04  0.12904813392E+04 0.  0.
        5    1    3    3  502    0  0.29382471217E+03  0.46243685059E+03  0.22632534373E+03  0.59281198830E+03  0.46999998093E+01 0. -1.
       -5    1    3    3    0  502 -0.29382471217E+03 -0.46243685059E+03  0.12698542604E+04  0.13830158115E+04  0.46999998093E+01 0.  1.
</event>
<event>
 5   0  0.1103241E-03  0.1294288E+04  0.7818609E-02  0.9034107E-01
        2   -1    0    0  501    0  0.00000000000E+00  0.00000000000E+00  0.78140454273E+03  0.78140454274E+03  0.25500000920E-02 0. -1.
       -2   -1    0    0    0  501  0.00000000000E+00  0.00000000000E+00 -0.53595173735E+03  0.53595173736E+03  0.25500000920E-02 0.  1.
    10030    2    1    2    0    0  0.00000000000E+00  0.00000000000E+00  0.24545280538E+03  0.13173562801E+04  0.12942876377E+04 0.  0.
        4    1    3    3  502    0 -0.19810843314E+03  0.43191341924E+03 -0.32441833412E+03  0.57536512009E+03  0.12699999809E+01 0.  1.
       -4    1    3    3    0  502  0.19810843314E+03 -0.43191341924E+03  0.56987113950E+03  0.74199116001E+03  0.12699999809E+01 0. -1.
</event>
<event>
 5   0  0.1103241E-03  0.1301838E+04  0.7818609E-02  0.9028109E-01
        2   -1    0    0  501    0  0.00000000000E+00  0.00000000000E+00  0.74573898753E+03  0.74573898753E+03  0.25500000920E-02 0.  1.
       -2   -1    0    0    0  501  0.00000000000E+00  0.00000000000E+00 -0.56815515059E+03  0.56815515060E+03  0.25500000920E-02 0. -1.
    10030    2    1    2    0    0  0.00000000000E+00  0.00000000000E+00  0.17758383694E+03  0.13138941381E+04  0.13018378498E+04 0.  0.
        4    1    3    3  502    0  0.46124207482E+03 -0.41365739198E+03 -0.11264894790E+03  0.62972064273E+03  0.12699999809E+01 0. -1.
       -4    1    3    3    0  502 -0.46124207482E+03  0.41365739198E+03  0.29023278483E+03  0.68417349540E+03  0.12699999809E+01 0.  1.
</event>
<event>
 5   0  0.5812938E-04  0.1304561E+04  0.7818609E-02  0.9025956E-01
        1   -1    0    0  501    0  0.00000000000E+00  0.00000000000E+00  0.62725895862E+03  0.62725895864E+03  0.50400001928E-02 0. -1.
       -1   -1    0    0    0  501  0.00000000000E+00  0.00000000000E+00 -0.67829975299E+03  0.67829975301E+03  0.50400001928E-02 0.  1.
    10030    2    1    2    0    0  0.00000000000E+00  0.00000000000E+00 -0.51040794373E+02  0.13055587116E+04  0.13045606107E+04 0.  0.
        5    1    3    3  502    0 -0.21745165132E+03  0.35606532555E+03  0.47624107145E+03  0.63316300022E+03  0.46999998093E+01 0. -1.
       -5    1    3    3    0  502  0.21745165132E+03 -0.35606532555E+03 -0.52728186582E+03  0.67239571142E+03  0.46999998093E+01 0.  1.
</event>
<event>
 5   0  0.5812938E-04  0.1300048E+04  0.7818609E-02  0.9029527E-01
       -1   -1    0    0    0  501  0.00000000000E+00  0.00000000000E+00  0.11012010798E+04  0.11012010798E+04  0.50400001928E-02 0. -1.
        1   -1    0    0  501    0  0.00000000000E+00  0.00000000000E+00 -0.38370013940E+03  0.38370013943E+03  0.50400001928E-02 0.  1.
    10030    2    1    2    0    0  0.00000000000E+00  0.00000000000E+00  0.71750094041E+03  0.14849012193E+04  0.13000477035E+04 0.  0.
        5    1    3    3  502    0 -0.35819622840E+03 -0.20983133603E+03 -0.21254449248E+03  0.46640216434E+03  0.46999998093E+01 0.  1.
       -5    1    3    3    0  502  0.35819622840E+03  0.20983133603E+03  0.93004543289E+03  0.10184990549E+04  0.46999998093E+01 0. -1.
</event>
<event>
 5   0  0.5812938E-04  0.1308696E+04  0.7818609E-02  0.9022697E-01
       -1   -1    0    0    0  501  0.00000000000E+00  0.00000000000E+00  0.53143519589E+03  0.53143519592E+03  0.50400001928E-02 0. -1.
        1   -1    0    0  501    0  0.00000000000E+00  0.00000000000E+00 -0.80568882399E+03  0.80568882401E+03  0.50400001928E-02 0.  1.
    10030    2    1    2    0    0  0.00000000000E+00  0.00000000000E+00 -0.27425362810E+03  0.13371240199E+04  0.13086961420E+04 0.  0.
        5    1    3    3  502    0 -0.30834431584E+03 -0.36134873264E+03  0.32264842600E+03  0.57425884450E+03  0.46999998093E+01 0. -1.
       -5    1    3    3    0  502  0.30834431584E+03  0.36134873264E+03 -0.59690205409E+03  0.76286517542E+03  0.46999998093E+01 0.  1.
</event>
<event>
 5   0  0.1101619E-03  0.1258954E+04  0.7818609E-02  0.9062764E-01
       -2   -1    0    0    0  501  0.00000000000E+00  0.00000000000E+00  0.37474911796E+03  0.37474911796E+03  0.25500000920E-02 0. -1.
        2   -1    0    0  501    0  0.00000000000E+00  0.00000000000E+00 -0.10573509751E+04  0.10573509751E+04  0.25500000920E-02 0.  1.
    10030    2    1    2    0    0  0.00000000000E+00  0.00000000000E+00 -0.68260185715E+03  0.14321000931E+04  0.12589540822E+04 0.  0.
        1    1    3    3  502    0 -0.28165429525E+03  0.40154237766E+03 -0.79012300032E+03  0.92997837542E+03  0.50400001928E-02 0.  1.
       -1    1    3    3    0  502  0.28165429525E+03 -0.40154237766E+03  0.10752114317E+03  0.50212171766E+03  0.50400001928E-02 0. -1.
</event>
<event>
 5   0  0.1081574E-03  0.1301486E+04  0.7818609E-02  0.9028387E-01
       -2   -1    0    0    0  501  0.00000000000E+00  0.00000000000E+00  0.39110905675E+03  0.39110905676E+03  0.25500000920E-02 0. -1.
        2   -1    0    0  501    0  0.00000000000E+00  0.00000000000E+00 -0.10827328510E+04  0.10827328510E+04  0.25500000920E-02 0.  1.
    10030    2    1    2    0    0  0.00000000000E+00  0.00000000000E+00 -0.69162379423E+03  0.14738419077E+04  0.13014862643E+04 0.  0.
        5    1    3    3  502    0  0.19796831366E+02  0.61012216486E+03 -0.90566217295E+02  0.61714285243E+03  0.46999998093E+01 0. -1.
       -5    1    3    3    0  502 -0.19796831366E+02 -0.61012216486E+03 -0.60105757693E+03  0.85669905531E+03  0.46999998093E+01 0.  1.
</event>
<event>
 5   0  0.5766027E-04  0.1299059E+04  0.7818609E-02  0.9030312E-01
        1   -1    0    0  501    0  0.00000000000E+00  0.00000000000E+00  0.14621180955E+04  0.14621180955E+04  0.50400001928E-02 0. -1.
       -1   -1    0    0    0  501  0.00000000000E+00  0.00000000000E+00 -0.28854604103E+03  0.28854604108E+03  0.50400001928E-02 0.  1.
    10030    2    1    2    0    0  0.00000000000E+00  0.00000000000E+00  0.11735720544E+04  0.17506641366E+04  0.12990587177E+04 0.  0.
        3    1    3    3  502    0 -0.18898743143E+03  0.59338066627E+03  0.83553985148E+03  0.10420862335E+04  0.10100000352E+00 0. -1.
       -3    1    3    3    0  502  0.18898743143E+03 -0.59338066627E+03  0.33803220296E+03  0.70857790311E+03  0.10100000352E+00 0.  1.
</event>
<event>
 5   0  0.1103241E-03  0.1308408E+04  0.7818609E-02  0.9022924E-01
        2   -1    0    0  501    0  0.00000000000E+00  0.00000000000E+00  0.64048199621E+03  0.64048199622E+03  0.25500000920E-02 0.  1.
       -2   -1    0    0    0  501  0.00000000000E+00  0.00000000000E+00 -0.66821955170E+03  0.66821955170E+03  0.25500000920E-02 0. -1.
    10030    2    1    2    0    0  0.00000000000E+00  0.00000000000E+00 -0.27737555485E+02  0.13087015479E+04  0.13084075701E+04 0.  0.
        4    1    3    3  502    0  0.10771169002E+03  0.32179142937E+03 -0.57330602930E+03  0.66620788671E+03  0.12699999809E+01 0. -1.
       -4    1    3    3    0  502 -0.10771169002E+03 -0.32179142937E+03  0.54556847381E+03  0.64249366121E+03  0.12699999809E+01 0.  1.
</event>
<event>
 5   0  0.1101619E-03  0.1300028E+04  0.7818609E-02  0.9029543E-01
        2   -1    0    0  501    0  0.00000000000E+00  0.00000000000E+00  0.13257335305E+04  0.13257335305E+04  0.25500000920E-02 0. -1.
       -2   -1    0    0    0  501  0.00000000000E+00  0.00000000000E+00 -0.31870527409E+03  0.31870527410E+03  0.25500000920E-02 0.  1.
    10030    2    1    2    0    0  0.00000000000E+00  0.00000000000E+00  0.10070282564E+04  0.16444388046E+04  0.13000281047E+04 0.  0.
        1    1    3    3  502    0  0.63494931172E+03 -0.66135846221E+02  0.34867726694E+03  0.72739976293E+03  0.50400001928E-02 0.  1.
       -1    1    3    3    0  502 -0.63494931172E+03  0.66135846221E+02  0.65835098949E+03  0.91703904170E+03  0.50400001928E-02 0. -1.
</event>
<event>
 5   0  0.5710383E-04  0.1299060E+04  0.7818609E-02  0.9030311E-01
       -1   -1    0    0    0  501  0.00000000000E+00  0.00000000000E+00  0.84801325159E+03  0.84801325161E+03  0.50400001928E-02 0.  1.
        1   -1    0    0  501    0  0.00000000000E+00  0.00000000000E+00 -0.49750291974E+03  0.49750291976E+03  0.50400001928E-02 0. -1.
    10030    2    1    2    0    0  0.00000000000E+00  0.00000000000E+00  0.35051033185E+03  0.13455161714E+04  0.12990597656E+04 0.  0.
        1    1    3    3  502    0 -0.10368730263E+03  0.99697836723E+01 -0.48879532438E+03  0.49977127016E+03  0.50400001928E-02 0. -1.
       -1    1    3    3    0  502  0.10368730263E+03 -0.99697836723E+01  0.83930565623E+03  0.84574490121E+03  0.50400001928E-02 0.  1.
</event>
<event>
 5   0  0.1046253E-03  0.1303536E+04  0.7818609E-02  0.9026766E-01
        2   -1    0    0  501    0  0.00000000000E+00  0.00000000000E+00  0.94136148533E+03  0.94136148533E+03  0.25500000920E-02 0.  1.
       -2   -1    0    0    0  501  0.00000000000E+00  0.00000000000E+00 -0.45126298202E+03  0.45126298202E+03  0.25500000920E-02 0. -1.
    10030    2    1    2    0    0  0.00000000000E+00  0.00000000000E+00  0.49009850332E+03  0.13926244674E+04  0.13035361000E+04 0.  0.
        3    1    3    3  502    0  0.47771107494E+02 -0.60007101178E+03 -0.21896197963E+02  0.60236762162E+03  0.10100000352E+00 0. -1.
       -3    1    3    3    0  502 -0.47771107494E+02  0.60007101178E+03  0.51199470128E+03  0.79025684573E+03  0.10100000352E+00 0.  1.
</event>
<event>
 5   0  0.5766027E-04  0.1278708E+04  0.7818609E-02  0.9046622E-01
        1   -1    0    0  501    0  0.00000000000E+00  0.00000000000E+00  0.99358406562E+03  0.99358406564E+03  0.50400001928E-02 0. -1.
       -1   -1    0    0    0  501  0.00000000000E+00  0.00000000000E+00 -0.41141341605E+03  0.41141341608E+03  0.50400001928E-02 0.  1.
    10030    2    1    2    0    0  0.00000000000E+00  0.00000000000E+00  0.58217064957E+03  0.14049974817E+04  0.12787084337E+04 0.  0.
        3    1    3    3  502    0  0.10215122332E+03  0.52436128673E+02  0.98216215194E+03  0.98885131487E+03  0.10100000352E+00 0. -1.
       -3    1    3    3    0  502 -0.10215122332E+03 -0.52436128673E+02 -0.39999150236E+03  0.41614616685E+03  0.10100000352E+00 0.  1.
</event>
<event>
 5   0  0.5812938E-04  0.1290400E+04  0.7818609E-02  0.9037213E-01
       -1   -1    0    0    0  501  0.00000000000E+00  0.00000000000E+00  0.52951854441E+03  0.52951854444E+03  0.50400001928E-02 0. -1.
        1   -1    0    0  501    0  0.00000000000E+00  0.00000000000E+00 -0.78615337836E+03  0.78615337838E+03  0.50400001928E-02 0.  1.
    10030    2    1    2    0    0  0.00000000000E+00  0.00000000000E+00 -0.25663483395E+03  0.13156719228E+04  0.12903996166E+04 0.  0.
        5    1    3    3  502    0  0.25247862543E+03 -0.46249601295E+03  0.25128141582E+03  0.58379145097E+03  0.46999998093E+01 0. -1.
       -5    1    3    3    0  502 -0.25247862543E+03  0.46249601295E+03 -0.50791624977E+03  0.73188047185E+03  0.46999998093E+01 0.  1.
</event>
<event>
 5   0  0.5710383E-04  0.1289668E+04  0.7818609E-02  0.9037799E-01
        1   -1    0    0  501    0  0.00000000000E+00  0.00000000000E+00  0.10056968742E+04  0.10056968742E+04  0.50400001928E-02 0.  1.
       -1   -1    0    0    0  501  0.00000000000E+00  0.00000000000E+00 -0.41345550507E+03  0.41345550510E+03  0.50400001928E-02 0. -1.
    10030    2    1    2    0    0  0.00000000000E+00  0.00000000000E+00  0.59224136911E+03  0.14191523793E+04  0.12896680334E+04 0.  0.
        1    1    3    3  502    0  0.38660402510E+03 -0.46266844857E+03  0.54774024527E+03  0.81458218851E+03  0.50400001928E-02 0. -1.
       -1    1    3    3    0  502 -0.38660402510E+03  0.46266844857E+03  0.44501123840E+02  0.60457019077E+03  0.50400001928E-02 0.  1.
</event>
<event>
 5   0  0.5710383E-04  0.1298576E+04  0.7818609E-02  0.9030695E-01
       -1   -1    0    0    0  501  0.00000000000E+00  0.00000000000E+00  0.81611204658E+03  0.81611204659E+03  0.50400001928E-02 0.  1.
        1   -1    0    0  501    0  0.00000000000E+00  0.00000000000E+00 -0.51656502620E+03  0.51656502623E+03  0.50400001928E-02 0. -1.
    10030    2    1    2    0    0  0.00000000000E+00  0.00000000000E+00  0.29954702038E+03  0.13326770728E+04  0.12985760521E+04 0.  0.
        1    1    3    3  502    0  0.53614818944E+03 -0.34155714961E+02  0.52397657247E+03  0.75044849418E+03  0.50400001928E-02 0.  1.
       -1    1    3    3    0  502 -0.53614818944E+03  0.34155714961E+02 -0.22442955209E+03  0.58222857864E+03  0.50400001928E-02 0. -1.
</event>
<event>
 5   0  0.1046253E-03  0.1288887E+04  0.7818609E-02  0.9038424E-01
       -2   -1    0    0    0  501  0.00000000000E+00  0.00000000000E+00  0.47339479260E+03  0.47339479260E+03  0.25500000920E-02 0.  1.
        2   -1    0    0  501    0  0.00000000000E+00  0.00000000000E+00 -0.87729644010E+03  0.87729644010E+03  0.25500000920E-02 0. -1.
    10030    2    1    2    0    0  0.00000000000E+00  0.00000000000E+00 -0.40390164750E+03  0.13506912327E+04  0.12888872198E+04 0.  0.
        3    1    3    3  502    0 -0.38712520217E+03  0.37229131595E+03  0.17127412488E+03  0.56373893083E+03  0.10100000352E+00 0.  1.
       -3    1    3    3    0  502  0.38712520217E+03 -0.37229131595E+03 -0.57517577239E+03  0.78695230187E+03  0.10100000352E+00 0. -1.
</event>
<event>
 5   0  0.5710383E-04  0.1299347E+04  0.7818609E-02  0.9030084E-01
       -1   -1    0    0    0  501  0.00000000000E+00  0.00000000000E+00  0.92474614352E+03  0.92474614354E+03  0.50400001928E-02 0. -1.
        1   -1    0    0  501    0  0.00000000000E+00  0.00000000000E+00 -0.45642295505E+03  0.45642295507E+03  0.50400001928E-02 0.  1.
    10030    2    1    2    0    0  0.00000000000E+00  0.00000000000E+00  0.46832318848E+03  0.13811690986E+04  0.12993465550E+04 0.  0.
        1    1    3    3  502    0  0.53392486273E+03  0.38100785887E+01  0.62758347148E+03  0.82398500560E+03  0.50400001928E-02 0. -1.
       -1    1    3    3    0  502 -0.53392486273E+03 -0.38100785887E+01 -0.15926028301E+03  0.55718409302E+03  0.50400001928E-02 0.  1.
</event>
<event>
 5   0  0.5563545E-04  0.1323898E+04  0.7818609E-02  0.9010826E-01
       -1   -1    0    0    0  501  0.00000000000E+00  0.00000000000E+00  0.62082172738E+03  0.62082172740E+03  0.50400001928E-02 0.  1.
        1   -1    0    0  501    0  0.00000000000E+00  0.00000000000E+00 -0.70580049802E+03  0.70580049804E+03  0.50400001928E-02 0. -1.
    10030    2    1    2    0    0  0.00000000000E+00  0.00000000000E+00 -0.84978770636E+02  0.13266222254E+04  0.13238977066E+04 0.  0.
        2    1    3    3  502    0  0.19729969266E+03 -0.24124868216E+03  0.54270575776E+03  0.62582556266E+03  0.25500000920E-02 0.  1.
       -2    1    3    3    0  502 -0.19729969266E+03  0.24124868216E+03 -0.62768452840E+03  0.70079666278E+03  0.25500000920E-02 0. -1.
</event>
<event>
 5   0  0.5812938E-04  0.1300374E+04  0.7818609E-02  0.9029269E-01
        1   -1    0    0  501    0  0.00000000000E+00  0.00000000000E+00  0.45182234710E+03  0.45182234713E+03  0.50400001928E-02 0. -1.
       -1   -1    0    0    0  501  0.00000000000E+00  0.00000000000E+00 -0.93564007144E+03  0.93564007145E+03  0.50400001928E-02 0.  1.
    10030    2    1    2    0    0  0.00000000000E+00  0.00000000000E+00 -0.48381772434E+03  0.13874624186E+04  0.13003739357E+04 0.  0.
        5    1    3    3  502    0  0.14378390238E+03 -0.52879532071E+03 -0.61523117832E+03  0.82391127833E+03  0.46999998093E+01 0.  1.
       -5    1    3    3    0  502 -0.14378390238E+03  0.52879532071E+03  0.13141345398E+03  0.56355114025E+03  0.46999998093E+01 0. -1.
</event>
<event>
 5   0  0.1101619E-03  0.1290270E+04  0.7818609E-02  0.9037317E-01
        2   -1    0    0  501    0  0.00000000000E+00  0.00000000000E+00  0.91602005732E+03  0.91602005732E+03  0.25500000920E-02 0.  1.
       -2   -1    0    0    0  501  0.00000000000E+00  0.00000000000E+00 -0.45435573241E+03  0.45435573242E+03  0.25500000920E-02 0. -1.
    10030    2    1    2    0    0  0.00000000000E+00  0.00000000000E+00  0.46166432490E+03  0.13703757897E+04  0.12902696835E+04 0.  0.
        1    1    3    3  502    0  0.44258881974E+03 -0.41962081967E+03  0.74596278842E+01  0.60993617841E+03  0.50400001928E-02 0. -1.
       -1    1    3    3    0  502 -0.44258881974E+03  0.41962081967E+03  0.45420469702E+03  0.76043961133E+03  0.50400001928E-02 0.  1.
</event>
<event>
 5   0  0.1046253E-03  0.1307323E+04  0.7818609E-02  0.9023778E-01
        2   -1    0    0  501    0  0.00000000000E+00  0.00000000000E+00  0.21572876334E+04  0.21572876334E+04  0.25500000920E-02 0.  1.
       -2   -1    0    0    0  501  0.00000000000E+00  0.00000000000E+00 -0.19806040118E+03  0.19806040120E+03  0.25500000920E-02 0. -1.
    10030    2    1    2    0    0  0.00000000000E+00  0.00000000000E+00  0.19592272322E+04  0.23553480346E+04  0.13073228433E+04 0.  0.
        3    1    3    3  502    0  0.59262068189E+03  0.18216992332E+03  0.60650043311E+03  0.86731075119E+03  0.10100000352E+00 0. -1.
       -3    1    3    3    0  502 -0.59262068189E+03 -0.18216992332E+03  0.13527267991E+04  0.14880372834E+04  0.10100000352E+00 0.  1.
</event>
<event>
 5   0  0.6006119E-04  0.1302940E+04  0.7818609E-02  0.9027237E-01
        1   -1    0    0  501    0  0.00000000000E+00  0.00000000000E+00  0.65362556393E+03  0.65362556395E+03  0.50400001928E-02 0. -1.
       -1   -1    0    0    0  501  0.00000000000E+00  0.00000000000E+00 -0.64932190108E+03  0.64932190110E+03  0.50400001928E-02 0.  1.
    10030    2    1    2    0    0  0.00000000000E+00  0.00000000000E+00  0.43036628513E+01  0.13029474651E+04  0.13029403575E+04 0.  0.
        4    1    3    3  502    0  0.19714678273E+03  0.38628647179E+03 -0.48398628374E+03  0.64986800812E+03  0.12699999809E+01 0.  1.
       -4    1    3    3    0  502 -0.19714678273E+03 -0.38628647179E+03  0.48828994659E+03  0.65307945693E+03  0.12699999809E+01 0. -1.
</event>
<event>
 5   0  0.5563545E-04  0.1300500E+04  0.7818609E-02  0.9029169E-01
        1   -1    0    0  501    0  0.00000000000E+00  0.00000000000E+00  0.12346727170E+04  0.12346727170E+04  0.50400001928E-02 0.  1.
       -1   -1    0    0    0  501  0.00000000000E+00  0.00000000000E+00 -0.34245926765E+03  0.34245926769E+03  0.50400001928E-02 0. -1.
    10030    2    1    2    0    0  0.00000000000E+00  0.00000000000E+00  0.89221344937E+03  0.15771319847E+04  0.13005000800E+04 0.  0.
        2    1    3    3  502    0 -0.18070601034E+03  0.44976007052E+02  0.12016443817E+04  0.12159879619E+04  0.25500000920E-02 0.  1.
       -2    1    3    3    0  502  0.18070601034E+03 -0.44976007052E+02 -0.30943093230E+03  0.36114402287E+03  0.25500000920E-02 0. -1.
</event>
<event>
 5   0  0.6006119E-04  0.1313550E+04  0.7818609E-02  0.9018888E-01
        1   -1    0    0  501    0  0.00000000000E+00  0.00000000000E+00  0.17806982137E+04  0.17806982137E+04  0.50400001928E-02 0.  1.
       -1   -1    0    0    0  501  0.00000000000E+00  0.00000000000E+00 -0.24223848529E+03  0.24223848535E+03  0.50400001928E-02 0. -1.
    10030    2    1    2    0    0  0.00000000000E+00  0.00000000000E+00  0.15384597284E+04  0.20229366990E+04  0.13135503616E+04 0.  0.
        4    1    3    3  502    0  0.42145830622E+03 -0.19223592489E+03  0.52203004314E+02  0.46616362069E+03  0.12699999809E+01 0. -1.
       -4    1    3    3    0  502 -0.42145830622E+03  0.19223592489E+03  0.14862567241E+04  0.15567730783E+04  0.12699999809E+01 0.  1.
</event>
<event>
 5   0  0.5710383E-04  0.1288382E+04  0.7818609E-02  0.9038829E-01
        1   -1    0    0  501    0  0.00000000000E+00  0.00000000000E+00  0.68466595148E+03  0.68466595150E+03  0.50400001928E-02 0. -1.
       -1   -1    0    0    0  501  0.00000000000E+00  0.00000000000E+00 -0.60610892262E+03  0.60610892264E+03  0.50400001928E-02 0.  1.
    10030    2    1    2    0    0  0.00000000000E+00  0.00000000000E+00  0.78557028865E+02  0.12907748741E+04  0.12883821517E+04 0.  0.
        1    1    3    3  502    0 -0.37097129889E+03 -0.47842475716E+03  0.25985139816E+03  0.65881158309E+03  0.50400001928E-02 0. -1.
       -1    1    3    3    0  502  0.37097129889E+03  0.47842475716E+03 -0.18129436930E+03  0.63196329105E+03  0.50400001928E-02 0.  1.
</event>
<event>
 5   0  0.4012375E-04  0.1303360E+04  0.7818609E-02  0.9026905E-01
       -3   -1    0    0    0  501  0.00000000000E+00  0.00000000000E+00  0.22409492497E+03  0.22409494773E+03  0.10100000352E+00 0. -1.
        3   -1    0    0  501    0  0.00000000000E+00  0.00000000000E+00 -0.18951197368E+04  0.18951197394E+04  0.10100000352E+00 0.  1.
    10030    2    1    2    0    0  0.00000000000E+00  0.00000000000E+00 -0.16710248118E+04  0.21192146872E+04  0.13033598769E+04 0.  0.
        4    1    3    3  502    0 -0.84876084963E+02  0.52938104308E+03 -0.14378584227E+04  0.15345640081E+04  0.12699999809E+01 0.  1.
       -4    1    3    3    0  502  0.84876084963E+02 -0.52938104308E+03 -0.23316638912E+03  0.58465067903E+03  0.12699999809E+01 0. -1.
</event>
<event>
 5   0  0.6006119E-04  0.1299918E+04  0.7818609E-02  0.9029630E-01
        1   -1    0    0  501    0  0.00000000000E+00  0.00000000000E+00  0.44850878051E+03  0.44850878054E+03  0.50400001928E-02 0. -1.
       -1   -1    0    0    0  501  0.00000000000E+00  0.00000000000E+00 -0.94189178101E+03  0.94189178102E+03  0.50400001928E-02 0.  1.
    10030    2    1    2    0    0  0.00000000000E+00  0.00000000000E+00 -0.49338300050E+03  0.13904005616E+04  0.12999180499E+04 0.  0.
        4    1    3    3  502    0  0.10137603968E+03 -0.26002276386E+03 -0.87453873179E+03  0.91799158245E+03  0.12699999809E+01 0.  1.
       -4    1    3    3    0  502 -0.10137603968E+03  0.26002276386E+03  0.38115573129E+03  0.47240897911E+03  0.12699999809E+01 0. -1.
</event>
<event>
 5   0  0.1103241E-03  0.1319667E+04  0.7818609E-02  0.9014113E-01
       -2   -1    0    0    0  501  0.00000000000E+00  0.00000000000E+00  0.66927294017E+03  0.66927294017E+03  0.25500000920E-02 0. -1.
        2   -1    0    0  501    0  0.00000000000E+00  0.00000000000E+00 -0.65052694534E+03  0.65052694534E+03  0.25500000920E-02 0.  1.
    10030    2    1    2    0    0  0.00000000000E+00  0.00000000000E+00  0.18745994826E+02  0.13197998855E+04  0.13196667479E+04 0.  0.
        4    1    3    3  502    0  0.10606096410E+02 -0.14925769471E+03 -0.63333335426E+03  0.65077115734E+03  0.12699999809E+01 0.  1.
       -4    1    3    3    0  502 -0.10606096410E+02  0.14925769471E+03  0.65207934909E+03  0.66902872817E+03  0.12699999809E+01 0. -1.
</event>
<event>
 5   0  0.4012375E-04  0.1339866E+04  0.7818609E-02  0.8998535E-01
       -3   -1    0    0    0  501  0.00000000000E+00  0.00000000000E+00  0.10603350274E+04  0.10603350322E+04  0.10100000352E+00 0. -1.
        3   -1    0    0  501    0  0.00000000000E+00  0.00000000000E+00 -0.42327214642E+03  0.42327215847E+03  0.10100000352E+00 0.  1.
    10030    2    1    2    0    0  0.00000000000E+00  0.00000000000E+00  0.63706288099E+03  0.14836071907E+04  0.13398661060E+04 0.  0.
        3    1    3    3  502    0 -0.21895910810E+03  0.63314073811E+03  0.31852803630E+03  0.74180213358E+03  0.10100000352E+00 0.  1.
       -3    1    3    3    0  502  0.21895910810E+03 -0.63314073811E+03  0.31853484469E+03  0.74180505711E+03  0.10100000352E+00 0. -1.
</event>
<event>
 5   0  0.1103241E-03  0.1307845E+04  0.7818609E-02  0.9023367E-01
       -2   -1    0    0    0  501  0.00000000000E+00  0.00000000000E+00  0.23246466074E+03  0.23246466075E+03  0.25500000920E-02 0.  1.
        2   -1    0    0  501    0  0.00000000000E+00  0.00000000000E+00 -0.18394818864E+04  0.18394818864E+04  0.25500000920E-02 0. -1.
    10030    2    1    2    0    0  0.00000000000E+00  0.00000000000E+00 -0.16070172257E+04  0.20719465472E+04  0.13078448420E+04 0.  0.
        4    1    3    3  502    0  0.49369062580E+03  0.37864354375E+03 -0.48464000416E+03  0.78865639778E+03  0.12699999809E+01 0.  1.
       -4    1    3    3    0  502 -0.49369062580E+03 -0.37864354375E+03 -0.11223772215E+04  0.12832901494E+04  0.12699999809E+01 0. -1.
</event>
<event>
 5   0  0.5710383E-04  0.1272552E+04  0.7818609E-02  0.9051619E-01
        1   -1    0    0  501    0  0.00000000000E+00  0.00000000000E+00  0.14867443680E+04  0.14867443680E+04  0.50400001928E-02 0. -1.
       -1   -1    0    0    0  501  0.00000000000E+00  0.00000000000E+00 -0.27230455072E+03  0.27230455076E+03  0.50400001928E-02 0.  1.
    10030    2    1    2    0    0  0.00000000000E+00  0.00000000000E+00  0.12144398173E+04  0.17590489188E+04  0.12725521714E+04 0.  0.
        1    1    3    3  502    0  0.26354670559E+03  0.25169227613E+03 -0.11375443939E+03  0.38176686655E+03  0.50400001928E-02 0.  1.
       -1    1    3    3    0  502 -0.26354670559E+03 -0.25169227613E+03  0.13281942567E+04  0.13772820522E+04  0.50400001928E-02 0. -1.
</event>
<event>
 5   0  0.6006119E-04  0.1244908E+04  0.7818609E-02  0.9074432E-01
        1   -1    0    0  501    0  0.00000000000E+00  0.00000000000E+00  0.75109305069E+03  0.75109305071E+03  0.50400001928E-02 0. -1.
       -1   -1    0    0    0  501  0.00000000000E+00  0.00000000000E+00 -0.51584657057E+03  0.51584657060E+03  0.50400001928E-02 0.  1.
    10030    2    1    2    0    0  0.00000000000E+00  0.00000000000E+00  0.23524648012E+03  0.12669396213E+04  0.12449076663E+04 0.  0.
        4    1    3    3  502    0  0.44066024058E+03  0.41940292293E+03  0.25173904329E+03  0.65837255275E+03  0.12699999809E+01 0. -1.
       -4    1    3    3    0  502 -0.44066024058E+03 -0.41940292293E+03 -0.16492563167E+02  0.60856706856E+03  0.12699999809E+01 0.  1.
</event>
<event>
 5   0  0.1103241E-03  0.1274376E+04  0.7818609E-02  0.9050136E-01
       -2   -1    0    0    0  501  0.00000000000E+00  0.00000000000E+00  0.63887889962E+03  0.63887889962E+03  0.25500000920E-02 0.  1.
        2   -1    0    0  501    0  0.00000000000E+00  0.00000000000E+00 -0.63550118986E+03  0.63550118987E+03  0.25500000920E-02 0. -1.
    10030    2    1    2    0    0  0.00000000000E+00  0.00000000000E+00  0.33777097547E+01  0.12743800895E+04  0.12743756132E+04 0.  0.
        4    1    3    3  502    0 -0.57171253718E+02 -0.57293793963E+03  0.27460051878E+03  0.63791338969E+03  0.12699999809E+01 0.  1.
       -4    1    3    3    0  502  0.57171253718E+02  0.57293793963E+03 -0.27122280903E+03  0.63646669981E+03  0.12699999809E+01 0. -1.
</event>
<event>
 5   0  0.1103241E-03  0.1298891E+04  0.7818609E-02  0.9030445E-01
        2   -1    0    0  501    0  0.00000000000E+00  0.00000000000E+00  0.17283711047E+04  0.17283711047E+04  0.25500000920E-02 0. -1.
       -2   -1    0    0    0  501  0.00000000000E+00  0.00000000000E+00 -0.24403283687E+03  0.24403283688E+03  0.25500000920E-02 0.  1.
    10030    2    1    2    0    0  0.00000000000E+00  0.00000000000E+00  0.14843382679E+04  0.19724039416E+04  0.12988907635E+04 0.  0.
        4    1    3    3  502    0  0.33628865288E+03 -0.14594942726E+03  0.15562289875E+04  0.15988250586E+04  0.12699999809E+01 0. -1.
       -4    1    3    3    0  502 -0.33628865288E+03  0.14594942726E+03 -0.71890719687E+02  0.37357888303E+03  0.12699999809E+01 0.  1.
</event>
<event>
 5   0  0.1081574E-03  0.1309203E+04  0.7818609E-02  0.9022298E-01
        2   -1    0    0  501    0  0.00000000000E+00  0.00000000000E+00  0.13290714166E+04  0.13290714166E+04  0.25500000920E-02 0. -1.
       -2   -1    0    0    0  501  0.00000000000E+00  0.00000000000E+00 -0.32240807535E+03  0.32240807536E+03  0.25500000920E-02 0.  1.
    10030    2    1    2    0    0  0.00000000000E+00  0.00000000000E+00  0.10066633412E+04  0.16514794920E+04  0.13092033569E+04 0.  0.
        5    1    3    3  502    0 -0.62981008090E+03 -0.17756370141E+03  0.52487463880E+03  0.83887131463E+03  0.46999998093E+01 0. -1.
       -5    1    3    3    0  502  0.62981008090E+03  0.17756370141E+03  0.48178870244E+03  0.81260817733E+03  0.46999998093E+01 0.  1.
</event>
<event>
 5   0  0.1101619E-03  0.1425124E+04  0.7818609E-02  0.8935831E-01
        2   -1    0    0  501    0  0.00000000000E+00  0.00000000000E+00  0.32116935606E+03  0.32116935607E+03  0.25500000920E-02 0. -1.
       -2   -1    0    0    0  501  0.00000000000E+00  0.00000000000E+00 -0.15809251209E+04  0.15809251209E+04  0.25500000920E-02 0.  1.
    10030    2    1    2    0    0  0.00000000000E+00  0.00000000000E+00 -0.12597557648E+04  0.19020944769E+04  0.14251241392E+04 0.  0.
        1    1    3    3  502    0  0.11832941596E+03  0.27869640562E+03  0.23104291258E+03  0.38086003291E+03  0.50400001928E-02 0. -1.
       -1    1    3    3    0  502 -0.11832941596E+03 -0.27869640562E+03 -0.14907986774E+04  0.15212344440E+04  0.50400001928E-02 0.  1.
</event>
<event>
 5   0  0.5812938E-04  0.1300489E+04  0.7818609E-02  0.9029178E-01
       -1   -1    0    0    0  501  0.00000000000E+00  0.00000000000E+00  0.37007843750E+03  0.37007843753E+03  0.50400001928E-02 0. -1.
        1   -1    0    0  501    0  0.00000000000E+00  0.00000000000E+00 -0.11425085880E+04  0.11425085880E+04  0.50400001928E-02 0.  1.
    10030    2    1    2    0    0  0.00000000000E+00  0.00000000000E+00 -0.77243015051E+03  0.15125870256E+04  0.13004888206E+04 0.  0.
        5    1    3    3  502    0 -0.28809536684E+03 -0.21583863789E+02 -0.10637402733E+04  0.11022841116E+04  0.46999998093E+01 0.  1.
       -5    1    3    3    0  502  0.28809536684E+03  0.21583863789E+02  0.29131012280E+03  0.41030291398E+03  0.46999998093E+01 0. -1.
</event>
<event>
 5   0  0.1081574E-03  0.1299746E+04  0.7818609E-02  0.9029767E-01
       -2   -1    0    0    0  501  0.00000000000E+00  0.00000000000E+00  0.12983179182E+04  0.12983179182E+04  0.25500000920E-02 0. -1.
        2   -1    0    0  501    0  0.00000000000E+00  0.00000000000E+00 -0.32529396190E+03  0.32529396191E+03  0.25500000920E-02 0.  1.
    10030    2    1    2    0    0  0.00000000000E+00  0.00000000000E+00  0.97302395627E+03  0.16236118801E+04  0.12997460974E+04 0.  0.
        5    1    3    3  502    0 -0.50403774304E+03  0.47809431523E+01  0.99888133332E+03  0.11188667981E+04  0.46999998093E+01 0. -1.
       -5    1    3    3    0  502  0.50403774304E+03 -0.47809431523E+01 -0.25857377053E+02  0.50474508197E+03  0.46999998093E+01 0.  1.
</event>
<event>
 5   0  0.5563545E-04  0.1297785E+04  0.7818609E-02  0.9031323E-01
       -1   -1    0    0    0  501  0.00000000000E+00  0.00000000000E+00  0.10499822243E+04  0.10499822243E+04  0.50400001928E-02 0.  1.
        1   -1    0    0  501    0  0.00000000000E+00  0.00000000000E+00 -0.40101777984E+03  0.40101777987E+03  0.50400001928E-02 0. -1.
    10030    2    1    2    0    0  0.00000000000E+00  0.00000000000E+00  0.64896444448E+03  0.14510000042E+04  0.12977850985E+04 0.  0.
        2    1    3    3  502    0  0.30145162054E+02 -0.58800880753E+02 -0.39724637507E+03  0.40270455285E+03  0.25500000920E-02 0. -1.
       -2    1    3    3    0  502 -0.30145162054E+02  0.58800880753E+02  0.10462108196E+04  0.10482954514E+04  0.25500000920E-02 0.  1.
</event>
<event>
 5   0  0.1081574E-03  0.1306997E+04  0.7818609E-02  0.9024035E-01
        2   -1    0    0  501    0  0.00000000000E+00  0.00000000000E+00  0.17858900804E+04  0.17858900804E+04  0.25500000920E-02 0. -1.
       -2   -1    0    0    0  501  0.00000000000E+00  0.00000000000E+00 -0.23913023185E+03  0.23913023186E+03  0.25500000920E-02 0.  1.
    10030    2    1    2    0    0  0.00000000000E+00  0.00000000000E+00  0.15467598485E+04  0.20250203123E+04  0.13069970298E+04 0.  0.
        5    1    3    3  502    0 -0.38503885716E+03  0.21527498543E+03  0.15203620264E+04  0.15830732839E+04  0.46999998093E+01 0. -1.
       -5    1    3    3    0  502  0.38503885716E+03 -0.21527498543E+03  0.26397822165E+02  0.44194702837E+03  0.46999998093E+01 0.  1.
</event>
<event>
 5   0  0.5766027E-04  0.1236542E+04  0.7818609E-02  0.9081460E-01
       -1   -1    0    0    0  501  0.00000000000E+00  0.00000000000E+00  0.28988093990E+03  0.28988093994E+03  0.50400001928E-02 0. -1.
        1   -1    0    0  501    0  0.00000000000E+00  0.00000000000E+00 -0.13186752157E+04  0.13186752157E+04  0.50400001928E-02 0.  1.
    10030    2    1    2    0    0  0.00000000000E+00  0.00000000000E+00 -0.10287942758E+04  0.16085561556E+04  0.12365416467E+04 0.  0.
        3    1    3    3  502    0  0.30747701514E+03 -0.52270623573E+03 -0.35778163574E+03  0.70411052597E+03  0.10100000352E+00 0. -1.
       -3    1    3    3    0  502 -0.30747701514E+03  0.52270623573E+03 -0.67101264002E+03  0.90444562964E+03  0.10100000352E+00 0.  1.
</event>
<event>
 5   0  0.6006119E-04  0.1303355E+04  0.7818609E-02  0.9026909E-01
        1   -1    0    0  501    0  0.00000000000E+00  0.00000000000E+00  0.12558528623E+04  0.12558528623E+04  0.50400001928E-02 0. -1.
       -1   -1    0    0    0  501  0.00000000000E+00  0.00000000000E+00 -0.33816352451E+03  0.33816352455E+03  0.50400001928E-02 0.  1.
    10030    2    1    2    0    0  0.00000000000E+00  0.00000000000E+00  0.91768933782E+03  0.15940163869E+04  0.13033551016E+04 0.  0.
        4    1    3    3  502    0 -0.15064932817E+03  0.51326250009E+03  0.36147597285E+01  0.53492830685E+03  0.12699999809E+01 0.  1.
       -4    1    3    3    0  502  0.15064932817E+03 -0.51326250009E+03  0.91407457809E+03  0.10590880800E+04  0.12699999809E+01 0. -1.
</event>
<event>
 5   0  0.5766027E-04  0.1302556E+04  0.7818609E-02  0.9027541E-01
       -1   -1    0    0    0  501  0.00000000000E+00  0.00000000000E+00  0.32406764410E+03  0.32406764413E+03  0.50400001928E-02 0.  1.
        1   -1    0    0  501    0  0.00000000000E+00  0.00000000000E+00 -0.13088720510E+04  0.13088720510E+04  0.50400001928E-02 0. -1.
    10030    2    1    2    0    0  0.00000000000E+00  0.00000000000E+00 -0.98480440693E+03  0.16329396952E+04  0.13025560749E+04 0.  0.
        3    1    3    3  502    0  0.56504493486E+02  0.16949927577E+03  0.29274272406E+03  0.34295929053E+03  0.10100000352E+00 0.  1.
       -3    1    3    3    0  502 -0.56504493486E+02 -0.16949927577E+03 -0.12775471310E+04  0.12899804046E+04  0.10100000352E+00 0. -1.
</event>
<event>
 5   0  0.5766027E-04  0.1282575E+04  0.7818609E-02  0.9043499E-01
        1   -1    0    0  501    0  0.00000000000E+00  0.00000000000E+00  0.67259374939E+03  0.67259374941E+03  0.50400001928E-02 0. -1.
       -1   -1    0    0    0  501  0.00000000000E+00  0.00000000000E+00 -0.61143810898E+03  0.61143810901E+03  0.50400001928E-02 0.  1.
    10030    2    1    2    0    0  0.00000000000E+00  0.00000000000E+00  0.61155640403E+02  0.12840318584E+04  0.12825746766E+04 0.  0.
        3    1    3    3  502    0  0.43929313945E+03 -0.46699225477E+03  0.44348871866E+02  0.64267181440E+03  0.10100000352E+00 0.  1.
       -3    1    3    3    0  502 -0.43929313945E+03  0.46699225477E+03  0.16806768538E+02  0.64136004401E+03  0.10100000352E+00 0. -1.
</event>
<event>
 5   0  0.1031295E-03  0.1297908E+04  0.7818609E-02  0.9031226E-01
       -2   -1    0    0    0  501  0.00000000000E+00  0.00000000000E+00  0.52787760302E+03  0.52787760302E+03  0.25500000920E-02 0. -1.
        2   -1    0    0  501    0  0.00000000000E+00  0.00000000000E+00 -0.79780089737E+03  0.79780089738E+03  0.25500000920E-02 0.  1.
    10030    2    1    2    0    0  0.00000000000E+00  0.00000000000E+00 -0.26992329436E+03  0.13256785004E+04  0.12979078941E+04 0.  0.
        2    1    3    3  502    0 -0.11719528754E+03 -0.24667862447E+03  0.46632442175E+03  0.54041053424E+03  0.25500000920E-02 0. -1.
       -2    1    3    3    0  502  0.11719528754E+03  0.24667862447E+03 -0.73624771611E+03  0.78526796616E+03  0.25500000920E-02 0.  1.
</event>
<event>
 5   0  0.5812938E-04  0.1296774E+04  0.7818609E-02  0.9032128E-01
        1   -1    0    0  501    0  0.00000000000E+00  0.00000000000E+00  0.69248426142E+03  0.69248426144E+03  0.50400001928E-02 0. -1.
       -1   -1    0    0    0  501  0.00000000000E+00  0.00000000000E+00 -0.60709744196E+03  0.60709744198E+03  0.50400001928E-02 0.  1.
    10030    2    1    2    0    0  0.00000000000E+00  0.00000000000E+00  0.85386819464E+02  0.12995817034E+04  0.12967735712E+04 0.  0.
        5    1    3    3  502    0 -0.33906212233E+03  0.43958550508E+03  0.37835870093E+03  0.67184517238E+03  0.46999998093E+01 0. -1.
       -5    1    3    3    0  502  0.33906212233E+03 -0.43958550508E+03 -0.29297188147E+03  0.62773653104E+03  0.46999998093E+01 0.  1.
</event>
<event>
 5   0  0.5563545E-04  0.1288974E+04  0.7818609E-02  0.9038355E-01
       -1   -1    0    0    0  501  0.00000000000E+00  0.00000000000E+00  0.14608993907E+04  0.14608993907E+04  0.50400001928E-02 0. -1.
        1   -1    0    0  501    0  0.00000000000E+00  0.00000000000E+00 -0.28432024833E+03  0.28432024837E+03  0.50400001928E-02 0.  1.
    10030    2    1    2    0    0  0.00000000000E+00  0.00000000000E+00  0.11765791424E+04  0.17452196391E+04  0.12889736655E+04 0.  0.
        2    1    3    3  502    0  0.18160661440E+03 -0.58289772058E+03  0.86778510514E+03  0.10610380312E+04  0.25500000920E-02 0. -1.
       -2    1    3    3    0  502 -0.18160661440E+03  0.58289772058E+03  0.30879403724E+03  0.68418160783E+03  0.25500000920E-02 0.  1.
</event>
<event>
 5   0  0.5766027E-04  0.1299219E+04  0.7818609E-02  0.9030185E-01
        1   -1    0    0  501    0  0.00000000000E+00  0.00000000000E+00  0.13576184250E+03  0.13576184260E+03  0.50400001928E-02 0.  1.
       -1   -1    0    0    0  501  0.00000000000E+00  0.00000000000E+00 -0.31083301534E+04  0.31083301534E+04  0.50400001928E-02 0. -1.
    10030    2    1    2    0    0  0.00000000000E+00  0.00000000000E+00 -0.29725683109E+04  0.32440919960E+04  0.12992191946E+04 0.  0.
        3    1    3    3  502    0 -0.25693749670E+03 -0.49838244167E+03 -0.66725744358E+03  0.87157010136E+03  0.10100000352E+00 0.  1.
       -3    1    3    3    0  502  0.25693749670E+03  0.49838244167E+03 -0.23053108673E+04  0.23725218946E+04  0.10100000352E+00 0. -1.
</event>
<event>
 5   0  0.1101619E-03  0.1293111E+04  0.7818609E-02  0.9035046E-01
        2   -1    0    0  501    0  0.00000000000E+00  0.00000000000E+00  0.16161707238E+04  0.16161707238E+04  0.25500000920E-02 0.  1.
       -2   -1    0    0    0  501  0.00000000000E+00  0.00000000000E+00 -0.25865715436E+03  0.25865715437E+03  0.25500000920E-02 0. -1.
    10030    2    1    2    0    0  0.00000000000E+00  0.00000000000E+00  0.13575135694E+04  0.18748278782E+04  0.12931111637E+04 0.  0.
        1    1    3    3  502    0 -0.35748253396E+03  0.19475676238E+03  0.14070276106E+04  0.14647356948E+04  0.50400001928E-02 0.  1.
       -1    1    3    3    0  502  0.35748253396E+03 -0.19475676238E+03 -0.49514041152E+02  0.41009218339E+03  0.50400001928E-02 0. -1.
</event>
<event>
 5   0  0.1031295E-03  0.1186523E+04  0.7818609E-02  0.9124735E-01
       -2   -1    0    0    0  501  0.00000000000E+00  0.00000000000E+00  0.12718732533E+03  0.12718732536E+03  0.25500000920E-02 0.  1.
        2   -1    0    0  501    0  0.00000000000E+00  0.00000000000E+00 -0.27672516145E+04  0.27672516145E+04  0.25500000920E-02 0. -1.
    10030    2    1    2    0    0  0.00000000000E+00  0.00000000000E+00 -0.26400642892E+04  0.28944389399E+04  0.11865232091E+04 0.  0.
        2    1    3    3  502    0 -0.36493512015E+03  0.52222327151E+02 -0.18614500177E+03  0.41298277817E+03  0.25500000920E-02 0.  1.
       -2    1    3    3    0  502  0.36493512015E+03 -0.52222327151E+02 -0.24539192874E+04  0.24814561617E+04  0.25500000920E-02 0. -1.
</event>
<event>
 5   0  0.5766027E-04  0.1326395E+04  0.7818609E-02  0.9008891E-01
        1   -1    0    0  501    0  0.00000000000E+00  0.00000000000E+00  0.90148956238E+03  0.90148956240E+03  0.50400001928E-02 0. -1.
       -1   -1    0    0    0  501  0.00000000000E+00  0.00000000000E+00 -0.48789379483E+03  0.48789379486E+03  0.50400001928E-02 0.  1.
    10030    2    1    2    0    0  0.00000000000E+00  0.00000000000E+00  0.41359576755E+03  0.13893833573E+04  0.13263953613E+04 0.  0.
        3    1    3    3  502    0 -0.33317145400E+03 -0.37320806534E+03  0.66283873441E+03  0.83044727457E+03  0.10100000352E+00 0. -1.
       -3    1    3    3    0  502  0.33317145400E+03  0.37320806534E+03 -0.24924296686E+03  0.55893608269E+03  0.10100000352E+00 0.  1.
</event>
<event>
 5   0  0.1101619E-03  0.1293200E+04  0.7818609E-02  0.9034975E-01
        2   -1    0    0  501    0  0.00000000000E+00  0.00000000000E+00  0.16742745207E+04  0.16742745207E+04  0.25500000920E-02 0.  1.
       -2   -1    0    0    0  501  0.00000000000E+00  0.00000000000E+00 -0.24971489475E+03  0.24971489477E+03  0.25500000920E-02 0. -1.
    10030    2    1    2    0    0  0.00000000000E+00  0.00000000000E+00  0.14245596259E+04  0.19239894154E+04  0.12931995758E+04 0.  0.
        1    1    3    3  502    0  0.36364839006E+02  0.23173845304E+03  0.16087379612E+04  0.16257499624E+04  0.50400001928E-02 0.  1.
       -1    1    3    3    0  502 -0.36364839006E+02 -0.23173845304E+03 -0.18417833534E+03  0.29823945307E+03  0.50400001928E-02 0. -1.
</event>
<event>
 5   0  0.5710383E-04  0.1301434E+04  0.7818609E-02  0.9028428E-01
       -1   -1    0    0    0  501  0.00000000000E+00  0.00000000000E+00  0.11883971693E+04  0.11883971693E+04  0.50400001928E-02 0. -1.
        1   -1    0    0  501    0  0.00000000000E+00  0.00000000000E+00 -0.35630591379E+03  0.35630591382E+03  0.50400001928E-02 0.  1.
    10030    2    1    2    0    0  0.00000000000E+00  0.00000000000E+00  0.83209125554E+03  0.15447030832E+04  0.13014344999E+04 0.  0.
        1    1    3    3  502    0  0.32109866325E+03  0.68363319827E+02  0.10828970243E+04  0.11315669933E+04  0.50400001928E-02 0. -1.
       -1    1    3    3    0  502 -0.32109866325E+03 -0.68363319827E+02 -0.25080576880E+03  0.41313608984E+03  0.50400001928E-02 0.  1.
</event>
<event>
 5   0  0.5766027E-04  0.1296924E+04  0.7818609E-02  0.9032008E-01
        1   -1    0    0  501    0  0.00000000000E+00  0.00000000000E+00  0.65298717882E+03  0.65298717884E+03  0.50400001928E-02 0. -1.
       -1   -1    0    0    0  501  0.00000000000E+00  0.00000000000E+00 -0.64396864577E+03  0.64396864579E+03  0.50400001928E-02 0.  1.
    10030    2    1    2    0    0  0.00000000000E+00  0.00000000000E+00  0.90185330498E+01  0.12969558246E+04  0.12969244685E+04 0.  0.
        3    1    3    3  502    0 -0.29935847460E+03  0.11656658855E+03  0.56781676361E+03  0.65239493646E+03  0.10100000352E+00 0. -1.
       -3    1    3    3    0  502  0.29935847460E+03 -0.11656658855E+03 -0.55879823056E+03  0.64456088817E+03  0.10100000352E+00 0.  1.
</event>
<event>
 5   0  0.1103241E-03  0.1295718E+04  0.7818609E-02  0.9032968E-01
        2   -1    0    0  501    0  0.00000000000E+00  0.00000000000E+00  0.18241995243E+04  0.18241995243E+04  0.25500000920E-02 0.  1.
       -2   -1    0    0    0  501  0.00000000000E+00  0.00000000000E+00 -0.23008506625E+03  0.23008506626E+03  0.25500000920E-02 0. -1.
    10030    2    1    2    0    0  0.00000000000E+00  0.00000000000E+00  0.15941144580E+04  0.20542845905E+04  0.12957176674E+04 0.  0.
        4    1    3    3  502    0 -0.21946300019E+03 -0.41947421840E+02  0.17611775814E+04  0.17752948152E+04  0.12699999809E+01 0.  1.
       -4    1    3    3    0  502  0.21946300019E+03  0.41947421840E+02 -0.16706312339E+03  0.27898977535E+03  0.12699999809E+01 0. -1.
</event>
<event>
 5   0  0.4012375E-04  0.1294350E+04  0.7818609E-02  0.9034058E-01
        4   -1    0    0  501    0  0.00000000000E+00  0.00000000000E+00  0.67655280593E+03  0.67655399792E+03  0.12699999809E+01 0.  1.
       -4   -1    0    0    0  501  0.00000000000E+00  0.00000000000E+00 -0.61907048145E+03  0.61907178412E+03  0.12699999809E+01 0. -1.
    10030    2    1    2    0    0  0.00000000000E+00  0.00000000000E+00  0.57482324479E+02  0.12956257820E+04  0.12943500104E+04 0.  0.
        1    1    3    3  502    0 -0.21700157302E+03  0.11685535371E+03 -0.57025539905E+03  0.62123753634E+03  0.50400001928E-02 0. -1.
       -1    1    3    3    0  502  0.21700157302E+03 -0.11685535371E+03  0.62773772353E+03  0.67438824571E+03  0.50400001928E-02 0.  1.
</event>
<event>
 5   0  0.4012375E-04  0.1307758E+04  0.7818609E-02  0.9023436E-01
        3   -1    0    0  501    0  0.00000000000E+00  0.00000000000E+00  0.77715303390E+03  0.77715304047E+03  0.10100000352E+00 0. -1.
       -3   -1    0    0    0  501  0.00000000000E+00  0.00000000000E+00 -0.55015901076E+03  0.55015902003E+03  0.10100000352E+00 0.  1.
    10030    2    1    2    0    0  0.00000000000E+00  0.00000000000E+00  0.22699402315E+03  0.13273120605E+04  0.13077580125E+04 0.  0.
        1    1    3    3  502    0 -0.30440710863E+03 -0.40749879317E+03  0.53054091820E+03  0.73497797255E+03  0.50400001928E-02 0. -1.
       -1    1    3    3    0  502  0.30440710863E+03  0.40749879317E+03 -0.30354689506E+03  0.59233408795E+03  0.50400001928E-02 0.  1.
</event>
<event>
 5   0  0.1101619E-03  0.1297364E+04  0.7818609E-02  0.9031659E-01
       -2   -1    0    0    0  501  0.00000000000E+00  0.00000000000E+00  0.39673154053E+03  0.39673154054E+03  0.25500000920E-02 0. -1.
        2   -1    0    0  501    0  0.00000000000E+00  0.00000000000E+00 -0.10606367360E+04  0.10606367361E+04  0.25500000920E-02 0.  1.
    10030    2    1    2    0    0  0.00000000000E+00  0.00000000000E+00 -0.66390519552E+03  0.14573682766E+04  0.12973635516E+04 0.  0.
        1    1    3    3  502    0 -0.27692080584E+03  0.34018542781E+03 -0.86877866925E+03  0.97323565192E+03  0.50400001928E-02 0.  1.
       -1    1    3    3    0  502  0.27692080584E+03 -0.34018542781E+03  0.20487347373E+03  0.48413262467E+03  0.50400001928E-02 0. -1.
</event>
<event>
 5   0  0.1081574E-03  0.1314052E+04  0.7818609E-02  0.9018495E-01
        2   -1    0    0  501    0  0.00000000000E+00  0.00000000000E+00  0.78703201031E+03  0.78703201032E+03  0.25500000920E-02 0. -1.
       -2   -1    0    0    0  501  0.00000000000E+00  0.00000000000E+00 -0.54849500859E+03  0.54849500860E+03  0.25500000920E-02 0.  1.
    10030    2    1    2    0    0  0.00000000000E+00  0.00000000000E+00  0.23853700172E+03  0.13355270189E+04  0.13140519461E+04 0.  0.
        5    1    3    3  502    0  0.46730132997E+03 -0.26869111141E+03 -0.26249716661E+03  0.59957676641E+03  0.46999998093E+01 0.  1.
       -5    1    3    3    0  502 -0.46730132997E+03  0.26869111141E+03  0.50103416832E+03  0.73595025251E+03  0.46999998093E+01 0. -1.
</event>
<event>
 5   0  0.1103241E-03  0.1337847E+04  0.7818609E-02  0.9000079E-01
        2   -1    0    0  501    0  0.00000000000E+00  0.00000000000E+00  0.14546626047E+04  0.14546626047E+04  0.25500000920E-02 0.  1.
       -2   -1    0    0    0  501  0.00000000000E+00  0.00000000000E+00 -0.30760295264E+03  0.30760295265E+03  0.25500000920E-02 0. -1.
    10030    2    1    2    0    0  0.00000000000E+00  0.00000000000E+00  0.11470596521E+04  0.17622655574E+04  0.13378467959E+04 0.  0.
        4    1    3    3  502    0  0.36658849866E+03  0.23159499986E+03 -0.97401425143E+02  0.44442324628E+03  0.12699999809E+01 0. -1.
       -4    1    3    3    0  502 -0.36658849866E+03 -0.23159499986E+03  0.12444610772E+04  0.13178423111E+04  0.12699999809E+01 0.  1.
</event>
<event>
 5   0  0.5766027E-04  0.1291631E+04  0.7818609E-02  0.9036229E-01
       -1   -1    0    0    0  501  0.00000000000E+00  0.00000000000E+00  0.33052960194E+03  0.33052960198E+03  0.50400001928E-02 0.  1.
        1   -1    0    0  501    0  0.00000000000E+00  0.00000000000E+00 -0.12618456797E+04  0.12618456797E+04  0.50400001928E-02 0. -1.
    10030    2    1    2    0    0  0.00000000000E+00  0.00000000000E+00 -0.93131607778E+03  0.15923752817E+04  0.12916305203E+04 0.  0.
        3    1    3    3  502    0  0.14096685815E+03  0.52713337819E+03 -0.89154370634E+03  0.10452709907E+04  0.10100000352E+00 0. -1.
       -3    1    3    3    0  502 -0.14096685815E+03 -0.52713337819E+03 -0.39772371443E+02  0.54710429100E+03  0.10100000352E+00 0.  1.
</event>
<event>
 5   0  0.5766027E-04  0.1286170E+04  0.7818609E-02  0.9040605E-01
        1   -1    0    0  501    0  0.00000000000E+00  0.00000000000E+00  0.16281053981E+04  0.16281053981E+04  0.50400001928E-02 0. -1.
       -1   -1    0    0    0  501  0.00000000000E+00  0.00000000000E+00 -0.25401218679E+03  0.25401218684E+03  0.50400001928E-02 0.  1.
    10030    2    1    2    0    0  0.00000000000E+00  0.00000000000E+00  0.13740932113E+04  0.18821175850E+04  0.12861704592E+04 0.  0.
        3    1    3    3  502    0 -0.45474623723E+03  0.26792669635E+03  0.12246754086E+04  0.13335699162E+04  0.10100000352E+00 0. -1.
       -3    1    3    3    0  502  0.45474623723E+03 -0.26792669635E+03  0.14941780273E+03  0.54854766873E+03  0.10100000352E+00 0.  1.
</event>
<event>
 5   0  0.1046253E-03  0.1304971E+04  0.7818609E-02  0.9025633E-01
       -2   -1    0    0    0  501  0.00000000000E+00  0.00000000000E+00  0.38484242347E+03  0.38484242348E+03  0.25500000920E-02 0. -1.
        2   -1    0    0  501    0  0.00000000000E+00  0.00000000000E+00 -0.11062634309E+04  0.11062634309E+04  0.25500000920E-02 0.  1.
    10030    2    1    2    0    0  0.00000000000E+00  0.00000000000E+00 -0.72142100746E+03  0.14911058544E+04  0.13049706506E+04 0.  0.
        3    1    3    3  502    0  0.75161360810E+02 -0.10612943487E+03 -0.10913045628E+04  0.10990260898E+04  0.10100000352E+00 0.  1.
       -3    1    3    3    0  502 -0.75161360810E+02  0.10612943487E+03  0.36988355533E+03  0.39207976460E+03  0.10100000352E+00 0. -1.
</event>
<event>
 5   0  0.1103241E-03  0.1295888E+04  0.7818609E-02  0.9032832E-01
        2   -1    0    0  501    0  0.00000000000E+00  0.00000000000E+00  0.62344403652E+03  0.62344403653E+03  0.25500000920E-02 0.  1.
       -2   -1    0    0    0  501  0.00000000000E+00  0.00000000000E+00 -0.67340692374E+03  0.67340692375E+03  0.25500000920E-02 0. -1.
    10030    2    1    2    0    0  0.00000000000E+00  0.00000000000E+00 -0.49962887218E+02  0.12968509603E+04  0.12958881599E+04 0.  0.
        4    1    3    3  502    0  0.63971741429E+03  0.22518765822E+02  0.75514542751E+02  0.64455374022E+03  0.12699999809E+01 0.  1.
       -4    1    3    3    0  502 -0.63971741429E+03 -0.22518765822E+02 -0.12547742997E+03  0.65229722006E+03  0.12699999809E+01 0. -1.
</event>
<event>
 5   0  0.5563545E-04  0.1314757E+04  0.7818609E-02  0.9017944E-01
       -1   -1    0    0    0  501  0.00000000000E+00  0.00000000000E+00  0.33297113857E+03  0.33297113861E+03  0.50400001928E-02 0. -1.
        1   -1    0    0  501    0  0.00000000000E+00  0.00000000000E+00 -0.12978494638E+04  0.12978494639E+04  0.50400001928E-02 0.  1.
    10030    2    1    2    0    0  0.00000000000E+00  0.00000000000E+00 -0.96487832527E+03  0.16308206025E+04  0.13147568805E+04 0.  0.
        2    1    3    3  502    0 -0.38232230205E+03  0.97823430732E+02  0.16969203745E+03  0.42957555077E+03  0.25500000920E-02 0. -1.
       -2    1    3    3    0  502  0.38232230205E+03 -0.97823430732E+02 -0.11345703627E+04  0.12012450517E+04  0.25500000920E-02 0.  1.
</event>
<event>
 5   0  0.5710383E-04  0.1301765E+04  0.7818609E-02  0.9028167E-01
        1   -1    0    0  501    0  0.00000000000E+00  0.00000000000E+00  0.75794449576E+03  0.75794449578E+03  0.50400001928E-02 0.  1.
       -1   -1    0    0    0  501  0.00000000000E+00  0.00000000000E+00 -0.55894332982E+03  0.55894332984E+03  0.50400001928E-02 0. -1.
    10030    2    1    2    0    0  0.00000000000E+00  0.00000000000E+00  0.19900116594E+03  0.13168878256E+04  0.13017649869E+04 0.  0.
        1    1    3    3  502    0 -0.39945180693E+03  0.42076367237E+03 -0.19895941455E+03  0.61334220685E+03  0.50400001928E-02 0. -1.
       -1    1    3    3    0  502  0.39945180693E+03 -0.42076367237E+03  0.39796058049E+03  0.70354561877E+03  0.50400001928E-02 0.  1.
</event>
<event>
 5   0  0.5563545E-04  0.1326177E+04  0.7818609E-02  0.9009061E-01
       -1   -1    0    0    0  501  0.00000000000E+00  0.00000000000E+00  0.67073035592E+03  0.67073035594E+03  0.50400001928E-02 0. -1.
        1   -1    0    0  501    0  0.00000000000E+00  0.00000000000E+00 -0.65553344740E+03  0.65553344742E+03  0.50400001928E-02 0.  1.
    10030    2    1    2    0    0  0.00000000000E+00  0.00000000000E+00  0.15196908522E+02  0.13262638034E+04  0.13261767341E+04 0.  0.
        2    1    3    3  502    0 -0.13269116081E+03 -0.43350934034E+03  0.49151956042E+03  0.66867688057E+03  0.25500000920E-02 0. -1.
       -2    1    3    3    0  502  0.13269116081E+03  0.43350934034E+03 -0.47632265190E+03  0.65758692280E+03  0.25500000920E-02 0.  1.
</event>
<event>
 5   0  0.4012375E-04  0.1322170E+04  0.7818609E-02  0.9012167E-01
       -3   -1    0    0    0  501  0.00000000000E+00  0.00000000000E+00  0.69939805356E+03  0.69939806085E+03  0.10100000352E+00 0. -1.
        3   -1    0    0  501    0  0.00000000000E+00  0.00000000000E+00 -0.62487047699E+03  0.62487048515E+03  0.10100000352E+00 0.  1.
    10030    2    1    2    0    0  0.00000000000E+00  0.00000000000E+00  0.74527576572E+02  0.13242685460E+04  0.13221697403E+04 0.  0.
        3    1    3    3  502    0 -0.39391589534E+03  0.99277642071E+00  0.56901376862E+03  0.69206025553E+03  0.10100000352E+00 0. -1.
       -3    1    3    3    0  502  0.39391589534E+03 -0.99277642071E+00 -0.49448619205E+03  0.63220829047E+03  0.10100000352E+00 0.  1.
</event>
<event>
 5   0  0.1103241E-03  0.1293349E+04  0.7818609E-02  0.9034856E-01
        2   -1    0    0  501    0  0.00000000000E+00  0.00000000000E+00  0.95645386892E+03  0.95645386893E+03  0.25500000920E-02 0.  1.
       -2   -1    0    0    0  501  0.00000000000E+00  0.00000000000E+00 -0.43722734805E+03  0.43722734806E+03  0.25500000920E-02 0. -1.
    10030    2    1    2    0    0  0.00000000000E+00  0.00000000000E+00  0.51922652087E+03  0.13936812170E+04  0.12933488140E+04 0.  0.
        4    1    3    3  502    0 -0.50772510160E+03 -0.40049923602E+03  0.26104237595E+03  0.69737303633E+03  0.12699999809E+01 0. -1.
       -4    1    3    3    0  502  0.50772510160E+03  0.40049923602E+03  0.25818414493E+03  0.69630818065E+03  0.12699999809E+01 0.  1.
</event>
<event>
 5   0  0.1103241E-03  0.1306987E+04  0.7818609E-02  0.9024043E-01
       -2   -1    0    0    0  501  0.00000000000E+00  0.00000000000E+00  0.86514199472E+03  0.86514199473E+03  0.25500000920E-02 0.  1.
        2   -1    0    0  501    0  0.00000000000E+00  0.00000000000E+00 -0.49362256476E+03  0.49362256476E+03  0.25500000920E-02 0. -1.
    10030    2    1    2    0    0  0.00000000000E+00  0.00000000000E+00  0.37151942997E+03  0.13587645595E+04  0.13069867793E+04 0.  0.
        4    1    3    3  502    0 -0.22424869989E+03 -0.56274119484E+03 -0.69077465399E+02  0.60970356806E+03  0.12699999809E+01 0. -1.
       -4    1    3    3    0  502  0.22424869989E+03  0.56274119484E+03  0.44059689536E+03  0.74906099143E+03  0.12699999809E+01 0.  1.
</event>
<event>
 5   0  0.1081574E-03  0.1282012E+04  0.7818609E-02  0.9043953E-01
       -2   -1    0    0    0  501  0.00000000000E+00  0.00000000000E+00  0.39394891877E+03  0.39394891878E+03  0.25500000920E-02 0.  1.
        2   -1    0    0  501    0  0.00000000000E+00  0.00000000000E+00 -0.10429999997E+04  0.10429999997E+04  0.25500000920E-02 0. -1.
    10030    2    1    2    0    0  0.00000000000E+00  0.00000000000E+00 -0.64905108096E+03  0.14369489185E+04  0.12820120470E+04 0.  0.
        5    1    3    3  502    0  0.24544833625E+03  0.72606873155E+02  0.33416123851E+03  0.42095423400E+03  0.46999998093E+01 0.  1.
       -5    1    3    3    0  502 -0.24544833625E+03 -0.72606873155E+02 -0.98321231947E+03  0.10159946845E+04  0.46999998093E+01 0. -1.
</event>
<event>
 5   0  0.5766027E-04  0.1300010E+04  0.7818609E-02  0.9029557E-01
       -1   -1    0    0    0  501  0.00000000000E+00  0.00000000000E+00  0.13368571786E+04  0.13368571786E+04  0.50400001928E-02 0. -1.
        1   -1    0    0  501    0  0.00000000000E+00  0.00000000000E+00 -0.31604455841E+03  0.31604455845E+03  0.50400001928E-02 0.  1.
    10030    2    1    2    0    0  0.00000000000E+00  0.00000000000E+00  0.10208126202E+04  0.16529017370E+04  0.13000099026E+04 0.  0.
        3    1    3    3  502    0  0.48110051323E+02 -0.44176770219E+03  0.11135539353E+04  0.11989477289E+04  0.10100000352E+00 0. -1.
       -3    1    3    3    0  502 -0.48110051323E+02  0.44176770219E+03 -0.92741315119E+02  0.45395400810E+03  0.10100000352E+00 0.  1.
</event>
<event>
 5   0  0.5563545E-04  0.1301609E+04  0.7818609E-02  0.9028290E-01
        1   -1    0    0  501    0  0.00000000000E+00  0.00000000000E+00  0.86483371888E+03  0.86483371890E+03  0.50400001928E-02 0. -1.
       -1   -1    0    0    0  501  0.00000000000E+00  0.00000000000E+00 -0.48974327665E+03  0.48974327668E+03  0.50400001928E-02 0.  1.
    10030    2    1    2    0    0  0.00000000000E+00  0.00000000000E+00  0.37509044223E+03  0.13545769956E+04  0.13016090032E+04 0.  0.
        2    1    3    3  502    0  0.20644892709E+03 -0.47738557758E+03 -0.21956227561E+03  0.56455800592E+03  0.25500000920E-02 0.  1.
       -2    1    3    3    0  502 -0.20644892709E+03  0.47738557758E+03  0.59465271783E+03  0.79001898965E+03  0.25500000920E-02 0. -1.
</event>
<event>
 5   0  0.1101619E-03  0.1297439E+04  0.7818609E-02  0.9031599E-01
        2   -1    0    0  501    0  0.00000000000E+00  0.00000000000E+00  0.16781335019E+04  0.16781335019E+04  0.25500000920E-02 0.  1.
       -2   -1    0    0    0  501  0.00000000000E+00  0.00000000000E+00 -0.25077668790E+03  0.25077668792E+03  0.25500000920E-02 0. -1.
    10030    2    1    2    0    0  0.00000000000E+00  0.00000000000E+00  0.14273568140E+04  0.19289101898E+04  0.12974386482E+04 0.  0.
        1    1    3    3  502    0  0.46544291105E+03 -0.44514693420E+03  0.59809844343E+03  0.87892812251E+03  0.50400001928E-02 0. -1.
       -1    1    3    3    0  502 -0.46544291105E+03  0.44514693420E+03  0.82925837056E+03  0.10499820673E+04  0.50400001928E-02 0.  1.
</event>
<event>
 5   0  0.6006119E-04  0.1300148E+04  0.7818609E-02  0.9029448E-01
        1   -1    0    0  501    0  0.00000000000E+00  0.00000000000E+00  0.51882852328E+03  0.51882852330E+03  0.50400001928E-02 0.  1.
       -1   -1    0    0    0  501  0.00000000000E+00  0.00000000000E+00 -0.81451989697E+03  0.81451989698E+03  0.50400001928E-02 0. -1.
    10030    2    1    2    0    0  0.00000000000E+00  0.00000000000E+00 -0.29569137369E+03  0.13333484203E+04  0.13001479229E+04 0.  0.
        4    1    3    3  502    0  0.55728574416E+03 -0.31931737424E+03 -0.44966712781E+02  0.64385914942E+03  0.12699999809E+01 0.  1.
       -4    1    3    3    0  502 -0.55728574416E+03  0.31931737424E+03 -0.25072466091E+03  0.68948927086E+03  0.12699999809E+01 0. -1.
</event>
<event>
 5   0  0.1101619E-03  0.1298793E+04  0.7818609E-02  0.9030523E-01
       -2   -1    0    0    0  501  0.00000000000E+00  0.00000000000E+00  0.47782991624E+03  0.47782991625E+03  0.25500000920E-02 0. -1.
        2   -1    0    0  501    0  0.00000000000E+00  0.00000000000E+00 -0.88256419724E+03  0.88256419724E+03  0.25500000920E-02 0.  1.
    10030    2    1    2    0    0  0.00000000000E+00  0.00000000000E+00 -0.40473428099E+03  0.13603941135E+04  0.12987926339E+04 0.  0.
        1    1    3    3  502    0 -0.39319591343E+03  0.14448849945E+03  0.31738988587E+03  0.52556283401E+03  0.50400001928E-02 0. -1.
       -1    1    3    3    0  502  0.39319591343E+03 -0.14448849945E+03 -0.72212416686E+03  0.83483127948E+03  0.50400001928E-02 0.  1.
</event>
<event>
 5   0  0.4012375E-04  0.1299211E+04  0.7818609E-02  0.9030191E-01
        3   -1    0    0  501    0  0.00000000000E+00  0.00000000000E+00  0.60040883842E+03  0.60040884691E+03  0.10100000352E+00 0. -1.
       -3   -1    0    0    0  501  0.00000000000E+00  0.00000000000E+00 -0.70283345658E+03  0.70283346383E+03  0.10100000352E+00 0.  1.
    10030    2    1    2    0    0  0.00000000000E+00  0.00000000000E+00 -0.10242461816E+03  0.13032423107E+04  0.12992111907E+04 0.  0.
        4    1    3    3  502    0 -0.31829246186E+03  0.46140311916E+03  0.27810937267E+03  0.62573905561E+03  0.12699999809E+01 0. -1.
       -4    1    3    3    0  502  0.31829246186E+03 -0.46140311916E+03 -0.38053399083E+03  0.67750325514E+03  0.12699999809E+01 0.  1.
</event>
<event>
 5   0  0.1031295E-03  0.1309154E+04  0.7818609E-02  0.9022337E-01
        2   -1    0    0  501    0  0.00000000000E+00  0.00000000000E+00  0.23314133897E+04  0.23314133897E+04  0.25500000920E-02 0. -1.
       -2   -1    0    0    0  501  0.00000000000E+00  0.00000000000E+00 -0.18378164316E+03  0.18378164318E+03  0.25500000920E-02 0.  1.
    10030    2    1    2    0    0  0.00000000000E+00  0.00000000000E+00  0.21476317466E+04  0.25151950329E+04  0.13091539003E+04 0.  0.
        2    1    3    3  502    0 -0.43111742593E+03 -0.40053751479E+03  0.52305899428E+03  0.78732664581E+03  0.25500000920E-02 0.  1.
       -2    1    3    3    0  502  0.43111742593E+03  0.40053751479E+03  0.16245727523E+04  0.17278683871E+04  0.25500000920E-02 0. -1.
</event>
<event>
 5   0  0.6006119E-04  0.1316654E+04  0.7818609E-02  0.9016462E-01
        1   -1    0    0  501    0  0.00000000000E+00  0.00000000000E+00  0.11854703725E+04  0.11854703725E+04  0.50400001928E-02 0.  1.
       -1   -1    0    0    0  501  0.00000000000E+00  0.00000000000E+00 -0.36558867374E+03  0.36558867378E+03  0.50400001928E-02 0. -1.
    10030    2    1    2    0    0  0.00000000000E+00  0.00000000000E+00  0.81988169873E+03  0.15510590463E+04  0.13166541555E+04 0.  0.
        4    1    3    3  502    0 -0.59463954168E+03 -0.84057339987E+02  0.92241213496E+02  0.60759515740E+03  0.12699999809E+01 0. -1.
       -4    1    3    3    0  502  0.59463954168E+03  0.84057339987E+02  0.72764048524E+03  0.94346388886E+03  0.12699999809E+01 0.  1.
</event>
<event>
 5   0  0.1103241E-03  0.1288887E+04  0.7818609E-02  0.9038424E-01
        2   -1    0    0  501    0  0.00000000000E+00  0.00000000000E+00  0.98403503159E+03  0.98403503160E+03  0.25500000920E-02 0.  1.
       -2   -1    0    0    0  501  0.00000000000E+00  0.00000000000E+00 -0.42204561347E+03  0.42204561348E+03  0.25500000920E-02 0. -1.
    10030    2    1    2    0    0  0.00000000000E+00  0.00000000000E+00  0.56198941812E+03  0.14060806451E+04  0.12888873785E+04 0.  0.
        4    1    3    3  502    0  0.68225270046E+02  0.62028929267E+03  0.45653740690E+03  0.77320211515E+03  0.12699999809E+01 0.  1.
       -4    1    3    3    0  502 -0.68225270046E+02 -0.62028929267E+03  0.10545201123E+03  0.63287852993E+03  0.12699999809E+01 0. -1.
</event>
<event>
 5   0  0.5766027E-04  0.1294061E+04  0.7818609E-02  0.9034288E-01
       -1   -1    0    0    0  501  0.00000000000E+00  0.00000000000E+00  0.82265360691E+03  0.82265360692E+03  0.50400001928E-02 0. -1.
        1   -1    0    0  501    0  0.00000000000E+00  0.00000000000E+00 -0.50889997380E+03  0.50889997383E+03  0.50400001928E-02 0.  1.
    10030    2    1    2    0    0  0.00000000000E+00  0.00000000000E+00  0.31375363310E+03  0.13315535808E+04  0.12940608935E+04 0.  0.
        3    1    3    3  502    0  0.54419276541E+03  0.14562462798E+03  0.48436850036E+03  0.74294357292E+03  0.10100000352E+00 0. -1.
       -3    1    3    3    0  502 -0.54419276541E+03 -0.14562462798E+03 -0.17061486726E+03  0.58861000784E+03  0.10100000352E+00 0.  1.
</event>
<event>
 5   0  0.1081574E-03  0.1304110E+04  0.7818609E-02  0.9026312E-01
       -2   -1    0    0    0  501  0.00000000000E+00  0.00000000000E+00  0.22125986574E+03  0.22125986575E+03  0.25500000920E-02 0.  1.
        2   -1    0    0  501    0  0.00000000000E+00  0.00000000000E+00 -0.19216128658E+04  0.19216128658E+04  0.25500000920E-02 0. -1.
    10030    2    1    2    0    0  0.00000000000E+00  0.00000000000E+00 -0.17003530001E+04  0.21428727316E+04  0.13041101253E+04 0.  0.
        5    1    3    3  502    0  0.62992214237E+03 -0.67081562272E+02 -0.59640470119E+03  0.87007039891E+03  0.46999998093E+01 0. -1.
       -5    1    3    3    0  502 -0.62992214237E+03  0.67081562272E+02 -0.11039482989E+04  0.12728023327E+04  0.46999998093E+01 0.  1.
</event>
<event>
 5   0  0.1081574E-03  0.1279387E+04  0.7818609E-02  0.9046073E-01
       -2   -1    0    0    0  501  0.00000000000E+00  0.00000000000E+00  0.73430396364E+03  0.73430396364E+03  0.25500000920E-02 0. -1.
        2   -1    0    0  501    0  0.00000000000E+00  0.00000000000E+00 -0.55727297081E+03  0.55727297081E+03  0.25500000920E-02 0.  1.
    10030    2    1    2    0    0  0.00000000000E+00  0.00000000000E+00  0.17703099283E+03  0.12915769345E+04  0.12793869646E+04 0.  0.
        5    1    3    3  502    0 -0.48684112284E+03  0.11483120082E+03  0.49104403587E+03  0.70096135324E+03  0.46999998093E+01 0. -1.
       -5    1    3    3    0  502  0.48684112284E+03 -0.11483120082E+03 -0.31401304304E+03  0.59061558122E+03  0.46999998093E+01 0.  1.
</event>
<event>
 5   0  0.1101619E-03  0.1294709E+04  0.7818609E-02  0.9033771E-01
        2   -1    0    0  501    0  0.00000000000E+00  0.00000000000E+00  0.48709380511E+03  0.48709380512E+03  0.25500000920E-02 0.  1.
       -2   -1    0    0    0  501  0.00000000000E+00  0.00000000000E+00 -0.86034349990E+03  0.86034349990E+03  0.25500000920E-02 0. -1.
    10030    2    1    2    0    0  0.00000000000E+00  0.00000000000E+00 -0.37324969479E+03  0.13474373050E+04  0.12947092169E+04 0.  0.
        1    1    3    3  502    0  0.40037002184E+03  0.38769847611E+03 -0.52937257452E+03  0.76866220503E+03  0.50400001928E-02 0. -1.
       -1    1    3    3    0  502 -0.40037002184E+03 -0.38769847611E+03  0.15612287973E+03  0.57877509999E+03  0.50400001928E-02 0.  1.
</event>
<event>
 5   0  0.5563545E-04  0.1298163E+04  0.7818609E-02  0.9031024E-01
       -1   -1    0    0    0  501  0.00000000000E+00  0.00000000000E+00  0.26064531150E+03  0.26064531155E+03  0.50400001928E-02 0. -1.
        1   -1    0    0  501    0  0.00000000000E+00  0.00000000000E+00 -0.16163977610E+04  0.16163977610E+04  0.50400001928E-02 0.  1.
    10030    2    1    2    0    0  0.00000000000E+00  0.00000000000E+00 -0.13557524495E+04  0.18770430726E+04  0.12981625445E+04 0.  0.
        2    1    3    3  502    0 -0.85268208133E+01  0.36563631052E+03  0.97472770106E+02  0.37850172941E+03  0.25500000920E-02 0. -1.
       -2    1    3    3    0  502  0.85268208133E+01 -0.36563631052E+03 -0.14532252196E+04  0.14985413432E+04  0.25500000920E-02 0.  1.
</event>
<event>
 5   0  0.5766027E-04  0.1297715E+04  0.7818609E-02  0.9031379E-01
        1   -1    0    0  501    0  0.00000000000E+00  0.00000000000E+00  0.57131306785E+03  0.57131306787E+03  0.50400001928E-02 0. -1.
       -1   -1    0    0    0  501  0.00000000000E+00  0.00000000000E+00 -0.73692701981E+03  0.73692701983E+03  0.50400001928E-02 0.  1.
    10030    2    1    2    0    0  0.00000000000E+00  0.00000000000E+00 -0.16561395196E+03  0.13082400877E+04  0.12977149710E+04 0.  0.
        3    1    3    3  502    0  0.20647486138E+03 -0.71422463275E+02  0.53311718114E+03  0.57614839726E+03  0.10100000352E+00 0. -1.
       -3    1    3    3    0  502 -0.20647486138E+03  0.71422463275E+02 -0.69873113310E+03  0.73209169043E+03  0.10100000352E+00 0.  1.
</event>
<event>
 5   0  0.5710383E-04  0.1295395E+04  0.7818609E-02  0.9033225E-01
        1   -1    0    0  501    0  0.00000000000E+00  0.00000000000E+00  0.82104330092E+03  0.82104330094E+03  0.50400001928E-02 0. -1.
       -1   -1    0    0    0  501  0.00000000000E+00  0.00000000000E+00 -0.51095017013E+03  0.51095017016E+03  0.50400001928E-02 0.  1.
    10030    2    1    2    0    0  0.00000000000E+00  0.00000000000E+00  0.31009313079E+03  0.13319934711E+04  0.12953952514E+04 0.  0.
        1    1    3    3  502    0 -0.41183945343E+03  0.30602227128E+03  0.56150017750E+03  0.76062067766E+03  0.50400001928E-02 0. -1.
       -1    1    3    3    0  502  0.41183945343E+03 -0.30602227128E+03 -0.25140704671E+03  0.57137279344E+03  0.50400001928E-02 0.  1.
</event>
<event>
 5   0  0.1103241E-03  0.1306906E+04  0.7818609E-02  0.9024107E-01
        2   -1    0    0  501    0  0.00000000000E+00  0.00000000000E+00  0.14542537148E+04  0.14542537148E+04  0.25500000920E-02 0.  1.
       -2   -1    0    0    0  501  0.00000000000E+00  0.00000000000E+00 -0.29362177527E+03  0.29362177528E+03  0.25500000920E-02 0. -1.
    10030    2    1    2    0    0  0.00000000000E+00  0.00000000000E+00  0.11606319395E+04  0.17478754901E+04  0.13069055933E+04 0.  0.
        4    1    3    3  502    0 -0.29894494952E+03  0.38118126669E+03  0.11668479747E+04  0.12634092963E+04  0.12699999809E+01 0.  1.
       -4    1    3    3    0  502  0.29894494952E+03 -0.38118126669E+03 -0.62160352134E+01  0.48446619378E+03  0.12699999809E+01 0. -1.
</event>
<event>
 5   0  0.5812938E-04  0.1302580E+04  0.7818609E-02  0.9027522E-01
       -1   -1    0    0    0  501  0.00000000000E+00  0.00000000000E+00  0.30746648864E+03  0.30746648869E+03  0.50400001928E-02 0.  1.
        1   -1    0    0  501    0  0.00000000000E+00  0.00000000000E+00 -0.13795928157E+04  0.13795928157E+04  0.50400001928E-02 0. -1.
    10030    2    1    2    0    0  0.00000000000E+00  0.00000000000E+00 -0.10721263270E+04  0.16870593043E+04  0.13025798384E+04 0.  0.
        5    1    3    3  502    0 -0.29662796694E+03  0.32641196162E+03 -0.11566952296E+04  0.12379413814E+04  0.46999998093E+01 0. -1.
       -5    1    3    3    0  502  0.29662796694E+03 -0.32641196162E+03  0.84568902621E+02  0.44911792298E+03  0.46999998093E+01 0.  1.
</event>
<event>
 5   0  0.6006119E-04  0.1297022E+04  0.7818609E-02  0.9031930E-01
       -1   -1    0    0    0  501  0.00000000000E+00  0.00000000000E+00  0.12580916689E+04  0.12580916689E+04  0.50400001928E-02 0. -1.
        1   -1    0    0  501    0  0.00000000000E+00  0.00000000000E+00 -0.33428914843E+03  0.33428914847E+03  0.50400001928E-02 0.  1.
    10030    2    1    2    0    0  0.00000000000E+00  0.00000000000E+00  0.92380252050E+03  0.15923808174E+04  0.12970218081E+04 0.  0.
        4    1    3    3  502    0  0.41019699157E+03 -0.19505766550E+03  0.10301858330E+04  0.11258745615E+04  0.12699999809E+01 0. -1.
       -4    1    3    3    0  502 -0.41019699157E+03  0.19505766550E+03 -0.10638331249E+03  0.46650625594E+03  0.12699999809E+01 0.  1.
</event>
<event>
 5   0  0.5563545E-04  0.1274699E+04  0.7818609E-02  0.9049873E-01
        1   -1    0    0  501    0  0.00000000000E+00  0.00000000000E+00  0.12504582101E+04  0.12504582101E+04  0.50400001928E-02 0.  1.
       -1   -1    0    0    0  501  0.00000000000E+00  0.00000000000E+00 -0.32485254751E+03  0.32485254755E+03  0.50400001928E-02 0. -1.
    10030    2    1    2    0    0  0.00000000000E+00  0.00000000000E+00  0.92560566258E+03  0.15753107576E+04  0.12746992353E+04 0.  0.
        2    1    3    3  502    0  0.39593510898E+03 -0.46661512307E+03  0.24269939409E+03  0.65832915742E+03  0.25500000920E-02 0. -1.
       -2    1    3    3    0  502 -0.39593510898E+03  0.46661512307E+03  0.68290626849E+03  0.91698160023E+03  0.25500000920E-02 0.  1.
</event>
<event>
 5   0  0.1046253E-03  0.1307186E+04  0.7818609E-02  0.9023886E-01
        2   -1    0    0  501    0  0.00000000000E+00  0.00000000000E+00  0.21211668737E+04  0.21211668737E+04  0.25500000920E-02 0.  1.
       -2   -1    0    0    0  501  0.00000000000E+00  0.00000000000E+00 -0.20139084721E+03  0.20139084722E+03  0.25500000920E-02 0. -1.
    10030    2    1    2    0    0  0.00000000000E+00  0.00000000000E+00  0.19197760265E+04  0.23225577209E+04  0.13071856697E+04 0.  0.
        3    1    3    3  502    0  0.23202440996E+03  0.34138431489E+03  0.18602786722E+04  0.19055223236E+04  0.10100000352E+00 0.  1.
       -3    1    3    3    0  502 -0.23202440996E+03 -0.34138431489E+03  0.59497354313E+02  0.41703539735E+03  0.10100000352E+00 0. -1.
</event>
<event>
 5   0  0.1103241E-03  0.1295451E+04  0.7818609E-02  0.9033180E-01
        2   -1    0    0  501    0  0.00000000000E+00  0.00000000000E+00  0.10312545403E+04  0.10312545403E+04  0.25500000920E-02 0. -1.
       -2   -1    0    0    0  501  0.00000000000E+00  0.00000000000E+00 -0.40683315471E+03  0.40683315471E+03  0.25500000920E-02 0.  1.
    10030    2    1    2    0    0  0.00000000000E+00  0.00000000000E+00  0.62442138556E+03  0.14380876950E+04  0.12954513313E+04 0.  0.
        4    1    3    3  502    0 -0.44718977750E+03 -0.35039417615E+03 -0.33159088288E+02  0.56908339795E+03  0.12699999809E+01 0. -1.
       -4    1    3    3    0  502  0.44718977750E+03  0.35039417615E+03  0.65758047385E+03  0.86900429703E+03  0.12699999809E+01 0.  1.
</event>
<event>
 5   0  0.1046253E-03  0.1313167E+04  0.7818609E-02  0.9019188E-01
       -2   -1    0    0    0  501  0.00000000000E+00  0.00000000000E+00  0.24202611888E+03  0.24202611889E+03  0.25500000920E-02 0. -1.
        2   -1    0    0  501    0  0.00000000000E+00  0.00000000000E+00 -0.17812210941E+04  0.17812210941E+04  0.25500000920E-02 0.  1.
    10030    2    1    2    0    0  0.00000000000E+00  0.00000000000E+00 -0.15391949753E+04  0.20232472130E+04  0.13131672069E+04 0.  0.
        3    1    3    3  502    0 -0.56407838331E+03  0.19341315429E+03 -0.11929753345E+04  0.13337103245E+04  0.10100000352E+00 0.  1.
       -3    1    3    3    0  502  0.56407838331E+03 -0.19341315429E+03 -0.34621964073E+03  0.68953688850E+03  0.10100000352E+00 0. -1.
</event>
<event>
 5   0  0.1046253E-03  0.1322037E+04  0.7818609E-02  0.9012270E-01
       -2   -1    0    0    0  501  0.00000000000E+00  0.00000000000E+00  0.18423468088E+03  0.18423468090E+03  0.25500000920E-02 0.  1.
        2   -1    0    0  501    0  0.00000000000E+00  0.00000000000E+00 -0.23716786663E+04  0.23716786663E+04  0.25500000920E-02 0. -1.
    10030    2    1    2    0    0  0.00000000000E+00  0.00000000000E+00 -0.21874439855E+04  0.25559133472E+04  0.13220370075E+04 0.  0.
        3    1    3    3  502    0  0.33355083386E+03  0.51406885797E+03 -0.61457775779E+03  0.86788753884E+03  0.10100000352E+00 0.  1.
       -3    1    3    3    0  502 -0.33355083386E+03 -0.51406885797E+03 -0.15728662277E+04  0.16880258084E+04  0.10100000352E+00 0. -1.
</event>
<event>
 5   0  0.5812938E-04  0.1298795E+04  0.7818609E-02  0.9030521E-01
        1   -1    0    0  501    0  0.00000000000E+00  0.00000000000E+00  0.98953842633E+03  0.98953842634E+03  0.50400001928E-02 0.  1.
       -1   -1    0    0    0  501  0.00000000000E+00  0.00000000000E+00 -0.42617542215E+03  0.42617542218E+03  0.50400001928E-02 0. -1.
    10030    2    1    2    0    0  0.00000000000E+00  0.00000000000E+00  0.56336300417E+03  0.14157138485E+04  0.12987947592E+04 0.  0.
        5    1    3    3  502    0 -0.59819593997E+03  0.10127620389E+03  0.29324252113E+02  0.60743497909E+03  0.46999998093E+01 0. -1.
       -5    1    3    3    0  502  0.59819593997E+03 -0.10127620389E+03  0.53403875206E+03  0.80827886943E+03  0.46999998093E+01 0.  1.
</event>
<event>
 5   0  0.6006119E-04  0.1304028E+04  0.7818609E-02  0.9026377E-01
       -1   -1    0    0    0  501  0.00000000000E+00  0.00000000000E+00  0.13390324488E+04  0.13390324489E+04  0.50400001928E-02 0. -1.
        1   -1    0    0  501    0  0.00000000000E+00  0.00000000000E+00 -0.31748452425E+03  0.31748452429E+03  0.50400001928E-02 0.  1.
    10030    2    1    2    0    0  0.00000000000E+00  0.00000000000E+00  0.10215479246E+04  0.16565169731E+04  0.13040277298E+04 0.  0.
        4    1    3    3  502    0  0.81154501030E+02  0.19174963458E+03 -0.27411453958E+03  0.34423011070E+03  0.12699999809E+01 0.  1.
       -4    1    3    3    0  502 -0.81154501030E+02 -0.19174963458E+03  0.12956624642E+04  0.13122868624E+04  0.12699999809E+01 0. -1.
</event>
<event>
 5   0  0.5812938E-04  0.1302254E+04  0.7818609E-02  0.9027779E-01
        1   -1    0    0  501    0  0.00000000000E+00  0.00000000000E+00  0.89443372183E+03  0.89443372184E+03  0.50400001928E-02 0.  1.
       -1   -1    0    0    0  501  0.00000000000E+00  0.00000000000E+00 -0.47400549289E+03  0.47400549292E+03  0.50400001928E-02 0. -1.
    10030    2    1    2    0    0  0.00000000000E+00  0.00000000000E+00  0.42042822894E+03  0.13684392148E+04  0.13022541952E+04 0.  0.
        5    1    3    3  502    0 -0.22804852162E+03  0.35077011074E+03 -0.31403895286E+03  0.52315232267E+03  0.46999998093E+01 0. -1.
       -5    1    3    3    0  502  0.22804852162E+03 -0.35077011074E+03  0.73446718180E+03  0.84528689209E+03  0.46999998093E+01 0.  1.
</event>
<event>
 5   0  0.5710383E-04  0.1308865E+04  0.7818609E-02  0.9022564E-01
        1   -1    0    0  501    0  0.00000000000E+00  0.00000000000E+00  0.54033265526E+03  0.54033265529E+03  0.50400001928E-02 0. -1.
       -1   -1    0    0    0  501  0.00000000000E+00  0.00000000000E+00 -0.79262654017E+03  0.79262654019E+03  0.50400001928E-02 0.  1.
    10030    2    1    2    0    0  0.00000000000E+00  0.00000000000E+00 -0.25229388491E+03  0.13329591955E+04  0.13088651621E+04 0.  0.
        1    1    3    3  502    0  0.48194520808E+03 -0.39711751415E+03  0.73181611973E+02  0.62875197971E+03  0.50400001928E-02 0. -1.
       -1    1    3    3    0  502 -0.48194520808E+03  0.39711751415E+03 -0.32547549688E+03  0.70420721576E+03  0.50400001928E-02 0.  1.
</event>
<event>
 5   0  0.1103241E-03  0.1297343E+04  0.7818609E-02  0.9031675E-01
        2   -1    0    0  501    0  0.00000000000E+00  0.00000000000E+00  0.18228194849E+04  0.18228194849E+04  0.25500000920E-02 0. -1.
       -2   -1    0    0    0  501  0.00000000000E+00  0.00000000000E+00 -0.23083737585E+03  0.23083737586E+03  0.25500000920E-02 0.  1.
    10030    2    1    2    0    0  0.00000000000E+00  0.00000000000E+00  0.15919821091E+04  0.20536568608E+04  0.12973432338E+04 0.  0.
        4    1    3    3  502    0  0.62776521759E+03 -0.18908154592E+02  0.10528354562E+04  0.12259326235E+04  0.12699999809E+01 0.  1.
       -4    1    3    3    0  502 -0.62776521759E+03  0.18908154592E+02  0.53914665289E+03  0.82772423726E+03  0.12699999809E+01 0. -1.
</event>
<event>
 5   0  0.1101619E-03  0.1295958E+04  0.7818609E-02  0.9032777E-01
        2   -1    0    0  501    0  0.00000000000E+00  0.00000000000E+00  0.51156902945E+03  0.51156902945E+03  0.25500000920E-02 0.  1.
       -2   -1    0    0    0  501  0.00000000000E+00  0.00000000000E+00 -0.82076286032E+03  0.82076286032E+03  0.25500000920E-02 0. -1.
    10030    2    1    2    0    0  0.00000000000E+00  0.00000000000E+00 -0.30919383087E+03  0.13323318898E+04  0.12959581164E+04 0.  0.
        1    1    3    3  502    0 -0.54175815720E+03  0.27759573862E+03 -0.38290088511E+03  0.71914837331E+03  0.50400001928E-02 0. -1.
       -1    1    3    3    0  502  0.54175815720E+03 -0.27759573862E+03  0.73707054241E+02  0.61318351646E+03  0.50400001928E-02 0.  1.
</event>
<event>
 5   0  0.1031295E-03  0.1299087E+04  0.7818609E-02  0.9030289E-01
        2   -1    0    0  501    0  0.00000000000E+00  0.00000000000E+00  0.17371965140E+04  0.17371965140E+04  0.25500000920E-02 0.  1.
       -2   -1    0    0    0  501  0.00000000000E+00  0.00000000000E+00 -0.24286661791E+03  0.24286661793E+03  0.25500000920E-02 0. -1.
    10030    2    1    2    0    0  0.00000000000E+00  0.00000000000E+00  0.14943298961E+04  0.19800631319E+04  0.12990874366E+04 0.  0.
        2    1    3    3  502    0 -0.20494264359E+03  0.41775196350E+02  0.16844650667E+04  0.16974007232E+04  0.25500000920E-02 0.  1.
       -2    1    3    3    0  502  0.20494264359E+03 -0.41775196350E+02 -0.19013517062E+03  0.28266240872E+03  0.25500000920E-02 0. -1.
</event>
<event>
 5   0  0.5766027E-04  0.1304358E+04  0.7818609E-02  0.9026116E-01
       -1   -1    0    0    0  501  0.00000000000E+00  0.00000000000E+00  0.75011844473E+03  0.75011844474E+03  0.50400001928E-02 0. -1.
        1   -1    0    0  501    0  0.00000000000E+00  0.00000000000E+00 -0.56702694795E+03  0.56702694797E+03  0.50400001928E-02 0.  1.
    10030    2    1    2    0    0  0.00000000000E+00  0.00000000000E+00  0.18309149678E+03  0.13171453927E+04  0.13043578839E+04 0.  0.
        3    1    3    3  502    0  0.37537791938E+03  0.39019735817E+03 -0.27557698896E+03  0.60754032601E+03  0.10100000352E+00 0.  1.
       -3    1    3    3    0  502 -0.37537791938E+03 -0.39019735817E+03  0.45866848574E+03  0.70960506670E+03  0.10100000352E+00 0. -1.
</event>
<event>
 5   0  0.1046253E-03  0.1404590E+04  0.7818609E-02  0.8950502E-01
        2   -1    0    0  501    0  0.00000000000E+00  0.00000000000E+00  0.63064055027E+03  0.63064055027E+03  0.25500000920E-02 0.  1.
       -2   -1    0    0    0  501  0.00000000000E+00  0.00000000000E+00 -0.78209143462E+03  0.78209143462E+03  0.25500000920E-02 0. -1.
    10030    2    1    2    0    0  0.00000000000E+00  0.00000000000E+00 -0.15145088435E+03  0.14127319849E+04  0.14045904352E+04 0.  0.
        3    1    3    3  502    0 -0.42191401024E+03 -0.27393506492E+03  0.41718324935E+03  0.65352408185E+03  0.10100000352E+00 0.  1.
       -3    1    3    3    0  502  0.42191401024E+03  0.27393506492E+03 -0.56863413370E+03  0.75920790304E+03  0.10100000352E+00 0. -1.
</event>
<event>
 5   0  0.1081574E-03  0.1299210E+04  0.7818609E-02  0.9030192E-01
        2   -1    0    0  501    0  0.00000000000E+00  0.00000000000E+00  0.12728228803E+04  0.12728228803E+04  0.25500000920E-02 0.  1.
       -2   -1    0    0    0  501  0.00000000000E+00  0.00000000000E+00 -0.33153592738E+03  0.33153592739E+03  0.25500000920E-02 0. -1.
    10030    2    1    2    0    0  0.00000000000E+00  0.00000000000E+00  0.94128695294E+03  0.16043588077E+04  0.12992097814E+04 0.  0.
        5    1    3    3  502    0  0.38291627785E+01 -0.13020802560E+03  0.12565074696E+04  0.12632505308E+04  0.46999998093E+01 0.  1.
       -5    1    3    3    0  502 -0.38291627785E+01  0.13020802560E+03 -0.31522051669E+03  0.34110827688E+03  0.46999998093E+01 0. -1.
</event>
<event>
 5   0  0.1101619E-03  0.1272096E+04  0.7818609E-02  0.9051990E-01
       -2   -1    0    0    0  501  0.00000000000E+00  0.00000000000E+00  0.82110531886E+03  0.82110531886E+03  0.25500000920E-02 0. -1.
        2   -1    0    0  501    0  0.00000000000E+00  0.00000000000E+00 -0.49269835152E+03  0.49269835153E+03  0.25500000920E-02 0.  1.
    10030    2    1    2    0    0  0.00000000000E+00  0.00000000000E+00  0.32840696734E+03  0.13138036704E+04  0.12720962810E+04 0.  0.
        1    1    3    3  502    0 -0.53411151534E+03  0.32104211143E+03  0.29571287343E+03  0.68977478329E+03  0.50400001928E-02 0.  1.
       -1    1    3    3    0  502  0.53411151534E+03 -0.32104211143E+03  0.32694093908E+02  0.62402888710E+03  0.50400001928E-02 0. -1.
</event>
<event>
 5   0  0.5766027E-04  0.1300293E+04  0.7818609E-02  0.9029333E-01
        1   -1    0    0  501    0  0.00000000000E+00  0.00000000000E+00  0.11389951572E+04  0.11389951572E+04  0.50400001928E-02 0.  1.
       -1   -1    0    0    0  501  0.00000000000E+00  0.00000000000E+00 -0.37110829720E+03  0.37110829724E+03  0.50400001928E-02 0. -1.
    10030    2    1    2    0    0  0.00000000000E+00  0.00000000000E+00  0.76788686002E+03  0.15101034545E+04  0.13002931260E+04 0.  0.
        3    1    3    3  502    0  0.32704482146E+03  0.46280055606E+03  0.75402789102E+03  0.94323949269E+03  0.10100000352E+00 0.  1.
       -3    1    3    3    0  502 -0.32704482146E+03 -0.46280055606E+03  0.13858968999E+02  0.56686396177E+03  0.10100000352E+00 0. -1.
</event>
<event>
 5   0  0.6006119E-04  0.1323613E+04  0.7818609E-02  0.9011046E-01
       -1   -1    0    0    0  501  0.00000000000E+00  0.00000000000E+00  0.86155686382E+03  0.86155686384E+03  0.50400001928E-02 0.  1.
        1   -1    0    0  501    0  0.00000000000E+00  0.00000000000E+00 -0.50836823094E+03  0.50836823097E+03  0.50400001928E-02 0. -1.
    10030    2    1    2    0    0  0.00000000000E+00  0.00000000000E+00  0.35318863288E+03  0.13699250948E+04  0.13236134462E+04 0.  0.
        4    1    3    3  502    0 -0.42492136269E+03  0.15894921059E+02 -0.34827432586E+03  0.54964300408E+03  0.12699999809E+01 0. -1.
       -4    1    3    3    0  502  0.42492136269E+03 -0.15894921059E+02  0.70146295874E+03  0.82028209073E+03  0.12699999809E+01 0.  1.
</event>
<event>
 5   0  0.5766027E-04  0.1309527E+04  0.7818609E-02  0.9022044E-01
       -1   -1    0    0    0  501  0.00000000000E+00  0.00000000000E+00  0.74696955480E+03  0.74696955482E+03  0.50400001928E-02 0. -1.
        1   -1    0    0  501    0  0.00000000000E+00  0.00000000000E+00 -0.57393969517E+03  0.57393969519E+03  0.50400001928E-02 0.  1.
    10030    2    1    2    0    0  0.00000000000E+00  0.00000000000E+00  0.17302985963E+03  0.13209092500E+04  0.13095273630E+04 0.  0.
        3    1    3    3  502    0 -0.63443661076E+03 -0.16166332634E+03  0.94991796313E+02  0.66156503514E+03  0.10100000352E+00 0.  1.
       -3    1    3    3    0  502  0.63443661076E+03  0.16166332634E+03  0.78038063320E+02  0.65934421487E+03  0.10100000352E+00 0. -1.
</event>
<event>
 5   0  0.1103241E-03  0.1299491E+04  0.7818609E-02  0.9029969E-01
        2   -1    0    0  501    0  0.00000000000E+00  0.00000000000E+00  0.11923182241E+04  0.11923182241E+04  0.25500000920E-02 0. -1.
       -2   -1    0    0    0  501  0.00000000000E+00  0.00000000000E+00 -0.35407403930E+03  0.35407403930E+03  0.25500000920E-02 0.  1.
    10030    2    1    2    0    0  0.00000000000E+00  0.00000000000E+00  0.83824418478E+03  0.15463922634E+04  0.12994905613E+04 0.  0.
        4    1    3    3  502    0 -0.15160659806E+03  0.19077492737E+03 -0.29763633182E+03  0.38466691099E+03  0.12699999809E+01 0.  1.
       -4    1    3    3    0  502  0.15160659806E+03 -0.19077492737E+03  0.11358805166E+04  0.11617253524E+04  0.12699999809E+01 0. -1.
</event>
<event>
 5   0  0.1081574E-03  0.1294567E+04  0.7818609E-02  0.9033885E-01
       -2   -1    0    0    0  501  0.00000000000E+00  0.00000000000E+00  0.93176878140E+03  0.93176878140E+03  0.25500000920E-02 0. -1.
        2   -1    0    0  501    0  0.00000000000E+00  0.00000000000E+00 -0.44965643386E+03  0.44965643387E+03  0.25500000920E-02 0.  1.
    10030    2    1    2    0    0  0.00000000000E+00  0.00000000000E+00  0.48211234754E+03  0.13814252153E+04  0.12945668425E+04 0.  0.
        5    1    3    3  502    0  0.23357288652E+03 -0.20157638445E+03  0.84823616281E+03  0.90261620304E+03  0.46999998093E+01 0. -1.
       -5    1    3    3    0  502 -0.23357288652E+03  0.20157638445E+03 -0.36612381528E+03  0.47880901223E+03  0.46999998093E+01 0.  1.
</event>
<event>
 5   0  0.1031295E-03  0.1300396E+04  0.7818609E-02  0.9029251E-01
       -2   -1    0    0    0  501  0.00000000000E+00  0.00000000000E+00  0.78614835358E+03  0.78614835358E+03  0.25500000920E-02 0.  1.
        2   -1    0    0  501    0  0.00000000000E+00  0.00000000000E+00 -0.53775801616E+03  0.53775801617E+03  0.25500000920E-02 0. -1.
    10030    2    1    2    0    0  0.00000000000E+00  0.00000000000E+00  0.24839033741E+03  0.13239063698E+04  0.13003962151E+04 0.  0.
        2    1    3    3  502    0  0.46960279005E+03  0.54957429299E+02  0.57859448100E+03  0.74720724897E+03  0.25500000920E-02 0.  1.
       -2    1    3    3    0  502 -0.46960279005E+03 -0.54957429299E+02 -0.33020414359E+03  0.57669912078E+03  0.25500000920E-02 0. -1.
</event>
<event>
 5   0  0.1046253E-03  0.1216491E+04  0.7818609E-02  0.9098543E-01
       -2   -1    0    0    0  501  0.00000000000E+00  0.00000000000E+00  0.36935935560E+03  0.36935935561E+03  0.25500000920E-02 0. -1.
        2   -1    0    0  501    0  0.00000000000E+00  0.00000000000E+00 -0.10016332253E+04  0.10016332253E+04  0.25500000920E-02 0.  1.
    10030    2    1    2    0    0  0.00000000000E+00  0.00000000000E+00 -0.63227386974E+03  0.13709925810E+04  0.12164910237E+04 0.  0.
        3    1    3    3  502    0  0.50373457492E+03  0.32805484286E+03 -0.21165862003E+03  0.63731301848E+03  0.10100000352E+00 0. -1.
       -3    1    3    3    0  502 -0.50373457492E+03 -0.32805484286E+03 -0.42061524971E+03  0.73367956247E+03  0.10100000352E+00 0.  1.
</event>
<event>
 5   0  0.1031295E-03  0.1298607E+04  0.7818609E-02  0.9030670E-01
       -2   -1    0    0    0  501  0.00000000000E+00  0.00000000000E+00  0.26837062018E+03  0.26837062019E+03  0.25500000920E-02 0. -1.
        2   -1    0    0  501    0  0.00000000000E+00  0.00000000000E+00 -0.15709440245E+04  0.15709440245E+04  0.25500000920E-02 0.  1.
    10030    2    1    2    0    0  0.00000000000E+00  0.00000000000E+00 -0.13025734044E+04  0.18393146447E+04  0.12986072880E+04 0.  0.
        2    1    3    3  502    0  0.64259066303E+03 -0.65045391260E+02 -0.74568103262E+03  0.98650588724E+03  0.25500000920E-02 0. -1.
       -2    1    3    3    0  502 -0.64259066303E+03  0.65045391260E+02 -0.55689237175E+03  0.85280875750E+03  0.25500000920E-02 0.  1.
</event>
<event>
 5   0  0.1046253E-03  0.1285564E+04  0.7818609E-02  0.9041092E-01
       -2   -1    0    0    0  501  0.00000000000E+00  0.00000000000E+00  0.28630507152E+03  0.28630507153E+03  0.25500000920E-02 0. -1.
        2   -1    0    0  501    0  0.00000000000E+00  0.00000000000E+00 -0.14431061808E+04  0.14431061808E+04  0.25500000920E-02 0.  1.
    10030    2    1    2    0    0  0.00000000000E+00  0.00000000000E+00 -0.11568011093E+04  0.17294112524E+04  0.12855638737E+04 0.  0.
        3    1    3    3  502    0  0.16369784575E+03  0.40562766611E+03 -0.12120111268E+04  0.12885269768E+04  0.10100000352E+00 0.  1.
       -3    1    3    3    0  502 -0.16369784575E+03 -0.40562766611E+03  0.55210017495E+02  0.44088427558E+03  0.10100000352E+00 0. -1.
</event>
<event>
 5   0  0.1046253E-03  0.1290713E+04  0.7818609E-02  0.9036962E-01
        2   -1    0    0  501    0  0.00000000000E+00  0.00000000000E+00  0.38099347703E+03  0.38099347704E+03  0.25500000920E-02 0.  1.
       -2   -1    0    0    0  501  0.00000000000E+00  0.00000000000E+00 -0.10931556700E+04  0.10931556700E+04  0.25500000920E-02 0. -1.
    10030    2    1    2    0    0  0.00000000000E+00  0.00000000000E+00 -0.71216219293E+03  0.14741491470E+04  0.12907132596E+04 0.  0.
        3    1    3    3  502    0 -0.80248285629E+01 -0.21471086556E+02 -0.10926905961E+04  0.10929309926E+04  0.10100000352E+00 0. -1.
       -3    1    3    3    0  502  0.80248285629E+01  0.21471086556E+02  0.38052840320E+03  0.38121815444E+03  0.10100000352E+00 0.  1.
</event>
<event>
 5   0  0.1103241E-03  0.1294705E+04  0.7818609E-02  0.9033775E-01
        2   -1    0    0  501    0  0.00000000000E+00  0.00000000000E+00  0.14224553644E+04  0.14224553644E+04  0.25500000920E-02 0.  1.
       -2   -1    0    0    0  501  0.00000000000E+00  0.00000000000E+00 -0.29460684379E+03  0.29460684380E+03  0.25500000920E-02 0. -1.
    10030    2    1    2    0    0  0.00000000000E+00  0.00000000000E+00  0.11278485206E+04  0.17170622082E+04  0.12947047313E+04 0.  0.
        4    1    3    3  502    0 -0.55012803042E+03 -0.30419205998E+02  0.11321010268E+03  0.56248050472E+03  0.12699999809E+01 0. -1.
       -4    1    3    3    0  502  0.55012803042E+03  0.30419205998E+02  0.10146384179E+04  0.11545817035E+04  0.12699999809E+01 0.  1.
</event>
<event>
 5   0  0.5766027E-04  0.1294040E+04  0.7818609E-02  0.9034305E-01
       -1   -1    0    0    0  501  0.00000000000E+00  0.00000000000E+00  0.71886675056E+03  0.71886675057E+03  0.50400001928E-02 0.  1.
        1   -1    0    0  501    0  0.00000000000E+00  0.00000000000E+00 -0.58235359652E+03  0.58235359654E+03  0.50400001928E-02 0. -1.
    10030    2    1    2    0    0  0.00000000000E+00  0.00000000000E+00  0.13651315404E+03  0.13012203471E+04  0.12940396248E+04 0.  0.
        3    1    3    3  502    0  0.42169615157E+03  0.13412156541E+03  0.54291236982E+03  0.70040708882E+03  0.10100000352E+00 0.  1.
       -3    1    3    3    0  502 -0.42169615157E+03 -0.13412156541E+03 -0.40639921579E+03  0.60081325830E+03  0.10100000352E+00 0. -1.
</event>
<event>
 5   0  0.5563545E-04  0.1310107E+04  0.7818609E-02  0.9021588E-01
        1   -1    0    0  501    0  0.00000000000E+00  0.00000000000E+00  0.13272966226E+04  0.13272966226E+04  0.50400001928E-02 0. -1.
       -1   -1    0    0    0  501  0.00000000000E+00  0.00000000000E+00 -0.32328501366E+03  0.32328501370E+03  0.50400001928E-02 0.  1.
    10030    2    1    2    0    0  0.00000000000E+00  0.00000000000E+00  0.10040116089E+04  0.16505816363E+04  0.13101070289E+04 0.  0.
        2    1    3    3  502    0  0.14324242284E+03  0.23490587450E+02 -0.30276751484E+03  0.33576534581E+03  0.25500000920E-02 0.  1.
       -2    1    3    3    0  502 -0.14324242284E+03 -0.23490587450E+02  0.13067791238E+04  0.13148162905E+04  0.25500000920E-02 0. -1.
</event>
<event>
 5   0  0.5563545E-04  0.1296094E+04  0.7818609E-02  0.9032668E-01
       -1   -1    0    0    0  501  0.00000000000E+00  0.00000000000E+00  0.38959361907E+03  0.38959361911E+03  0.50400001928E-02 0. -1.
        1   -1    0    0  501    0  0.00000000000E+00  0.00000000000E+00 -0.10779566039E+04  0.10779566039E+04  0.50400001928E-02 0.  1.
    10030    2    1    2    0    0  0.00000000000E+00  0.00000000000E+00 -0.68836298479E+03  0.14675502230E+04  0.12960941548E+04 0.  0.
        2    1    3    3  502    0 -0.20824946046E+03  0.48205386964E+03  0.85821065125E+02  0.53207990589E+03  0.25500000920E-02 0. -1.
       -2    1    3    3    0  502  0.20824946046E+03 -0.48205386964E+03 -0.77418404991E+03  0.93547031710E+03  0.25500000920E-02 0.  1.
</event>
<event>
 5   0  0.5766027E-04  0.1299087E+04  0.7818609E-02  0.9030290E-01
        1   -1    0    0  501    0  0.00000000000E+00  0.00000000000E+00  0.43177031929E+03  0.43177031932E+03  0.50400001928E-02 0.  1.
       -1   -1    0    0    0  501  0.00000000000E+00  0.00000000000E+00 -0.97715514316E+03  0.97715514317E+03  0.50400001928E-02 0. -1.
    10030    2    1    2    0    0  0.00000000000E+00  0.00000000000E+00 -0.54538482386E+03  0.14089254625E+04  0.12990867380E+04 0.  0.
        3    1    3    3  502    0 -0.27807951400E+03  0.55496462486E+02  0.36109596705E+03  0.45912784829E+03  0.10100000352E+00 0.  1.
       -3    1    3    3    0  502  0.27807951400E+03 -0.55496462486E+02 -0.90648079091E+03  0.94979761420E+03  0.10100000352E+00 0. -1.
</event>
<event>
 5   0  0.1101619E-03  0.1289248E+04  0.7818609E-02  0.9038135E-01
       -2   -1    0    0    0  501  0.00000000000E+00  0.00000000000E+00  0.31001188093E+03  0.31001188094E+03  0.25500000920E-02 0.  1.
        2   -1    0    0  501    0  0.00000000000E+00  0.00000000000E+00 -0.13404011216E+04  0.13404011216E+04  0.25500000920E-02 0. -1.
    10030    2    1    2    0    0  0.00000000000E+00  0.00000000000E+00 -0.10303892407E+04  0.16504130025E+04  0.12892482661E+04 0.  0.
        1    1    3    3  502    0 -0.64258093423E+02 -0.11487294474E+03 -0.13230155361E+04  0.13295469171E+04  0.50400001928E-02 0. -1.
       -1    1    3    3    0  502  0.64258093423E+02  0.11487294474E+03  0.29262629541E+03  0.32086608546E+03  0.50400001928E-02 0.  1.
</event>
<event>
 5   0  0.5766027E-04  0.1313402E+04  0.7818609E-02  0.9019004E-01
        1   -1    0    0  501    0  0.00000000000E+00  0.00000000000E+00  0.73476140365E+03  0.73476140367E+03  0.50400001928E-02 0. -1.
       -1   -1    0    0    0  501  0.00000000000E+00  0.00000000000E+00 -0.58693399153E+03  0.58693399155E+03  0.50400001928E-02 0.  1.
    10030    2    1    2    0    0  0.00000000000E+00  0.00000000000E+00  0.14782741212E+03  0.13216953952E+04  0.13134023656E+04 0.  0.
        3    1    3    3  502    0  0.28899119071E+03  0.52131129119E+03 -0.20346244420E+03  0.62982406038E+03  0.10100000352E+00 0.  1.
       -3    1    3    3    0  502 -0.28899119071E+03 -0.52131129119E+03  0.35128985632E+03  0.69187133485E+03  0.10100000352E+00 0. -1.
</event>
<event>
 5   0  0.1046253E-03  0.1291186E+04  0.7818609E-02  0.9036584E-01
        2   -1    0    0  501    0  0.00000000000E+00  0.00000000000E+00  0.32870231109E+03  0.32870231110E+03  0.25500000920E-02 0.  1.
       -2   -1    0    0    0  501  0.00000000000E+00  0.00000000000E+00 -0.12679871738E+04  0.12679871738E+04  0.25500000920E-02 0. -1.
    10030    2    1    2    0    0  0.00000000000E+00  0.00000000000E+00 -0.93928486271E+03  0.15966894849E+04  0.12911859889E+04 0.  0.
        3    1    3    3  502    0  0.58951330174E+03 -0.24673851942E+03 -0.35641032630E+03  0.73173366794E+03  0.10100000352E+00 0.  1.
       -3    1    3    3    0  502 -0.58951330174E+03  0.24673851942E+03 -0.58287453640E+03  0.86495581695E+03  0.10100000352E+00 0. -1.
</event>
<event>
 5   0  0.5710383E-04  0.1299607E+04  0.7818609E-02  0.9029877E-01
        1   -1    0    0  501    0  0.00000000000E+00  0.00000000000E+00  0.10107424574E+04  0.10107424574E+04  0.50400001928E-02 0. -1.
       -1   -1    0    0    0  501  0.00000000000E+00  0.00000000000E+00 -0.41775682648E+03  0.41775682651E+03  0.50400001928E-02 0.  1.
    10030    2    1    2    0    0  0.00000000000E+00  0.00000000000E+00  0.59298563096E+03  0.14284992840E+04  0.12996069582E+04 0.  0.
        1    1    3    3  502    0  0.58230993032E+03 -0.24056084306E+03  0.47129385923E+03  0.78681146149E+03  0.50400001928E-02 0. -1.
       -1    1    3    3    0  502 -0.58230993032E+03  0.24056084306E+03  0.12169177173E+03  0.64168782246E+03  0.50400001928E-02 0.  1.
</event>
<event>
 5   0  0.1103241E-03  0.1288614E+04  0.7818609E-02  0.9038644E-01
       -2   -1    0    0    0  501  0.00000000000E+00  0.00000000000E+00  0.28128543048E+03  0.28128543049E+03  0.25500000920E-02 0. -1.
        2   -1    0    0  501    0  0.00000000000E+00  0.00000000000E+00 -0.14758364091E+04  0.14758364091E+04  0.25500000920E-02 0.  1.
    10030    2    1    2    0    0  0.00000000000E+00  0.00000000000E+00 -0.11945509786E+04  0.17571218396E+04  0.12886136421E+04 0.  0.
        4    1    3    3  502    0 -0.90423143162E+02  0.39904485769E+03  0.81391366751E+02  0.41718018979E+03  0.12699999809E+01 0. -1.
       -4    1    3    3    0  502  0.90423143162E+02 -0.39904485769E+03 -0.12759423454E+04  0.13399416498E+04  0.12699999809E+01 0.  1.
</event>
<event>
 5   0  0.1103241E-03  0.1305240E+04  0.7818609E-02  0.9025420E-01
       -2   -1    0    0    0  501  0.00000000000E+00  0.00000000000E+00  0.41603427137E+03  0.41603427138E+03  0.25500000920E-02 0.  1.
        2   -1    0    0  501    0  0.00000000000E+00  0.00000000000E+00 -0.10237441191E+04  0.10237441191E+04  0.25500000920E-02 0. -1.
    10030    2    1    2    0    0  0.00000000000E+00  0.00000000000E+00 -0.60770984775E+03  0.14397783905E+04  0.13052396541E+04 0.  0.
        4    1    3    3  502    0 -0.11469318825E+03 -0.55912535856E+03  0.45204254423E+02  0.57255631298E+03  0.12699999809E+01 0.  1.
       -4    1    3    3    0  502  0.11469318825E+03  0.55912535856E+03 -0.65291410218E+03  0.86722207752E+03  0.12699999809E+01 0. -1.
</event>
<event>
 5   0  0.5812938E-04  0.1255191E+04  0.7818609E-02  0.9065874E-01
        1   -1    0    0  501    0  0.00000000000E+00  0.00000000000E+00  0.98229096471E+03  0.98229096472E+03  0.50400001928E-02 0. -1.
       -1   -1    0    0    0  501  0.00000000000E+00  0.00000000000E+00 -0.40097697713E+03  0.40097697716E+03  0.50400001928E-02 0.  1.
    10030    2    1    2    0    0  0.00000000000E+00  0.00000000000E+00  0.58131398758E+03  0.13832679419E+04  0.12551909205E+04 0.  0.
        5    1    3    3  502    0 -0.32127876111E+03 -0.30373318732E+03  0.78150333011E+03  0.89791059488E+03  0.46999998093E+01 0. -1.
       -5    1    3    3    0  502  0.32127876111E+03  0.30373318732E+03 -0.20018934253E+03  0.48535734700E+03  0.46999998093E+01 0.  1.
</event>
<event>
 5   0  0.5766027E-04  0.1302831E+04  0.7818609E-02  0.9027323E-01
       -1   -1    0    0    0  501  0.00000000000E+00  0.00000000000E+00  0.39422399153E+03  0.39422399157E+03  0.50400001928E-02 0.  1.
        1   -1    0    0  501    0  0.00000000000E+00  0.00000000000E+00 -0.10763989699E+04  0.10763989699E+04  0.50400001928E-02 0. -1.
    10030    2    1    2    0    0  0.00000000000E+00  0.00000000000E+00 -0.68217497834E+03  0.14706229615E+04  0.13028312223E+04 0.  0.
        3    1    3    3  502    0 -0.27254197420E+03 -0.94206051736E+02 -0.10004288206E+04  0.10411588463E+04  0.10100000352E+00 0. -1.
       -3    1    3    3    0  502  0.27254197420E+03  0.94206051736E+02  0.31825384228E+03  0.42946411516E+03  0.10100000352E+00 0.  1.
</event>
<event>
 5   0  0.5563545E-04  0.1294167E+04  0.7818609E-02  0.9034204E-01
       -1   -1    0    0    0  501  0.00000000000E+00  0.00000000000E+00  0.27645151826E+03  0.27645151831E+03  0.50400001928E-02 0. -1.
        1   -1    0    0  501    0  0.00000000000E+00  0.00000000000E+00 -0.15146129414E+04  0.15146129414E+04  0.50400001928E-02 0.  1.
    10030    2    1    2    0    0  0.00000000000E+00  0.00000000000E+00 -0.12381614231E+04  0.17910644597E+04  0.12941669866E+04 0.  0.
        2    1    3    3  502    0  0.43945353086E+03  0.39691447813E+03 -0.98012113293E+03  0.11451191833E+04  0.25500000920E-02 0.  1.
       -2    1    3    3    0  502 -0.43945353086E+03 -0.39691447813E+03 -0.25804029019E+03  0.64594527640E+03  0.25500000920E-02 0. -1.
</event>
<event>
 5   0  0.1103241E-03  0.1301848E+04  0.7818609E-02  0.9028101E-01
        2   -1    0    0  501    0  0.00000000000E+00  0.00000000000E+00  0.21884760874E+04  0.21884760874E+04  0.25500000920E-02 0.  1.
       -2   -1    0    0    0  501  0.00000000000E+00  0.00000000000E+00 -0.19360607842E+03  0.19360607844E+03  0.25500000920E-02 0. -1.
    10030    2    1    2    0    0  0.00000000000E+00  0.00000000000E+00  0.19948700090E+04  0.23820821659E+04  0.13018483368E+04 0.  0.
        4    1    3    3  502    0 -0.78597750581E+02 -0.53783822547E+03  0.16527200781E+04  0.17398082747E+04  0.12699999809E+01 0.  1.
       -4    1    3    3    0  502  0.78597750581E+02  0.53783822547E+03  0.34214993088E+03  0.64227389117E+03  0.12699999809E+01 0. -1.
</event>
<event>
 5   0  0.5766027E-04  0.1303573E+04  0.7818609E-02  0.9026737E-01
        1   -1    0    0  501    0  0.00000000000E+00  0.00000000000E+00  0.33285845203E+03  0.33285845207E+03  0.50400001928E-02 0.  1.
       -1   -1    0    0    0  501  0.00000000000E+00  0.00000000000E+00 -0.12762950723E+04  0.12762950723E+04  0.50400001928E-02 0. -1.
    10030    2    1    2    0    0  0.00000000000E+00  0.00000000000E+00 -0.94343662029E+03  0.16091535244E+04  0.13035729395E+04 0.  0.
        3    1    3    3  502    0  0.46037481286E+03  0.42615753960E+03 -0.25343089937E+03  0.67659622215E+03  0.10100000352E+00 0.  1.
       -3    1    3    3    0  502 -0.46037481286E+03 -0.42615753960E+03 -0.69000572092E+03  0.93255730225E+03  0.10100000352E+00 0. -1.
</event>
<event>
 5   0  0.1031295E-03  0.1304158E+04  0.7818609E-02  0.9026274E-01
        2   -1    0    0  501    0  0.00000000000E+00  0.00000000000E+00  0.44742875901E+03  0.44742875901E+03  0.25500000920E-02 0.  1.
       -2   -1    0    0    0  501  0.00000000000E+00  0.00000000000E+00 -0.95033447378E+03  0.95033447378E+03  0.25500000920E-02 0. -1.
    10030    2    1    2    0    0  0.00000000000E+00  0.00000000000E+00 -0.50290571477E+03  0.13977632328E+04  0.13041579264E+04 0.  0.
        2    1    3    3  502    0  0.64502709222E+03  0.67014437612E+01 -0.35370551184E+03  0.73567142677E+03  0.25500000920E-02 0.  1.
       -2    1    3    3    0  502 -0.64502709222E+03 -0.67014437612E+01 -0.14920020293E+03  0.66209180603E+03  0.25500000920E-02 0. -1.
</event>
<event>
 5   0  0.1103241E-03  0.1316412E+04  0.7818609E-02  0.9016651E-01
       -2   -1    0    0    0  501  0.00000000000E+00  0.00000000000E+00  0.57996312667E+03  0.57996312668E+03  0.25500000920E-02 0. -1.
        2   -1    0    0  501    0  0.00000000000E+00  0.00000000000E+00 -0.74700471894E+03  0.74700471895E+03  0.25500000920E-02 0.  1.
    10030    2    1    2    0    0  0.00000000000E+00  0.00000000000E+00 -0.16704159227E+03  0.13269678456E+04  0.13164120821E+04 0.  0.
        4    1    3    3  502    0  0.63144452804E+03 -0.90095435740E+02  0.80244845634E+02  0.64286874841E+03  0.12699999809E+01 0. -1.
       -4    1    3    3    0  502 -0.63144452804E+03  0.90095435740E+02 -0.24728643790E+03  0.68409909721E+03  0.12699999809E+01 0.  1.
</event>
<event>
 5   0  0.5812938E-04  0.1296694E+04  0.7818609E-02  0.9032191E-01
       -1   -1    0    0    0  501  0.00000000000E+00  0.00000000000E+00  0.86936699477E+03  0.86936699478E+03  0.50400001928E-02 0. -1.
        1   -1    0    0  501    0  0.00000000000E+00  0.00000000000E+00 -0.48351719212E+03  0.48351719215E+03  0.50400001928E-02 0.  1.
    10030    2    1    2    0    0  0.00000000000E+00  0.00000000000E+00  0.38584980265E+03  0.13528841869E+04  0.12966940861E+04 0.  0.
        5    1    3    3  502    0  0.77062670259E+02 -0.50666990318E+02  0.86247020915E+03  0.86739999466E+03  0.46999998093E+01 0. -1.
       -5    1    3    3    0  502 -0.77062670259E+02  0.50666990318E+02 -0.47662040650E+03  0.48548419227E+03  0.46999998093E+01 0.  1.
</event>
<event>
 5   0  0.5563545E-04  0.1297552E+04  0.7818609E-02  0.9031509E-01
        1   -1    0    0  501    0  0.00000000000E+00  0.00000000000E+00  0.19173765362E+04  0.19173765362E+04  0.50400001928E-02 0.  1.
       -1   -1    0    0    0  501  0.00000000000E+00  0.00000000000E+00 -0.21952405687E+03  0.21952405693E+03  0.50400001928E-02 0. -1.
    10030    2    1    2    0    0  0.00000000000E+00  0.00000000000E+00  0.16978524793E+04  0.21369005931E+04  0.12975519656E+04 0.  0.
        2    1    3    3  502    0  0.11077262854E+03 -0.41485710537E+03  0.16498767626E+04  0.17048373309E+04  0.25500000920E-02 0.  1.
       -2    1    3    3    0  502 -0.11077262854E+03  0.41485710537E+03  0.47975716666E+02  0.43206326215E+03  0.25500000920E-02 0. -1.
</event>
<event>
 5   0  0.1031295E-03  0.1302375E+04  0.7818609E-02  0.9027684E-01
        2   -1    0    0  501    0  0.00000000000E+00  0.00000000000E+00  0.95540192633E+03  0.95540192634E+03  0.25500000920E-02 0. -1.
       -2   -1    0    0    0  501  0.00000000000E+00  0.00000000000E+00 -0.44383952392E+03  0.44383952393E+03  0.25500000920E-02 0.  1.
    10030    2    1    2    0    0  0.00000000000E+00  0.00000000000E+00  0.51156240241E+03  0.13992414503E+04  0.13023749631E+04 0.  0.
        2    1    3    3  502    0  0.38306815625E+03  0.35205770624E+03 -0.16495673788E+03  0.54579901634E+03  0.25500000920E-02 0.  1.
       -2    1    3    3    0  502 -0.38306815625E+03 -0.35205770624E+03  0.67651914029E+03  0.85344243393E+03  0.25500000920E-02 0. -1.
</event>
<event>
 5   0  0.1046253E-03  0.1311843E+04  0.7818609E-02  0.9020226E-01
       -2   -1    0    0    0  501  0.00000000000E+00  0.00000000000E+00  0.48671003240E+03  0.48671003241E+03  0.25500000920E-02 0. -1.
        2   -1    0    0  501    0  0.00000000000E+00  0.00000000000E+00 -0.88396228063E+03  0.88396228063E+03  0.25500000920E-02 0.  1.
    10030    2    1    2    0    0  0.00000000000E+00  0.00000000000E+00 -0.39725224822E+03  0.13706723130E+04  0.13118434514E+04 0.  0.
        3    1    3    3  502    0 -0.51910758911E+03  0.76841964359E+02  0.21253830897E+03  0.56617128110E+03  0.10100000352E+00 0. -1.
       -3    1    3    3    0  502  0.51910758911E+03 -0.76841964359E+02 -0.60979055719E+03  0.80450103194E+03  0.10100000352E+00 0.  1.
</event>
<event>
 5   0  0.1081574E-03  0.1303329E+04  0.7818609E-02  0.9026930E-01
        2   -1    0    0  501    0  0.00000000000E+00  0.00000000000E+00  0.14150146496E+04  0.14150146496E+04  0.25500000920E-02 0.  1.
       -2   -1    0    0    0  501  0.00000000000E+00  0.00000000000E+00 -0.30011452176E+03  0.30011452177E+03  0.25500000920E-02 0. -1.
    10030    2    1    2    0    0  0.00000000000E+00  0.00000000000E+00  0.11149001279E+04  0.17151291714E+04  0.13033287304E+04 0.  0.
        5    1    3    3  502    0  0.32530930412E+03 -0.16514269818E+03 -0.15310294588E+03  0.39567771752E+03  0.46999998093E+01 0. -1.
       -5    1    3    3    0  502 -0.32530930412E+03  0.16514269818E+03  0.12680030738E+04  0.13194514539E+04  0.46999998093E+01 0.  1.
</event>
<event>
 5   0  0.5563545E-04  0.1362672E+04  0.7818609E-02  0.8981290E-01
        1   -1    0    0  501    0  0.00000000000E+00  0.00000000000E+00  0.10649788568E+04  0.10649788568E+04  0.50400001928E-02 0.  1.
       -1   -1    0    0    0  501  0.00000000000E+00  0.00000000000E+00 -0.43589494803E+03  0.43589494806E+03  0.50400001928E-02 0. -1.
    10030    2    1    2    0    0  0.00000000000E+00  0.00000000000E+00  0.62908390874E+03  0.15008738048E+04  0.13626722327E+04 0.  0.
        2    1    3    3  502    0  0.34771430809E+03 -0.12221507092E+03  0.94570160831E+03  0.10149843819E+04  0.25500000920E-02 0.  1.
       -2    1    3    3    0  502 -0.34771430809E+03  0.12221507092E+03 -0.31661769956E+03  0.48588942291E+03  0.25500000920E-02 0. -1.
</event>
<event>
 5   0  0.1031295E-03  0.1301202E+04  0.7818609E-02  0.9028612E-01
       -2   -1    0    0    0  501  0.00000000000E+00  0.00000000000E+00  0.85067199784E+03  0.85067199784E+03  0.25500000920E-02 0. -1.
        2   -1    0    0  501    0  0.00000000000E+00  0.00000000000E+00 -0.49758521423E+03  0.49758521423E+03  0.25500000920E-02 0.  1.
    10030    2    1    2    0    0  0.00000000000E+00  0.00000000000E+00  0.35308678361E+03  0.13482572121E+04  0.13012022261E+04 0.  0.
        2    1    3    3  502    0 -0.45507784614E+03 -0.37696108920E+03 -0.10548764622E+03  0.60026923321E+03  0.25500000920E-02 0.  1.
       -2    1    3    3    0  502  0.45507784614E+03  0.37696108920E+03  0.45857442983E+03  0.74798797887E+03  0.25500000920E-02 0. -1.
</event>
<event>
 5   0  0.5563545E-04  0.1288011E+04  0.7818609E-02  0.9039127E-01
       -1   -1    0    0    0  501  0.00000000000E+00  0.00000000000E+00  0.23636191431E+03  0.23636191436E+03  0.50400001928E-02 0.  1.
        1   -1    0    0  501    0  0.00000000000E+00  0.00000000000E+00 -0.17546953090E+04  0.17546953090E+04  0.50400001928E-02 0. -1.
    10030    2    1    2    0    0  0.00000000000E+00  0.00000000000E+00 -0.15183333947E+04  0.19910572234E+04  0.12880110905E+04 0.  0.
        2    1    3    3  502    0 -0.28349669403E+03  0.39753655024E+03 -0.11002960281E+03  0.50051193572E+03  0.25500000920E-02 0.  1.
       -2    1    3    3    0  502  0.28349669403E+03 -0.39753655024E+03 -0.14083037919E+04  0.14905452876E+04  0.25500000920E-02 0. -1.
</event>
<event>
 5   0  0.1081574E-03  0.1300859E+04  0.7818609E-02  0.9028884E-01
       -2   -1    0    0    0  501  0.00000000000E+00  0.00000000000E+00  0.23093938810E+03  0.23093938812E+03  0.25500000920E-02 0. -1.
        2   -1    0    0  501    0  0.00000000000E+00  0.00000000000E+00 -0.18319038489E+04  0.18319038489E+04  0.25500000920E-02 0.  1.
    10030    2    1    2    0    0  0.00000000000E+00  0.00000000000E+00 -0.16009644608E+04  0.20628432371E+04  0.13008593374E+04 0.  0.
        5    1    3    3  502    0  0.27084888648E+03  0.44726548408E+03 -0.18707785870E+03  0.55536091668E+03  0.46999998093E+01 0.  1.
       -5    1    3    3    0  502 -0.27084888648E+03 -0.44726548408E+03 -0.14138866021E+04  0.15074823204E+04  0.46999998093E+01 0. -1.
</event>
<event>
 5   0  0.5710383E-04  0.1304734E+04  0.7818609E-02  0.9025820E-01
       -1   -1    0    0    0  501  0.00000000000E+00  0.00000000000E+00  0.45326106490E+03  0.45326106493E+03  0.50400001928E-02 0. -1.
        1   -1    0    0  501    0  0.00000000000E+00  0.00000000000E+00 -0.93893449229E+03  0.93893449231E+03  0.50400001928E-02 0.  1.
    10030    2    1    2    0    0  0.00000000000E+00  0.00000000000E+00 -0.48567342739E+03  0.13921955572E+04  0.13047336094E+04 0.  0.
        1    1    3    3  502    0 -0.48824173564E+03  0.31561421569E+03  0.72958802983E+02  0.58593114998E+03  0.50400001928E-02 0. -1.
       -1    1    3    3    0  502  0.48824173564E+03 -0.31561421569E+03 -0.55863223038E+03  0.80626440725E+03  0.50400001928E-02 0.  1.
</event>
<event>
 5   0  0.5563545E-04  0.1302542E+04  0.7818609E-02  0.9027551E-01
       -1   -1    0    0    0  501  0.00000000000E+00  0.00000000000E+00  0.29378946290E+03  0.29378946294E+03  0.50400001928E-02 0.  1.
        1   -1    0    0  501    0  0.00000000000E+00  0.00000000000E+00 -0.14437352507E+04  0.14437352507E+04  0.50400001928E-02 0. -1.
    10030    2    1    2    0    0  0.00000000000E+00  0.00000000000E+00 -0.11499457878E+04  0.17375247136E+04  0.13025424429E+04 0.  0.
        2    1    3    3  502    0 -0.38483534284E+03  0.33280228375E+02 -0.12744358142E+04  0.13316878235E+04  0.25500000920E-02 0. -1.
       -2    1    3    3    0  502  0.38483534284E+03 -0.33280228375E+02  0.12449002643E+03  0.40583689013E+03  0.25500000920E-02 0.  1.
</event>
<event>
 5   0  0.5710383E-04  0.1293155E+04  0.7818609E-02  0.9035011E-01
        1   -1    0    0  501    0  0.00000000000E+00  0.00000000000E+00  0.80861764111E+03  0.80861764113E+03  0.50400001928E-02 0. -1.
       -1   -1    0    0    0  501  0.00000000000E+00  0.00000000000E+00 -0.51700873112E+03  0.51700873115E+03  0.50400001928E-02 0.  1.
    10030    2    1    2    0    0  0.00000000000E+00  0.00000000000E+00  0.29160890999E+03  0.13256263723E+04  0.12931548718E+04 0.  0.
        1    1    3    3  502    0  0.24083801612E+03  0.29007594667E+03 -0.39266186786E+03  0.54436233093E+03  0.50400001928E-02 0.  1.
       -1    1    3    3    0  502 -0.24083801612E+03 -0.29007594667E+03  0.68427077786E+03  0.78126404134E+03  0.50400001928E-02 0. -1.
</event>
<event>
 5   0  0.1081574E-03  0.1298276E+04  0.7818609E-02  0.9030933E-01
        2   -1    0    0  501    0  0.00000000000E+00  0.00000000000E+00  0.17679755985E+04  0.17679755985E+04  0.25500000920E-02 0. -1.
       -2   -1    0    0    0  501  0.00000000000E+00  0.00000000000E+00 -0.23834058856E+03  0.23834058857E+03  0.25500000920E-02 0.  1.
    10030    2    1    2    0    0  0.00000000000E+00  0.00000000000E+00  0.15296350100E+04  0.20063161871E+04  0.12982763107E+04 0.  0.
        5    1    3    3  502    0 -0.33124675087E+03 -0.36060602639E+03  0.14233644582E+04  0.15052407073E+04  0.46999998093E+01 0. -1.
       -5    1    3    3    0  502  0.33124675087E+03  0.36060602639E+03  0.10627055177E+03  0.50107547975E+03  0.46999998093E+01 0.  1.
</event>
<event>
 5   0  0.5812938E-04  0.1288705E+04  0.7818609E-02  0.9038570E-01
        1   -1    0    0  501    0  0.00000000000E+00  0.00000000000E+00  0.98071064760E+03  0.98071064761E+03  0.50400001928E-02 0.  1.
       -1   -1    0    0    0  501  0.00000000000E+00  0.00000000000E+00 -0.42335658816E+03  0.42335658819E+03  0.50400001928E-02 0. -1.
    10030    2    1    2    0    0  0.00000000000E+00  0.00000000000E+00  0.55735405944E+03  0.14040672358E+04  0.12887052631E+04 0.  0.
        5    1    3    3  502    0  0.12357089091E+03 -0.23011650324E+03 -0.36307097615E+03  0.44728737279E+03  0.46999998093E+01 0. -1.
       -5    1    3    3    0  502 -0.12357089091E+03  0.23011650324E+03  0.92042503558E+03  0.95677986301E+03  0.46999998093E+01 0.  1.
</event>
<event>
 5   0  0.5766027E-04  0.1297216E+04  0.7818609E-02  0.9031776E-01
       -1   -1    0    0    0  501  0.00000000000E+00  0.00000000000E+00  0.44143116050E+03  0.44143116053E+03  0.50400001928E-02 0. -1.
        1   -1    0    0  501    0  0.00000000000E+00  0.00000000000E+00 -0.95301891675E+03  0.95301891676E+03  0.50400001928E-02 0.  1.
    10030    2    1    2    0    0  0.00000000000E+00  0.00000000000E+00 -0.51158775624E+03  0.13944500773E+04  0.12972158593E+04 0.  0.
        3    1    3    3  502    0  0.26292068851E+03 -0.59118544281E+03 -0.30463901183E+03  0.71514505799E+03  0.10100000352E+00 0.  1.
       -3    1    3    3    0  502 -0.26292068851E+03  0.59118544281E+03 -0.20694874441E+03  0.67930501930E+03  0.10100000352E+00 0. -1.
</event>
<event>
 5   0  0.1101619E-03  0.1307345E+04  0.7818609E-02  0.9023761E-01
        2   -1    0    0  501    0  0.00000000000E+00  0.00000000000E+00  0.60323059436E+03  0.60323059437E+03  0.25500000920E-02 0.  1.
       -2   -1    0    0    0  501  0.00000000000E+00  0.00000000000E+00 -0.70833183408E+03  0.70833183408E+03  0.25500000920E-02 0. -1.
    10030    2    1    2    0    0  0.00000000000E+00  0.00000000000E+00 -0.10510123972E+03  0.13115624284E+04  0.13073445350E+04 0.  0.
        1    1    3    3  502    0 -0.25905425102E+03  0.73188811460E+02 -0.65014157229E+03  0.70366879363E+03  0.50400001928E-02 0. -1.
       -1    1    3    3    0  502  0.25905425102E+03 -0.73188811460E+02  0.54504033257E+03  0.60789363481E+03  0.50400001928E-02 0.  1.
</event>
<event>
 5   0  0.5710383E-04  0.1200259E+04  0.7818609E-02  0.9112630E-01
       -1   -1    0    0    0  501  0.00000000000E+00  0.00000000000E+00  0.69805585793E+03  0.69805585795E+03  0.50400001928E-02 0. -1.
        1   -1    0    0  501    0  0.00000000000E+00  0.00000000000E+00 -0.51594057163E+03  0.51594057166E+03  0.50400001928E-02 0.  1.
    10030    2    1    2    0    0  0.00000000000E+00  0.00000000000E+00  0.18211528630E+03  0.12139964296E+04  0.12002588694E+04 0.  0.
        1    1    3    3  502    0 -0.61516159639E+02 -0.46654640431E+03 -0.28563697009E+03  0.55048911340E+03  0.50400001928E-02 0.  1.
       -1    1    3    3    0  502  0.61516159639E+02  0.46654640431E+03  0.46775225638E+03  0.66350731620E+03  0.50400001928E-02 0. -1.
</event>
<event>
 5   0  0.1046253E-03  0.1299101E+04  0.7818609E-02  0.9030278E-01
        2   -1    0    0  501    0  0.00000000000E+00  0.00000000000E+00  0.33660644136E+03  0.33660644137E+03  0.25500000920E-02 0. -1.
       -2   -1    0    0    0  501  0.00000000000E+00  0.00000000000E+00 -0.12534402968E+04  0.12534402968E+04  0.25500000920E-02 0.  1.
    10030    2    1    2    0    0  0.00000000000E+00  0.00000000000E+00 -0.91683385549E+03  0.15900467382E+04  0.12991013475E+04 0.  0.
        3    1    3    3  502    0 -0.53467483091E+02  0.63599672388E+03 -0.60613342642E+03  0.88019790125E+03  0.10100000352E+00 0.  1.
       -3    1    3    3    0  502  0.53467483091E+02 -0.63599672388E+03 -0.31070042906E+03  0.70984883697E+03  0.10100000352E+00 0. -1.
</event>
<event>
 5   0  0.5710383E-04  0.1302905E+04  0.7818609E-02  0.9027265E-01
        1   -1    0    0  501    0  0.00000000000E+00  0.00000000000E+00  0.32245409725E+03  0.32245409729E+03  0.50400001928E-02 0. -1.
       -1   -1    0    0    0  501  0.00000000000E+00  0.00000000000E+00 -0.13161266743E+04  0.13161266743E+04  0.50400001928E-02 0.  1.
    10030    2    1    2    0    0  0.00000000000E+00  0.00000000000E+00 -0.99367257704E+03  0.16385807716E+04  0.13029051211E+04 0.  0.
        1    1    3    3  502    0 -0.27537228564E+03  0.22098308296E+03  0.19168601170E+03  0.40175483290E+03  0.50400001928E-02 0. -1.
       -1    1    3    3    0  502  0.27537228564E+03 -0.22098308296E+03 -0.11853585887E+04  0.12368259387E+04  0.50400001928E-02 0.  1.
</event>
<event>
 5   0  0.5710383E-04  0.1299278E+04  0.7818609E-02  0.9030138E-01
        1   -1    0    0  501    0  0.00000000000E+00  0.00000000000E+00  0.14571204317E+04  0.14571204317E+04  0.50400001928E-02 0.  1.
       -1   -1    0    0    0  501  0.00000000000E+00  0.00000000000E+00 -0.28963349310E+03  0.28963349314E+03  0.50400001928E-02 0. -1.
    10030    2    1    2    0    0  0.00000000000E+00  0.00000000000E+00  0.11674869386E+04  0.17467539248E+04  0.12992780773E+04 0.  0.
        1    1    3    3  502    0 -0.23887790110E+03 -0.14495820647E+03 -0.20471831749E+03  0.34638868746E+03  0.50400001928E-02 0. -1.
       -1    1    3    3    0  502  0.23887790110E+03  0.14495820647E+03  0.13722052561E+04  0.14003652374E+04  0.50400001928E-02 0.  1.
</event>
<event>
 5   0  0.1101619E-03  0.1296985E+04  0.7818609E-02  0.9031959E-01
       -2   -1    0    0    0  501  0.00000000000E+00  0.00000000000E+00  0.75257145771E+03  0.75257145771E+03  0.25500000920E-02 0. -1.
        2   -1    0    0  501    0  0.00000000000E+00  0.00000000000E+00 -0.55880753324E+03  0.55880753325E+03  0.25500000920E-02 0.  1.
    10030    2    1    2    0    0  0.00000000000E+00  0.00000000000E+00  0.19376392447E+03  0.13113789910E+04  0.12969851192E+04 0.  0.
        1    1    3    3  502    0 -0.27440659936E+03 -0.22310727235E+03 -0.45271907750E+03  0.57448272377E+03  0.50400001928E-02 0.  1.
       -1    1    3    3    0  502  0.27440659936E+03  0.22310727235E+03  0.64648300196E+03  0.73689626719E+03  0.50400001928E-02 0. -1.
</event>
<event>
 5   0  0.5710383E-04  0.1280258E+04  0.7818609E-02  0.9045369E-01
        1   -1    0    0  501    0  0.00000000000E+00  0.00000000000E+00  0.10010829732E+04  0.10010829732E+04  0.50400001928E-02 0. -1.
       -1   -1    0    0    0  501  0.00000000000E+00  0.00000000000E+00 -0.40932168003E+03  0.40932168006E+03  0.50400001928E-02 0.  1.
    10030    2    1    2    0    0  0.00000000000E+00  0.00000000000E+00  0.59176129317E+03  0.14104046533E+04  0.12802577310E+04 0.  0.
        1    1    3    3  502    0 -0.39353192693E+01  0.16617299492E+03 -0.38513220767E+03  0.41947081947E+03  0.50400001928E-02 0.  1.
       -1    1    3    3    0  502  0.39353192693E+01 -0.16617299492E+03  0.97689350084E+03  0.99093383381E+03  0.50400001928E-02 0. -1.
</event>
<event>
 5   0  0.5710383E-04  0.1263135E+04  0.7818609E-02  0.9059321E-01
       -1   -1    0    0    0  501  0.00000000000E+00  0.00000000000E+00  0.79625502046E+03  0.79625502048E+03  0.50400001928E-02 0. -1.
        1   -1    0    0  501    0  0.00000000000E+00  0.00000000000E+00 -0.50094216995E+03  0.50094216998E+03  0.50400001928E-02 0.  1.
    10030    2    1    2    0    0  0.00000000000E+00  0.00000000000E+00  0.29531285051E+03  0.12971971905E+04  0.12631353337E+04 0.  0.
        1    1    3    3  502    0 -0.23595267474E+03 -0.52045689745E+02 -0.45159858785E+03  0.51217546125E+03  0.50400001928E-02 0.  1.
       -1    1    3    3    0  502  0.23595267474E+03  0.52045689745E+02  0.74691143836E+03  0.78502172920E+03  0.50400001928E-02 0. -1.
</event>
<event>
 5   0  0.1046253E-03  0.1312066E+04  0.7818609E-02  0.9020051E-01
        2   -1    0    0  501    0  0.00000000000E+00  0.00000000000E+00  0.15778583246E+04  0.15778583246E+04  0.25500000920E-02 0. -1.
       -2   -1    0    0    0  501  0.00000000000E+00  0.00000000000E+00 -0.27276180273E+03  0.27276180275E+03  0.25500000920E-02 0.  1.
    10030    2    1    2    0    0  0.00000000000E+00  0.00000000000E+00  0.13050965219E+04  0.18506201274E+04  0.13120662805E+04 0.  0.
        3    1    3    3  502    0 -0.17932612999E+03  0.35491511902E+03  0.13885026999E+04  0.14443207263E+04  0.10100000352E+00 0. -1.
       -3    1    3    3    0  502  0.17932612999E+03 -0.35491511902E+03 -0.83406177976E+02  0.40629940110E+03  0.10100000352E+00 0.  1.
</event>
<event>
 5   0  0.1081574E-03  0.1294323E+04  0.7818609E-02  0.9034079E-01
        2   -1    0    0  501    0  0.00000000000E+00  0.00000000000E+00  0.11712359728E+04  0.11712359728E+04  0.25500000920E-02 0. -1.
       -2   -1    0    0    0  501  0.00000000000E+00  0.00000000000E+00 -0.35758638708E+03  0.35758638709E+03  0.25500000920E-02 0.  1.
    10030    2    1    2    0    0  0.00000000000E+00  0.00000000000E+00  0.81364958576E+03  0.15288223599E+04  0.12943230508E+04 0.  0.
        5    1    3    3  502    0 -0.26512315433E+03  0.53852849907E+03  0.12115439220E+03  0.61237546328E+03  0.46999998093E+01 0.  1.
       -5    1    3    3    0  502  0.26512315433E+03 -0.53852849907E+03  0.69249519356E+03  0.91644689665E+03  0.46999998093E+01 0. -1.
</event>
<event>
 5   0  0.1031295E-03  0.1295565E+04  0.7818609E-02  0.9033090E-01
        2   -1    0    0  501    0  0.00000000000E+00  0.00000000000E+00  0.14640164932E+04  0.14640164932E+04  0.25500000920E-02 0.  1.
       -2   -1    0    0    0  501  0.00000000000E+00  0.00000000000E+00 -0.28662390900E+03  0.28662390901E+03  0.25500000920E-02 0. -1.
    10030    2    1    2    0    0  0.00000000000E+00  0.00000000000E+00  0.11773925842E+04  0.17506404022E+04  0.12955649426E+04 0.  0.
        2    1    3    3  502    0  0.29577171583E+02  0.17888015067E+03  0.14290313429E+04  0.14404872427E+04  0.25500000920E-02 0.  1.
       -2    1    3    3    0  502 -0.29577171583E+02 -0.17888015067E+03 -0.25163875878E+03  0.31015315943E+03  0.25500000920E-02 0. -1.
</event>
<event>
 5   0  0.1031295E-03  0.1297806E+04  0.7818609E-02  0.9031307E-01
        2   -1    0    0  501    0  0.00000000000E+00  0.00000000000E+00  0.58126249013E+03  0.58126249013E+03  0.25500000920E-02 0. -1.
       -2   -1    0    0    0  501  0.00000000000E+00  0.00000000000E+00 -0.72441433952E+03  0.72441433953E+03  0.25500000920E-02 0.  1.
    10030    2    1    2    0    0  0.00000000000E+00  0.00000000000E+00 -0.14315184940E+03  0.13056768297E+04  0.12978056602E+04 0.  0.
        2    1    3    3  502    0  0.18533235779E+03 -0.42231919339E+02 -0.69577683277E+03  0.72127457940E+03  0.25500000920E-02 0.  1.
       -2    1    3    3    0  502 -0.18533235779E+03  0.42231919339E+02  0.55262498338E+03  0.58440225026E+03  0.25500000920E-02 0. -1.
</event>
<event>
 5   0  0.1046253E-03  0.1307590E+04  0.7818609E-02  0.9023568E-01
       -2   -1    0    0    0  501  0.00000000000E+00  0.00000000000E+00  0.10586882806E+04  0.10586882806E+04  0.25500000920E-02 0.  1.
        2   -1    0    0  501    0  0.00000000000E+00  0.00000000000E+00 -0.40375244486E+03  0.40375244487E+03  0.25500000920E-02 0. -1.
    10030    2    1    2    0    0  0.00000000000E+00  0.00000000000E+00  0.65493583571E+03  0.14624407255E+04  0.13075901218E+04 0.  0.
        3    1    3    3  502    0 -0.57019745693E+03  0.22057037139E+03  0.58657464062E+03  0.84725807629E+03  0.10100000352E+00 0.  1.
       -3    1    3    3    0  502  0.57019745693E+03 -0.22057037139E+03  0.68361195096E+02  0.61518264916E+03  0.10100000352E+00 0. -1.
</event>
<event>
 5   0  0.5563545E-04  0.1291716E+04  0.7818609E-02  0.9036160E-01
       -1   -1    0    0    0  501  0.00000000000E+00  0.00000000000E+00  0.46725150470E+03  0.46725150473E+03  0.50400001928E-02 0. -1.
        1   -1    0    0  501    0  0.00000000000E+00  0.00000000000E+00 -0.89273701380E+03  0.89273701381E+03  0.50400001928E-02 0.  1.
    10030    2    1    2    0    0  0.00000000000E+00  0.00000000000E+00 -0.42548550909E+03  0.13599885185E+04  0.12917162429E+04 0.  0.
        2    1    3    3  502    0  0.33613005307E+03  0.54795489631E+03 -0.27844903965E+03  0.70055110353E+03  0.25500000920E-02 0. -1.
       -2    1    3    3    0  502 -0.33613005307E+03 -0.54795489631E+03 -0.14703646945E+03  0.65943741502E+03  0.25500000920E-02 0.  1.
</event>
<event>
 5   0  0.1101619E-03  0.1285279E+04  0.7818609E-02  0.9041322E-01
       -2   -1    0    0    0  501  0.00000000000E+00  0.00000000000E+00  0.12857139540E+03  0.12857139543E+03  0.25500000920E-02 0. -1.
        2   -1    0    0  501    0  0.00000000000E+00  0.00000000000E+00 -0.32121081104E+04  0.32121081104E+04  0.25500000920E-02 0.  1.
    10030    2    1    2    0    0  0.00000000000E+00  0.00000000000E+00 -0.30835367150E+04  0.33406795058E+04  0.12852785254E+04 0.  0.
        1    1    3    3  502    0 -0.18731560445E+03 -0.61469648566E+03 -0.15240792115E+04  0.16540121971E+04  0.50400001928E-02 0.  1.
       -1    1    3    3    0  502  0.18731560445E+03  0.61469648566E+03 -0.15594575035E+04  0.16866673088E+04  0.50400001928E-02 0. -1.
</event>
<event>
 5   0  0.5710383E-04  0.1301866E+04  0.7818609E-02  0.9028087E-01
        1   -1    0    0  501    0  0.00000000000E+00  0.00000000000E+00  0.16985033829E+04  0.16985033829E+04  0.50400001928E-02 0.  1.
       -1   -1    0    0    0  501  0.00000000000E+00  0.00000000000E+00 -0.24946300153E+03  0.24946300158E+03  0.50400001928E-02 0. -1.
    10030    2    1    2    0    0  0.00000000000E+00  0.00000000000E+00  0.14490403814E+04  0.19479663845E+04  0.13018659717E+04 0.  0.
        1    1    3    3  502    0 -0.21019323379E+03 -0.58989077549E+03  0.45869660297E+03  0.77624409572E+03  0.50400001928E-02 0.  1.
       -1    1    3    3    0  502  0.21019323379E+03  0.58989077549E+03  0.99034377844E+03  0.11717222888E+04  0.50400001928E-02 0. -1.
</event>
<event>
 5   0  0.5766027E-04  0.1305394E+04  0.7818609E-02  0.9025298E-01
       -1   -1    0    0    0  501  0.00000000000E+00  0.00000000000E+00  0.10648896964E+04  0.10648896964E+04  0.50400001928E-02 0. -1.
        1   -1    0    0  501    0  0.00000000000E+00  0.00000000000E+00 -0.40005413164E+03  0.40005413167E+03  0.50400001928E-02 0.  1.
    10030    2    1    2    0    0  0.00000000000E+00  0.00000000000E+00  0.66483556478E+03  0.14649438281E+04  0.13053942283E+04 0.  0.
        3    1    3    3  502    0 -0.41753339381E+03 -0.14207699044E+03 -0.20752618197E+03  0.48742910517E+03  0.10100000352E+00 0.  1.
       -3    1    3    3    0  502  0.41753339381E+03  0.14207699044E+03  0.87236174676E+03  0.97751472294E+03  0.10100000352E+00 0. -1.
</event>
<event>
 5   0  0.6006119E-04  0.1321625E+04  0.7818609E-02  0.9012590E-01
        1   -1    0    0  501    0  0.00000000000E+00  0.00000000000E+00  0.11625171171E+04  0.11625171171E+04  0.50400001928E-02 0. -1.
       -1   -1    0    0    0  501  0.00000000000E+00  0.00000000000E+00 -0.37562741509E+03  0.37562741513E+03  0.50400001928E-02 0.  1.
    10030    2    1    2    0    0  0.00000000000E+00  0.00000000000E+00  0.78688970200E+03  0.15381445322E+04  0.13216252112E+04 0.  0.
        4    1    3    3  502    0 -0.52117198646E+02 -0.65110665211E+03  0.27697122995E+03  0.70948625776E+03  0.12699999809E+01 0.  1.
       -4    1    3    3    0  502  0.52117198646E+02  0.65110665211E+03  0.50991847205E+03  0.82865827448E+03  0.12699999809E+01 0. -1.
</event>
<event>
 5   0  0.1103241E-03  0.1273036E+04  0.7818609E-02  0.9051225E-01
        2   -1    0    0  501    0  0.00000000000E+00  0.00000000000E+00  0.15319639270E+04  0.15319639270E+04  0.25500000920E-02 0. -1.
       -2   -1    0    0    0  501  0.00000000000E+00  0.00000000000E+00 -0.26446793499E+03  0.26446793500E+03  0.25500000920E-02 0.  1.
    10030    2    1    2    0    0  0.00000000000E+00  0.00000000000E+00  0.12674959920E+04  0.17964318620E+04  0.12730362701E+04 0.  0.
        4    1    3    3  502    0  0.50953481712E+03  0.65223983114E+02  0.11641447098E+04  0.12724442684E+04  0.12699999809E+01 0. -1.
       -4    1    3    3    0  502 -0.50953481712E+03 -0.65223983114E+02  0.10335128217E+03  0.52398759361E+03  0.12699999809E+01 0.  1.
</event>
<event>
 5   0  0.5766027E-04  0.1298180E+04  0.7818609E-02  0.9031009E-01
       -1   -1    0    0    0  501  0.00000000000E+00  0.00000000000E+00  0.48393410451E+03  0.48393410454E+03  0.50400001928E-02 0.  1.
        1   -1    0    0  501    0  0.00000000000E+00  0.00000000000E+00 -0.87061057546E+03  0.87061057548E+03  0.50400001928E-02 0. -1.
    10030    2    1    2    0    0  0.00000000000E+00  0.00000000000E+00 -0.38667647096E+03  0.13545446800E+04  0.12981804948E+04 0.  0.
        3    1    3    3  502    0  0.35558369214E+03  0.47388910244E+02 -0.75778067330E+03  0.83840147302E+03  0.10100000352E+00 0. -1.
       -3    1    3    3    0  502 -0.35558369214E+03 -0.47388910244E+02  0.37110420235E+03  0.51614320700E+03  0.10100000352E+00 0.  1.
</event>
<event>
 5   0  0.1081574E-03  0.1299929E+04  0.7818609E-02  0.9029621E-01
       -2   -1    0    0    0  501  0.00000000000E+00  0.00000000000E+00  0.80706525084E+03  0.80706525084E+03  0.25500000920E-02 0.  1.
        2   -1    0    0  501    0  0.00000000000E+00  0.00000000000E+00 -0.52344476547E+03  0.52344476548E+03  0.25500000920E-02 0. -1.
    10030    2    1    2    0    0  0.00000000000E+00  0.00000000000E+00  0.28362048537E+03  0.13305100163E+04  0.12999293534E+04 0.  0.
        5    1    3    3  502    0  0.50889304065E+03 -0.25924351480E+03 -0.17573439067E+03  0.59756505324E+03  0.46999998093E+01 0. -1.
       -5    1    3    3    0  502 -0.50889304065E+03  0.25924351480E+03  0.45935487603E+03  0.73294496309E+03  0.46999998093E+01 0.  1.
</event>
<event>
 5   0  0.5766027E-04  0.1292747E+04  0.7818609E-02  0.9035336E-01
        1   -1    0    0  501    0  0.00000000000E+00  0.00000000000E+00  0.10064560458E+04  0.10064560458E+04  0.50400001928E-02 0.  1.
       -1   -1    0    0    0  501  0.00000000000E+00  0.00000000000E+00 -0.41511886327E+03  0.41511886330E+03  0.50400001928E-02 0. -1.
    10030    2    1    2    0    0  0.00000000000E+00  0.00000000000E+00  0.59133718251E+03  0.14215749091E+04  0.12927472911E+04 0.  0.
        3    1    3    3  502    0  0.11840446266E+01  0.87834276746E+02  0.99986173689E+03  0.10037129895E+04  0.10100000352E+00 0.  1.
       -3    1    3    3    0  502 -0.11840446266E+01 -0.87834276746E+02 -0.40852455438E+03  0.41786191962E+03  0.10100000352E+00 0. -1.
</event>
<event>
 5   0  0.1101619E-03  0.1316865E+04  0.7818609E-02  0.9016297E-01
        2   -1    0    0  501    0  0.00000000000E+00  0.00000000000E+00  0.14262846280E+04  0.14262846280E+04  0.25500000920E-02 0.  1.
       -2   -1    0    0    0  501  0.00000000000E+00  0.00000000000E+00 -0.30396003503E+03  0.30396003504E+03  0.25500000920E-02 0. -1.
    10030    2    1    2    0    0  0.00000000000E+00  0.00000000000E+00  0.11223245930E+04  0.17302446631E+04  0.13168652558E+04 0.  0.
        1    1    3    3  502    0 -0.22488360836E+03 -0.59656375041E+03  0.77735000624E+03  0.10053526634E+04  0.50400001928E-02 0.  1.
       -1    1    3    3    0  502  0.22488360836E+03  0.59656375041E+03  0.34497458676E+03  0.72489199965E+03  0.50400001928E-02 0. -1.
</event>
<event>
 5   0  0.5766027E-04  0.1228826E+04  0.7818609E-02  0.9087993E-01
        1   -1    0    0  501    0  0.00000000000E+00  0.00000000000E+00  0.12107729371E+04  0.12107729371E+04  0.50400001928E-02 0. -1.
       -1   -1    0    0    0  501  0.00000000000E+00  0.00000000000E+00 -0.31178695861E+03  0.31178695865E+03  0.50400001928E-02 0.  1.
    10030    2    1    2    0    0  0.00000000000E+00  0.00000000000E+00  0.89898597846E+03  0.15225598957E+04  0.12288257999E+04 0.  0.
        3    1    3    3  502    0  0.16016026114E+03  0.93080825042E+02 -0.27636225449E+03  0.33270325389E+03  0.10100000352E+00 0.  1.
       -3    1    3    3    0  502 -0.16016026114E+03 -0.93080825042E+02  0.11753482329E+04  0.11898566418E+04  0.10100000352E+00 0. -1.
</event>
<event>
 5   0  0.1081574E-03  0.1301356E+04  0.7818609E-02  0.9028491E-01
       -2   -1    0    0    0  501  0.00000000000E+00  0.00000000000E+00  0.89662192532E+03  0.89662192532E+03  0.25500000920E-02 0. -1.
        2   -1    0    0  501    0  0.00000000000E+00  0.00000000000E+00 -0.47219651218E+03  0.47219651219E+03  0.25500000920E-02 0.  1.
    10030    2    1    2    0    0  0.00000000000E+00  0.00000000000E+00  0.42442541314E+03  0.13688184375E+04  0.13013558251E+04 0.  0.
        5    1    3    3  502    0 -0.23945025644E+03  0.12741213158E+03 -0.40987711466E+03  0.49151970021E+03  0.46999998093E+01 0.  1.
       -5    1    3    3    0  502  0.23945025644E+03 -0.12741213158E+03  0.83430252779E+03  0.87729873729E+03  0.46999998093E+01 0. -1.
</event>
<event>
 5   0  0.1046253E-03  0.1303288E+04  0.7818609E-02  0.9026962E-01
       -2   -1    0    0    0  501  0.00000000000E+00  0.00000000000E+00  0.33713055606E+03  0.33713055607E+03  0.25500000920E-02 0.  1.
        2   -1    0    0  501    0  0.00000000000E+00  0.00000000000E+00 -0.12595704865E+04  0.12595704865E+04  0.25500000920E-02 0. -1.
    10030    2    1    2    0    0  0.00000000000E+00  0.00000000000E+00 -0.92243993039E+03  0.15967010425E+04  0.13032876866E+04 0.  0.
        3    1    3    3  502    0  0.49664507717E+03 -0.31661124888E+03 -0.11962814382E+03  0.60100741975E+03  0.10100000352E+00 0.  1.
       -3    1    3    3    0  502 -0.49664507717E+03  0.31661124888E+03 -0.80281178657E+03  0.99569362278E+03  0.10100000352E+00 0. -1.
</event>
<event>
 5   0  0.1046253E-03  0.1299791E+04  0.7818609E-02  0.9029731E-01
        2   -1    0    0  501    0  0.00000000000E+00  0.00000000000E+00  0.28742812777E+03  0.28742812779E+03  0.25500000920E-02 0.  1.
       -2   -1    0    0    0  501  0.00000000000E+00  0.00000000000E+00 -0.14694605117E+04  0.14694605117E+04  0.25500000920E-02 0. -1.
    10030    2    1    2    0    0  0.00000000000E+00  0.00000000000E+00 -0.11820323839E+04  0.17568886395E+04  0.12997911890E+04 0.  0.
        3    1    3    3  502    0 -0.13368467599E+03 -0.60239888243E+03 -0.86673123491E+03  0.10639450408E+04  0.10100000352E+00 0. -1.
       -3    1    3    3    0  502  0.13368467599E+03  0.60239888243E+03 -0.31530114902E+03  0.69294359866E+03  0.10100000352E+00 0.  1.
</event>
<event>
 5   0  0.5710383E-04  0.1316175E+04  0.7818609E-02  0.9016836E-01
       -1   -1    0    0    0  501  0.00000000000E+00  0.00000000000E+00  0.38276115324E+03  0.38276115327E+03  0.50400001928E-02 0.  1.
        1   -1    0    0  501    0  0.00000000000E+00  0.00000000000E+00 -0.11314608546E+04  0.11314608546E+04  0.50400001928E-02 0. -1.
    10030    2    1    2    0    0  0.00000000000E+00  0.00000000000E+00 -0.74869970134E+03  0.15142220079E+04  0.13161751579E+04 0.  0.
        1    1    3    3  502    0 -0.22449120499E+03 -0.20961412999E+03  0.29524519617E+03  0.42603299227E+03  0.50400001928E-02 0.  1.
       -1    1    3    3    0  502  0.22449120499E+03  0.20961412999E+03 -0.10439448975E+04  0.10881890156E+04  0.50400001928E-02 0. -1.
</event>
<event>
 5   0  0.6006119E-04  0.1295815E+04  0.7818609E-02  0.9032890E-01
        1   -1    0    0  501    0  0.00000000000E+00  0.00000000000E+00  0.24934729360E+03  0.24934729365E+03  0.50400001928E-02 0. -1.
       -1   -1    0    0    0  501  0.00000000000E+00  0.00000000000E+00 -0.16835319986E+04  0.16835319986E+04  0.50400001928E-02 0.  1.
    10030    2    1    2    0    0  0.00000000000E+00  0.00000000000E+00 -0.14341847050E+04  0.19328792922E+04  0.12958150294E+04 0.  0.
        4    1    3    3  502    0  0.45663741207E+03  0.30559491129E+03 -0.12292167252E+04  0.13464328228E+04  0.12699999809E+01 0.  1.
       -4    1    3    3    0  502 -0.45663741207E+03 -0.30559491129E+03 -0.20496797980E+03  0.58644646946E+03  0.12699999809E+01 0. -1.
</event>
<event>
 5   0  0.5710383E-04  0.1335369E+04  0.7818609E-02  0.9001978E-01
        1   -1    0    0  501    0  0.00000000000E+00  0.00000000000E+00  0.15550784433E+04  0.15550784433E+04  0.50400001928E-02 0. -1.
       -1   -1    0    0    0  501  0.00000000000E+00  0.00000000000E+00 -0.28667538091E+03  0.28667538096E+03  0.50400001928E-02 0.  1.
    10030    2    1    2    0    0  0.00000000000E+00  0.00000000000E+00  0.12684030624E+04  0.18417538243E+04  0.13353691701E+04 0.  0.
        1    1    3    3  502    0 -0.65941454879E+03  0.81753934265E+02  0.72455240845E+03  0.98310093355E+03  0.50400001928E-02 0.  1.
       -1    1    3    3    0  502  0.65941454879E+03 -0.81753934265E+02  0.54385065395E+03  0.85865289073E+03  0.50400001928E-02 0. -1.
</event>
<event>
 5   0  0.5812938E-04  0.1302188E+04  0.7818609E-02  0.9027832E-01
       -1   -1    0    0    0  501  0.00000000000E+00  0.00000000000E+00  0.24185425930E+04  0.24185425931E+04  0.50400001928E-02 0.  1.
        1   -1    0    0  501    0  0.00000000000E+00  0.00000000000E+00 -0.17528048896E+03  0.17528048903E+03  0.50400001928E-02 0. -1.
    10030    2    1    2    0    0  0.00000000000E+00  0.00000000000E+00  0.22432621041E+04  0.25938230821E+04  0.13021878948E+04 0.  0.
        5    1    3    3  502    0 -0.45581721293E+03 -0.30218774179E+03  0.41791221741E+03  0.68830187734E+03  0.46999998093E+01 0. -1.
       -5    1    3    3    0  502  0.45581721293E+03  0.30218774179E+03  0.18253498867E+04  0.19055212047E+04  0.46999998093E+01 0.  1.
</event>
<event>
 5   0  0.5766027E-04  0.1305374E+04  0.7818609E-02  0.9025315E-01
       -1   -1    0    0    0  501  0.00000000000E+00  0.00000000000E+00  0.32527500227E+03  0.32527500231E+03  0.50400001928E-02 0.  1.
        1   -1    0    0  501    0  0.00000000000E+00  0.00000000000E+00 -0.13096616151E+04  0.13096616151E+04  0.50400001928E-02 0. -1.
    10030    2    1    2    0    0  0.00000000000E+00  0.00000000000E+00 -0.98438661284E+03  0.16349366174E+04  0.13053737930E+04 0.  0.
        3    1    3    3  502    0  0.11711139162E+03  0.55575419514E+03 -0.89408317588E+02  0.57495361632E+03  0.10100000352E+00 0.  1.
       -3    1    3    3    0  502 -0.11711139162E+03 -0.55575419514E+03 -0.89497829525E+03  0.10599830011E+04  0.10100000352E+00 0. -1.
</event>
<event>
 5   0  0.6006119E-04  0.1293609E+04  0.7818609E-02  0.9034649E-01
       -1   -1    0    0    0  501  0.00000000000E+00  0.00000000000E+00  0.86806758088E+03  0.86806758089E+03  0.50400001928E-02 0.  1.
        1   -1    0    0  501    0  0.00000000000E+00  0.00000000000E+00 -0.48193936317E+03  0.48193936320E+03  0.50400001928E-02 0. -1.
    10030    2    1    2    0    0  0.00000000000E+00  0.00000000000E+00  0.38612821770E+03  0.13500069441E+04  0.12936088082E+04 0.  0.
        4    1    3    3  502    0  0.43678749115E+03 -0.30486030177E+03 -0.18985400413E+03  0.56548145134E+03  0.12699999809E+01 0. -1.
       -4    1    3    3    0  502 -0.43678749115E+03  0.30486030177E+03  0.57598222183E+03  0.78452549276E+03  0.12699999809E+01 0.  1.
</event>
<event>
 5   0  0.5563545E-04  0.1291782E+04  0.7818609E-02  0.9036108E-01
       -1   -1    0    0    0  501  0.00000000000E+00  0.00000000000E+00  0.40736718592E+03  0.40736718596E+03  0.50400001928E-02 0.  1.
        1   -1    0    0  501    0  0.00000000000E+00  0.00000000000E+00 -0.10240760373E+04  0.10240760373E+04  0.50400001928E-02 0. -1.
    10030    2    1    2    0    0  0.00000000000E+00  0.00000000000E+00 -0.61670885133E+03  0.14314432232E+04  0.12917816743E+04 0.  0.
        2    1    3    3  502    0 -0.13844659819E+02 -0.57591736551E+03 -0.63199715444E+03  0.85515664631E+03  0.25500000920E-02 0.  1.
       -2    1    3    3    0  502  0.13844659819E+02  0.57591736551E+03  0.15288303109E+02  0.57628657691E+03  0.25500000920E-02 0. -1.
</event>
<event>
 5   0  0.1031295E-03  0.1310611E+04  0.7818609E-02  0.9021193E-01
       -2   -1    0    0    0  501  0.00000000000E+00  0.00000000000E+00  0.35121387766E+03  0.35121387767E+03  0.25500000920E-02 0. -1.
        2   -1    0    0  501    0  0.00000000000E+00  0.00000000000E+00 -0.12226888798E+04  0.12226888798E+04  0.25500000920E-02 0.  1.
    10030    2    1    2    0    0  0.00000000000E+00  0.00000000000E+00 -0.87147500213E+03  0.15739027575E+04  0.13106110066E+04 0.  0.
        2    1    3    3  502    0  0.47777706344E+03  0.43468674123E+03 -0.30308472461E+03  0.71350111118E+03  0.25500000920E-02 0. -1.
       -2    1    3    3    0  502 -0.47777706344E+03 -0.43468674123E+03 -0.56839027752E+03  0.86040164629E+03  0.25500000920E-02 0.  1.
</event>
<event>
 5   0  0.5812938E-04  0.1292388E+04  0.7818609E-02  0.9035623E-01
       -1   -1    0    0    0  501  0.00000000000E+00  0.00000000000E+00  0.62821089835E+03  0.62821089837E+03  0.50400001928E-02 0. -1.
        1   -1    0    0  501    0  0.00000000000E+00  0.00000000000E+00 -0.66469193846E+03  0.66469193848E+03  0.50400001928E-02 0.  1.
    10030    2    1    2    0    0  0.00000000000E+00  0.00000000000E+00 -0.36481040110E+02  0.12929028368E+04  0.12923880529E+04 0.  0.
        5    1    3    3  502    0 -0.54095877695E+03  0.77130336119E+02 -0.36328244385E+03  0.65618725309E+03  0.46999998093E+01 0.  1.
       -5    1    3    3    0  502  0.54095877695E+03 -0.77130336119E+02  0.32680140374E+03  0.63671558375E+03  0.46999998093E+01 0. -1.
</event>
<event>
 5   0  0.5766027E-04  0.1296997E+04  0.7818609E-02  0.9031950E-01
       -1   -1    0    0    0  501  0.00000000000E+00  0.00000000000E+00  0.18111889614E+03  0.18111889621E+03  0.50400001928E-02 0.  1.
        1   -1    0    0  501    0  0.00000000000E+00  0.00000000000E+00 -0.23219561591E+04  0.23219561591E+04  0.50400001928E-02 0. -1.
    10030    2    1    2    0    0  0.00000000000E+00  0.00000000000E+00 -0.21408372630E+04  0.25030750554E+04  0.12969967410E+04 0.  0.
        3    1    3    3  502    0 -0.70715769848E+02  0.62350325748E+03 -0.13863163012E+04  0.15217193991E+04  0.10100000352E+00 0. -1.
       -3    1    3    3    0  502  0.70715769848E+02 -0.62350325748E+03 -0.75452096176E+03  0.98135565629E+03  0.10100000352E+00 0.  1.
</event>
<event>
 5   0  0.1031295E-03  0.1276202E+04  0.7818609E-02  0.9048653E-01
        2   -1    0    0  501    0  0.00000000000E+00  0.00000000000E+00  0.20874700319E+04  0.20874700319E+04  0.25500000920E-02 0.  1.
       -2   -1    0    0    0  501  0.00000000000E+00  0.00000000000E+00 -0.19505560875E+03  0.19505560877E+03  0.25500000920E-02 0. -1.
    10030    2    1    2    0    0  0.00000000000E+00  0.00000000000E+00  0.18924144231E+04  0.22825256406E+04  0.12762017675E+04 0.  0.
        2    1    3    3  502    0  0.73486210049E+01  0.33408355314E+03  0.19184621263E+04  0.19473476199E+04  0.25500000920E-02 0.  1.
       -2    1    3    3    0  502 -0.73486210049E+01 -0.33408355314E+03 -0.26047703216E+02  0.33517802069E+03  0.25500000920E-02 0. -1.
</event>
<event>
 5   0  0.5563545E-04  0.1300870E+04  0.7818609E-02  0.9028876E-01
        1   -1    0    0  501    0  0.00000000000E+00  0.00000000000E+00  0.77689777489E+03  0.77689777490E+03  0.50400001928E-02 0.  1.
       -1   -1    0    0    0  501  0.00000000000E+00  0.00000000000E+00 -0.54455746822E+03  0.54455746824E+03  0.50400001928E-02 0. -1.
    10030    2    1    2    0    0  0.00000000000E+00  0.00000000000E+00  0.23234030667E+03  0.13214552431E+04  0.13008696866E+04 0.  0.
        2    1    3    3  502    0 -0.16644210762E+03  0.56852586978E+03 -0.15667062450E+03  0.61275633361E+03  0.25500000920E-02 0. -1.
       -2    1    3    3    0  502  0.16644210762E+03 -0.56852586978E+03  0.38901093117E+03  0.70869890953E+03  0.25500000920E-02 0.  1.
</event>
<event>
 5   0  0.5812938E-04  0.1373198E+04  0.7818609E-02  0.8973451E-01
       -1   -1    0    0    0  501  0.00000000000E+00  0.00000000000E+00  0.84609167527E+03  0.84609167529E+03  0.50400001928E-02 0.  1.
        1   -1    0    0  501    0  0.00000000000E+00  0.00000000000E+00 -0.55717182466E+03  0.55717182469E+03  0.50400001928E-02 0. -1.
    10030    2    1    2    0    0  0.00000000000E+00  0.00000000000E+00  0.28891985061E+03  0.14032635000E+04  0.13731983725E+04 0.  0.
        5    1    3    3  502    0 -0.15182336085E+03  0.18812311129E+03 -0.51222597128E+03  0.56642578821E+03  0.46999998093E+01 0. -1.
       -5    1    3    3    0  502  0.15182336085E+03 -0.18812311129E+03  0.80114582189E+03  0.83683771176E+03  0.46999998093E+01 0.  1.
</event>
<event>
 5   0  0.1101619E-03  0.1288071E+04  0.7818609E-02  0.9039078E-01
        2   -1    0    0  501    0  0.00000000000E+00  0.00000000000E+00  0.45812315588E+03  0.45812315588E+03  0.25500000920E-02 0.  1.
       -2   -1    0    0    0  501  0.00000000000E+00  0.00000000000E+00 -0.90539406072E+03  0.90539406072E+03  0.25500000920E-02 0. -1.
    10030    2    1    2    0    0  0.00000000000E+00  0.00000000000E+00 -0.44727090484E+03  0.13635172166E+04  0.12880714024E+04 0.  0.
        1    1    3    3  502    0  0.21379301210E+03  0.40663307326E+03  0.25415983978E+03  0.52502869681E+03  0.50400001928E-02 0.  1.
       -1    1    3    3    0  502 -0.21379301210E+03 -0.40663307326E+03 -0.70143074463E+03  0.83848851979E+03  0.50400001928E-02 0. -1.
</event>
<event>
 5   0  0.1031295E-03  0.1306828E+04  0.7818609E-02  0.9024168E-01
        2   -1    0    0  501    0  0.00000000000E+00  0.00000000000E+00  0.15662766683E+04  0.15662766683E+04  0.25500000920E-02 0.  1.
       -2   -1    0    0    0  501  0.00000000000E+00  0.00000000000E+00 -0.27258924758E+03  0.27258924760E+03  0.25500000920E-02 0. -1.
    10030    2    1    2    0    0  0.00000000000E+00  0.00000000000E+00  0.12936874207E+04  0.18388659159E+04  0.13068284945E+04 0.  0.
        2    1    3    3  502    0 -0.41153782626E+03 -0.49775465143E+03  0.78633407929E+03  0.10175678649E+04  0.25500000920E-02 0. -1.
       -2    1    3    3    0  502  0.41153782626E+03  0.49775465143E+03  0.50735334140E+03  0.82129805095E+03  0.25500000920E-02 0.  1.
</event>
<event>
 5   0  0.1103241E-03  0.1291211E+04  0.7818609E-02  0.9036564E-01
       -2   -1    0    0    0  501  0.00000000000E+00  0.00000000000E+00  0.24077236012E+03  0.24077236013E+03  0.25500000920E-02 0.  1.
        2   -1    0    0  501    0  0.00000000000E+00  0.00000000000E+00 -0.17311222962E+04  0.17311222962E+04  0.25500000920E-02 0. -1.
    10030    2    1    2    0    0  0.00000000000E+00  0.00000000000E+00 -0.14903499361E+04  0.19718946564E+04  0.12912109060E+04 0.  0.
        4    1    3    3  502    0 -0.26414172153E+03 -0.42341721069E+03 -0.11968532206E+03  0.51320480568E+03  0.12699999809E+01 0.  1.
       -4    1    3    3    0  502  0.26414172153E+03  0.42341721069E+03 -0.13706646140E+04  0.14586898507E+04  0.12699999809E+01 0. -1.
</event>
<event>
 5   0  0.1081574E-03  0.1301369E+04  0.7818609E-02  0.9028481E-01
        2   -1    0    0  501    0  0.00000000000E+00  0.00000000000E+00  0.35080389143E+03  0.35080389144E+03  0.25500000920E-02 0. -1.
       -2   -1    0    0    0  501  0.00000000000E+00  0.00000000000E+00 -0.12069136430E+04  0.12069136430E+04  0.25500000920E-02 0.  1.
    10030    2    1    2    0    0  0.00000000000E+00  0.00000000000E+00 -0.85610975154E+03  0.15577175344E+04  0.13013685144E+04 0.  0.
        5    1    3    3  502    0  0.11025426385E+03  0.63543862291E+03 -0.32488021007E+03  0.72215475286E+03  0.46999998093E+01 0. -1.
       -5    1    3    3    0  502 -0.11025426385E+03 -0.63543862291E+03 -0.53122954147E+03  0.83556278155E+03  0.46999998093E+01 0.  1.
</event>
<event>
 5   0  0.1103241E-03  0.1294722E+04  0.7818609E-02  0.9033761E-01
        2   -1    0    0  501    0  0.00000000000E+00  0.00000000000E+00  0.19664477594E+04  0.19664477594E+04  0.25500000920E-02 0. -1.
       -2   -1    0    0    0  501  0.00000000000E+00  0.00000000000E+00 -0.21311345070E+03  0.21311345072E+03  0.25500000920E-02 0.  1.
    10030    2    1    2    0    0  0.00000000000E+00  0.00000000000E+00  0.17533343087E+04  0.21795612102E+04  0.12947223141E+04 0.  0.
        4    1    3    3  502    0 -0.11173743779E+03  0.25763989225E+02 -0.19587846560E+03  0.22697802610E+03  0.12699999809E+01 0.  1.
       -4    1    3    3    0  502  0.11173743779E+03 -0.25763989225E+02  0.19492127743E+04  0.19525831841E+04  0.12699999809E+01 0. -1.
</event>
<event>
 5   0  0.1101619E-03  0.1302830E+04  0.7818609E-02  0.9027324E-01
       -2   -1    0    0    0  501  0.00000000000E+00  0.00000000000E+00  0.36316403690E+03  0.36316403691E+03  0.25500000920E-02 0. -1.
        2   -1    0    0  501    0  0.00000000000E+00  0.00000000000E+00 -0.11684565953E+04  0.11684565953E+04  0.25500000920E-02 0.  1.
    10030    2    1    2    0    0  0.00000000000E+00  0.00000000000E+00 -0.80529255841E+03  0.15316206322E+04  0.13028298647E+04 0.  0.
        1    1    3    3  502    0  0.26073536390E+03  0.67504658568E+00  0.29914307588E+03  0.39682485500E+03  0.50400001928E-02 0. -1.
       -1    1    3    3    0  502 -0.26073536390E+03 -0.67504658568E+00 -0.11044356343E+04  0.11347957772E+04  0.50400001928E-02 0.  1.
</event>
<event>
 5   0  0.5563545E-04  0.1388174E+04  0.7818609E-02  0.8962424E-01
        1   -1    0    0  501    0  0.00000000000E+00  0.00000000000E+00  0.47600545069E+03  0.47600545072E+03  0.50400001928E-02 0.  1.
       -1   -1    0    0    0  501  0.00000000000E+00  0.00000000000E+00 -0.10120823599E+04  0.10120823599E+04  0.50400001928E-02 0. -1.
    10030    2    1    2    0    0  0.00000000000E+00  0.00000000000E+00 -0.53607690924E+03  0.14880878107E+04  0.13881739371E+04 0.  0.
        2    1    3    3  502    0 -0.42249761490E+03 -0.47939738826E+03  0.22446269235E+02  0.63939809624E+03  0.25500000920E-02 0.  1.
       -2    1    3    3    0  502  0.42249761490E+03  0.47939738826E+03 -0.55852317848E+03  0.84868971442E+03  0.25500000920E-02 0. -1.
</event>
<event>
 5   0  0.1031295E-03  0.1304260E+04  0.7818609E-02  0.9026193E-01
        2   -1    0    0  501    0  0.00000000000E+00  0.00000000000E+00  0.20363448183E+04  0.20363448183E+04  0.25500000920E-02 0. -1.
       -2   -1    0    0    0  501  0.00000000000E+00  0.00000000000E+00 -0.20884175961E+03  0.20884175962E+03  0.25500000920E-02 0.  1.
    10030    2    1    2    0    0  0.00000000000E+00  0.00000000000E+00  0.18275030587E+04  0.22451865779E+04  0.13042604572E+04 0.  0.
        2    1    3    3  502    0  0.44380138958E+03 -0.47782011170E+03  0.91125546613E+03  0.11205615811E+04  0.25500000920E-02 0.  1.
       -2    1    3    3    0  502 -0.44380138958E+03  0.47782011170E+03  0.91624759257E+03  0.11246249968E+04  0.25500000920E-02 0. -1.
</event>
<event>
 5   0  0.1046253E-03  0.1294543E+04  0.7818609E-02  0.9033904E-01
        2   -1    0    0  501    0  0.00000000000E+00  0.00000000000E+00  0.11720742665E+04  0.11720742665E+04  0.25500000920E-02 0.  1.
       -2   -1    0    0    0  501  0.00000000000E+00  0.00000000000E+00 -0.35745228861E+03  0.35745228862E+03  0.25500000920E-02 0. -1.
    10030    2    1    2    0    0  0.00000000000E+00  0.00000000000E+00  0.81462197791E+03  0.15295265551E+04  0.12945433619E+04 0.  0.
        3    1    3    3  502    0 -0.37623652448E+02  0.16886411991E+03  0.11442506997E+04  0.11572555051E+04  0.10100000352E+00 0.  1.
       -3    1    3    3    0  502  0.37623652448E+02 -0.16886411991E+03 -0.32962872180E+03  0.37227104998E+03  0.10100000352E+00 0. -1.
</event>
<event>
 5   0  0.4012375E-04  0.1306613E+04  0.7818609E-02  0.9024338E-01
       -4   -1    0    0    0  501  0.00000000000E+00  0.00000000000E+00  0.40213146290E+03  0.40213346834E+03  0.12699999809E+01 0.  1.
        4   -1    0    0  501    0  0.00000000000E+00  0.00000000000E+00 -0.10613619881E+04  0.10613627479E+04  0.12699999809E+01 0. -1.
    10030    2    1    2    0    0  0.00000000000E+00  0.00000000000E+00 -0.65923052521E+03  0.14634962163E+04  0.13066125247E+04 0.  0.
        4    1    3    3  502    0 -0.24313838063E+03 -0.60434578507E+03 -0.38513905626E+03  0.75675874994E+03  0.12699999809E+01 0. -1.
       -4    1    3    3    0  502  0.24313838063E+03  0.60434578507E+03 -0.27409146895E+03  0.70673746633E+03  0.12699999809E+01 0.  1.
</event>
<event>
 5   0  0.1101619E-03  0.1291346E+04  0.7818609E-02  0.9036456E-01
        2   -1    0    0  501    0  0.00000000000E+00  0.00000000000E+00  0.11305117203E+04  0.11305117203E+04  0.25500000920E-02 0.  1.
       -2   -1    0    0    0  501  0.00000000000E+00  0.00000000000E+00 -0.36876547559E+03  0.36876547560E+03  0.25500000920E-02 0. -1.
    10030    2    1    2    0    0  0.00000000000E+00  0.00000000000E+00  0.76174624471E+03  0.14992771959E+04  0.12913461073E+04 0.  0.
        1    1    3    3  502    0 -0.49589841648E+03 -0.32218565418E+03  0.68178730189E+03  0.90252576709E+03  0.50400001928E-02 0.  1.
       -1    1    3    3    0  502  0.49589841648E+03  0.32218565418E+03  0.79958942817E+02  0.59675142881E+03  0.50400001928E-02 0. -1.
</event>
<event>
 5   0  0.5710383E-04  0.1296428E+04  0.7818609E-02  0.9032402E-01
        1   -1    0    0  501    0  0.00000000000E+00  0.00000000000E+00  0.78028115060E+03  0.78028115062E+03  0.50400001928E-02 0. -1.
       -1   -1    0    0    0  501  0.00000000000E+00  0.00000000000E+00 -0.53850020789E+03  0.53850020792E+03  0.50400001928E-02 0.  1.
    10030    2    1    2    0    0  0.00000000000E+00  0.00000000000E+00  0.24178094271E+03  0.13187813585E+04  0.12964282654E+04 0.  0.
        1    1    3    3  502    0  0.52052321962E+03 -0.22972735869E+03 -0.19504873348E+03  0.60146744712E+03  0.50400001928E-02 0.  1.
       -1    1    3    3    0  502 -0.52052321962E+03  0.22972735869E+03  0.43682967619E+03  0.71731391142E+03  0.50400001928E-02 0. -1.
</event>
<event>
 5   0  0.1031295E-03  0.1298262E+04  0.7818609E-02  0.9030945E-01
        2   -1    0    0  501    0  0.00000000000E+00  0.00000000000E+00  0.72249604187E+03  0.72249604187E+03  0.25500000920E-02 0. -1.
       -2   -1    0    0    0  501  0.00000000000E+00  0.00000000000E+00 -0.58321558424E+03  0.58321558425E+03  0.25500000920E-02 0.  1.
    10030    2    1    2    0    0  0.00000000000E+00  0.00000000000E+00  0.13928045763E+03  0.13057116261E+04  0.12982618398E+04 0.  0.
        2    1    3    3  502    0 -0.26158184220E+02 -0.64512347821E+03  0.21552770877E+01  0.64565718300E+03  0.25500000920E-02 0.  1.
       -2    1    3    3    0  502  0.26158184220E+02  0.64512347821E+03  0.13712518054E+03  0.66005444312E+03  0.25500000920E-02 0. -1.
</event>
<event>
 5   0  0.5766027E-04  0.1308608E+04  0.7818609E-02  0.9022767E-01
        1   -1    0    0  501    0  0.00000000000E+00  0.00000000000E+00  0.52316092854E+03  0.52316092857E+03  0.50400001928E-02 0.  1.
       -1   -1    0    0    0  501  0.00000000000E+00  0.00000000000E+00 -0.81832071946E+03  0.81832071947E+03  0.50400001928E-02 0. -1.
    10030    2    1    2    0    0  0.00000000000E+00  0.00000000000E+00 -0.29515979091E+03  0.13414816480E+04  0.13086075462E+04 0.  0.
        3    1    3    3  502    0  0.55505296674E+03 -0.92471166081E+02 -0.48985181664E+03  0.74604927780E+03  0.10100000352E+00 0. -1.
       -3    1    3    3    0  502 -0.55505296674E+03  0.92471166081E+02  0.19469202572E+03  0.59543237024E+03  0.10100000352E+00 0.  1.
</event>
<event>
 5   0  0.1081574E-03  0.1299569E+04  0.7818609E-02  0.9029907E-01
        2   -1    0    0  501    0  0.00000000000E+00  0.00000000000E+00  0.34873667790E+03  0.34873667791E+03  0.25500000920E-02 0.  1.
       -2   -1    0    0    0  501  0.00000000000E+00  0.00000000000E+00 -0.12107122291E+04  0.12107122291E+04  0.25500000920E-02 0. -1.
    10030    2    1    2    0    0  0.00000000000E+00  0.00000000000E+00 -0.86197555119E+03  0.15594489070E+04  0.12995687911E+04 0.  0.
        5    1    3    3  502    0 -0.97814688600E+02 -0.21340232235E+03  0.29605138298E+03  0.37785814250E+03  0.46999998093E+01 0.  1.
       -5    1    3    3    0  502  0.97814688600E+02  0.21340232235E+03 -0.11580269342E+04  0.11815907645E+04  0.46999998093E+01 0. -1.
</event>
<event>
 5   0  0.6006119E-04  0.1305768E+04  0.7818609E-02  0.9025004E-01
       -1   -1    0    0    0  501  0.00000000000E+00  0.00000000000E+00  0.27024494998E+03  0.27024495003E+03  0.50400001928E-02 0.  1.
        1   -1    0    0  501    0  0.00000000000E+00  0.00000000000E+00 -0.15772999538E+04  0.15772999538E+04  0.50400001928E-02 0. -1.
    10030    2    1    2    0    0  0.00000000000E+00  0.00000000000E+00 -0.13070550038E+04  0.18475449038E+04  0.13057677392E+04 0.  0.
        4    1    3    3  502    0 -0.38707228980E+03  0.29838071217E+03 -0.41016991589E+02  0.49044878777E+03  0.12699999809E+01 0.  1.
       -4    1    3    3    0  502  0.38707228980E+03 -0.29838071217E+03 -0.12660380122E+04  0.13570961161E+04  0.12699999809E+01 0. -1.
</event>
<event>
 5   0  0.1103241E-03  0.1300752E+04  0.7818609E-02  0.9028969E-01
       -2   -1    0    0    0  501  0.00000000000E+00  0.00000000000E+00  0.48304597336E+03  0.48304597337E+03  0.25500000920E-02 0.  1.
        2   -1    0    0  501    0  0.00000000000E+00  0.00000000000E+00 -0.87566984611E+03  0.87566984611E+03  0.25500000920E-02 0. -1.
    10030    2    1    2    0    0  0.00000000000E+00  0.00000000000E+00 -0.39262387275E+03  0.13587158195E+04  0.13007517721E+04 0.  0.
        4    1    3    3  502    0 -0.42193307960E+03  0.36122653143E+03  0.15710684565E+03  0.57723158656E+03  0.12699999809E+01 0.  1.
       -4    1    3    3    0  502  0.42193307960E+03 -0.36122653143E+03 -0.54973071840E+03  0.78148423293E+03  0.12699999809E+01 0. -1.
</event>
<event>
 5   0  0.5710383E-04  0.1274531E+04  0.7818609E-02  0.9050010E-01
        1   -1    0    0  501    0  0.00000000000E+00  0.00000000000E+00  0.15295406167E+04  0.15295406167E+04  0.50400001928E-02 0.  1.
       -1   -1    0    0    0  501  0.00000000000E+00  0.00000000000E+00 -0.26550932698E+03  0.26550932703E+03  0.50400001928E-02 0. -1.
    10030    2    1    2    0    0  0.00000000000E+00  0.00000000000E+00  0.12640312897E+04  0.17950499437E+04  0.12745309722E+04 0.  0.
        1    1    3    3  502    0  0.14859763415E+03 -0.11741480312E+03 -0.22495845826E+03  0.29406428010E+03  0.50400001928E-02 0. -1.
       -1    1    3    3    0  502 -0.14859763415E+03  0.11741480312E+03  0.14889897480E+04  0.15009856636E+04  0.50400001928E-02 0.  1.
</event>
<event>
 5   0  0.1101619E-03  0.1231643E+04  0.7818609E-02  0.9085602E-01
       -2   -1    0    0    0  501  0.00000000000E+00  0.00000000000E+00  0.42711203220E+03  0.42711203220E+03  0.25500000920E-02 0.  1.
        2   -1    0    0  501    0  0.00000000000E+00  0.00000000000E+00 -0.88790715659E+03  0.88790715659E+03  0.25500000920E-02 0. -1.
    10030    2    1    2    0    0  0.00000000000E+00  0.00000000000E+00 -0.46079512439E+03  0.13150191888E+04  0.12316425294E+04 0.  0.
        1    1    3    3  502    0  0.59780086247E+03  0.55604109798E+02 -0.84087659733E+02  0.60624122487E+03  0.50400001928E-02 0.  1.
       -1    1    3    3    0  502 -0.59780086247E+03 -0.55604109798E+02 -0.37670746466E+03  0.70877796393E+03  0.50400001928E-02 0. -1.
</event>
<event>
 5   0  0.6006119E-04  0.1295156E+04  0.7818609E-02  0.9033416E-01
        1   -1    0    0  501    0  0.00000000000E+00  0.00000000000E+00  0.17701782168E+04  0.17701782168E+04  0.50400001928E-02 0. -1.
       -1   -1    0    0    0  501  0.00000000000E+00  0.00000000000E+00 -0.23690104214E+03  0.23690104220E+03  0.50400001928E-02 0.  1.
    10030    2    1    2    0    0  0.00000000000E+00  0.00000000000E+00  0.15332771747E+04  0.20070792590E+04  0.12951556886E+04 0.  0.
        4    1    3    3  502    0  0.14695388530E+03 -0.49642693631E+03  0.13694634393E+04  0.14640583568E+04  0.12699999809E+01 0. -1.
       -4    1    3    3    0  502 -0.14695388530E+03  0.49642693631E+03  0.16381373537E+03  0.54302090226E+03  0.12699999809E+01 0.  1.
</event>
<event>
 5   0  0.4012375E-04  0.1298853E+04  0.7818609E-02  0.9030475E-01
       -3   -1    0    0    0  501  0.00000000000E+00  0.00000000000E+00  0.73444493445E+03  0.73444494139E+03  0.10100000352E+00 0.  1.
        3   -1    0    0  501    0  0.00000000000E+00  0.00000000000E+00 -0.57425003914E+03  0.57425004802E+03  0.10100000352E+00 0. -1.
    10030    2    1    2    0    0  0.00000000000E+00  0.00000000000E+00  0.16019489531E+03  0.13086949894E+04  0.12988534062E+04 0.  0.
        1    1    3    3  502    0 -0.42351640828E+03 -0.69650161236E+02  0.57116882430E+03  0.71445861946E+03  0.50400001928E-02 0.  1.
       -1    1    3    3    0  502  0.42351640828E+03  0.69650161236E+02 -0.41097392899E+03  0.59423636995E+03  0.50400001928E-02 0. -1.
</event>
<event>
 5   0  0.1046253E-03  0.1257545E+04  0.7818609E-02  0.9063927E-01
       -2   -1    0    0    0  501  0.00000000000E+00  0.00000000000E+00  0.53122221893E+03  0.53122221894E+03  0.25500000920E-02 0. -1.
        2   -1    0    0  501    0  0.00000000000E+00  0.00000000000E+00 -0.74423629549E+03  0.74423629550E+03  0.25500000920E-02 0.  1.
    10030    2    1    2    0    0  0.00000000000E+00  0.00000000000E+00 -0.21301407656E+03  0.12754585144E+04  0.12575449993E+04 0.  0.
        3    1    3    3  502    0  0.82446348054E+02 -0.13437788263E+03  0.51085074347E+03  0.53462445506E+03  0.10100000352E+00 0. -1.
       -3    1    3    3    0  502 -0.82446348054E+02  0.13437788263E+03 -0.72386482003E+03  0.74083405937E+03  0.10100000352E+00 0.  1.
</event>
<event>
 5   0  0.5766027E-04  0.1325626E+04  0.7818609E-02  0.9009487E-01
       -1   -1    0    0    0  501  0.00000000000E+00  0.00000000000E+00  0.88842664113E+03  0.88842664115E+03  0.50400001928E-02 0. -1.
        1   -1    0    0  501    0  0.00000000000E+00  0.00000000000E+00 -0.49449323507E+03  0.49449323510E+03  0.50400001928E-02 0.  1.
    10030    2    1    2    0    0  0.00000000000E+00  0.00000000000E+00  0.39393340606E+03  0.13829198762E+04  0.13256258355E+04 0.  0.
        3    1    3    3  502    0 -0.60735483495E+03 -0.13864558372E+03  0.43306307775E+03  0.75871347222E+03  0.10100000352E+00 0. -1.
       -3    1    3    3    0  502  0.60735483495E+03  0.13864558372E+03 -0.39129671688E+02  0.62420640403E+03  0.10100000352E+00 0.  1.
</event>
<event>
 5   0  0.1101619E-03  0.1306110E+04  0.7818609E-02  0.9024734E-01
        2   -1    0    0  501    0  0.00000000000E+00  0.00000000000E+00  0.59178396518E+03  0.59178396518E+03  0.25500000920E-02 0. -1.
       -2   -1    0    0    0  501  0.00000000000E+00  0.00000000000E+00 -0.72066960718E+03  0.72066960719E+03  0.25500000920E-02 0.  1.
    10030    2    1    2    0    0  0.00000000000E+00  0.00000000000E+00 -0.12888564200E+03  0.13124535724E+04  0.13061098234E+04 0.  0.
        1    1    3    3  502    0  0.28760919481E+03  0.58511249753E+03 -0.10210866205E+03  0.65992564930E+03  0.50400001928E-02 0.  1.
       -1    1    3    3    0  502 -0.28760919481E+03 -0.58511249753E+03 -0.26776979950E+02  0.65252792307E+03  0.50400001928E-02 0. -1.
</event>
<event>
 5   0  0.6006119E-04  0.1300566E+04  0.7818609E-02  0.9029117E-01
        1   -1    0    0  501    0  0.00000000000E+00  0.00000000000E+00  0.21204938407E+04  0.21204938407E+04  0.50400001928E-02 0. -1.
       -1   -1    0    0    0  501  0.00000000000E+00  0.00000000000E+00 -0.19941951602E+03  0.19941951608E+03  0.50400001928E-02 0.  1.
    10030    2    1    2    0    0  0.00000000000E+00  0.00000000000E+00  0.19210743246E+04  0.23199133568E+04  0.13005658084E+04 0.  0.
        4    1    3    3  502    0 -0.16749941429E+03  0.24681469396E+03  0.19912623577E+04  0.20134798080E+04  0.12699999809E+01 0. -1.
       -4    1    3    3    0  502  0.16749941429E+03 -0.24681469396E+03 -0.70188033062E+02  0.30643354879E+03  0.12699999809E+01 0.  1.
</event>
<event>
 5   0  0.1046253E-03  0.1305815E+04  0.7818609E-02  0.9024966E-01
        2   -1    0    0  501    0  0.00000000000E+00  0.00000000000E+00  0.11880990241E+04  0.11880990241E+04  0.25500000920E-02 0.  1.
       -2   -1    0    0    0  501  0.00000000000E+00  0.00000000000E+00 -0.35879870167E+03  0.35879870168E+03  0.25500000920E-02 0. -1.
    10030    2    1    2    0    0  0.00000000000E+00  0.00000000000E+00  0.82930032241E+03  0.15468977258E+04  0.13058152814E+04 0.  0.
        3    1    3    3  502    0 -0.13000864701E+03  0.49931489344E+03  0.88860380432E+03  0.10275380004E+04  0.10100000352E+00 0.  1.
       -3    1    3    3    0  502  0.13000864701E+03 -0.49931489344E+03 -0.59303481915E+02  0.51935972531E+03  0.10100000352E+00 0. -1.
</event>
<event>
 5   0  0.6006119E-04  0.1284680E+04  0.7818609E-02  0.9041803E-01
       -1   -1    0    0    0  501  0.00000000000E+00  0.00000000000E+00  0.44597819287E+03  0.44597819290E+03  0.50400001928E-02 0.  1.
        1   -1    0    0  501    0  0.00000000000E+00  0.00000000000E+00 -0.92515865875E+03  0.92515865877E+03  0.50400001928E-02 0. -1.
    10030    2    1    2    0    0  0.00000000000E+00  0.00000000000E+00 -0.47918046588E+03  0.13711368517E+04  0.12846798617E+04 0.  0.
        4    1    3    3  502    0  0.31719151880E+03 -0.50947245246E+03 -0.48396740455E+03  0.77097256824E+03  0.12699999809E+01 0. -1.
       -4    1    3    3    0  502 -0.31719151880E+03  0.50947245246E+03  0.47869386663E+01  0.60016428343E+03  0.12699999809E+01 0.  1.
</event>
<event>
 5   0  0.5812938E-04  0.1173866E+04  0.7818609E-02  0.9136044E-01
        1   -1    0    0  501    0  0.00000000000E+00  0.00000000000E+00  0.54885233961E+03  0.54885233964E+03  0.50400001928E-02 0.  1.
       -1   -1    0    0    0  501  0.00000000000E+00  0.00000000000E+00 -0.62765615909E+03  0.62765615911E+03  0.50400001928E-02 0. -1.
    10030    2    1    2    0    0  0.00000000000E+00  0.00000000000E+00 -0.78803819476E+02  0.11765084987E+04  0.11738663491E+04 0.  0.
        5    1    3    3  502    0  0.26042327669E+03  0.44428892166E+03  0.24275533755E+03  0.56935504992E+03  0.46999998093E+01 0.  1.
       -5    1    3    3    0  502 -0.26042327669E+03 -0.44428892166E+03 -0.32155915703E+03  0.60715344883E+03  0.46999998093E+01 0. -1.
</event>
<event>
 5   0  0.6006119E-04  0.1290669E+04  0.7818609E-02  0.9036998E-01
       -1   -1    0    0    0  501  0.00000000000E+00  0.00000000000E+00  0.37470967928E+03  0.37470967931E+03  0.50400001928E-02 0.  1.
        1   -1    0    0  501    0  0.00000000000E+00  0.00000000000E+00 -0.11114114200E+04  0.11114114200E+04  0.50400001928E-02 0. -1.
    10030    2    1    2    0    0  0.00000000000E+00  0.00000000000E+00 -0.73670174071E+03  0.14861210993E+04  0.12906689998E+04 0.  0.
        4    1    3    3  502    0  0.13991266631E+02  0.61283386011E+03 -0.60062670099E+03  0.85820460409E+03  0.12699999809E+01 0.  1.
       -4    1    3    3    0  502 -0.13991266631E+02 -0.61283386011E+03 -0.13607503972E+03  0.62791649523E+03  0.12699999809E+01 0. -1.
</event>
<event>
 5   0  0.5766027E-04  0.1348855E+04  0.7818609E-02  0.8991695E-01
       -1   -1    0    0    0  501  0.00000000000E+00  0.00000000000E+00  0.38233668771E+03  0.38233668774E+03  0.50400001928E-02 0. -1.
        1   -1    0    0  501    0  0.00000000000E+00  0.00000000000E+00 -0.11896642616E+04  0.11896642616E+04  0.50400001928E-02 0.  1.
    10030    2    1    2    0    0  0.00000000000E+00  0.00000000000E+00 -0.80732757392E+03  0.15720009494E+04  0.13488547636E+04 0.  0.
        3    1    3    3  502    0 -0.51694377058E+02 -0.23642047850E+03  0.32999075874E+03  0.40921982153E+03  0.10100000352E+00 0. -1.
       -3    1    3    3    0  502  0.51694377058E+02  0.23642047850E+03 -0.11373183327E+04  0.11627811278E+04  0.10100000352E+00 0.  1.
</event>
<event>
 5   0  0.1031295E-03  0.1292645E+04  0.7818609E-02  0.9035418E-01
       -2   -1    0    0    0  501  0.00000000000E+00  0.00000000000E+00  0.10075090787E+04  0.10075090787E+04  0.25500000920E-02 0. -1.
        2   -1    0    0  501    0  0.00000000000E+00  0.00000000000E+00 -0.41461942536E+03  0.41461942537E+03  0.25500000920E-02 0.  1.
    10030    2    1    2    0    0  0.00000000000E+00  0.00000000000E+00  0.59288965334E+03  0.14221285041E+04  0.12926450948E+04 0.  0.
        2    1    3    3  502    0  0.43500553216E+03 -0.30564690105E+03  0.70079708947E+03  0.87963992732E+03  0.25500000920E-02 0. -1.
       -2    1    3    3    0  502 -0.43500553216E+03  0.30564690105E+03 -0.10790743612E+03  0.54248857675E+03  0.25500000920E-02 0.  1.
</event>
<event>
 5   0  0.1103241E-03  0.1248145E+04  0.7818609E-02  0.9071728E-01
       -2   -1    0    0    0  501  0.00000000000E+00  0.00000000000E+00  0.63799677155E+03  0.63799677156E+03  0.25500000920E-02 0. -1.
        2   -1    0    0  501    0  0.00000000000E+00  0.00000000000E+00 -0.61045248994E+03  0.61045248995E+03  0.25500000920E-02 0.  1.
    10030    2    1    2    0    0  0.00000000000E+00  0.00000000000E+00  0.27544281612E+02  0.12484492615E+04  0.12481453726E+04 0.  0.
        4    1    3    3  502    0 -0.33579340394E+03  0.52447702819E+02  0.53730872162E+03  0.63577531163E+03  0.12699999809E+01 0. -1.
       -4    1    3    3    0  502  0.33579340394E+03 -0.52447702819E+02 -0.50976444001E+03  0.61267394987E+03  0.12699999809E+01 0.  1.
</event>
<event>
 5   0  0.1081574E-03  0.1301193E+04  0.7818609E-02  0.9028620E-01
       -2   -1    0    0    0  501  0.00000000000E+00  0.00000000000E+00  0.11033325848E+04  0.11033325848E+04  0.25500000920E-02 0.  1.
        2   -1    0    0  501    0  0.00000000000E+00  0.00000000000E+00 -0.38363394900E+03  0.38363394900E+03  0.25500000920E-02 0. -1.
    10030    2    1    2    0    0  0.00000000000E+00  0.00000000000E+00  0.71969863583E+03  0.14869665338E+04  0.13011930473E+04 0.  0.
        5    1    3    3  502    0 -0.36384626612E+03 -0.48834613539E+03  0.98287649921E+02  0.61688621758E+03  0.46999998093E+01 0. -1.
       -5    1    3    3    0  502  0.36384626612E+03  0.48834613539E+03  0.62141098591E+03  0.87008031625E+03  0.46999998093E+01 0.  1.
</event>
<event>
 5   0  0.4012375E-04  0.1294823E+04  0.7818609E-02  0.9033680E-01
       -4   -1    0    0    0  501  0.00000000000E+00  0.00000000000E+00  0.17472941233E+04  0.17472945848E+04  0.12699999809E+01 0.  1.
        4   -1    0    0  501    0  0.00000000000E+00  0.00000000000E+00 -0.23987843153E+03  0.23988179341E+03  0.12699999809E+01 0. -1.
    10030    2    1    2    0    0  0.00000000000E+00  0.00000000000E+00  0.15074156918E+04  0.19871763783E+04  0.12948234978E+04 0.  0.
        2    1    3    3  502    0 -0.23053999505E+03  0.72463485518E+02  0.16754817202E+04  0.16928197307E+04  0.25500000920E-02 0.  1.
       -2    1    3    3    0  502  0.23053999505E+03 -0.72463485518E+02 -0.16806602839E+03  0.29435664755E+03  0.25500000920E-02 0. -1.
</event>
<event>
 5   0  0.6006119E-04  0.1296572E+04  0.7818609E-02  0.9032288E-01
        1   -1    0    0  501    0  0.00000000000E+00  0.00000000000E+00  0.17422674377E+04  0.17422674377E+04  0.50400001928E-02 0. -1.
       -1   -1    0    0    0  501  0.00000000000E+00  0.00000000000E+00 -0.24122274447E+03  0.24122274452E+03  0.50400001928E-02 0.  1.
    10030    2    1    2    0    0  0.00000000000E+00  0.00000000000E+00  0.15010446932E+04  0.19834901822E+04  0.12965716841E+04 0.  0.
        4    1    3    3  502    0  0.51233293810E+03  0.34513427657E+03  0.44969189375E+03  0.76408580705E+03  0.12699999809E+01 0.  1.
       -4    1    3    3    0  502 -0.51233293810E+03 -0.34513427657E+03  0.10513527995E+04  0.12194043752E+04  0.12699999809E+01 0. -1.
</event>
<event>
 5   0  0.5710383E-04  0.1303007E+04  0.7818609E-02  0.9027184E-01
       -1   -1    0    0    0  501  0.00000000000E+00  0.00000000000E+00  0.65372425973E+03  0.65372425975E+03  0.50400001928E-02 0. -1.
        1   -1    0    0  501    0  0.00000000000E+00  0.00000000000E+00 -0.64929019243E+03  0.64929019245E+03  0.50400001928E-02 0.  1.
    10030    2    1    2    0    0  0.00000000000E+00  0.00000000000E+00  0.44340673068E+01  0.13030144522E+04  0.13030069078E+04 0.  0.
        1    1    3    3  502    0  0.13219011274E+03 -0.53024185988E+03  0.35693882830E+03  0.65271431963E+03  0.50400001928E-02 0. -1.
       -1    1    3    3    0  502 -0.13219011274E+03  0.53024185988E+03 -0.35250476100E+03  0.65030013257E+03  0.50400001928E-02 0.  1.
</event>
<event>
 5   0  0.1046253E-03  0.1296747E+04  0.7818609E-02  0.9032149E-01
        2   -1    0    0  501    0  0.00000000000E+00  0.00000000000E+00  0.17346861319E+04  0.17346861319E+04  0.25500000920E-02 0.  1.
       -2   -1    0    0    0  501  0.00000000000E+00  0.00000000000E+00 -0.24234242212E+03  0.24234242213E+03  0.25500000920E-02 0. -1.
    10030    2    1    2    0    0  0.00000000000E+00  0.00000000000E+00  0.14923437098E+04  0.19770285541E+04  0.12967467584E+04 0.  0.
        3    1    3    3  502    0  0.23726608248E+03 -0.40500351514E+03  0.14281073817E+04  0.15032676890E+04  0.10100000352E+00 0.  1.
       -3    1    3    3    0  502 -0.23726608248E+03  0.40500351514E+03  0.64236328162E+02  0.47376086503E+03  0.10100000352E+00 0. -1.
</event>
<event>
 5   0  0.1101619E-03  0.1314260E+04  0.7818609E-02  0.9018333E-01
       -2   -1    0    0    0  501  0.00000000000E+00  0.00000000000E+00  0.27492739929E+03  0.27492739931E+03  0.25500000920E-02 0. -1.
        2   -1    0    0  501    0  0.00000000000E+00  0.00000000000E+00 -0.15706689805E+04  0.15706689805E+04  0.25500000920E-02 0.  1.
    10030    2    1    2    0    0  0.00000000000E+00  0.00000000000E+00 -0.12957415812E+04  0.18455963798E+04  0.13142601538E+04 0.  0.
        1    1    3    3  502    0 -0.17493124169E+03  0.21650688217E+02 -0.15368513988E+04  0.15469266026E+04  0.50400001928E-02 0.  1.
       -1    1    3    3    0  502  0.17493124169E+03 -0.21650688217E+02  0.24110981766E+03  0.29866977721E+03  0.50400001928E-02 0. -1.
</event>
<event>
 5   0  0.4012375E-04  0.1305248E+04  0.7818609E-02  0.9025414E-01
       -3   -1    0    0    0  501  0.00000000000E+00  0.00000000000E+00  0.82168301345E+03  0.82168301965E+03  0.10100000352E+00 0.  1.
        3   -1    0    0  501    0  0.00000000000E+00  0.00000000000E+00 -0.51834812816E+03  0.51834813800E+03  0.10100000352E+00 0. -1.
    10030    2    1    2    0    0  0.00000000000E+00  0.00000000000E+00  0.30333488528E+03  0.13400311577E+04  0.13052476588E+04 0.  0.
        1    1    3    3  502    0 -0.39801949041E+03 -0.11819648179E+03 -0.36526630664E+03  0.55300035971E+03  0.50400001928E-02 0. -1.
       -1    1    3    3    0  502  0.39801949041E+03  0.11819648179E+03  0.66860119192E+03  0.78703079795E+03  0.50400001928E-02 0.  1.
</event>
<event>
 5   0  0.1081574E-03  0.1304739E+04  0.7818609E-02  0.9025816E-01
        2   -1    0    0  501    0  0.00000000000E+00  0.00000000000E+00  0.10496349585E+04  0.10496349585E+04  0.25500000920E-02 0.  1.
       -2   -1    0    0    0  501  0.00000000000E+00  0.00000000000E+00 -0.40546062743E+03  0.40546062744E+03  0.25500000920E-02 0. -1.
    10030    2    1    2    0    0  0.00000000000E+00  0.00000000000E+00  0.64417433104E+03  0.14550955859E+04  0.13047385161E+04 0.  0.
        5    1    3    3  502    0 -0.46205165573E+03 -0.45744945014E+03  0.26294975193E+03  0.70136751710E+03  0.46999998093E+01 0.  1.
       -5    1    3    3    0  502  0.46205165573E+03  0.45744945014E+03  0.38122457911E+03  0.75372806881E+03  0.46999998093E+01 0. -1.
</event>
<event>
 5   0  0.5766027E-04  0.1284390E+04  0.7818609E-02  0.9042037E-01
       -1   -1    0    0    0  501  0.00000000000E+00  0.00000000000E+00  0.36828886800E+03  0.36828886803E+03  0.50400001928E-02 0.  1.
        1   -1    0    0  501    0  0.00000000000E+00  0.00000000000E+00 -0.11198121869E+04  0.11198121869E+04  0.50400001928E-02 0. -1.
    10030    2    1    2    0    0  0.00000000000E+00  0.00000000000E+00 -0.75152331887E+03  0.14881010549E+04  0.12843899139E+04 0.  0.
        3    1    3    3  502    0 -0.10636997719E+03  0.10438395127E+03 -0.10994994817E+04  0.11095538301E+04  0.10100000352E+00 0. -1.
       -3    1    3    3    0  502  0.10636997719E+03 -0.10438395127E+03  0.34797616284E+03  0.37854722484E+03  0.10100000352E+00 0.  1.
</event>
<event>
 5   0  0.4012375E-04  0.1294980E+04  0.7818609E-02  0.9033555E-01
       -3   -1    0    0    0  501  0.00000000000E+00  0.00000000000E+00  0.58328694257E+03  0.58328695132E+03  0.10100000352E+00 0.  1.
        3   -1    0    0  501    0  0.00000000000E+00  0.00000000000E+00 -0.71876038662E+03  0.71876039372E+03  0.10100000352E+00 0. -1.
    10030    2    1    2    0    0  0.00000000000E+00  0.00000000000E+00 -0.13547344405E+03  0.13020473450E+04  0.12949803993E+04 0.  0.
        3    1    3    3  502    0  0.50104387456E+03 -0.31000349557E+03 -0.33770977777E+03  0.67911341887E+03  0.10100000352E+00 0. -1.
       -3    1    3    3    0  502 -0.50104387456E+03  0.31000349557E+03  0.20223633372E+03  0.62293392617E+03  0.10100000352E+00 0.  1.
</event>
<event>
 5   0  0.1031295E-03  0.1298260E+04  0.7818609E-02  0.9030946E-01
        2   -1    0    0  501    0  0.00000000000E+00  0.00000000000E+00  0.10038061973E+04  0.10038061973E+04  0.25500000920E-02 0. -1.
       -2   -1    0    0    0  501  0.00000000000E+00  0.00000000000E+00 -0.41977184930E+03  0.41977184931E+03  0.25500000920E-02 0.  1.
    10030    2    1    2    0    0  0.00000000000E+00  0.00000000000E+00  0.58403434797E+03  0.14235780466E+04  0.12982597333E+04 0.  0.
        2    1    3    3  502    0 -0.97426016898E+02 -0.21869074598E+03  0.95362627784E+03  0.98321948157E+03  0.25500000920E-02 0. -1.
       -2    1    3    3    0  502  0.97426016898E+02  0.21869074598E+03 -0.36959192987E+03  0.44035856501E+03  0.25500000920E-02 0.  1.
</event>
<event>
 5   0  0.5710383E-04  0.1331153E+04  0.7818609E-02  0.9005219E-01
        1   -1    0    0  501    0  0.00000000000E+00  0.00000000000E+00  0.10373625553E+04  0.10373625553E+04  0.50400001928E-02 0. -1.
       -1   -1    0    0    0  501  0.00000000000E+00  0.00000000000E+00 -0.42703690187E+03  0.42703690190E+03  0.50400001928E-02 0.  1.
    10030    2    1    2    0    0  0.00000000000E+00  0.00000000000E+00  0.61032565346E+03  0.14643994572E+04  0.13311530217E+04 0.  0.
        1    1    3    3  502    0  0.18811444532E+03  0.68486625458E+01 -0.39714314994E+03  0.43949588199E+03  0.50400001928E-02 0.  1.
       -1    1    3    3    0  502 -0.18811444532E+03 -0.68486625458E+01  0.10074688034E+04  0.10249035753E+04  0.50400001928E-02 0. -1.
</event>
<event>
 5   0  0.1046253E-03  0.1303437E+04  0.7818609E-02  0.9026844E-01
        2   -1    0    0  501    0  0.00000000000E+00  0.00000000000E+00  0.11682253897E+04  0.11682253897E+04  0.25500000920E-02 0.  1.
       -2   -1    0    0    0  501  0.00000000000E+00  0.00000000000E+00 -0.36357466618E+03  0.36357466619E+03  0.25500000920E-02 0. -1.
    10030    2    1    2    0    0  0.00000000000E+00  0.00000000000E+00  0.80465072356E+03  0.15318000559E+04  0.13034372346E+04 0.  0.
        3    1    3    3  502    0 -0.26522108309E+02  0.64944189735E+03  0.34647000268E+03  0.73655934807E+03  0.10100000352E+00 0.  1.
       -3    1    3    3    0  502  0.26522108309E+02 -0.64944189735E+03  0.45818072088E+03  0.79524070787E+03  0.10100000352E+00 0. -1.
</event>
<event>
 5   0  0.1031295E-03  0.1303302E+04  0.7818609E-02  0.9026951E-01
        2   -1    0    0  501    0  0.00000000000E+00  0.00000000000E+00  0.16489375511E+04  0.16489375511E+04  0.25500000920E-02 0.  1.
       -2   -1    0    0    0  501  0.00000000000E+00  0.00000000000E+00 -0.25752874496E+03  0.25752874497E+03  0.25500000920E-02 0. -1.
    10030    2    1    2    0    0  0.00000000000E+00  0.00000000000E+00  0.13914088061E+04  0.19064662961E+04  0.13033016812E+04 0.  0.
        2    1    3    3  502    0  0.27152609949E+03 -0.58513038477E+03  0.83092281879E+03  0.10519204916E+04  0.25500000920E-02 0. -1.
       -2    1    3    3    0  502 -0.27152609949E+03  0.58513038477E+03  0.56048598734E+03  0.85454580445E+03  0.25500000920E-02 0.  1.
</event>
<event>
 5   0  0.5710383E-04  0.1301153E+04  0.7818609E-02  0.9028652E-01
        1   -1    0    0  501    0  0.00000000000E+00  0.00000000000E+00  0.14251940888E+04  0.14251940888E+04  0.50400001928E-02 0.  1.
       -1   -1    0    0    0  501  0.00000000000E+00  0.00000000000E+00 -0.29697672029E+03  0.29697672034E+03  0.50400001928E-02 0. -1.
    10030    2    1    2    0    0  0.00000000000E+00  0.00000000000E+00  0.11282173685E+04  0.17221708092E+04  0.13011525142E+04 0.  0.
        1    1    3    3  502    0  0.14292350057E+03  0.39127373261E+03 -0.97316835144E+02  0.42777660907E+03  0.50400001928E-02 0. -1.
       -1    1    3    3    0  502 -0.14292350057E+03 -0.39127373261E+03  0.12255342037E+04  0.12943942001E+04  0.50400001928E-02 0.  1.
</event>
<event>
 5   0  0.1081574E-03  0.1298602E+04  0.7818609E-02  0.9030675E-01
       -2   -1    0    0    0  501  0.00000000000E+00  0.00000000000E+00  0.66829062209E+03  0.66829062209E+03  0.25500000920E-02 0. -1.
        2   -1    0    0  501    0  0.00000000000E+00  0.00000000000E+00 -0.63085088918E+03  0.63085088919E+03  0.25500000920E-02 0.  1.
    10030    2    1    2    0    0  0.00000000000E+00  0.00000000000E+00  0.37439732902E+02  0.12991415113E+04  0.12986019146E+04 0.  0.
        5    1    3    3  502    0  0.17610712761E+03  0.39014139000E+03  0.50712925935E+03  0.66364614085E+03  0.46999998093E+01 0. -1.
       -5    1    3    3    0  502 -0.17610712761E+03 -0.39014139000E+03 -0.46968952644E+03  0.63549537043E+03  0.46999998093E+01 0.  1.
</event>
<event>
 5   0  0.1031295E-03  0.1291685E+04  0.7818609E-02  0.9036185E-01
       -2   -1    0    0    0  501  0.00000000000E+00  0.00000000000E+00  0.91849793577E+03  0.91849793577E+03  0.25500000920E-02 0.  1.
        2   -1    0    0  501    0  0.00000000000E+00  0.00000000000E+00 -0.45412482989E+03  0.45412482990E+03  0.25500000920E-02 0. -1.
    10030    2    1    2    0    0  0.00000000000E+00  0.00000000000E+00  0.46437310587E+03  0.13726227657E+04  0.12916852850E+04 0.  0.
        2    1    3    3  502    0  0.42085181115E+02 -0.31231005023E+03  0.83125184339E+03  0.88898164047E+03  0.25500000920E-02 0.  1.
       -2    1    3    3    0  502 -0.42085181115E+02  0.31231005023E+03 -0.36687873752E+03  0.48364112521E+03  0.25500000920E-02 0. -1.
</event>
<event>
 5   0  0.4012375E-04  0.1265806E+04  0.7818609E-02  0.9057129E-01
       -4   -1    0    0    0  501  0.00000000000E+00  0.00000000000E+00  0.29407482513E+03  0.29407756744E+03  0.12699999809E+01 0.  1.
        4   -1    0    0  501    0  0.00000000000E+00  0.00000000000E+00 -0.13621148569E+04  0.13621154490E+04  0.12699999809E+01 0. -1.
    10030    2    1    2    0    0  0.00000000000E+00  0.00000000000E+00 -0.10680400318E+04  0.16561930164E+04  0.12658063826E+04 0.  0.
        2    1    3    3  502    0  0.23639761089E+03 -0.58697766824E+03 -0.54949225933E+03  0.83807419511E+03  0.25500000920E-02 0.  1.
       -2    1    3    3    0  502 -0.23639761089E+03  0.58697766824E+03 -0.51854777247E+03  0.81811882131E+03  0.25500000920E-02 0. -1.
</event>
<event>
 5   0  0.5710383E-04  0.1298456E+04  0.7818609E-02  0.9030790E-01
       -1   -1    0    0    0  501  0.00000000000E+00  0.00000000000E+00  0.50614217513E+03  0.50614217516E+03  0.50400001928E-02 0.  1.
        1   -1    0    0  501    0  0.00000000000E+00  0.00000000000E+00 -0.83276449322E+03  0.83276449323E+03  0.50400001928E-02 0. -1.
    10030    2    1    2    0    0  0.00000000000E+00  0.00000000000E+00 -0.32662231808E+03  0.13389066684E+04  0.12984563635E+04 0.  0.
        1    1    3    3  502    0 -0.46278005694E+03 -0.36215361267E+03 -0.44791042210E+03  0.73888048190E+03  0.50400001928E-02 0. -1.
       -1    1    3    3    0  502  0.46278005694E+03  0.36215361267E+03  0.12128810402E+03  0.60002618649E+03  0.50400001928E-02 0.  1.
</event>
<event>
 5   0  0.1103241E-03  0.1319310E+04  0.7818609E-02  0.9014391E-01
        2   -1    0    0  501    0  0.00000000000E+00  0.00000000000E+00  0.20677003868E+04  0.20677003868E+04  0.25500000920E-02 0. -1.
       -2   -1    0    0    0  501  0.00000000000E+00  0.00000000000E+00 -0.21044853306E+03  0.21044853307E+03  0.25500000920E-02 0.  1.
    10030    2    1    2    0    0  0.00000000000E+00  0.00000000000E+00  0.18572518538E+04  0.22781489199E+04  0.13193096880E+04 0.  0.
        4    1    3    3  502    0  0.59625676910E+03  0.27989565522E+03  0.86686660539E+03  0.10887254185E+04  0.12699999809E+01 0. -1.
       -4    1    3    3    0  502 -0.59625676910E+03 -0.27989565522E+03  0.99038524839E+03  0.11894235014E+04  0.12699999809E+01 0.  1.
</event>
<event>
 5   0  0.1046253E-03  0.1261232E+04  0.7818609E-02  0.9060886E-01
        2   -1    0    0  501    0  0.00000000000E+00  0.00000000000E+00  0.10610702360E+04  0.10610702360E+04  0.25500000920E-02 0.  1.
       -2   -1    0    0    0  501  0.00000000000E+00  0.00000000000E+00 -0.37478819915E+03  0.37478819916E+03  0.25500000920E-02 0. -1.
    10030    2    1    2    0    0  0.00000000000E+00  0.00000000000E+00  0.68628203684E+03  0.14358584352E+04  0.12612321007E+04 0.  0.
        3    1    3    3  502    0  0.51130935271E+03  0.31724336696E+03  0.55793252967E+03  0.82059083952E+03  0.10100000352E+00 0.  1.
       -3    1    3    3    0  502 -0.51130935271E+03 -0.31724336696E+03  0.12834950717E+03  0.61526759564E+03  0.10100000352E+00 0. -1.
</event>
<event>
 5   0  0.4012375E-04  0.1340004E+04  0.7818609E-02  0.8998430E-01
        4   -1    0    0  501    0  0.00000000000E+00  0.00000000000E+00  0.73063495146E+03  0.73063605522E+03  0.12699999809E+01 0. -1.
       -4   -1    0    0    0  501  0.00000000000E+00  0.00000000000E+00 -0.61439857885E+03  0.61439989143E+03  0.12699999809E+01 0.  1.
    10030    2    1    2    0    0  0.00000000000E+00  0.00000000000E+00  0.11623637261E+03  0.13450359467E+04  0.13400040311E+04 0.  0.
        2    1    3    3  502    0  0.11400230966E+03  0.23379343225E+03 -0.56165230253E+03  0.61895816055E+03  0.25500000920E-02 0.  1.
       -2    1    3    3    0  502 -0.11400230966E+03 -0.23379343225E+03  0.67788867515E+03  0.72607778610E+03  0.25500000920E-02 0. -1.
</event>
<event>
 5   0  0.1046253E-03  0.1275575E+04  0.7818609E-02  0.9049162E-01
        2   -1    0    0  501    0  0.00000000000E+00  0.00000000000E+00  0.53074838651E+03  0.53074838651E+03  0.25500000920E-02 0.  1.
       -2   -1    0    0    0  501  0.00000000000E+00  0.00000000000E+00 -0.76641349531E+03  0.76641349532E+03  0.25500000920E-02 0. -1.
    10030    2    1    2    0    0  0.00000000000E+00  0.00000000000E+00 -0.23566510881E+03  0.12971618818E+04  0.12755747348E+04 0.  0.
        3    1    3    3  502    0 -0.19675926271E+03 -0.89300175487E+02 -0.72805780414E+03  0.75944512980E+03  0.10100000352E+00 0. -1.
       -3    1    3    3    0  502  0.19675926271E+03  0.89300175487E+02  0.49239269533E+03  0.53771675204E+03  0.10100000352E+00 0.  1.
</event>
<event>
 5   0  0.5766027E-04  0.1304990E+04  0.7818609E-02  0.9025618E-01
        1   -1    0    0  501    0  0.00000000000E+00  0.00000000000E+00  0.17290011675E+04  0.17290011675E+04  0.50400001928E-02 0.  1.
       -1   -1    0    0    0  501  0.00000000000E+00  0.00000000000E+00 -0.24624015525E+03  0.24624015530E+03  0.50400001928E-02 0. -1.
    10030    2    1    2    0    0  0.00000000000E+00  0.00000000000E+00  0.14827610122E+04  0.19752413228E+04  0.13049896796E+04 0.  0.
        3    1    3    3  502    0  0.49084969378E+03  0.24396904823E+03  0.12771528359E+04  0.13898106687E+04  0.10100000352E+00 0.  1.
       -3    1    3    3    0  502 -0.49084969378E+03 -0.24396904823E+03  0.20560817634E+03  0.58543065410E+03  0.10100000352E+00 0. -1.
</event>
<event>
 5   0  0.5766027E-04  0.1296830E+04  0.7818609E-02  0.9032083E-01
       -1   -1    0    0    0  501  0.00000000000E+00  0.00000000000E+00  0.22535040568E+03  0.22535040573E+03  0.50400001928E-02 0.  1.
        1   -1    0    0  501    0  0.00000000000E+00  0.00000000000E+00 -0.18657254704E+04  0.18657254704E+04  0.50400001928E-02 0. -1.
    10030    2    1    2    0    0  0.00000000000E+00  0.00000000000E+00 -0.16403750647E+04  0.20910758761E+04  0.12968299683E+04 0.  0.
        3    1    3    3  502    0  0.60437338146E+03  0.11773922710E+03 -0.11479251497E+04  0.13026365070E+04  0.10100000352E+00 0. -1.
       -3    1    3    3    0  502 -0.60437338146E+03 -0.11773922710E+03 -0.49244991501E+03  0.78843936914E+03  0.10100000352E+00 0.  1.
</event>
<event>
 5   0  0.1103241E-03  0.1299973E+04  0.7818609E-02  0.9029587E-01
       -2   -1    0    0    0  501  0.00000000000E+00  0.00000000000E+00  0.23379769031E+03  0.23379769032E+03  0.25500000920E-02 0.  1.
        2   -1    0    0  501    0  0.00000000000E+00  0.00000000000E+00 -0.18070426280E+04  0.18070426280E+04  0.25500000920E-02 0. -1.
    10030    2    1    2    0    0  0.00000000000E+00  0.00000000000E+00 -0.15732449377E+04  0.20408403183E+04  0.12999729116E+04 0.  0.
        4    1    3    3  502    0 -0.19183281363E+03 -0.60798222958E+03 -0.98544125076E+03  0.11736857720E+04  0.12699999809E+01 0. -1.
       -4    1    3    3    0  502  0.19183281363E+03  0.60798222958E+03 -0.58780368691E+03  0.86715454627E+03  0.12699999809E+01 0.  1.
</event>
<event>
 5   0  0.5812938E-04  0.1301535E+04  0.7818609E-02  0.9028349E-01
       -1   -1    0    0    0  501  0.00000000000E+00  0.00000000000E+00  0.47125635039E+03  0.47125635042E+03  0.50400001928E-02 0. -1.
        1   -1    0    0  501    0  0.00000000000E+00  0.00000000000E+00 -0.89865799193E+03  0.89865799194E+03  0.50400001928E-02 0.  1.
    10030    2    1    2    0    0  0.00000000000E+00  0.00000000000E+00 -0.42740164154E+03  0.13699143424E+04  0.13015349178E+04 0.  0.
        5    1    3    3  502    0 -0.25753315756E+03  0.15028866472E+03  0.39510474072E+03  0.49501500596E+03  0.46999998093E+01 0. -1.
       -5    1    3    3    0  502  0.25753315756E+03 -0.15028866472E+03 -0.82250638226E+03  0.87489933640E+03  0.46999998093E+01 0.  1.
</event>
<event>
 5   0  0.4012375E-04  0.1288443E+04  0.7818609E-02  0.9038780E-01
       -3   -1    0    0    0  501  0.00000000000E+00  0.00000000000E+00  0.43289118024E+03  0.43289119202E+03  0.10100000352E+00 0.  1.
        3   -1    0    0  501    0  0.00000000000E+00  0.00000000000E+00 -0.95872046272E+03  0.95872046804E+03  0.10100000352E+00 0. -1.
    10030    2    1    2    0    0  0.00000000000E+00  0.00000000000E+00 -0.52582928248E+03  0.13916116601E+04  0.12884434711E+04 0.  0.
        4    1    3    3  502    0 -0.22765348036E+03 -0.56663328791E+03 -0.41248082841E+02  0.61204771654E+03  0.12699999809E+01 0.  1.
       -4    1    3    3    0  502  0.22765348036E+03  0.56663328791E+03 -0.48458119964E+03  0.77956394352E+03  0.12699999809E+01 0. -1.
</event>
<event>
 5   0  0.5766027E-04  0.1298258E+04  0.7818609E-02  0.9030948E-01
       -1   -1    0    0    0  501  0.00000000000E+00  0.00000000000E+00  0.27688677485E+03  0.27688677490E+03  0.50400001928E-02 0.  1.
        1   -1    0    0  501    0  0.00000000000E+00  0.00000000000E+00 -0.15218070592E+04  0.15218070592E+04  0.50400001928E-02 0. -1.
    10030    2    1    2    0    0  0.00000000000E+00  0.00000000000E+00 -0.12449202844E+04  0.17986938341E+04  0.12982576764E+04 0.  0.
        3    1    3    3  502    0 -0.53515275575E+03  0.32582781138E+03 -0.38727319072E+03  0.73656823792E+03  0.10100000352E+00 0. -1.
       -3    1    3    3    0  502  0.53515275575E+03 -0.32582781138E+03 -0.85764709364E+03  0.10621255962E+04  0.10100000352E+00 0.  1.
</event>
<event>
 5   0  0.5812938E-04  0.1291162E+04  0.7818609E-02  0.9036603E-01
        1   -1    0    0  501    0  0.00000000000E+00  0.00000000000E+00  0.11351895230E+04  0.11351895230E+04  0.50400001928E-02 0. -1.
       -1   -1    0    0    0  501  0.00000000000E+00  0.00000000000E+00 -0.36714128241E+03  0.36714128244E+03  0.50400001928E-02 0.  1.
    10030    2    1    2    0    0  0.00000000000E+00  0.00000000000E+00  0.76804824060E+03  0.15023308055E+04  0.12911621700E+04 0.  0.
        5    1    3    3  502    0  0.49023917139E+03  0.11903574426E+03 -0.84655049163E+02  0.51155891246E+03  0.46999998093E+01 0. -1.
       -5    1    3    3    0  502 -0.49023917139E+03 -0.11903574426E+03  0.85270328976E+03  0.99077189299E+03  0.46999998093E+01 0.  1.
</event>
<event>
 5   0  0.5766027E-04  0.1297567E+04  0.7818609E-02  0.9031496E-01
        1   -1    0    0  501    0  0.00000000000E+00  0.00000000000E+00  0.97041732503E+03  0.97041732505E+03  0.50400001928E-02 0.  1.
       -1   -1    0    0    0  501  0.00000000000E+00  0.00000000000E+00 -0.43375182694E+03  0.43375182697E+03  0.50400001928E-02 0. -1.
    10030    2    1    2    0    0  0.00000000000E+00  0.00000000000E+00  0.53666549810E+03  0.14041691520E+04  0.12975673973E+04 0.  0.
        3    1    3    3  502    0  0.29959755899E+03 -0.18137436194E+03  0.85933698321E+03  0.92796304745E+03  0.10100000352E+00 0.  1.
       -3    1    3    3    0  502 -0.29959755899E+03  0.18137436194E+03 -0.32267148511E+03  0.47620610456E+03  0.10100000352E+00 0. -1.
</event>
<event>
 5   0  0.1101619E-03  0.1302864E+04  0.7818609E-02  0.9027297E-01
       -2   -1    0    0    0  501  0.00000000000E+00  0.00000000000E+00  0.33504577500E+03  0.33504577501E+03  0.25500000920E-02 0.  1.
        2   -1    0    0  501    0  0.00000000000E+00  0.00000000000E+00 -0.12665838788E+04  0.12665838788E+04  0.25500000920E-02 0. -1.
    10030    2    1    2    0    0  0.00000000000E+00  0.00000000000E+00 -0.93153810380E+03  0.16016296538E+04  0.13028638874E+04 0.  0.
        1    1    3    3  502    0  0.31646456841E+03 -0.27056993376E+03  0.15012330739E+03  0.44260018025E+03  0.50400001928E-02 0.  1.
       -1    1    3    3    0  502 -0.31646456841E+03  0.27056993376E+03 -0.10816614112E+04  0.11590294736E+04  0.50400001928E-02 0. -1.
</event>
<event>
 5   0  0.5563545E-04  0.1308505E+04  0.7818609E-02  0.9022848E-01
        1   -1    0    0  501    0  0.00000000000E+00  0.00000000000E+00  0.10529915064E+04  0.10529915064E+04  0.50400001928E-02 0. -1.
       -1   -1    0    0    0  501  0.00000000000E+00  0.00000000000E+00 -0.40650497698E+03  0.40650497702E+03  0.50400001928E-02 0.  1.
    10030    2    1    2    0    0  0.00000000000E+00  0.00000000000E+00  0.64648652941E+03  0.14594964834E+04  0.13085049302E+04 0.  0.
        2    1    3    3  502    0 -0.54025863704E+03 -0.16277167273E+03 -0.46139066026E+02  0.56612968988E+03  0.25500000920E-02 0.  1.
       -2    1    3    3    0  502  0.54025863704E+03  0.16277167273E+03  0.69262559544E+03  0.89336679354E+03  0.25500000920E-02 0. -1.
</event>
<event>
 5   0  0.5766027E-04  0.1302365E+04  0.7818609E-02  0.9027692E-01
        1   -1    0    0  501    0  0.00000000000E+00  0.00000000000E+00  0.68562539349E+03  0.68562539351E+03  0.50400001928E-02 0. -1.
       -1   -1    0    0    0  501  0.00000000000E+00  0.00000000000E+00 -0.61847019409E+03  0.61847019411E+03  0.50400001928E-02 0.  1.
    10030    2    1    2    0    0  0.00000000000E+00  0.00000000000E+00  0.67155199403E+02  0.13040955876E+04  0.13023653408E+04 0.  0.
        3    1    3    3  502    0  0.17402934204E+02 -0.11525703213E+03  0.67509388454E+03  0.68508306702E+03  0.10100000352E+00 0. -1.
       -3    1    3    3    0  502 -0.17402934204E+02  0.11525703213E+03 -0.60793868513E+03  0.61901252060E+03  0.10100000352E+00 0.  1.
</event>
<event>
 5   0  0.5563545E-04  0.1302153E+04  0.7818609E-02  0.9027860E-01
       -1   -1    0    0    0  501  0.00000000000E+00  0.00000000000E+00  0.66708059597E+03  0.66708059598E+03  0.50400001928E-02 0. -1.
        1   -1    0    0  501    0  0.00000000000E+00  0.00000000000E+00 -0.63545598506E+03  0.63545598508E+03  0.50400001928E-02 0.  1.
    10030    2    1    2    0    0  0.00000000000E+00  0.00000000000E+00  0.31624610905E+02  0.13025365811E+04  0.13021526136E+04 0.  0.
        2    1    3    3  502    0  0.11710039591E+03 -0.69417911786E+02  0.65268600306E+03  0.66673110607E+03  0.25500000920E-02 0. -1.
       -2    1    3    3    0  502 -0.11710039591E+03  0.69417911786E+02 -0.62106139216E+03  0.63580547500E+03  0.25500000920E-02 0.  1.
</event>
<event>
 5   0  0.5766027E-04  0.1295790E+04  0.7818609E-02  0.9032910E-01
        1   -1    0    0  501    0  0.00000000000E+00  0.00000000000E+00  0.59389223163E+03  0.59389223165E+03  0.50400001928E-02 0. -1.
       -1   -1    0    0    0  501  0.00000000000E+00  0.00000000000E+00 -0.70680869083E+03  0.70680869085E+03  0.50400001928E-02 0.  1.
    10030    2    1    2    0    0  0.00000000000E+00  0.00000000000E+00 -0.11291645920E+03  0.13007009225E+04  0.12957904009E+04 0.  0.
        3    1    3    3  502    0  0.39235994909E+03 -0.46406940901E+03  0.16902927796E+03  0.63077543788E+03  0.10100000352E+00 0. -1.
       -3    1    3    3    0  502 -0.39235994909E+03  0.46406940901E+03 -0.28194573716E+03  0.66992548461E+03  0.10100000352E+00 0.  1.
</event>
<event>
 5   0  0.1081574E-03  0.1302988E+04  0.7818609E-02  0.9027199E-01
       -2   -1    0    0    0  501  0.00000000000E+00  0.00000000000E+00  0.23081423552E+03  0.23081423554E+03  0.25500000920E-02 0. -1.
        2   -1    0    0  501    0  0.00000000000E+00  0.00000000000E+00 -0.18389002908E+04  0.18389002908E+04  0.25500000920E-02 0.  1.
    10030    2    1    2    0    0  0.00000000000E+00  0.00000000000E+00 -0.16080860553E+04  0.20697145263E+04  0.13029878969E+04 0.  0.
        5    1    3    3  502    0 -0.17818170786E+02 -0.49773668239E+03 -0.14711166740E+04  0.15531470152E+04  0.46999998093E+01 0.  1.
       -5    1    3    3    0  502  0.17818170786E+02  0.49773668239E+03 -0.13696938129E+03  0.51656751119E+03  0.46999998093E+01 0. -1.
</event>
<event>
 5   0  0.1101619E-03  0.1304283E+04  0.7818609E-02  0.9026176E-01
        2   -1    0    0  501    0  0.00000000000E+00  0.00000000000E+00  0.15836628532E+04  0.15836628532E+04  0.25500000920E-02 0. -1.
       -2   -1    0    0    0  501  0.00000000000E+00  0.00000000000E+00 -0.26854731927E+03  0.26854731928E+03  0.25500000920E-02 0.  1.
    10030    2    1    2    0    0  0.00000000000E+00  0.00000000000E+00  0.13151155339E+04  0.18522101725E+04  0.13042828127E+04 0.  0.
        1    1    3    3  502    0 -0.14288727318E+03 -0.63290830223E+03  0.56444951527E+03  0.85999589952E+03  0.50400001928E-02 0.  1.
       -1    1    3    3    0  502  0.14288727318E+03  0.63290830223E+03  0.75066601867E+03  0.99221427297E+03  0.50400001928E-02 0. -1.
</event>
<event>
 5   0  0.5710383E-04  0.1292011E+04  0.7818609E-02  0.9035925E-01
       -1   -1    0    0    0  501  0.00000000000E+00  0.00000000000E+00  0.52444142211E+03  0.52444142213E+03  0.50400001928E-02 0.  1.
        1   -1    0    0  501    0  0.00000000000E+00  0.00000000000E+00 -0.79574778469E+03  0.79574778471E+03  0.50400001928E-02 0. -1.
    10030    2    1    2    0    0  0.00000000000E+00  0.00000000000E+00 -0.27130636258E+03  0.13201892068E+04  0.12920109905E+04 0.  0.
        1    1    3    3  502    0  0.26899973116E+03  0.55158710514E+03 -0.34183073177E+03  0.70246525831E+03  0.50400001928E-02 0. -1.
       -1    1    3    3    0  502 -0.26899973116E+03 -0.55158710514E+03  0.70524369193E+02  0.61772394853E+03  0.50400001928E-02 0.  1.
</event>
<event>
 5   0  0.1031295E-03  0.1301341E+04  0.7818609E-02  0.9028502E-01
       -2   -1    0    0    0  501  0.00000000000E+00  0.00000000000E+00  0.52288368446E+03  0.52288368446E+03  0.25500000920E-02 0. -1.
        2   -1    0    0  501    0  0.00000000000E+00  0.00000000000E+00 -0.80968706334E+03  0.80968706334E+03  0.25500000920E-02 0.  1.
    10030    2    1    2    0    0  0.00000000000E+00  0.00000000000E+00 -0.28680337888E+03  0.13325707478E+04  0.13013410851E+04 0.  0.
        2    1    3    3  502    0 -0.61516477431E+03  0.18345627635E+03 -0.34605810576E+02  0.64286971232E+03  0.25500000920E-02 0. -1.
       -2    1    3    3    0  502  0.61516477431E+03 -0.18345627635E+03 -0.25219756830E+03  0.68970103549E+03  0.25500000920E-02 0.  1.
</event>
<event>
 5   0  0.1081574E-03  0.1300000E+04  0.7818609E-02  0.9029565E-01
       -2   -1    0    0    0  501  0.00000000000E+00  0.00000000000E+00  0.71707389101E+03  0.71707389101E+03  0.25500000920E-02 0.  1.
        2   -1    0    0  501    0  0.00000000000E+00  0.00000000000E+00 -0.58920041044E+03  0.58920041045E+03  0.25500000920E-02 0. -1.
    10030    2    1    2    0    0  0.00000000000E+00  0.00000000000E+00  0.12787348056E+03  0.13062743015E+04  0.13000003552E+04 0.  0.
        5    1    3    3  502    0  0.11272635834E+03  0.63928036042E+03  0.97134495163E+02  0.65638693713E+03  0.46999998093E+01 0. -1.
       -5    1    3    3    0  502 -0.11272635834E+03 -0.63928036042E+03  0.30738985399E+02  0.64988736433E+03  0.46999998093E+01 0.  1.
</event>
<event>
 5   0  0.5563545E-04  0.1314841E+04  0.7818609E-02  0.9017878E-01
        1   -1    0    0  501    0  0.00000000000E+00  0.00000000000E+00  0.60751455609E+03  0.60751455611E+03  0.50400001928E-02 0. -1.
       -1   -1    0    0    0  501  0.00000000000E+00  0.00000000000E+00 -0.71142615755E+03  0.71142615757E+03  0.50400001928E-02 0.  1.
    10030    2    1    2    0    0  0.00000000000E+00  0.00000000000E+00 -0.10391160146E+03  0.13189407137E+04  0.13148410494E+04 0.  0.
        2    1    3    3  502    0  0.30399446151E+03 -0.34878451007E+03 -0.52046504090E+03  0.69638145143E+03  0.25500000920E-02 0.  1.
       -2    1    3    3    0  502 -0.30399446151E+03  0.34878451007E+03  0.41655343944E+03  0.62255926225E+03  0.25500000920E-02 0. -1.
</event>
<event>
 5   0  0.1031295E-03  0.1291433E+04  0.7818609E-02  0.9036386E-01
        2   -1    0    0  501    0  0.00000000000E+00  0.00000000000E+00  0.18647906900E+04  0.18647906900E+04  0.25500000920E-02 0. -1.
       -2   -1    0    0    0  501  0.00000000000E+00  0.00000000000E+00 -0.22359073374E+03  0.22359073376E+03  0.25500000920E-02 0.  1.
    10030    2    1    2    0    0  0.00000000000E+00  0.00000000000E+00  0.16411999563E+04  0.20883814238E+04  0.12914331863E+04 0.  0.
        2    1    3    3  502    0  0.30347646093E+03  0.10462327713E+03 -0.85419712789E+02  0.33217543527E+03  0.25500000920E-02 0.  1.
       -2    1    3    3    0  502 -0.30347646093E+03 -0.10462327713E+03  0.17266196691E+04  0.17562059885E+04  0.25500000920E-02 0. -1.
</event>
<event>
 5   0  0.1046253E-03  0.1286945E+04  0.7818609E-02  0.9039982E-01
       -2   -1    0    0    0  501  0.00000000000E+00  0.00000000000E+00  0.10538376018E+04  0.10538376018E+04  0.25500000920E-02 0.  1.
        2   -1    0    0  501    0  0.00000000000E+00  0.00000000000E+00 -0.39290380639E+03  0.39290380640E+03  0.25500000920E-02 0. -1.
    10030    2    1    2    0    0  0.00000000000E+00  0.00000000000E+00  0.66093379536E+03  0.14467414082E+04  0.12869449173E+04 0.  0.
        3    1    3    3  502    0  0.17677032340E+03  0.50029106706E+02 -0.36279545903E+03  0.40665859643E+03  0.10100000352E+00 0. -1.
       -3    1    3    3    0  502 -0.17677032340E+03 -0.50029106706E+02  0.10237292544E+04  0.10400828117E+04  0.10100000352E+00 0.  1.
</event>
<event>
 5   0  0.5812938E-04  0.1299994E+04  0.7818609E-02  0.9029570E-01
       -1   -1    0    0    0  501  0.00000000000E+00  0.00000000000E+00  0.30842353067E+03  0.30842353071E+03  0.50400001928E-02 0.  1.
        1   -1    0    0  501    0  0.00000000000E+00  0.00000000000E+00 -0.13698565077E+04  0.13698565077E+04  0.50400001928E-02 0. -1.
    10030    2    1    2    0    0  0.00000000000E+00  0.00000000000E+00 -0.10614329770E+04  0.16782800384E+04  0.12999938164E+04 0.  0.
        5    1    3    3  502    0 -0.53961981687E+03 -0.36231982454E+03 -0.53452187841E+03  0.84154674886E+03  0.46999998093E+01 0. -1.
       -5    1    3    3    0  502  0.53961981687E+03  0.36231982454E+03 -0.52691109860E+03  0.83673328955E+03  0.46999998093E+01 0.  1.
</event>
<event>
 5   0  0.5812938E-04  0.1298785E+04  0.7818609E-02  0.9030529E-01
        1   -1    0    0  501    0  0.00000000000E+00  0.00000000000E+00  0.47215287241E+03  0.47215287244E+03  0.50400001928E-02 0. -1.
       -1   -1    0    0    0  501  0.00000000000E+00  0.00000000000E+00 -0.89316543990E+03  0.89316543992E+03  0.50400001928E-02 0.  1.
    10030    2    1    2    0    0  0.00000000000E+00  0.00000000000E+00 -0.42101256749E+03  0.13653183124E+04  0.12987850138E+04 0.  0.
        5    1    3    3  502    0 -0.35788173941E+03  0.17277172949E+03  0.32937764014E+03  0.51617935811E+03  0.46999998093E+01 0. -1.
       -5    1    3    3    0  502  0.35788173941E+03 -0.17277172949E+03 -0.75039020763E+03  0.84913895425E+03  0.46999998093E+01 0.  1.
</event>
<event>
 5   0  0.1101619E-03  0.1308954E+04  0.7818609E-02  0.9022495E-01
       -2   -1    0    0    0  501  0.00000000000E+00  0.00000000000E+00  0.22700638604E+03  0.22700638606E+03  0.25500000920E-02 0. -1.
        2   -1    0    0  501    0  0.00000000000E+00  0.00000000000E+00 -0.18869073291E+04  0.18869073291E+04  0.25500000920E-02 0.  1.
    10030    2    1    2    0    0  0.00000000000E+00  0.00000000000E+00 -0.16599009430E+04  0.21139137151E+04  0.13089538014E+04 0.  0.
        1    1    3    3  502    0  0.18512125793E+03 -0.68320710684E+02 -0.18377224013E+04  0.18482860233E+04  0.50400001928E-02 0.  1.
       -1    1    3    3    0  502 -0.18512125793E+03  0.68320710684E+02  0.17782145825E+03  0.26562769186E+03  0.50400001928E-02 0. -1.
</event>
<event>
 5   0  0.6006119E-04  0.1298363E+04  0.7818609E-02  0.9030865E-01
       -1   -1    0    0    0  501  0.00000000000E+00  0.00000000000E+00  0.51508040175E+03  0.51508040177E+03  0.50400001928E-02 0.  1.
        1   -1    0    0  501    0  0.00000000000E+00  0.00000000000E+00 -0.81819521939E+03  0.81819521941E+03  0.50400001928E-02 0. -1.
    10030    2    1    2    0    0  0.00000000000E+00  0.00000000000E+00 -0.30311481764E+03  0.13332756212E+04  0.12983625416E+04 0.  0.
        4    1    3    3  502    0 -0.79672363067E+02  0.43113419274E+03 -0.64319044198E+03  0.77840859138E+03  0.12699999809E+01 0. -1.
       -4    1    3    3    0  502  0.79672363067E+02 -0.43113419274E+03  0.34007562434E+03  0.55486702979E+03  0.12699999809E+01 0.  1.
</event>
<event>
 5   0  0.5563545E-04  0.1289949E+04  0.7818609E-02  0.9037574E-01
       -1   -1    0    0    0  501  0.00000000000E+00  0.00000000000E+00  0.79634084211E+03  0.79634084213E+03  0.50400001928E-02 0.  1.
        1   -1    0    0  501    0  0.00000000000E+00  0.00000000000E+00 -0.52237945840E+03  0.52237945842E+03  0.50400001928E-02 0. -1.
    10030    2    1    2    0    0  0.00000000000E+00  0.00000000000E+00  0.27396138371E+03  0.13187203005E+04  0.12899489879E+04 0.  0.
        2    1    3    3  502    0 -0.12171076736E+02 -0.32323194992E+03  0.70742742899E+03  0.77786926656E+03  0.25500000920E-02 0.  1.
       -2    1    3    3    0  502  0.12171076736E+02  0.32323194992E+03 -0.43346604528E+03  0.54085103399E+03  0.25500000920E-02 0. -1.
</event>
<event>
 5   0  0.1103241E-03  0.1295426E+04  0.7818609E-02  0.9033200E-01
        2   -1    0    0  501    0  0.00000000000E+00  0.00000000000E+00  0.58230662623E+03  0.58230662623E+03  0.25500000920E-02 0. -1.
       -2   -1    0    0    0  501  0.00000000000E+00  0.00000000000E+00 -0.72046612004E+03  0.72046612004E+03  0.25500000920E-02 0.  1.
    10030    2    1    2    0    0  0.00000000000E+00  0.00000000000E+00 -0.13815949381E+03  0.13027727463E+04  0.12954261008E+04 0.  0.
        4    1    3    3  502    0 -0.54380986994E+03  0.22668390806E+02  0.28403482223E+03  0.61393845272E+03  0.12699999809E+01 0. -1.
       -4    1    3    3    0  502  0.54380986994E+03 -0.22668390806E+02 -0.42219431603E+03  0.68883429356E+03  0.12699999809E+01 0.  1.
</event>
<event>
 5   0  0.1031295E-03  0.1302543E+04  0.7818609E-02  0.9027551E-01
        2   -1    0    0  501    0  0.00000000000E+00  0.00000000000E+00  0.70604192976E+03  0.70604192977E+03  0.25500000920E-02 0. -1.
       -2   -1    0    0    0  501  0.00000000000E+00  0.00000000000E+00 -0.60074938167E+03  0.60074938167E+03  0.25500000920E-02 0.  1.
    10030    2    1    2    0    0  0.00000000000E+00  0.00000000000E+00  0.10529254810E+03  0.13067913114E+04  0.13025425179E+04 0.  0.
        2    1    3    3  502    0  0.12240142868E+02  0.53186746786E+03 -0.32424042553E+03  0.62302863338E+03  0.25500000920E-02 0.  1.
       -2    1    3    3    0  502 -0.12240142868E+02 -0.53186746786E+03  0.42953297363E+03  0.68376267806E+03  0.25500000920E-02 0. -1.
</event>
<event>
 5   0  0.1081574E-03  0.1305932E+04  0.7818609E-02  0.9024874E-01
       -2   -1    0    0    0  501  0.00000000000E+00  0.00000000000E+00  0.91958182565E+03  0.91958182566E+03  0.25500000920E-02 0. -1.
        2   -1    0    0  501    0  0.00000000000E+00  0.00000000000E+00 -0.46365071921E+03  0.46365071922E+03  0.25500000920E-02 0.  1.
    10030    2    1    2    0    0  0.00000000000E+00  0.00000000000E+00  0.45593110644E+03  0.13832325449E+04  0.13059322721E+04 0.  0.
        5    1    3    3  502    0  0.31492670145E+03 -0.57193547381E+03  0.22020583662E+03  0.68905857078E+03  0.46999998093E+01 0.  1.
       -5    1    3    3    0  502 -0.31492670145E+03  0.57193547381E+03  0.23572526982E+03  0.69417397410E+03  0.46999998093E+01 0. -1.
</event>
<event>
 5   0  0.4012375E-04  0.1299457E+04  0.7818609E-02  0.9029996E-01
        4   -1    0    0  501    0  0.00000000000E+00  0.00000000000E+00  0.74539338828E+03  0.74539447019E+03  0.12699999809E+01 0. -1.
       -4   -1    0    0    0  501  0.00000000000E+00  0.00000000000E+00 -0.56633953183E+03  0.56634095579E+03  0.12699999809E+01 0.  1.
    10030    2    1    2    0    0  0.00000000000E+00  0.00000000000E+00  0.17905385645E+03  0.13117354260E+04  0.12994574038E+04 0.  0.
        5    1    3    3  502    0  0.64364212169E+02 -0.11601951008E+03 -0.55250301316E+03  0.56822966138E+03  0.46999998093E+01 0.  1.
       -5    1    3    3    0  502 -0.64364212169E+02  0.11601951008E+03  0.73155686961E+03  0.74350576460E+03  0.46999998093E+01 0. -1.
</event>
<event>
 5   0  0.1103241E-03  0.1303976E+04  0.7818609E-02  0.9026418E-01
        2   -1    0    0  501    0  0.00000000000E+00  0.00000000000E+00  0.13655759735E+04  0.13655759735E+04  0.25500000920E-02 0. -1.
       -2   -1    0    0    0  501  0.00000000000E+00  0.00000000000E+00 -0.31128872401E+03  0.31128872403E+03  0.25500000920E-02 0.  1.
    10030    2    1    2    0    0  0.00000000000E+00  0.00000000000E+00  0.10542872495E+04  0.16768646975E+04  0.13039760770E+04 0.  0.
        4    1    3    3  502    0  0.31120903483E+03 -0.55666232573E+03  0.35288365764E+03  0.72887069977E+03  0.12699999809E+01 0.  1.
       -4    1    3    3    0  502 -0.31120903483E+03  0.55666232573E+03  0.70140359185E+03  0.94799399777E+03  0.12699999809E+01 0. -1.
</event>
<event>
 5   0  0.1046253E-03  0.1293598E+04  0.7818609E-02  0.9034657E-01
        2   -1    0    0  501    0  0.00000000000E+00  0.00000000000E+00  0.49204373372E+03  0.49204373372E+03  0.25500000920E-02 0.  1.
       -2   -1    0    0    0  501  0.00000000000E+00  0.00000000000E+00 -0.85022777027E+03  0.85022777028E+03  0.25500000920E-02 0. -1.
    10030    2    1    2    0    0  0.00000000000E+00  0.00000000000E+00 -0.35818403656E+03  0.13422715040E+04  0.12935984641E+04 0.  0.
        3    1    3    3  502    0 -0.14853150998E+03  0.88599342846E+02  0.46760612293E+03  0.49856488987E+03  0.10100000352E+00 0.  1.
       -3    1    3    3    0  502  0.14853150998E+03 -0.88599342846E+02 -0.82579015949E+03  0.84370661413E+03  0.10100000352E+00 0. -1.
</event>
<event>
 5   0  0.5766027E-04  0.1301466E+04  0.7818609E-02  0.9028403E-01
       -1   -1    0    0    0  501  0.00000000000E+00  0.00000000000E+00  0.34044362467E+03  0.34044362471E+03  0.50400001928E-02 0. -1.
        1   -1    0    0  501    0  0.00000000000E+00  0.00000000000E+00 -0.12438285403E+04  0.12438285404E+04  0.50400001928E-02 0.  1.
    10030    2    1    2    0    0  0.00000000000E+00  0.00000000000E+00 -0.90338491568E+03  0.15842721651E+04  0.13014660914E+04 0.  0.
        3    1    3    3  502    0 -0.25464630817E+03  0.16339847492E+02  0.27700229432E+03  0.37661918982E+03  0.10100000352E+00 0. -1.
       -3    1    3    3    0  502  0.25464630817E+03 -0.16339847492E+02 -0.11803872100E+04  0.12076529752E+04  0.10100000352E+00 0.  1.
</event>
<event>
 5   0  0.1046253E-03  0.1312378E+04  0.7818609E-02  0.9019806E-01
       -2   -1    0    0    0  501  0.00000000000E+00  0.00000000000E+00  0.82652665890E+03  0.82652665891E+03  0.25500000920E-02 0. -1.
        2   -1    0    0  501    0  0.00000000000E+00  0.00000000000E+00 -0.52095597630E+03  0.52095597630E+03  0.25500000920E-02 0.  1.
    10030    2    1    2    0    0  0.00000000000E+00  0.00000000000E+00  0.30557068260E+03  0.13474826352E+04  0.13123779982E+04 0.  0.
        3    1    3    3  502    0  0.55834215237E+03 -0.19707816473E+03  0.44319056628E+03  0.73959695130E+03  0.10100000352E+00 0. -1.
       -3    1    3    3    0  502 -0.55834215237E+03  0.19707816473E+03 -0.13761988368E+03  0.60788568391E+03  0.10100000352E+00 0.  1.
</event>
<event>
 5   0  0.5563545E-04  0.1312049E+04  0.7818609E-02  0.9020065E-01
        1   -1    0    0  501    0  0.00000000000E+00  0.00000000000E+00  0.11794844473E+04  0.11794844473E+04  0.50400001928E-02 0.  1.
       -1   -1    0    0    0  501  0.00000000000E+00  0.00000000000E+00 -0.36487807028E+03  0.36487807032E+03  0.50400001928E-02 0. -1.
    10030    2    1    2    0    0  0.00000000000E+00  0.00000000000E+00  0.81460637700E+03  0.15443625176E+04  0.13120487934E+04 0.  0.
        2    1    3    3  502    0  0.27673000849E+02 -0.29366076499E+03 -0.28242446480E+03  0.40836995261E+03  0.25500000920E-02 0. -1.
       -2    1    3    3    0  502 -0.27673000849E+02  0.29366076499E+03  0.10970308418E+04  0.11359925650E+04  0.25500000920E-02 0.  1.
</event>
<event>
 5   0  0.5710383E-04  0.1300083E+04  0.7818609E-02  0.9029500E-01
        1   -1    0    0  501    0  0.00000000000E+00  0.00000000000E+00  0.11233900848E+04  0.11233900848E+04  0.50400001928E-02 0.  1.
       -1   -1    0    0    0  501  0.00000000000E+00  0.00000000000E+00 -0.37614161738E+03  0.37614161741E+03  0.50400001928E-02 0. -1.
    10030    2    1    2    0    0  0.00000000000E+00  0.00000000000E+00  0.74724846739E+03  0.14995317022E+04  0.13000827104E+04 0.  0.
        1    1    3    3  502    0  0.64980363757E+03  0.45311564044E+01  0.35403438986E+03  0.74000381621E+03  0.50400001928E-02 0. -1.
       -1    1    3    3    0  502 -0.64980363757E+03 -0.45311564044E+01  0.39321407752E+03  0.75952788597E+03  0.50400001928E-02 0.  1.
</event>
<event>
 5   0  0.1103241E-03  0.1304445E+04  0.7818609E-02  0.9026048E-01
       -2   -1    0    0    0  501  0.00000000000E+00  0.00000000000E+00  0.50636301114E+03  0.50636301115E+03  0.25500000920E-02 0. -1.
        2   -1    0    0  501    0  0.00000000000E+00  0.00000000000E+00 -0.84009751967E+03  0.84009751968E+03  0.25500000920E-02 0.  1.
    10030    2    1    2    0    0  0.00000000000E+00  0.00000000000E+00 -0.33373450853E+03  0.13464605308E+04  0.13044451843E+04 0.  0.
        4    1    3    3  502    0 -0.17864544585E+03 -0.89915129819E+02 -0.80766376609E+03  0.83205847021E+03  0.12699999809E+01 0.  1.
       -4    1    3    3    0  502  0.17864544585E+03  0.89915129819E+02  0.47392925756E+03  0.51440206062E+03  0.12699999809E+01 0. -1.
</event>
<event>
 5   0  0.1103241E-03  0.1293150E+04  0.7818609E-02  0.9035015E-01
        2   -1    0    0  501    0  0.00000000000E+00  0.00000000000E+00  0.63874512778E+03  0.63874512778E+03  0.25500000920E-02 0. -1.
       -2   -1    0    0    0  501  0.00000000000E+00  0.00000000000E+00 -0.65450105701E+03  0.65450105702E+03  0.25500000920E-02 0.  1.
    10030    2    1    2    0    0  0.00000000000E+00  0.00000000000E+00 -0.15755929236E+02  0.12932461848E+04  0.12931502021E+04 0.  0.
        4    1    3    3  502    0  0.58712476919E+03  0.48489684419E+02  0.25858318294E+03  0.64337673217E+03  0.12699999809E+01 0. -1.
       -4    1    3    3    0  502 -0.58712476919E+03 -0.48489684419E+02 -0.27433911218E+03  0.64986945263E+03  0.12699999809E+01 0.  1.
</event>
<event>
 5   0  0.1103241E-03  0.1312153E+04  0.7818609E-02  0.9019983E-01
        2   -1    0    0  501    0  0.00000000000E+00  0.00000000000E+00  0.14314200999E+04  0.14314200999E+04  0.25500000920E-02 0.  1.
       -2   -1    0    0    0  501  0.00000000000E+00  0.00000000000E+00 -0.30070600235E+03  0.30070600236E+03  0.25500000920E-02 0. -1.
    10030    2    1    2    0    0  0.00000000000E+00  0.00000000000E+00  0.11307140975E+04  0.17321261022E+04  0.13121533690E+04 0.  0.
        4    1    3    3  502    0  0.19311415289E+03  0.56453148048E+03  0.92553405412E+03  0.11011828943E+04  0.12699999809E+01 0. -1.
       -4    1    3    3    0  502 -0.19311415289E+03 -0.56453148048E+03  0.20518004340E+03  0.63094320791E+03  0.12699999809E+01 0.  1.
</event>
<event>
 5   0  0.4012375E-04  0.1313671E+04  0.7818609E-02  0.9018794E-01
        3   -1    0    0  501    0  0.00000000000E+00  0.00000000000E+00  0.84074586803E+03  0.84074587410E+03  0.10100000352E+00 0. -1.
       -3   -1    0    0    0  501  0.00000000000E+00  0.00000000000E+00 -0.51315463163E+03  0.51315464157E+03  0.10100000352E+00 0.  1.
    10030    2    1    2    0    0  0.00000000000E+00  0.00000000000E+00  0.32759123640E+03  0.13539005157E+04  0.13136706544E+04 0.  0.
        1    1    3    3  502    0  0.63492345571E+03 -0.11289588705E+03  0.35238456746E+02  0.64584442769E+03  0.50400001928E-02 0. -1.
       -1    1    3    3    0  502 -0.63492345571E+03  0.11289588705E+03  0.29235277966E+03  0.70805608797E+03  0.50400001928E-02 0.  1.
</event>
<event>
 5   0  0.5710383E-04  0.1299101E+04  0.7818609E-02  0.9030279E-01
        1   -1    0    0  501    0  0.00000000000E+00  0.00000000000E+00  0.74700837573E+03  0.74700837575E+03  0.50400001928E-02 0.  1.
       -1   -1    0    0    0  501  0.00000000000E+00  0.00000000000E+00 -0.56480722302E+03  0.56480722304E+03  0.50400001928E-02 0. -1.
    10030    2    1    2    0    0  0.00000000000E+00  0.00000000000E+00  0.18220115271E+03  0.13118155988E+04  0.12991008064E+04 0.  0.
        1    1    3    3  502    0  0.48651110523E+03  0.66818321373E+01  0.52563547453E+03  0.71626137304E+03  0.50400001928E-02 0.  1.
       -1    1    3    3    0  502 -0.48651110523E+03 -0.66818321373E+01 -0.34343432182E+03  0.59555422576E+03  0.50400001928E-02 0. -1.
</event>
<event>
 5   0  0.4012375E-04  0.1300587E+04  0.7818609E-02  0.9029100E-01
        3   -1    0    0  501    0  0.00000000000E+00  0.00000000000E+00  0.54087959130E+03  0.54087960073E+03  0.10100000352E+00 0.  1.
       -3   -1    0    0    0  501  0.00000000000E+00  0.00000000000E+00 -0.78184068720E+03  0.78184069372E+03  0.10100000352E+00 0. -1.
    10030    2    1    2    0    0  0.00000000000E+00  0.00000000000E+00 -0.24096109590E+03  0.13227202945E+04  0.13005870704E+04 0.  0.
        1    1    3    3  502    0  0.29753890647E+03 -0.48416059942E+03 -0.44199461905E+03  0.71993064262E+03  0.50400001928E-02 0. -1.
       -1    1    3    3    0  502 -0.29753890647E+03  0.48416059942E+03  0.20103352316E+03  0.60278965183E+03  0.50400001928E-02 0.  1.
</event>
<event>
 5   0  0.1046253E-03  0.1278185E+04  0.7818609E-02  0.9047046E-01
        2   -1    0    0  501    0  0.00000000000E+00  0.00000000000E+00  0.97947382327E+03  0.97947382327E+03  0.25500000920E-02 0. -1.
       -2   -1    0    0    0  501  0.00000000000E+00  0.00000000000E+00 -0.41699876435E+03  0.41699876436E+03  0.25500000920E-02 0.  1.
    10030    2    1    2    0    0  0.00000000000E+00  0.00000000000E+00  0.56247505892E+03  0.13964725876E+04  0.12781852354E+04 0.  0.
        3    1    3    3  502    0  0.15912696310E+03 -0.21893459348E+03  0.91376778801E+03  0.95300856618E+03  0.10100000352E+00 0. -1.
       -3    1    3    3    0  502 -0.15912696310E+03  0.21893459348E+03 -0.35129272909E+03  0.44346402145E+03  0.10100000352E+00 0.  1.
</event>
<event>
 5   0  0.1046253E-03  0.1301086E+04  0.7818609E-02  0.9028704E-01
        2   -1    0    0  501    0  0.00000000000E+00  0.00000000000E+00  0.21469414158E+04  0.21469414158E+04  0.25500000920E-02 0.  1.
       -2   -1    0    0    0  501  0.00000000000E+00  0.00000000000E+00 -0.19712065010E+03  0.19712065012E+03  0.25500000920E-02 0. -1.
    10030    2    1    2    0    0  0.00000000000E+00  0.00000000000E+00  0.19498207657E+04  0.23440620660E+04  0.13010864501E+04 0.  0.
        3    1    3    3  502    0  0.45997975529E+03 -0.18895708006E+03  0.21925990576E+03  0.54347131466E+03  0.10100000352E+00 0. -1.
       -3    1    3    3    0  502 -0.45997975529E+03  0.18895708006E+03  0.17305608600E+04  0.18005907513E+04  0.10100000352E+00 0.  1.
</event>
<event>
 5   0  0.5563545E-04  0.1298297E+04  0.7818609E-02  0.9030917E-01
       -1   -1    0    0    0  501  0.00000000000E+00  0.00000000000E+00  0.46074257704E+03  0.46074257706E+03  0.50400001928E-02 0. -1.
        1   -1    0    0  501    0  0.00000000000E+00  0.00000000000E+00 -0.91459739871E+03  0.91459739873E+03  0.50400001928E-02 0.  1.
    10030    2    1    2    0    0  0.00000000000E+00  0.00000000000E+00 -0.45385482168E+03  0.13753399758E+04  0.12982972887E+04 0.  0.
        2    1    3    3  502    0 -0.25247799892E+03  0.50402188677E+02  0.40434442638E+03  0.47935366455E+03  0.25500000920E-02 0. -1.
       -2    1    3    3    0  502  0.25247799892E+03 -0.50402188677E+02 -0.85819924806E+03  0.89598631124E+03  0.25500000920E-02 0.  1.
</event>
<event>
 5   0  0.5710383E-04  0.1300891E+04  0.7818609E-02  0.9028859E-01
       -1   -1    0    0    0  501  0.00000000000E+00  0.00000000000E+00  0.68993396133E+03  0.68993396135E+03  0.50400001928E-02 0. -1.
        1   -1    0    0  501    0  0.00000000000E+00  0.00000000000E+00 -0.61321713455E+03  0.61321713457E+03  0.50400001928E-02 0.  1.
    10030    2    1    2    0    0  0.00000000000E+00  0.00000000000E+00  0.76716826786E+02  0.13031510959E+04  0.13008909667E+04 0.  0.
        1    1    3    3  502    0 -0.58020718218E+03  0.23928885729E+03 -0.13275931101E+03  0.64150180527E+03  0.50400001928E-02 0.  1.
       -1    1    3    3    0  502  0.58020718218E+03 -0.23928885729E+03  0.20947613780E+03  0.66164929065E+03  0.50400001928E-02 0. -1.
</event>
<event>
 5   0  0.5563545E-04  0.1281589E+04  0.7818609E-02  0.9044294E-01
       -1   -1    0    0    0  501  0.00000000000E+00  0.00000000000E+00  0.73133313126E+03  0.73133313127E+03  0.50400001928E-02 0.  1.
        1   -1    0    0  501    0  0.00000000000E+00  0.00000000000E+00 -0.56146438922E+03  0.56146438924E+03  0.50400001928E-02 0. -1.
    10030    2    1    2    0    0  0.00000000000E+00  0.00000000000E+00  0.16986874204E+03  0.12927975205E+04  0.12815888731E+04 0.  0.
        2    1    3    3  502    0  0.62379072788E+03  0.59546345492E+02 -0.50240855750E+02  0.62863724280E+03  0.25500000920E-02 0. -1.
       -2    1    3    3    0  502 -0.62379072788E+03 -0.59546345492E+02  0.22010959779E+03  0.66416027771E+03  0.25500000920E-02 0.  1.
</event>
<event>
 5   0  0.1046253E-03  0.1305960E+04  0.7818609E-02  0.9024852E-01
       -2   -1    0    0    0  501  0.00000000000E+00  0.00000000000E+00  0.29828034925E+03  0.29828034926E+03  0.25500000920E-02 0.  1.
        2   -1    0    0  501    0  0.00000000000E+00  0.00000000000E+00 -0.14294710058E+04  0.14294710058E+04  0.25500000920E-02 0. -1.
    10030    2    1    2    0    0  0.00000000000E+00  0.00000000000E+00 -0.11311906565E+04  0.17277513550E+04  0.13059603529E+04 0.  0.
        3    1    3    3  502    0  0.22305359265E+03  0.24940530200E+02  0.24564566434E+03  0.33274124759E+03  0.10100000352E+00 0.  1.
       -3    1    3    3    0  502 -0.22305359265E+03 -0.24940530200E+02 -0.13768363209E+04  0.13950101075E+04  0.10100000352E+00 0. -1.
</event>
<event>
 5   0  0.5563545E-04  0.1295033E+04  0.7818609E-02  0.9033514E-01
        1   -1    0    0  501    0  0.00000000000E+00  0.00000000000E+00  0.62540447668E+03  0.62540447670E+03  0.50400001928E-02 0.  1.
       -1   -1    0    0    0  501  0.00000000000E+00  0.00000000000E+00 -0.67041005287E+03  0.67041005288E+03  0.50400001928E-02 0. -1.
    10030    2    1    2    0    0  0.00000000000E+00  0.00000000000E+00 -0.45005576190E+02  0.12958145296E+04  0.12950327383E+04 0.  0.
        2    1    3    3  502    0  0.81876353960E+02 -0.56580739554E+03 -0.32671873081E+03  0.65847313936E+03  0.25500000920E-02 0. -1.
       -2    1    3    3    0  502 -0.81876353960E+02  0.56580739554E+03  0.28171315462E+03  0.63734139022E+03  0.25500000920E-02 0.  1.
</event>
<event>
 5   0  0.1031295E-03  0.1289288E+04  0.7818609E-02  0.9038103E-01
       -2   -1    0    0    0  501  0.00000000000E+00  0.00000000000E+00  0.43515379507E+03  0.43515379508E+03  0.25500000920E-02 0.  1.
        2   -1    0    0  501    0  0.00000000000E+00  0.00000000000E+00 -0.95498646449E+03  0.95498646449E+03  0.25500000920E-02 0. -1.
    10030    2    1    2    0    0  0.00000000000E+00  0.00000000000E+00 -0.51983266942E+03  0.13901402596E+04  0.12892881513E+04 0.  0.
        2    1    3    3  502    0  0.44406791609E+03  0.46429977206E+03 -0.20290909995E+03  0.67375269594E+03  0.25500000920E-02 0. -1.
       -2    1    3    3    0  502 -0.44406791609E+03 -0.46429977206E+03 -0.31692356947E+03  0.71638756363E+03  0.25500000920E-02 0.  1.
</event>
<event>
 5   0  0.5766027E-04  0.1406564E+04  0.7818609E-02  0.8949081E-01
        1   -1    0    0  501    0  0.00000000000E+00  0.00000000000E+00  0.79253394092E+03  0.79253394094E+03  0.50400001928E-02 0. -1.
       -1   -1    0    0    0  501  0.00000000000E+00  0.00000000000E+00 -0.62408082134E+03  0.62408082136E+03  0.50400001928E-02 0.  1.
    10030    2    1    2    0    0  0.00000000000E+00  0.00000000000E+00  0.16845311958E+03  0.14166147623E+04  0.14065635184E+04 0.  0.
        3    1    3    3  502    0  0.62401805263E+03 -0.16555043456E+02 -0.24202130572E+03  0.66951245104E+03  0.10100000352E+00 0.  1.
       -3    1    3    3    0  502 -0.62401805263E+03  0.16555043456E+02  0.41047442530E+03  0.74710231126E+03  0.10100000352E+00 0. -1.
</event>
<event>
 5   0  0.5710383E-04  0.1299387E+04  0.7818609E-02  0.9030051E-01
        1   -1    0    0  501    0  0.00000000000E+00  0.00000000000E+00  0.26869868288E+03  0.26869868293E+03  0.50400001928E-02 0. -1.
       -1   -1    0    0    0  501  0.00000000000E+00  0.00000000000E+00 -0.15709114599E+04  0.15709114599E+04  0.50400001928E-02 0.  1.
    10030    2    1    2    0    0  0.00000000000E+00  0.00000000000E+00 -0.13022127771E+04  0.18396101429E+04  0.12993873022E+04 0.  0.
        1    1    3    3  502    0 -0.49460538775E+03  0.23514037314E+03 -0.15624820102E+03  0.56950766897E+03  0.50400001928E-02 0. -1.
       -1    1    3    3    0  502  0.49460538775E+03 -0.23514037314E+03 -0.11459645760E+04  0.12701024739E+04  0.50400001928E-02 0.  1.
</event>
<event>
 5   0  0.1103241E-03  0.1352763E+04  0.7818609E-02  0.8988739E-01
        2   -1    0    0  501    0  0.00000000000E+00  0.00000000000E+00  0.12970904159E+04  0.12970904159E+04  0.25500000920E-02 0.  1.
       -2   -1    0    0    0  501  0.00000000000E+00  0.00000000000E+00 -0.35270616555E+03  0.35270616556E+03  0.25500000920E-02 0. -1.
    10030    2    1    2    0    0  0.00000000000E+00  0.00000000000E+00  0.94438425037E+03  0.16497965815E+04  0.13527627833E+04 0.  0.
        4    1    3    3  502    0  0.27959555683E+03  0.60611403778E+03  0.33891603918E+03  0.74860777227E+03  0.12699999809E+01 0. -1.
       -4    1    3    3    0  502 -0.27959555683E+03 -0.60611403778E+03  0.60546821119E+03  0.90118880922E+03  0.12699999809E+01 0.  1.
</event>
<event>
 5   0  0.1081574E-03  0.1305307E+04  0.7818609E-02  0.9025367E-01
        2   -1    0    0  501    0  0.00000000000E+00  0.00000000000E+00  0.13943058230E+04  0.13943058230E+04  0.25500000920E-02 0. -1.
       -2   -1    0    0    0  501  0.00000000000E+00  0.00000000000E+00 -0.30549728124E+03  0.30549728125E+03  0.25500000920E-02 0.  1.
    10030    2    1    2    0    0  0.00000000000E+00  0.00000000000E+00  0.10888085418E+04  0.16998031043E+04  0.13053070722E+04 0.  0.
        5    1    3    3  502    0 -0.55490328317E+02 -0.28349597792E+03 -0.21768695157E+03  0.36174417054E+03  0.46999998093E+01 0.  1.
       -5    1    3    3    0  502  0.55490328317E+02  0.28349597792E+03  0.13064954933E+04  0.13380589337E+04  0.46999998093E+01 0. -1.
</event>
<event>
 5   0  0.5563545E-04  0.1309445E+04  0.7818609E-02  0.9022108E-01
        1   -1    0    0  501    0  0.00000000000E+00  0.00000000000E+00  0.79566658802E+03  0.79566658804E+03  0.50400001928E-02 0.  1.
       -1   -1    0    0    0  501  0.00000000000E+00  0.00000000000E+00 -0.53874542462E+03  0.53874542464E+03  0.50400001928E-02 0. -1.
    10030    2    1    2    0    0  0.00000000000E+00  0.00000000000E+00  0.25692116340E+03  0.13344120127E+04  0.13094452777E+04 0.  0.
        2    1    3    3  502    0 -0.59059094835E+03  0.21275155707E+03 -0.61099075021E+02  0.63070911701E+03  0.25500000920E-02 0. -1.
       -2    1    3    3    0  502  0.59059094835E+03 -0.21275155707E+03  0.31802023842E+03  0.70370289566E+03  0.25500000920E-02 0.  1.
</event>
<event>
 5   0  0.5563545E-04  0.1285993E+04  0.7818609E-02  0.9040747E-01
       -1   -1    0    0    0  501  0.00000000000E+00  0.00000000000E+00  0.24167152422E+03  0.24167152427E+03  0.50400001928E-02 0. -1.
        1   -1    0    0  501    0  0.00000000000E+00  0.00000000000E+00 -0.17107700660E+04  0.17107700660E+04  0.50400001928E-02 0.  1.
    10030    2    1    2    0    0  0.00000000000E+00  0.00000000000E+00 -0.14690985418E+04  0.19524415903E+04  0.12859928608E+04 0.  0.
        2    1    3    3  502    0 -0.43785019556E+03 -0.65638533807E+02 -0.26615821458E+02  0.44354212069E+03  0.25500000920E-02 0. -1.
       -2    1    3    3    0  502  0.43785019556E+03  0.65638533807E+02 -0.14424827203E+04  0.15088994696E+04  0.25500000920E-02 0.  1.
</event>
<event>
 5   0  0.5710383E-04  0.1334115E+04  0.7818609E-02  0.9002940E-01
        1   -1    0    0  501    0  0.00000000000E+00  0.00000000000E+00  0.50621582590E+03  0.50621582593E+03  0.50400001928E-02 0. -1.
       -1   -1    0    0    0  501  0.00000000000E+00  0.00000000000E+00 -0.87900457958E+03  0.87900457959E+03  0.50400001928E-02 0.  1.
    10030    2    1    2    0    0  0.00000000000E+00  0.00000000000E+00 -0.37278875368E+03  0.13852204055E+04  0.13341154811E+04 0.  0.
        1    1    3    3  502    0 -0.48295619587E+03 -0.43922648476E+03 -0.32875762242E+03  0.73092281834E+03  0.50400001928E-02 0. -1.
       -1    1    3    3    0  502  0.48295619587E+03  0.43922648476E+03 -0.44031131260E+02  0.65429758718E+03  0.50400001928E-02 0.  1.
</event>
<event>
 5   0  0.5812938E-04  0.1292697E+04  0.7818609E-02  0.9035376E-01
       -1   -1    0    0    0  501  0.00000000000E+00  0.00000000000E+00  0.32996563719E+03  0.32996563723E+03  0.50400001928E-02 0. -1.
        1   -1    0    0  501    0  0.00000000000E+00  0.00000000000E+00 -0.12660912546E+04  0.12660912546E+04  0.50400001928E-02 0.  1.
    10030    2    1    2    0    0  0.00000000000E+00  0.00000000000E+00 -0.93612561741E+03  0.15960568918E+04  0.12926973468E+04 0.  0.
        5    1    3    3  502    0  0.39610673680E+03  0.49145298932E+03 -0.29645707123E+03  0.69737756827E+03  0.46999998093E+01 0. -1.
       -5    1    3    3    0  502 -0.39610673680E+03 -0.49145298932E+03 -0.63966854618E+03  0.89867932357E+03  0.46999998093E+01 0.  1.
</event>
<event>
 5   0  0.5766027E-04  0.1296316E+04  0.7818609E-02  0.9032492E-01
        1   -1    0    0  501    0  0.00000000000E+00  0.00000000000E+00  0.10531705506E+04  0.10531705507E+04  0.50400001928E-02 0.  1.
       -1   -1    0    0    0  501  0.00000000000E+00  0.00000000000E+00 -0.39889907006E+03  0.39889907009E+03  0.50400001928E-02 0. -1.
    10030    2    1    2    0    0  0.00000000000E+00  0.00000000000E+00  0.65427148058E+03  0.14520696207E+04  0.12963159388E+04 0.  0.
        3    1    3    3  502    0  0.11637923411E+03  0.19191800037E+03 -0.35397880720E+03  0.41913917874E+03  0.10100000352E+00 0. -1.
       -3    1    3    3    0  502 -0.11637923411E+03 -0.19191800037E+03  0.10082502878E+04  0.10329304420E+04  0.10100000352E+00 0.  1.
</event>
<event>
 5   0  0.1101619E-03  0.1293095E+04  0.7818609E-02  0.9035059E-01
       -2   -1    0    0    0  501  0.00000000000E+00  0.00000000000E+00  0.43650885127E+03  0.43650885128E+03  0.25500000920E-02 0. -1.
        2   -1    0    0  501    0  0.00000000000E+00  0.00000000000E+00 -0.95765184110E+03  0.95765184110E+03  0.25500000920E-02 0.  1.
    10030    2    1    2    0    0  0.00000000000E+00  0.00000000000E+00 -0.52114298982E+03  0.13941606924E+04  0.12930947453E+04 0.  0.
        1    1    3    3  502    0  0.11172480570E+03 -0.19894094233E+03  0.39165947608E+03  0.45327373183E+03  0.50400001928E-02 0. -1.
       -1    1    3    3    0  502 -0.11172480570E+03  0.19894094233E+03 -0.91280246590E+03  0.94088696054E+03  0.50400001928E-02 0.  1.
</event>
<event>
 5   0  0.5766027E-04  0.1317706E+04  0.7818609E-02  0.9015641E-01
       -1   -1    0    0    0  501  0.00000000000E+00  0.00000000000E+00  0.45133649578E+03  0.45133649581E+03  0.50400001928E-02 0.  1.
        1   -1    0    0  501    0  0.00000000000E+00  0.00000000000E+00 -0.96178229547E+03  0.96178229549E+03  0.50400001928E-02 0. -1.
    10030    2    1    2    0    0  0.00000000000E+00  0.00000000000E+00 -0.51044579969E+03  0.14131187913E+04  0.13177062662E+04 0.  0.
        3    1    3    3  502    0 -0.48821718121E+02  0.64724676592E+03 -0.37643586970E+03  0.75034386141E+03  0.10100000352E+00 0.  1.
       -3    1    3    3    0  502  0.48821718121E+02 -0.64724676592E+03 -0.13400993000E+03  0.66277492989E+03  0.10100000352E+00 0. -1.
</event>
<event>
 5   0  0.5710383E-04  0.1282072E+04  0.7818609E-02  0.9043904E-01
       -1   -1    0    0    0  501  0.00000000000E+00  0.00000000000E+00  0.27800135491E+03  0.27800135495E+03  0.50400001928E-02 0. -1.
        1   -1    0    0  501    0  0.00000000000E+00  0.00000000000E+00 -0.14781482100E+04  0.14781482100E+04  0.50400001928E-02 0.  1.
    10030    2    1    2    0    0  0.00000000000E+00  0.00000000000E+00 -0.12001468551E+04  0.17561495649E+04  0.12820720809E+04 0.  0.
        1    1    3    3  502    0  0.14266322029E+03  0.37981885586E+03 -0.12798902147E+04  0.13426593460E+04  0.50400001928E-02 0.  1.
       -1    1    3    3    0  502 -0.14266322029E+03 -0.37981885586E+03  0.79743359674E+02  0.41349021890E+03  0.50400001928E-02 0. -1.
</event>
<event>
 5   0  0.5710383E-04  0.1297418E+04  0.7818609E-02  0.9031616E-01
        1   -1    0    0  501    0  0.00000000000E+00  0.00000000000E+00  0.11966895025E+04  0.11966895025E+04  0.50400001928E-02 0. -1.
       -1   -1    0    0    0  501  0.00000000000E+00  0.00000000000E+00 -0.35165605198E+03  0.35165605202E+03  0.50400001928E-02 0.  1.
    10030    2    1    2    0    0  0.00000000000E+00  0.00000000000E+00  0.84503345047E+03  0.15483455545E+04  0.12974175980E+04 0.  0.
        1    1    3    3  502    0 -0.12834535557E+03  0.19908011003E+03  0.11432366336E+04  0.11675167754E+04  0.50400001928E-02 0. -1.
       -1    1    3    3    0  502  0.12834535557E+03 -0.19908011003E+03 -0.29820318312E+03  0.38082877905E+03  0.50400001928E-02 0.  1.
</event>
<event>
 5   0  0.5563545E-04  0.1319018E+04  0.7818609E-02  0.9014618E-01
       -1   -1    0    0    0  501  0.00000000000E+00  0.00000000000E+00  0.94781134301E+03  0.94781134303E+03  0.50400001928E-02 0.  1.
        1   -1    0    0  501    0  0.00000000000E+00  0.00000000000E+00 -0.45890158240E+03  0.45890158242E+03  0.50400001928E-02 0. -1.
    10030    2    1    2    0    0  0.00000000000E+00  0.00000000000E+00  0.48890976062E+03  0.14067129255E+04  0.13190180062E+04 0.  0.
        2    1    3    3  502    0  0.50954812510E+03 -0.41838643262E+03  0.22707325714E+03  0.69731539701E+03  0.25500000920E-02 0.  1.
       -2    1    3    3    0  502 -0.50954812510E+03  0.41838643262E+03  0.26183650348E+03  0.70939752844E+03  0.25500000920E-02 0. -1.
</event>
<event>
 5   0  0.5766027E-04  0.1304799E+04  0.7818609E-02  0.9025769E-01
       -1   -1    0    0    0  501  0.00000000000E+00  0.00000000000E+00  0.27865859751E+03  0.27865859755E+03  0.50400001928E-02 0. -1.
        1   -1    0    0  501    0  0.00000000000E+00  0.00000000000E+00 -0.15274059166E+04  0.15274059166E+04  0.50400001928E-02 0.  1.
    10030    2    1    2    0    0  0.00000000000E+00  0.00000000000E+00 -0.12487473191E+04  0.18060645141E+04  0.13047985141E+04 0.  0.
        3    1    3    3  502    0 -0.53521580599E+03 -0.34148963331E+03 -0.41650058413E+03  0.75930486329E+03  0.10100000352E+00 0. -1.
       -3    1    3    3    0  502  0.53521580599E+03  0.34148963331E+03 -0.83224673494E+03  0.10467596508E+04  0.10100000352E+00 0.  1.
</event>
<event>
 5   0  0.1101619E-03  0.1300987E+04  0.7818609E-02  0.9028783E-01
       -2   -1    0    0    0  501  0.00000000000E+00  0.00000000000E+00  0.41120110250E+03  0.41120110250E+03  0.25500000920E-02 0. -1.
        2   -1    0    0  501    0  0.00000000000E+00  0.00000000000E+00 -0.10290379086E+04  0.10290379086E+04  0.25500000920E-02 0.  1.
    10030    2    1    2    0    0  0.00000000000E+00  0.00000000000E+00 -0.61783680607E+03  0.14402390111E+04  0.13009865834E+04 0.  0.
        1    1    3    3  502    0 -0.58326789103E+03  0.22948511296E+03 -0.11629199534E+03  0.63748621788E+03  0.50400001928E-02 0. -1.
       -1    1    3    3    0  502  0.58326789103E+03 -0.22948511296E+03 -0.50154481073E+03  0.80275279319E+03  0.50400001928E-02 0.  1.
</event>
<event>
 5   0  0.1046253E-03  0.1300122E+04  0.7818609E-02  0.9029469E-01
       -2   -1    0    0    0  501  0.00000000000E+00  0.00000000000E+00  0.86652618866E+03  0.86652618866E+03  0.25500000920E-02 0.  1.
        2   -1    0    0  501    0  0.00000000000E+00  0.00000000000E+00 -0.48767035309E+03  0.48767035310E+03  0.25500000920E-02 0. -1.
    10030    2    1    2    0    0  0.00000000000E+00  0.00000000000E+00  0.37885583556E+03  0.13541965418E+04  0.13001217364E+04 0.  0.
        3    1    3    3  502    0 -0.28333666099E+03 -0.41791669648E+03 -0.23704661777E+03  0.55778592476E+03  0.10100000352E+00 0. -1.
       -3    1    3    3    0  502  0.28333666099E+03  0.41791669648E+03  0.61590245334E+03  0.79641061701E+03  0.10100000352E+00 0.  1.
</event>
<event>
 5   0  0.5766027E-04  0.1304327E+04  0.7818609E-02  0.9026141E-01
       -1   -1    0    0    0  501  0.00000000000E+00  0.00000000000E+00  0.55939874342E+03  0.55939874345E+03  0.50400001928E-02 0. -1.
        1   -1    0    0  501    0  0.00000000000E+00  0.00000000000E+00 -0.76031181167E+03  0.76031181169E+03  0.50400001928E-02 0.  1.
    10030    2    1    2    0    0  0.00000000000E+00  0.00000000000E+00 -0.20091306825E+03  0.13197105551E+04  0.13043273701E+04 0.  0.
        3    1    3    3  502    0  0.24141570021E+03  0.47706223108E+03  0.27737441186E+03  0.60233419892E+03  0.10100000352E+00 0. -1.
       -3    1    3    3    0  502 -0.24141570021E+03 -0.47706223108E+03 -0.47828748011E+03  0.71737635621E+03  0.10100000352E+00 0.  1.
</event>
<event>
 5   0  0.4012375E-04  0.1305210E+04  0.7818609E-02  0.9025444E-01
       -4   -1    0    0    0  501  0.00000000000E+00  0.00000000000E+00  0.45157694365E+03  0.45157872950E+03  0.12699999809E+01 0.  1.
        4   -1    0    0  501    0  0.00000000000E+00  0.00000000000E+00 -0.94312033024E+03  0.94312118532E+03  0.12699999809E+01 0. -1.
    10030    2    1    2    0    0  0.00000000000E+00  0.00000000000E+00 -0.49154338658E+03  0.13946999148E+04  0.13052099262E+04 0.  0.
        1    1    3    3  502    0 -0.92503827388E+02 -0.46902892424E+03 -0.72046918178E+03  0.86465075711E+03  0.50400001928E-02 0. -1.
       -1    1    3    3    0  502  0.92503827388E+02  0.46902892424E+03  0.22892579520E+03  0.53004915771E+03  0.50400001928E-02 0.  1.
</event>
<event>
 5   0  0.6006119E-04  0.1324980E+04  0.7818609E-02  0.9009987E-01
        1   -1    0    0  501    0  0.00000000000E+00  0.00000000000E+00  0.84027651928E+03  0.84027651929E+03  0.50400001928E-02 0. -1.
       -1   -1    0    0    0  501  0.00000000000E+00  0.00000000000E+00 -0.52231966323E+03  0.52231966325E+03  0.50400001928E-02 0.  1.
    10030    2    1    2    0    0  0.00000000000E+00  0.00000000000E+00  0.31795685605E+03  0.13625961825E+04  0.13249799223E+04 0.  0.
        4    1    3    3  502    0 -0.49217749985E+03 -0.26904525493E+02  0.61418340282E+03  0.78751851409E+03  0.12699999809E+01 0. -1.
       -4    1    3    3    0  502  0.49217749985E+03  0.26904525493E+02 -0.29622654677E+03  0.57507766845E+03  0.12699999809E+01 0.  1.
</event>
<event>
 5   0  0.5563545E-04  0.1306058E+04  0.7818609E-02  0.9024775E-01
        1   -1    0    0  501    0  0.00000000000E+00  0.00000000000E+00  0.18067678442E+04  0.18067678442E+04  0.50400001928E-02 0.  1.
       -1   -1    0    0    0  501  0.00000000000E+00  0.00000000000E+00 -0.23602733989E+03  0.23602733995E+03  0.50400001928E-02 0. -1.
    10030    2    1    2    0    0  0.00000000000E+00  0.00000000000E+00  0.15707405043E+04  0.20427951841E+04  0.13060575916E+04 0.  0.
        2    1    3    3  502    0 -0.23840095913E+03 -0.37374557181E+03  0.15353618306E+04  0.15980790721E+04  0.25500000920E-02 0.  1.
       -2    1    3    3    0  502  0.23840095913E+03  0.37374557181E+03  0.35378673699E+02  0.44471611206E+03  0.25500000920E-02 0. -1.
</event>
<event>
 5   0  0.5710383E-04  0.1282256E+04  0.7818609E-02  0.9043756E-01
       -1   -1    0    0    0  501  0.00000000000E+00  0.00000000000E+00  0.11097966299E+04  0.11097966299E+04  0.50400001928E-02 0. -1.
        1   -1    0    0  501    0  0.00000000000E+00  0.00000000000E+00 -0.37037875159E+03  0.37037875163E+03  0.50400001928E-02 0.  1.
    10030    2    1    2    0    0  0.00000000000E+00  0.00000000000E+00  0.73941787828E+03  0.14801753815E+04  0.12822559656E+04 0.  0.
        1    1    3    3  502    0  0.21550019695E+03 -0.41622560158E+03 -0.13526058553E+03  0.48783143843E+03  0.50400001928E-02 0.  1.
       -1    1    3    3    0  502 -0.21550019695E+03  0.41622560158E+03  0.87467846381E+03  0.99234394308E+03  0.50400001928E-02 0. -1.
</event>
<event>
 5   0  0.5812938E-04  0.1282095E+04  0.7818609E-02  0.9043885E-01
        1   -1    0    0  501    0  0.00000000000E+00  0.00000000000E+00  0.38856417614E+03  0.38856417617E+03  0.50400001928E-02 0. -1.
       -1   -1    0    0    0  501  0.00000000000E+00  0.00000000000E+00 -0.10575912539E+04  0.10575912539E+04  0.50400001928E-02 0.  1.
    10030    2    1    2    0    0  0.00000000000E+00  0.00000000000E+00 -0.66902707774E+03  0.14461554301E+04  0.12820952762E+04 0.  0.
        5    1    3    3  502    0  0.39602761222E+03 -0.25920283740E+01 -0.90307311437E+03  0.98610736137E+03  0.46999998093E+01 0. -1.
       -5    1    3    3    0  502 -0.39602761222E+03  0.25920283740E+01  0.23404603663E+03  0.46004806870E+03  0.46999998093E+01 0.  1.
</event>
<event>
 5   0  0.1081574E-03  0.1298392E+04  0.7818609E-02  0.9030841E-01
       -2   -1    0    0    0  501  0.00000000000E+00  0.00000000000E+00  0.42348600359E+03  0.42348600360E+03  0.25500000920E-02 0.  1.
        2   -1    0    0  501    0  0.00000000000E+00  0.00000000000E+00 -0.99520515879E+03  0.99520515880E+03  0.25500000920E-02 0. -1.
    10030    2    1    2    0    0  0.00000000000E+00  0.00000000000E+00 -0.57171915521E+03  0.14186911624E+04  0.12983920139E+04 0.  0.
        5    1    3    3  502    0  0.58693321436E+01 -0.15359166626E+02  0.42323985755E+03  0.42358519813E+03  0.46999998093E+01 0.  1.
       -5    1    3    3    0  502 -0.58693321436E+01  0.15359166626E+02 -0.99495901275E+03  0.99510596426E+03  0.46999998093E+01 0. -1.
</event>
<event>
 5   0  0.1103241E-03  0.1305089E+04  0.7818609E-02  0.9025539E-01
        2   -1    0    0  501    0  0.00000000000E+00  0.00000000000E+00  0.29245140868E+03  0.29245140869E+03  0.25500000920E-02 0.  1.
       -2   -1    0    0    0  501  0.00000000000E+00  0.00000000000E+00 -0.14560173143E+04  0.14560173143E+04  0.25500000920E-02 0. -1.
    10030    2    1    2    0    0  0.00000000000E+00  0.00000000000E+00 -0.11635659056E+04  0.17484687230E+04  0.13050889849E+04 0.  0.
        4    1    3    3  502    0  0.14027392919E+03  0.17372694709E+03  0.23967550167E+03  0.32757256655E+03  0.12699999809E+01 0.  1.
       -4    1    3    3    0  502 -0.14027392919E+03 -0.17372694709E+03 -0.14032414073E+04  0.14208961565E+04  0.12699999809E+01 0. -1.
</event>
<event>
 5   0  0.5812938E-04  0.1293842E+04  0.7818609E-02  0.9034463E-01
        1   -1    0    0  501    0  0.00000000000E+00  0.00000000000E+00  0.34039837233E+03  0.34039837237E+03  0.50400001928E-02 0.  1.
       -1   -1    0    0    0  501  0.00000000000E+00  0.00000000000E+00 -0.12294620416E+04  0.12294620416E+04  0.50400001928E-02 0. -1.
    10030    2    1    2    0    0  0.00000000000E+00  0.00000000000E+00 -0.88906366922E+03  0.15698604139E+04  0.12938421508E+04 0.  0.
        5    1    3    3  502    0  0.23532748474E+03  0.49434769962E+03 -0.26458112884E+02  0.54816128551E+03  0.46999998093E+01 0.  1.
       -5    1    3    3    0  502 -0.23532748474E+03 -0.49434769962E+03 -0.86260555634E+03  0.10216991284E+04  0.46999998093E+01 0. -1.
</event>
<event>
 5   0  0.5812938E-04  0.1306261E+04  0.7818609E-02  0.9024615E-01
        1   -1    0    0  501    0  0.00000000000E+00  0.00000000000E+00  0.10915204911E+04  0.10915204912E+04  0.50400001928E-02 0. -1.
       -1   -1    0    0    0  501  0.00000000000E+00  0.00000000000E+00 -0.39081222576E+03  0.39081222579E+03  0.50400001928E-02 0.  1.
    10030    2    1    2    0    0  0.00000000000E+00  0.00000000000E+00  0.70070826538E+03  0.14823327169E+04  0.13062611571E+04 0.  0.
        5    1    3    3  502    0 -0.40281637907E+03 -0.78775531300E+02  0.92685767398E+03  0.10136833122E+04  0.46999998093E+01 0. -1.
       -5    1    3    3    0  502  0.40281637907E+03  0.78775531300E+02 -0.22614940860E+03  0.46864940476E+03  0.46999998093E+01 0.  1.
</event>
<event>
 5   0  0.1046253E-03  0.1229756E+04  0.7818609E-02  0.9087202E-01
       -2   -1    0    0    0  501  0.00000000000E+00  0.00000000000E+00  0.13430438548E+04  0.13430438548E+04  0.25500000920E-02 0. -1.
        2   -1    0    0  501    0  0.00000000000E+00  0.00000000000E+00 -0.28150612335E+03  0.28150612337E+03  0.25500000920E-02 0.  1.
    10030    2    1    2    0    0  0.00000000000E+00  0.00000000000E+00  0.10615377314E+04  0.16245499781E+04  0.12297561857E+04 0.  0.
        3    1    3    3  502    0  0.51977426091E+03  0.21071619816E+03  0.19785655655E+03  0.59473845146E+03  0.10100000352E+00 0.  1.
       -3    1    3    3    0  502 -0.51977426091E+03 -0.21071619816E+03  0.86368117487E+03  0.10298115267E+04  0.10100000352E+00 0. -1.
</event>
<event>
 5   0  0.1103241E-03  0.1299698E+04  0.7818609E-02  0.9029805E-01
       -2   -1    0    0    0  501  0.00000000000E+00  0.00000000000E+00  0.87090687701E+03  0.87090687701E+03  0.25500000920E-02 0.  1.
        2   -1    0    0  501    0  0.00000000000E+00  0.00000000000E+00 -0.48490117072E+03  0.48490117072E+03  0.25500000920E-02 0. -1.
    10030    2    1    2    0    0  0.00000000000E+00  0.00000000000E+00  0.38600570629E+03  0.13558080477E+04  0.12996980638E+04 0.  0.
        4    1    3    3  502    0  0.24740606225E+03  0.34890927333E+02 -0.43279141852E+03  0.49973709217E+03  0.12699999809E+01 0. -1.
       -4    1    3    3    0  502 -0.24740606225E+03 -0.34890927333E+02  0.81879712482E+03  0.85607095556E+03  0.12699999809E+01 0.  1.
</event>
<event>
 5   0  0.1103241E-03  0.1303867E+04  0.7818609E-02  0.9026504E-01
        2   -1    0    0  501    0  0.00000000000E+00  0.00000000000E+00  0.17140243053E+04  0.17140243053E+04  0.25500000920E-02 0.  1.
       -2   -1    0    0    0  501  0.00000000000E+00  0.00000000000E+00 -0.24796462084E+03  0.24796462086E+03  0.25500000920E-02 0. -1.
    10030    2    1    2    0    0  0.00000000000E+00  0.00000000000E+00  0.14660596845E+04  0.19619889262E+04  0.13038671512E+04 0.  0.
        4    1    3    3  502    0 -0.11616357267E+03 -0.13462477408E+02 -0.23205162381E+03  0.25985531152E+03  0.12699999809E+01 0. -1.
       -4    1    3    3    0  502  0.11616357267E+03  0.13462477408E+02  0.16981113083E+04  0.17021336146E+04  0.12699999809E+01 0.  1.
</event>
<event>
 5   0  0.6006119E-04  0.1280043E+04  0.7818609E-02  0.9045543E-01
       -1   -1    0    0    0  501  0.00000000000E+00  0.00000000000E+00  0.81409716653E+03  0.81409716654E+03  0.50400001928E-02 0. -1.
        1   -1    0    0  501    0  0.00000000000E+00  0.00000000000E+00 -0.50316768081E+03  0.50316768084E+03  0.50400001928E-02 0.  1.
    10030    2    1    2    0    0  0.00000000000E+00  0.00000000000E+00  0.31092948572E+03  0.13172648474E+04  0.12800427856E+04 0.  0.
        4    1    3    3  502    0 -0.44577448182E+03  0.45713338432E+03  0.20079038431E+03  0.66933116693E+03  0.12699999809E+01 0. -1.
       -4    1    3    3    0  502  0.44577448182E+03 -0.45713338432E+03  0.11013910141E+03  0.64793368045E+03  0.12699999809E+01 0.  1.
</event>
<event>
 5   0  0.5766027E-04  0.1294105E+04  0.7818609E-02  0.9034253E-01
        1   -1    0    0  501    0  0.00000000000E+00  0.00000000000E+00  0.10422226841E+04  0.10422226841E+04  0.50400001928E-02 0.  1.
       -1   -1    0    0    0  501  0.00000000000E+00  0.00000000000E+00 -0.40171525783E+03  0.40171525786E+03  0.50400001928E-02 0. -1.
    10030    2    1    2    0    0  0.00000000000E+00  0.00000000000E+00  0.64050742628E+03  0.14439379420E+04  0.12941047165E+04 0.  0.
        3    1    3    3  502    0 -0.22205344606E+03 -0.36160392437E+03 -0.22478192043E+03  0.48020001352E+03  0.10100000352E+00 0. -1.
       -3    1    3    3    0  502  0.22205344606E+03  0.36160392437E+03  0.86528934671E+03  0.96373792847E+03  0.10100000352E+00 0.  1.
</event>
<event>
 5   0  0.5766027E-04  0.1287014E+04  0.7818609E-02  0.9039927E-01
        1   -1    0    0  501    0  0.00000000000E+00  0.00000000000E+00  0.69431672650E+03  0.69431672652E+03  0.50400001928E-02 0. -1.
       -1   -1    0    0    0  501  0.00000000000E+00  0.00000000000E+00 -0.59641560938E+03  0.59641560940E+03  0.50400001928E-02 0.  1.
    10030    2    1    2    0    0  0.00000000000E+00  0.00000000000E+00  0.97901117128E+02  0.12907323359E+04  0.12870141158E+04 0.  0.
        3    1    3    3  502    0 -0.14312277327E+03  0.44618332886E+03  0.49128900966E+03  0.67891722057E+03  0.10100000352E+00 0. -1.
       -3    1    3    3    0  502  0.14312277327E+03 -0.44618332886E+03 -0.39338789253E+03  0.61181511535E+03  0.10100000352E+00 0.  1.
</event>
<event>
 5   0  0.1101619E-03  0.1294829E+04  0.7818609E-02  0.9033676E-01
       -2   -1    0    0    0  501  0.00000000000E+00  0.00000000000E+00  0.26868632173E+03  0.26868632174E+03  0.25500000920E-02 0.  1.
        2   -1    0    0  501    0  0.00000000000E+00  0.00000000000E+00 -0.15599804410E+04  0.15599804410E+04  0.25500000920E-02 0. -1.
    10030    2    1    2    0    0  0.00000000000E+00  0.00000000000E+00 -0.12912941193E+04  0.18286667628E+04  0.12948288021E+04 0.  0.
        1    1    3    3  502    0 -0.22101181795E+03 -0.10644030350E+03 -0.14918043152E+04  0.15118385750E+04  0.50400001928E-02 0. -1.
       -1    1    3    3    0  502  0.22101181795E+03  0.10644030350E+03  0.20051019592E+03  0.31682818778E+03  0.50400001928E-02 0.  1.
</event>
<event>
 5   0  0.6006119E-04  0.1360243E+04  0.7818609E-02  0.8983110E-01
        1   -1    0    0  501    0  0.00000000000E+00  0.00000000000E+00  0.12410235522E+04  0.12410235522E+04  0.50400001928E-02 0. -1.
       -1   -1    0    0    0  501  0.00000000000E+00  0.00000000000E+00 -0.37272908948E+03  0.37272908952E+03  0.50400001928E-02 0.  1.
    10030    2    1    2    0    0  0.00000000000E+00  0.00000000000E+00  0.86829446272E+03  0.16137526417E+04  0.13602434763E+04 0.  0.
        4    1    3    3  502    0 -0.66745618675E+02  0.31733866706E+03 -0.27510501958E+03  0.42525661891E+03  0.12699999809E+01 0.  1.
       -4    1    3    3    0  502  0.66745618675E+02 -0.31733866706E+03  0.11433994823E+04  0.11884960228E+04  0.12699999809E+01 0. -1.
</event>
<event>
 5   0  0.1046253E-03  0.1299723E+04  0.7818609E-02  0.9029785E-01
       -2   -1    0    0    0  501  0.00000000000E+00  0.00000000000E+00  0.88827383335E+03  0.88827383335E+03  0.25500000920E-02 0.  1.
        2   -1    0    0  501    0  0.00000000000E+00  0.00000000000E+00 -0.47543880467E+03  0.47543880468E+03  0.25500000920E-02 0. -1.
    10030    2    1    2    0    0  0.00000000000E+00  0.00000000000E+00  0.41283502868E+03  0.13637126380E+04  0.12997228159E+04 0.  0.
        3    1    3    3  502    0  0.26020607089E+03  0.55242936746E+03 -0.26867534271E+02  0.61123422676E+03  0.10100000352E+00 0. -1.
       -3    1    3    3    0  502 -0.26020607089E+03 -0.55242936746E+03  0.43970256295E+03  0.75247841127E+03  0.10100000352E+00 0.  1.
</event>
<event>
 5   0  0.5812938E-04  0.1295597E+04  0.7818609E-02  0.9033064E-01
        1   -1    0    0  501    0  0.00000000000E+00  0.00000000000E+00  0.18953508484E+04  0.18953508484E+04  0.50400001928E-02 0. -1.
       -1   -1    0    0    0  501  0.00000000000E+00  0.00000000000E+00 -0.22140628380E+03  0.22140628386E+03  0.50400001928E-02 0.  1.
    10030    2    1    2    0    0  0.00000000000E+00  0.00000000000E+00  0.16739445646E+04  0.21167571323E+04  0.12955965235E+04 0.  0.
        5    1    3    3  502    0  0.30613433512E+03 -0.16092716811E+03 -0.57908737179E+02  0.35070114972E+03  0.46999998093E+01 0.  1.
       -5    1    3    3    0  502 -0.30613433512E+03  0.16092716811E+03  0.17318533018E+04  0.17660559826E+04  0.46999998093E+01 0. -1.
</event>
<event>
 5   0  0.1046253E-03  0.1292171E+04  0.7818609E-02  0.9035796E-01
        2   -1    0    0  501    0  0.00000000000E+00  0.00000000000E+00  0.10276685071E+04  0.10276685071E+04  0.25500000920E-02 0. -1.
       -2   -1    0    0    0  501  0.00000000000E+00  0.00000000000E+00 -0.40618807925E+03  0.40618807926E+03  0.25500000920E-02 0.  1.
    10030    2    1    2    0    0  0.00000000000E+00  0.00000000000E+00  0.62148042786E+03  0.14338565864E+04  0.12921713463E+04 0.  0.
        3    1    3    3  502    0 -0.53216133510E+03 -0.13322108721E+02 -0.95539111806E+02  0.54083352082E+03  0.10100000352E+00 0.  1.
       -3    1    3    3    0  502  0.53216133510E+03  0.13322108721E+02  0.71701953966E+03  0.89302306556E+03  0.10100000352E+00 0. -1.
</event>
<event>
 5   0  0.1101619E-03  0.1378606E+04  0.7818609E-02  0.8969452E-01
       -2   -1    0    0    0  501  0.00000000000E+00  0.00000000000E+00  0.56531993461E+03  0.56531993461E+03  0.25500000920E-02 0.  1.
        2   -1    0    0  501    0  0.00000000000E+00  0.00000000000E+00 -0.84047736261E+03  0.84047736261E+03  0.25500000920E-02 0. -1.
    10030    2    1    2    0    0  0.00000000000E+00  0.00000000000E+00 -0.27515742801E+03  0.14057972972E+04  0.13786059737E+04 0.  0.
        1    1    3    3  502    0 -0.12632011281E+03 -0.59760291435E+03  0.18817889676E+03  0.63913794392E+03  0.50400001928E-02 0.  1.
       -1    1    3    3    0  502  0.12632011281E+03  0.59760291435E+03 -0.46333632477E+03  0.76665935331E+03  0.50400001928E-02 0. -1.
</event>
<event>
 5   0  0.5812938E-04  0.1300488E+04  0.7818609E-02  0.9029178E-01
       -1   -1    0    0    0  501  0.00000000000E+00  0.00000000000E+00  0.83830993018E+03  0.83830993019E+03  0.50400001928E-02 0. -1.
        1   -1    0    0  501    0  0.00000000000E+00  0.00000000000E+00 -0.50436863873E+03  0.50436863875E+03  0.50400001928E-02 0.  1.
    10030    2    1    2    0    0  0.00000000000E+00  0.00000000000E+00  0.33394129145E+03  0.13426785689E+04  0.13004879674E+04 0.  0.
        5    1    3    3  502    0  0.65513075377E+02  0.60444633170E+03  0.40498789717E+03  0.73053721179E+03  0.46999998093E+01 0. -1.
       -5    1    3    3    0  502 -0.65513075377E+02 -0.60444633170E+03 -0.71046605728E+02  0.61214135715E+03  0.46999998093E+01 0.  1.
</event>
<event>
 5   0  0.5563545E-04  0.1318082E+04  0.7818609E-02  0.9015347E-01
        1   -1    0    0  501    0  0.00000000000E+00  0.00000000000E+00  0.24068331283E+04  0.24068331283E+04  0.50400001928E-02 0. -1.
       -1   -1    0    0    0  501  0.00000000000E+00  0.00000000000E+00 -0.18045923595E+03  0.18045923602E+03  0.50400001928E-02 0.  1.
    10030    2    1    2    0    0  0.00000000000E+00  0.00000000000E+00  0.22263738923E+04  0.25872923643E+04  0.13180823457E+04 0.  0.
        2    1    3    3  502    0  0.13589464346E+03 -0.40003087568E+03  0.12032260567E+03  0.43928303525E+03  0.25500000920E-02 0.  1.
       -2    1    3    3    0  502 -0.13589464346E+03  0.40003087568E+03  0.21060512867E+04  0.21480093291E+04  0.25500000920E-02 0. -1.
</event>
<event>
 5   0  0.1031295E-03  0.1295047E+04  0.7818609E-02  0.9033502E-01
        2   -1    0    0  501    0  0.00000000000E+00  0.00000000000E+00  0.13096666732E+04  0.13096666732E+04  0.25500000920E-02 0. -1.
       -2   -1    0    0    0  501  0.00000000000E+00  0.00000000000E+00 -0.32014777884E+03  0.32014777885E+03  0.25500000920E-02 0.  1.
    10030    2    1    2    0    0  0.00000000000E+00  0.00000000000E+00  0.98951889438E+03  0.16298144521E+04  0.12950472987E+04 0.  0.
        2    1    3    3  502    0 -0.25616652613E+03 -0.33466426350E+03 -0.12391159427E+03  0.43928981501E+03  0.25500000920E-02 0.  1.
       -2    1    3    3    0  502  0.25616652613E+03  0.33466426350E+03  0.11134304887E+04  0.11905246371E+04  0.25500000920E-02 0. -1.
</event>
<event>
 5   0  0.1031295E-03  0.1302086E+04  0.7818609E-02  0.9027912E-01
       -2   -1    0    0    0  501  0.00000000000E+00  0.00000000000E+00  0.78979453372E+03  0.78979453373E+03  0.25500000920E-02 0.  1.
        2   -1    0    0  501    0  0.00000000000E+00  0.00000000000E+00 -0.53666771148E+03  0.53666771148E+03  0.25500000920E-02 0. -1.
    10030    2    1    2    0    0  0.00000000000E+00  0.00000000000E+00  0.25312682224E+03  0.13264622452E+04  0.13020863642E+04 0.  0.
        2    1    3    3  502    0 -0.41918857970E+03 -0.54121794388E+02  0.63101941763E+03  0.75949571389E+03  0.25500000920E-02 0. -1.
       -2    1    3    3    0  502  0.41918857970E+03  0.54121794388E+02 -0.37789259539E+03  0.56696653132E+03  0.25500000920E-02 0.  1.
</event>
<event>
 5   0  0.5766027E-04  0.1301621E+04  0.7818609E-02  0.9028280E-01
       -1   -1    0    0    0  501  0.00000000000E+00  0.00000000000E+00  0.24180520405E+03  0.24180520410E+03  0.50400001928E-02 0. -1.
        1   -1    0    0  501    0  0.00000000000E+00  0.00000000000E+00 -0.17516355417E+04  0.17516355417E+04  0.50400001928E-02 0.  1.
    10030    2    1    2    0    0  0.00000000000E+00  0.00000000000E+00 -0.15098303377E+04  0.19934407458E+04  0.13016214344E+04 0.  0.
        3    1    3    3  502    0 -0.56741000239E+03  0.14297122527E+03 -0.11912188214E+04  0.13271763910E+04  0.10100000352E+00 0.  1.
       -3    1    3    3    0  502  0.56741000239E+03 -0.14297122527E+03 -0.31861151628E+03  0.66626435487E+03  0.10100000352E+00 0. -1.
</event>
<event>
 5   0  0.5563545E-04  0.1304716E+04  0.7818609E-02  0.9025833E-01
       -1   -1    0    0    0  501  0.00000000000E+00  0.00000000000E+00  0.55747027592E+03  0.55747027594E+03  0.50400001928E-02 0.  1.
        1   -1    0    0  501    0  0.00000000000E+00  0.00000000000E+00 -0.76339724969E+03  0.76339724970E+03  0.50400001928E-02 0. -1.
    10030    2    1    2    0    0  0.00000000000E+00  0.00000000000E+00 -0.20592697376E+03  0.13208675256E+04  0.13047164833E+04 0.  0.
        2    1    3    3  502    0 -0.31384410659E+03  0.49473465864E+03  0.18748655625E+03  0.61515178166E+03  0.25500000920E-02 0. -1.
       -2    1    3    3    0  502  0.31384410659E+03 -0.49473465864E+03 -0.39341353001E+03  0.70571574398E+03  0.25500000920E-02 0.  1.
</event>
<event>
 5   0  0.1101619E-03  0.1302864E+04  0.7818609E-02  0.9027297E-01
       -2   -1    0    0    0  501  0.00000000000E+00  0.00000000000E+00  0.56340068331E+03  0.56340068331E+03  0.25500000920E-02 0.  1.
        2   -1    0    0  501    0  0.00000000000E+00  0.00000000000E+00 -0.75321869754E+03  0.75321869754E+03  0.25500000920E-02 0. -1.
    10030    2    1    2    0    0  0.00000000000E+00  0.00000000000E+00 -0.18981801423E+03  0.13166193809E+04  0.13028644271E+04 0.  0.
        1    1    3    3  502    0 -0.17722538195E+03  0.39701009236E+03  0.39532915975E+03  0.58763168227E+03  0.50400001928E-02 0.  1.
       -1    1    3    3    0  502  0.17722538195E+03 -0.39701009236E+03 -0.58514717398E+03  0.72898769858E+03  0.50400001928E-02 0. -1.
</event>
<event>
 5   0  0.6006119E-04  0.1297052E+04  0.7818609E-02  0.9031906E-01
        1   -1    0    0  501    0  0.00000000000E+00  0.00000000000E+00  0.83791795750E+03  0.83791795752E+03  0.50400001928E-02 0.  1.
       -1   -1    0    0    0  501  0.00000000000E+00  0.00000000000E+00 -0.50194193642E+03  0.50194193644E+03  0.50400001928E-02 0. -1.
    10030    2    1    2    0    0  0.00000000000E+00  0.00000000000E+00  0.33597602109E+03  0.13398598940E+04  0.12970522922E+04 0.  0.
        4    1    3    3  502    0  0.93839674359E+02 -0.39617190774E+03 -0.35347581133E+03  0.53917049907E+03  0.12699999809E+01 0. -1.
       -4    1    3    3    0  502 -0.93839674359E+02  0.39617190774E+03  0.68945183242E+03  0.80068939489E+03  0.12699999809E+01 0.  1.
</event>
<event>
 5   0  0.1101619E-03  0.1310440E+04  0.7818609E-02  0.9021327E-01
        2   -1    0    0  501    0  0.00000000000E+00  0.00000000000E+00  0.70659483322E+03  0.70659483322E+03  0.25500000920E-02 0. -1.
       -2   -1    0    0    0  501  0.00000000000E+00  0.00000000000E+00 -0.60758084153E+03  0.60758084154E+03  0.25500000920E-02 0.  1.
    10030    2    1    2    0    0  0.00000000000E+00  0.00000000000E+00  0.99013991683E+02  0.13141756748E+04  0.13104403587E+04 0.  0.
        1    1    3    3  502    0 -0.71099532487E+02  0.15495100973E+03 -0.58494831052E+03  0.60928604525E+03  0.50400001928E-02 0.  1.
       -1    1    3    3    0  502  0.71099532487E+02 -0.15495100973E+03  0.68396230220E+03  0.70488962951E+03  0.50400001928E-02 0. -1.
</event>
<event>
 5   0  0.5710383E-04  0.1301501E+04  0.7818609E-02  0.9028376E-01
        1   -1    0    0  501    0  0.00000000000E+00  0.00000000000E+00  0.59745053078E+03  0.59745053080E+03  0.50400001928E-02 0. -1.
       -1   -1    0    0    0  501  0.00000000000E+00  0.00000000000E+00 -0.70880566033E+03  0.70880566034E+03  0.50400001928E-02 0.  1.
    10030    2    1    2    0    0  0.00000000000E+00  0.00000000000E+00 -0.11135512954E+03  0.13062561911E+04  0.13015011610E+04 0.  0.
        1    1    3    3  502    0 -0.80669881750E+02  0.10353774143E+02 -0.70368455233E+03  0.70836909847E+03  0.50400001928E-02 0.  1.
       -1    1    3    3    0  502  0.80669881750E+02 -0.10353774143E+02  0.59232942279E+03  0.59788709267E+03  0.50400001928E-02 0. -1.
</event>
<event>
 5   0  0.1103241E-03  0.1307591E+04  0.7818609E-02  0.9023567E-01
       -2   -1    0    0    0  501  0.00000000000E+00  0.00000000000E+00  0.41057421168E+03  0.41057421169E+03  0.25500000920E-02 0. -1.
        2   -1    0    0  501    0  0.00000000000E+00  0.00000000000E+00 -0.10410986569E+04  0.10410986569E+04  0.25500000920E-02 0.  1.
    10030    2    1    2    0    0  0.00000000000E+00  0.00000000000E+00 -0.63052444521E+03  0.14516728686E+04  0.13075905481E+04 0.  0.
        4    1    3    3  502    0  0.26337499028E+03  0.50394510974E+02  0.34671282824E+03  0.43831197840E+03  0.12699999809E+01 0. -1.
       -4    1    3    3    0  502 -0.26337499028E+03 -0.50394510974E+02 -0.97723727345E+03  0.10133608902E+04  0.12699999809E+01 0.  1.
</event>
<event>
 5   0  0.5812938E-04  0.1307515E+04  0.7818609E-02  0.9023627E-01
        1   -1    0    0  501    0  0.00000000000E+00  0.00000000000E+00  0.15261951763E+03  0.15261951771E+03  0.50400001928E-02 0.  1.
       -1   -1    0    0    0  501  0.00000000000E+00  0.00000000000E+00 -0.28004207779E+04  0.28004207779E+04  0.50400001928E-02 0. -1.
    10030    2    1    2    0    0  0.00000000000E+00  0.00000000000E+00 -0.26478012602E+04  0.29530402956E+04  0.13075149994E+04 0.  0.
        5    1    3    3  502    0  0.83721258988E+02 -0.25818806320E+03 -0.26671114615E+04  0.26808908898E+04  0.46999998093E+01 0. -1.
       -5    1    3    3    0  502 -0.83721258988E+02  0.25818806320E+03  0.19310201246E+02  0.27214940576E+03  0.46999998093E+01 0.  1.
</event>
<event>
 5   0  0.1046253E-03  0.1287690E+04  0.7818609E-02  0.9039384E-01
        2   -1    0    0  501    0  0.00000000000E+00  0.00000000000E+00  0.55317061393E+03  0.55317061394E+03  0.25500000920E-02 0. -1.
       -2   -1    0    0    0  501  0.00000000000E+00  0.00000000000E+00 -0.74938286887E+03  0.74938286887E+03  0.25500000920E-02 0.  1.
    10030    2    1    2    0    0  0.00000000000E+00  0.00000000000E+00 -0.19621225493E+03  0.13025534828E+04  0.12876903069E+04 0.  0.
        3    1    3    3  502    0  0.35044603869E+03 -0.46468001564E+03  0.18038353704E+03  0.60932599944E+03  0.10100000352E+00 0.  1.
       -3    1    3    3    0  502 -0.35044603869E+03  0.46468001564E+03 -0.37659579197E+03  0.69322748337E+03  0.10100000352E+00 0. -1.
</event>
<event>
 5   0  0.1031295E-03  0.1268242E+04  0.7818609E-02  0.9055135E-01
        2   -1    0    0  501    0  0.00000000000E+00  0.00000000000E+00  0.72790030638E+03  0.72790030638E+03  0.25500000920E-02 0. -1.
       -2   -1    0    0    0  501  0.00000000000E+00  0.00000000000E+00 -0.55242398844E+03  0.55242398844E+03  0.25500000920E-02 0.  1.
    10030    2    1    2    0    0  0.00000000000E+00  0.00000000000E+00  0.17547631794E+03  0.12803242948E+04  0.12682422331E+04 0.  0.
        2    1    3    3  502    0 -0.26673495848E+03 -0.44129772698E+03  0.46033194914E+03  0.69122841762E+03  0.25500000920E-02 0. -1.
       -2    1    3    3    0  502  0.26673495848E+03  0.44129772698E+03 -0.28485563121E+03  0.58909587721E+03  0.25500000920E-02 0.  1.
</event>
<event>
 5   0  0.1101619E-03  0.1302255E+04  0.7818609E-02  0.9027779E-01
       -2   -1    0    0    0  501  0.00000000000E+00  0.00000000000E+00  0.31950171393E+03  0.31950171394E+03  0.25500000920E-02 0. -1.
        2   -1    0    0  501    0  0.00000000000E+00  0.00000000000E+00 -0.13269627194E+04  0.13269627194E+04  0.25500000920E-02 0.  1.
    10030    2    1    2    0    0  0.00000000000E+00  0.00000000000E+00 -0.10074610054E+04  0.16464644333E+04  0.13022547572E+04 0.  0.
        1    1    3    3  502    0 -0.18215884317E+03 -0.11042440318E+03  0.27420181432E+03  0.34722043138E+03  0.50400001928E-02 0. -1.
       -1    1    3    3    0  502  0.18215884317E+03  0.11042440318E+03 -0.12816628198E+04  0.12992440019E+04  0.50400001928E-02 0.  1.
</event>
<event>
 5   0  0.5563545E-04  0.1304418E+04  0.7818609E-02  0.9026069E-01
       -1   -1    0    0    0  501  0.00000000000E+00  0.00000000000E+00  0.39899748216E+03  0.39899748219E+03  0.50400001928E-02 0.  1.
        1   -1    0    0  501    0  0.00000000000E+00  0.00000000000E+00 -0.10661127590E+04  0.10661127590E+04  0.50400001928E-02 0. -1.
    10030    2    1    2    0    0  0.00000000000E+00  0.00000000000E+00 -0.66711527682E+03  0.14651102412E+04  0.13044175812E+04 0.  0.
        2    1    3    3  502    0  0.53933235126E+03  0.34223304817E+03 -0.48160369609E+03  0.79996560205E+03  0.25500000920E-02 0. -1.
       -2    1    3    3    0  502 -0.53933235126E+03 -0.34223304817E+03 -0.18551158073E+03  0.66514463913E+03  0.25500000920E-02 0.  1.
</event>
<event>
 5   0  0.1031295E-03  0.1298262E+04  0.7818609E-02  0.9030944E-01
       -2   -1    0    0    0  501  0.00000000000E+00  0.00000000000E+00  0.66600237760E+03  0.66600237761E+03  0.25500000920E-02 0.  1.
        2   -1    0    0  501    0  0.00000000000E+00  0.00000000000E+00 -0.63268737943E+03  0.63268737943E+03  0.25500000920E-02 0. -1.
    10030    2    1    2    0    0  0.00000000000E+00  0.00000000000E+00  0.33314998172E+02  0.12986897570E+04  0.12982623756E+04 0.  0.
        2    1    3    3  502    0  0.27599695397E+03 -0.30250554637E+03 -0.48718218523E+03  0.63641999167E+03  0.25500000920E-02 0. -1.
       -2    1    3    3    0  502 -0.27599695397E+03  0.30250554637E+03  0.52049718340E+03  0.66226976537E+03  0.25500000920E-02 0.  1.
</event>
<event>
 5   0  0.5766027E-04  0.1299837E+04  0.7818609E-02  0.9029695E-01
        1   -1    0    0  501    0  0.00000000000E+00  0.00000000000E+00  0.14543704478E+04  0.14543704478E+04  0.50400001928E-02 0.  1.
       -1   -1    0    0    0  501  0.00000000000E+00  0.00000000000E+00 -0.29043064674E+03  0.29043064678E+03  0.50400001928E-02 0. -1.
    10030    2    1    2    0    0  0.00000000000E+00  0.00000000000E+00  0.11639398011E+04  0.17448010946E+04  0.12998365279E+04 0.  0.
        3    1    3    3  502    0  0.30475644348E+03 -0.33547510463E+03 -0.43290233160E+02  0.45529560744E+03  0.10100000352E+00 0. -1.
       -3    1    3    3    0  502 -0.30475644348E+03  0.33547510463E+03  0.12072300343E+04  0.12895054872E+04  0.10100000352E+00 0.  1.
</event>
<event>
 5   0  0.6006119E-04  0.1300564E+04  0.7818609E-02  0.9029118E-01
        1   -1    0    0  501    0  0.00000000000E+00  0.00000000000E+00  0.11346077799E+04  0.11346077799E+04  0.50400001928E-02 0. -1.
       -1   -1    0    0    0  501  0.00000000000E+00  0.00000000000E+00 -0.37269862975E+03  0.37269862979E+03  0.50400001928E-02 0.  1.
    10030    2    1    2    0    0  0.00000000000E+00  0.00000000000E+00  0.76190915014E+03  0.15073064097E+04  0.13005641313E+04 0.  0.
        4    1    3    3  502    0 -0.51920304078E+03  0.31183385845E+03  0.10656399288E+03  0.61495499860E+03  0.12699999809E+01 0.  1.
       -4    1    3    3    0  502  0.51920304078E+03 -0.31183385845E+03  0.65534515726E+03  0.89235141109E+03  0.12699999809E+01 0. -1.
</event>
<event>
 5   0  0.5563545E-04  0.1294759E+04  0.7818609E-02  0.9033732E-01
        1   -1    0    0  501    0  0.00000000000E+00  0.00000000000E+00  0.49722982598E+03  0.49722982600E+03  0.50400001928E-02 0. -1.
       -1   -1    0    0    0  501  0.00000000000E+00  0.00000000000E+00 -0.84287027289E+03  0.84287027290E+03  0.50400001928E-02 0.  1.
    10030    2    1    2    0    0  0.00000000000E+00  0.00000000000E+00 -0.34564044691E+03  0.13401000989E+04  0.12947590342E+04 0.  0.
        2    1    3    3  502    0  0.23606439529E+03 -0.49082359452E+03  0.18938618153E+03  0.57662927902E+03  0.25500000920E-02 0. -1.
       -2    1    3    3    0  502 -0.23606439529E+03  0.49082359452E+03 -0.53502662844E+03  0.76347081988E+03  0.25500000920E-02 0.  1.
</event>
<event>
 5   0  0.5812938E-04  0.1280241E+04  0.7818609E-02  0.9045382E-01
        1   -1    0    0  501    0  0.00000000000E+00  0.00000000000E+00  0.12681896907E+04  0.12681896907E+04  0.50400001928E-02 0. -1.
       -1   -1    0    0    0  501  0.00000000000E+00  0.00000000000E+00 -0.32310181020E+03  0.32310181024E+03  0.50400001928E-02 0.  1.
    10030    2    1    2    0    0  0.00000000000E+00  0.00000000000E+00  0.94508788049E+03  0.15912915009E+04  0.12802412035E+04 0.  0.
        5    1    3    3  502    0  0.10101837891E+03  0.23481711132E+03 -0.25688378563E+03  0.36242952137E+03  0.46999998093E+01 0.  1.
       -5    1    3    3    0  502 -0.10101837891E+03 -0.23481711132E+03  0.12019716661E+04  0.12288619796E+04  0.46999998093E+01 0. -1.
</event>
<event>
 5   0  0.1046253E-03  0.1296611E+04  0.7818609E-02  0.9032257E-01
        2   -1    0    0  501    0  0.00000000000E+00  0.00000000000E+00  0.17713968144E+04  0.17713968144E+04  0.25500000920E-02 0.  1.
       -2   -1    0    0    0  501  0.00000000000E+00  0.00000000000E+00 -0.23727021605E+03  0.23727021606E+03  0.25500000920E-02 0. -1.
    10030    2    1    2    0    0  0.00000000000E+00  0.00000000000E+00  0.15341265983E+04  0.20086670304E+04  0.12966105119E+04 0.  0.
        3    1    3    3  502    0 -0.57326708620E+03 -0.26826606350E+03  0.54963906183E+03  0.83827497961E+03  0.10100000352E+00 0. -1.
       -3    1    3    3    0  502  0.57326708620E+03  0.26826606350E+03  0.98448753648E+03  0.11703920508E+04  0.10100000352E+00 0.  1.
</event>
<event>
 5   0  0.1103241E-03  0.1302254E+04  0.7818609E-02  0.9027780E-01
        2   -1    0    0  501    0  0.00000000000E+00  0.00000000000E+00  0.13933518615E+04  0.13933518615E+04  0.25500000920E-02 0.  1.
       -2   -1    0    0    0  501  0.00000000000E+00  0.00000000000E+00 -0.30427799559E+03  0.30427799560E+03  0.25500000920E-02 0. -1.
    10030    2    1    2    0    0  0.00000000000E+00  0.00000000000E+00  0.10890738659E+04  0.16976298571E+04  0.13022539101E+04 0.  0.
        4    1    3    3  502    0 -0.25451766083E+03  0.57391656626E+01 -0.23670724574E+03  0.34762639541E+03  0.12699999809E+01 0. -1.
       -4    1    3    3    0  502  0.25451766083E+03 -0.57391656626E+01  0.13257811117E+04  0.13500034617E+04  0.12699999809E+01 0.  1.
</event>
<event>
 5   0  0.1081574E-03  0.1300452E+04  0.7818609E-02  0.9029207E-01
       -2   -1    0    0    0  501  0.00000000000E+00  0.00000000000E+00  0.36206007623E+03  0.36206007624E+03  0.25500000920E-02 0.  1.
        2   -1    0    0  501    0  0.00000000000E+00  0.00000000000E+00 -0.11677444231E+04  0.11677444231E+04  0.25500000920E-02 0. -1.
    10030    2    1    2    0    0  0.00000000000E+00  0.00000000000E+00 -0.80568434682E+03  0.15298044993E+04  0.13004516674E+04 0.  0.
        5    1    3    3  502    0  0.37957612299E+03 -0.34822932751E+03 -0.86959317112E+03  0.10107205702E+04  0.46999998093E+01 0. -1.
       -5    1    3    3    0  502 -0.37957612299E+03  0.34822932751E+03  0.63908824294E+02  0.51908392915E+03  0.46999998093E+01 0.  1.
</event>
<event>
 5   0  0.5563545E-04  0.1242337E+04  0.7818609E-02  0.9076586E-01
        1   -1    0    0  501    0  0.00000000000E+00  0.00000000000E+00  0.21051151755E+04  0.21051151755E+04  0.50400001928E-02 0.  1.
       -1   -1    0    0    0  501  0.00000000000E+00  0.00000000000E+00 -0.18329165190E+03  0.18329165197E+03  0.50400001928E-02 0. -1.
    10030    2    1    2    0    0  0.00000000000E+00  0.00000000000E+00  0.19218235236E+04  0.22884068275E+04  0.12423365696E+04 0.  0.
        2    1    3    3  502    0 -0.16262847995E+03 -0.49776615703E+03  0.34547119813E+03  0.62735119217E+03  0.25500000920E-02 0. -1.
       -2    1    3    3    0  502  0.16262847995E+03  0.49776615703E+03  0.15763523255E+04  0.16610556353E+04  0.25500000920E-02 0.  1.
</event>
<event>
 5   0  0.5563545E-04  0.1290089E+04  0.7818609E-02  0.9037461E-01
       -1   -1    0    0    0  501  0.00000000000E+00  0.00000000000E+00  0.11554929289E+04  0.11554929289E+04  0.50400001928E-02 0.  1.
        1   -1    0    0  501    0  0.00000000000E+00  0.00000000000E+00 -0.36009103723E+03  0.36009103727E+03  0.50400001928E-02 0. -1.
    10030    2    1    2    0    0  0.00000000000E+00  0.00000000000E+00  0.79540189165E+03  0.15155839662E+04  0.12900893726E+04 0.  0.
        2    1    3    3  502    0  0.61308000704E+03 -0.16148821871E+03  0.25801893305E+03  0.68448470372E+03  0.25500000920E-02 0. -1.
       -2    1    3    3    0  502 -0.61308000704E+03  0.16148821871E+03  0.53738295861E+03  0.83109926244E+03  0.25500000920E-02 0.  1.
</event>
<event>
 5   0  0.4012375E-04  0.1291768E+04  0.7818609E-02  0.9036118E-01
        3   -1    0    0  501    0  0.00000000000E+00  0.00000000000E+00  0.10883128075E+04  0.10883128122E+04  0.10100000352E+00 0. -1.
       -3   -1    0    0    0  501  0.00000000000E+00  0.00000000000E+00 -0.38331479255E+03  0.38331480585E+03  0.10100000352E+00 0.  1.
    10030    2    1    2    0    0  0.00000000000E+00  0.00000000000E+00  0.70499801499E+03  0.14716276181E+04  0.12917684178E+04 0.  0.
        2    1    3    3  502    0 -0.25621638128E+03 -0.33721281376E+03 -0.20305421567E+03  0.46967044862E+03  0.25500000920E-02 0.  1.
       -2    1    3    3    0  502  0.25621638128E+03  0.33721281376E+03  0.90805223066E+03  0.10019571695E+04  0.25500000920E-02 0. -1.
</event>
<event>
 5   0  0.5812938E-04  0.1303329E+04  0.7818609E-02  0.9026929E-01
        1   -1    0    0  501    0  0.00000000000E+00  0.00000000000E+00  0.12535977375E+04  0.12535977375E+04  0.50400001928E-02 0. -1.
       -1   -1    0    0    0  501  0.00000000000E+00  0.00000000000E+00 -0.33875840029E+03  0.33875840033E+03  0.50400001928E-02 0.  1.
    10030    2    1    2    0    0  0.00000000000E+00  0.00000000000E+00  0.91483933722E+03  0.15923561378E+04  0.13033292204E+04 0.  0.
        5    1    3    3  502    0  0.42530520894E+03  0.57019906059E+02  0.10565918415E+04  0.11404140476E+04  0.46999998093E+01 0. -1.
       -5    1    3    3    0  502 -0.42530520894E+03 -0.57019906059E+02 -0.14175250431E+03  0.45194209022E+03  0.46999998093E+01 0.  1.
</event>
<event>
 5   0  0.6006119E-04  0.1296933E+04  0.7818609E-02  0.9032001E-01
        1   -1    0    0  501    0  0.00000000000E+00  0.00000000000E+00  0.75200143943E+03  0.75200143945E+03  0.50400001928E-02 0.  1.
       -1   -1    0    0    0  501  0.00000000000E+00  0.00000000000E+00 -0.55918582650E+03  0.55918582653E+03  0.50400001928E-02 0. -1.
    10030    2    1    2    0    0  0.00000000000E+00  0.00000000000E+00  0.19281561293E+03  0.13111872660E+04  0.12969326065E+04 0.  0.
        4    1    3    3  502    0  0.14049577719E+03  0.48574941536E+03  0.50684449594E+03  0.71595007779E+03  0.12699999809E+01 0.  1.
       -4    1    3    3    0  502 -0.14049577719E+03 -0.48574941536E+03 -0.31402888301E+03  0.59523718818E+03  0.12699999809E+01 0. -1.
</event>
<event>
 5   0  0.5710383E-04  0.1297276E+04  0.7818609E-02  0.9031728E-01
        1   -1    0    0  501    0  0.00000000000E+00  0.00000000000E+00  0.94740683904E+03  0.94740683905E+03  0.50400001928E-02 0.  1.
       -1   -1    0    0    0  501  0.00000000000E+00  0.00000000000E+00 -0.44408719023E+03  0.44408719026E+03  0.50400001928E-02 0. -1.
    10030    2    1    2    0    0  0.00000000000E+00  0.00000000000E+00  0.50331964880E+03  0.13914940293E+04  0.12972759786E+04 0.  0.
        1    1    3    3  502    0 -0.13301286425E+03  0.63478645043E+03  0.26154788313E+03  0.69932364103E+03  0.50400001928E-02 0.  1.
       -1    1    3    3    0  502  0.13301286425E+03 -0.63478645043E+03  0.24177176567E+03  0.69217038828E+03  0.50400001928E-02 0. -1.
</event>
<event>
 5   0  0.1103241E-03  0.1302912E+04  0.7818609E-02  0.9027259E-01
        2   -1    0    0  501    0  0.00000000000E+00  0.00000000000E+00  0.11067319449E+04  0.11067319449E+04  0.25500000920E-02 0. -1.
       -2   -1    0    0    0  501  0.00000000000E+00  0.00000000000E+00 -0.38346659873E+03  0.38346659873E+03  0.25500000920E-02 0.  1.
    10030    2    1    2    0    0  0.00000000000E+00  0.00000000000E+00  0.72326534618E+03  0.14901985436E+04  0.13029117155E+04 0.  0.
        4    1    3    3  502    0  0.15665506603E+03 -0.62169667193E+03  0.49376149066E+03  0.80922777026E+03  0.12699999809E+01 0. -1.
       -4    1    3    3    0  502 -0.15665506603E+03  0.62169667193E+03  0.22950385552E+03  0.68097077338E+03  0.12699999809E+01 0.  1.
</event>
<event>
 5   0  0.1081574E-03  0.1299902E+04  0.7818609E-02  0.9029643E-01
        2   -1    0    0  501    0  0.00000000000E+00  0.00000000000E+00  0.20096765214E+04  0.20096765214E+04  0.25500000920E-02 0. -1.
       -2   -1    0    0    0  501  0.00000000000E+00  0.00000000000E+00 -0.21020128000E+03  0.21020128001E+03  0.25500000920E-02 0.  1.
    10030    2    1    2    0    0  0.00000000000E+00  0.00000000000E+00  0.17994752414E+04  0.22198778014E+04  0.12999024228E+04 0.  0.
        5    1    3    3  502    0  0.29442482120E+03  0.55940238923E+03  0.64189083302E+03  0.90092338183E+03  0.46999998093E+01 0. -1.
       -5    1    3    3    0  502 -0.29442482120E+03 -0.55940238923E+03  0.11575844084E+04  0.13189544196E+04  0.46999998093E+01 0.  1.
</event>
<event>
 5   0  0.5812938E-04  0.1294003E+04  0.7818609E-02  0.9034334E-01
        1   -1    0    0  501    0  0.00000000000E+00  0.00000000000E+00  0.88169423070E+03  0.88169423072E+03  0.50400001928E-02 0. -1.
       -1   -1    0    0    0  501  0.00000000000E+00  0.00000000000E+00 -0.47478022707E+03  0.47478022710E+03  0.50400001928E-02 0.  1.
    10030    2    1    2    0    0  0.00000000000E+00  0.00000000000E+00  0.40691400363E+03  0.13564744578E+04  0.12940030712E+04 0.  0.
        5    1    3    3  502    0 -0.37488324533E+03  0.45099909625E+03 -0.82957430458E+02  0.59231888178E+03  0.46999998093E+01 0.  1.
       -5    1    3    3    0  502  0.37488324533E+03 -0.45099909625E+03  0.48987143409E+03  0.76415557603E+03  0.46999998093E+01 0. -1.
</event>
<event>
 5   0  0.1101619E-03  0.1302966E+04  0.7818609E-02  0.9027217E-01
       -2   -1    0    0    0  501  0.00000000000E+00  0.00000000000E+00  0.28847856883E+03  0.28847856884E+03  0.25500000920E-02 0.  1.
        2   -1    0    0  501    0  0.00000000000E+00  0.00000000000E+00 -0.14712699151E+04  0.14712699151E+04  0.25500000920E-02 0. -1.
    10030    2    1    2    0    0  0.00000000000E+00  0.00000000000E+00 -0.11827913463E+04  0.17597484840E+04  0.13029656012E+04 0.  0.
        1    1    3    3  502    0 -0.58310375482E+03  0.11482860113E+03 -0.23093154177E+03  0.63759310970E+03  0.50400001928E-02 0.  1.
       -1    1    3    3    0  502  0.58310375482E+03 -0.11482860113E+03 -0.95185980452E+03  0.11221553743E+04  0.50400001928E-02 0. -1.
</event>
<event>
 5   0  0.1031295E-03  0.1284895E+04  0.7818609E-02  0.9041630E-01
       -2   -1    0    0    0  501  0.00000000000E+00  0.00000000000E+00  0.35353374568E+03  0.35353374569E+03  0.25500000920E-02 0.  1.
        2   -1    0    0  501    0  0.00000000000E+00  0.00000000000E+00 -0.11674667173E+04  0.11674667173E+04  0.25500000920E-02 0. -1.
    10030    2    1    2    0    0  0.00000000000E+00  0.00000000000E+00 -0.81393297164E+03  0.15210004630E+04  0.12848951421E+04 0.  0.
        2    1    3    3  502    0 -0.30346112250E+03  0.56033650982E+03 -0.50366716511E+03  0.81224766563E+03  0.25500000920E-02 0. -1.
       -2    1    3    3    0  502  0.30346112250E+03 -0.56033650982E+03 -0.31026580653E+03  0.70875279739E+03  0.25500000920E-02 0.  1.
</event>
<event>
 5   0  0.1031295E-03  0.1311422E+04  0.7818609E-02  0.9020556E-01
        2   -1    0    0  501    0  0.00000000000E+00  0.00000000000E+00  0.10845179661E+04  0.10845179661E+04  0.25500000920E-02 0. -1.
       -2   -1    0    0    0  501  0.00000000000E+00  0.00000000000E+00 -0.39645005554E+03  0.39645005554E+03  0.25500000920E-02 0.  1.
    10030    2    1    2    0    0  0.00000000000E+00  0.00000000000E+00  0.68806791058E+03  0.14809680217E+04  0.13114224459E+04 0.  0.
        2    1    3    3  502    0 -0.54469370521E+03 -0.26647300532E+03  0.62580803786E+03  0.87139818414E+03  0.25500000920E-02 0. -1.
       -2    1    3    3    0  502  0.54469370521E+03  0.26647300532E+03  0.62259872717E+02  0.60956983752E+03  0.25500000920E-02 0.  1.
</event>
<event>
 5   0  0.6006119E-04  0.1266142E+04  0.7818609E-02  0.9056855E-01
        1   -1    0    0  501    0  0.00000000000E+00  0.00000000000E+00  0.33513246199E+03  0.33513246203E+03  0.50400001928E-02 0.  1.
       -1   -1    0    0    0  501  0.00000000000E+00  0.00000000000E+00 -0.11958814295E+04  0.11958814295E+04  0.50400001928E-02 0. -1.
    10030    2    1    2    0    0  0.00000000000E+00  0.00000000000E+00 -0.86074896751E+03  0.15310138915E+04  0.12661416789E+04 0.  0.
        4    1    3    3  502    0 -0.98751867022E+02 -0.39246763035E+02  0.32426947997E+03  0.34123972246E+03  0.12699999809E+01 0.  1.
       -4    1    3    3    0  502  0.98751867022E+02  0.39246763035E+02 -0.11850184475E+04  0.11897741691E+04  0.12699999809E+01 0. -1.
</event>
<event>
 5   0  0.5710383E-04  0.1303217E+04  0.7818609E-02  0.9027018E-01
       -1   -1    0    0    0  501  0.00000000000E+00  0.00000000000E+00  0.77137975343E+03  0.77137975345E+03  0.50400001928E-02 0.  1.
        1   -1    0    0  501    0  0.00000000000E+00  0.00000000000E+00 -0.55043404358E+03  0.55043404361E+03  0.50400001928E-02 0. -1.
    10030    2    1    2    0    0  0.00000000000E+00  0.00000000000E+00  0.22094570985E+03  0.13218137971E+04  0.13032170607E+04 0.  0.
        1    1    3    3  502    0  0.39133698268E+03 -0.50852305348E+03  0.22546326908E+03  0.68012794066E+03  0.50400001928E-02 0.  1.
       -1    1    3    3    0  502 -0.39133698268E+03  0.50852305348E+03 -0.45175592263E+01  0.64168585640E+03  0.50400001928E-02 0. -1.
</event>
<event>
 5   0  0.1081574E-03  0.1303340E+04  0.7818609E-02  0.9026921E-01
       -2   -1    0    0    0  501  0.00000000000E+00  0.00000000000E+00  0.38949780582E+03  0.38949780582E+03  0.25500000920E-02 0.  1.
        2   -1    0    0  501    0  0.00000000000E+00  0.00000000000E+00 -0.10903110037E+04  0.10903110037E+04  0.25500000920E-02 0. -1.
    10030    2    1    2    0    0  0.00000000000E+00  0.00000000000E+00 -0.70081319790E+03  0.14798088095E+04  0.13033399305E+04 0.  0.
        5    1    3    3  502    0 -0.26020871144E+03  0.14579878490E+02  0.32773132616E+03  0.41874939822E+03  0.46999998093E+01 0.  1.
       -5    1    3    3    0  502  0.26020871144E+03 -0.14579878490E+02 -0.10285445241E+04  0.10610594113E+04  0.46999998093E+01 0. -1.
</event>
<event>
 5   0  0.5812938E-04  0.1300994E+04  0.7818609E-02  0.9028777E-01
       -1   -1    0    0    0  501  0.00000000000E+00  0.00000000000E+00  0.41692267470E+03  0.41692267473E+03  0.50400001928E-02 0.  1.
        1   -1    0    0  501    0  0.00000000000E+00  0.00000000000E+00 -0.10149276307E+04  0.10149276308E+04  0.50400001928E-02 0. -1.
    10030    2    1    2    0    0  0.00000000000E+00  0.00000000000E+00 -0.59800495605E+03  0.14318503055E+04  0.13009939930E+04 0.  0.
        5    1    3    3  502    0 -0.30593705646E+03 -0.57402711703E+03 -0.29412516590E+03  0.71388816828E+03  0.46999998093E+01 0.  1.
       -5    1    3    3    0  502  0.30593705646E+03  0.57402711703E+03 -0.30387979015E+03  0.71796213721E+03  0.46999998093E+01 0. -1.
</event>
<event>
 5   0  0.1031295E-03  0.1301504E+04  0.7818609E-02  0.9028373E-01
        2   -1    0    0  501    0  0.00000000000E+00  0.00000000000E+00  0.12467553278E+04  0.12467553278E+04  0.25500000920E-02 0.  1.
       -2   -1    0    0    0  501  0.00000000000E+00  0.00000000000E+00 -0.33966428645E+03  0.33966428646E+03  0.25500000920E-02 0. -1.
    10030    2    1    2    0    0  0.00000000000E+00  0.00000000000E+00  0.90709104130E+03  0.15864196142E+04  0.13015041434E+04 0.  0.
        2    1    3    3  502    0 -0.21363446484E+03 -0.33372203339E+02  0.12016885980E+04  0.12209868448E+04  0.25500000920E-02 0.  1.
       -2    1    3    3    0  502  0.21363446484E+03  0.33372203339E+02 -0.29459755673E+03  0.36543276942E+03  0.25500000920E-02 0. -1.
</event>
<event>
 5   0  0.1103241E-03  0.1301506E+04  0.7818609E-02  0.9028372E-01
       -2   -1    0    0    0  501  0.00000000000E+00  0.00000000000E+00  0.20314321470E+03  0.20314321472E+03  0.25500000920E-02 0. -1.
        2   -1    0    0  501    0  0.00000000000E+00  0.00000000000E+00 -0.20846345760E+04  0.20846345760E+04  0.25500000920E-02 0.  1.
    10030    2    1    2    0    0  0.00000000000E+00  0.00000000000E+00 -0.18814913613E+04  0.22877777907E+04  0.13015058498E+04 0.  0.
        4    1    3    3  502    0  0.28872564384E+03 -0.55253011729E+03 -0.61271246610E+03  0.87411109530E+03  0.12699999809E+01 0. -1.
       -4    1    3    3    0  502 -0.28872564384E+03  0.55253011729E+03 -0.12687788952E+04  0.14136666954E+04  0.12699999809E+01 0.  1.
</event>
<event>
 5   0  0.6006119E-04  0.1298188E+04  0.7818609E-02  0.9031003E-01
       -1   -1    0    0    0  501  0.00000000000E+00  0.00000000000E+00  0.31656826637E+03  0.31656826641E+03  0.50400001928E-02 0.  1.
        1   -1    0    0  501    0  0.00000000000E+00  0.00000000000E+00 -0.13309078483E+04  0.13309078483E+04  0.50400001928E-02 0. -1.
    10030    2    1    2    0    0  0.00000000000E+00  0.00000000000E+00 -0.10143395819E+04  0.16474761147E+04  0.12981882610E+04 0.  0.
        4    1    3    3  502    0  0.52026667032E+03  0.37829404678E+03 -0.61734991908E+03  0.89157519569E+03  0.12699999809E+01 0. -1.
       -4    1    3    3    0  502 -0.52026667032E+03 -0.37829404678E+03 -0.39698966283E+03  0.75590091902E+03  0.12699999809E+01 0.  1.
</event>
<event>
 5   0  0.1081574E-03  0.1296399E+04  0.7818609E-02  0.9032426E-01
       -2   -1    0    0    0  501  0.00000000000E+00  0.00000000000E+00  0.31328944266E+03  0.31328944267E+03  0.25500000920E-02 0. -1.
        2   -1    0    0  501    0  0.00000000000E+00  0.00000000000E+00 -0.13411313789E+04  0.13411313789E+04  0.25500000920E-02 0.  1.
    10030    2    1    2    0    0  0.00000000000E+00  0.00000000000E+00 -0.10278419363E+04  0.16544208216E+04  0.12963985533E+04 0.  0.
        5    1    3    3  502    0 -0.14328580364E+02  0.42179517433E+03  0.11390088560E+03  0.43716356097E+03  0.46999998093E+01 0. -1.
       -5    1    3    3    0  502  0.14328580364E+02 -0.42179517433E+03 -0.11417428219E+04  0.12172572606E+04  0.46999998093E+01 0.  1.
</event>
<event>
 5   0  0.1046253E-03  0.1309395E+04  0.7818609E-02  0.9022148E-01
        2   -1    0    0  501    0  0.00000000000E+00  0.00000000000E+00  0.64294026575E+03  0.64294026575E+03  0.25500000920E-02 0.  1.
       -2   -1    0    0    0  501  0.00000000000E+00  0.00000000000E+00 -0.66666994852E+03  0.66666994852E+03  0.25500000920E-02 0. -1.
    10030    2    1    2    0    0  0.00000000000E+00  0.00000000000E+00 -0.23729682772E+02  0.13096102143E+04  0.13093952098E+04 0.  0.
        3    1    3    3  502    0  0.15969797809E+03 -0.19202403139E+03  0.59342232926E+03  0.64383751358E+03  0.10100000352E+00 0.  1.
       -3    1    3    3    0  502 -0.15969797809E+03  0.19202403139E+03 -0.61715201203E+03  0.66577270069E+03  0.10100000352E+00 0. -1.
</event>
<event>
 5   0  0.1103241E-03  0.1304802E+04  0.7818609E-02  0.9025766E-01
       -2   -1    0    0    0  501  0.00000000000E+00  0.00000000000E+00  0.92907164138E+03  0.92907164138E+03  0.25500000920E-02 0. -1.
        2   -1    0    0  501    0  0.00000000000E+00  0.00000000000E+00 -0.45812105107E+03  0.45812105108E+03  0.25500000920E-02 0.  1.
    10030    2    1    2    0    0  0.00000000000E+00  0.00000000000E+00  0.47095059031E+03  0.13871926925E+04  0.13048023251E+04 0.  0.
        4    1    3    3  502    0 -0.43865607888E+03 -0.45263647182E+03  0.41440824166E+03  0.75434391017E+03  0.12699999809E+01 0.  1.
       -4    1    3    3    0  502  0.43865607888E+03  0.45263647182E+03  0.56542348654E+02  0.63284878229E+03  0.12699999809E+01 0. -1.
</event>
<event>
 5   0  0.5563545E-04  0.1302242E+04  0.7818609E-02  0.9027789E-01
        1   -1    0    0  501    0  0.00000000000E+00  0.00000000000E+00  0.11343080030E+04  0.11343080030E+04  0.50400001928E-02 0.  1.
       -1   -1    0    0    0  501  0.00000000000E+00  0.00000000000E+00 -0.37375946879E+03  0.37375946883E+03  0.50400001928E-02 0. -1.
    10030    2    1    2    0    0  0.00000000000E+00  0.00000000000E+00  0.76054853421E+03  0.15080674718E+04  0.13022416929E+04 0.  0.
        2    1    3    3  502    0 -0.12590292088E+03  0.23271867082E+03 -0.30869431552E+03  0.40657312463E+03  0.25500000920E-02 0. -1.
       -2    1    3    3    0  502  0.12590292088E+03 -0.23271867082E+03  0.10692428497E+04  0.11014943472E+04  0.25500000920E-02 0.  1.
</event>
<event>
 5   0  0.1081574E-03  0.1187415E+04  0.7818609E-02  0.9123944E-01
        2   -1    0    0  501    0  0.00000000000E+00  0.00000000000E+00  0.37092250829E+03  0.37092250830E+03  0.25500000920E-02 0.  1.
       -2   -1    0    0    0  501  0.00000000000E+00  0.00000000000E+00 -0.95030211280E+03  0.95030211281E+03  0.25500000920E-02 0. -1.
    10030    2    1    2    0    0  0.00000000000E+00  0.00000000000E+00 -0.57937960451E+03  0.13212246211E+04  0.11874147436E+04 0.  0.
        5    1    3    3  502    0  0.35010258595E+03  0.15856473443E+03 -0.79317654584E+03  0.88139986304E+03  0.46999998093E+01 0. -1.
       -5    1    3    3    0  502 -0.35010258595E+03 -0.15856473443E+03  0.21379694133E+03  0.43982475807E+03  0.46999998093E+01 0.  1.
</event>
<event>
 5   0  0.5766027E-04  0.1298140E+04  0.7818609E-02  0.9031042E-01
        1   -1    0    0  501    0  0.00000000000E+00  0.00000000000E+00  0.14603290344E+04  0.14603290344E+04  0.50400001928E-02 0.  1.
       -1   -1    0    0    0  501  0.00000000000E+00  0.00000000000E+00 -0.28849093768E+03  0.28849093772E+03  0.50400001928E-02 0. -1.
    10030    2    1    2    0    0  0.00000000000E+00  0.00000000000E+00  0.11718380967E+04  0.17488199721E+04  0.12981397344E+04 0.  0.
        3    1    3    3  502    0  0.38318767712E+03 -0.44098974087E+03  0.20491184337E+03  0.61910711610E+03  0.10100000352E+00 0. -1.
       -3    1    3    3    0  502 -0.38318767712E+03  0.44098974087E+03  0.96692625331E+03  0.11297128560E+04  0.10100000352E+00 0.  1.
</event>
<event>
 5   0  0.1103241E-03  0.1296541E+04  0.7818609E-02  0.9032313E-01
       -2   -1    0    0    0  501  0.00000000000E+00  0.00000000000E+00  0.29280245375E+03  0.29280245376E+03  0.25500000920E-02 0.  1.
        2   -1    0    0  501    0  0.00000000000E+00  0.00000000000E+00 -0.14352831890E+04  0.14352831890E+04  0.25500000920E-02 0. -1.
    10030    2    1    2    0    0  0.00000000000E+00  0.00000000000E+00 -0.11424807352E+04  0.17280856428E+04  0.12965406890E+04 0.  0.
        4    1    3    3  502    0  0.45311300776E+03  0.45606616074E+03 -0.46016495826E+03  0.79060808400E+03  0.12699999809E+01 0.  1.
       -4    1    3    3    0  502 -0.45311300776E+03 -0.45606616074E+03 -0.68231577698E+03  0.93747755876E+03  0.12699999809E+01 0. -1.
</event>
<event>
 5   0  0.5710383E-04  0.1294741E+04  0.7818609E-02  0.9033746E-01
        1   -1    0    0  501    0  0.00000000000E+00  0.00000000000E+00  0.60030932757E+03  0.60030932759E+03  0.50400001928E-02 0.  1.
       -1   -1    0    0    0  501  0.00000000000E+00  0.00000000000E+00 -0.69812054325E+03  0.69812054327E+03  0.50400001928E-02 0. -1.
    10030    2    1    2    0    0  0.00000000000E+00  0.00000000000E+00 -0.97811215681E+02  0.12984298709E+04  0.12947405515E+04 0.  0.
        1    1    3    3  502    0  0.46899684775E+03  0.65350335535E+02 -0.49159244744E+03  0.68256270332E+03  0.50400001928E-02 0. -1.
       -1    1    3    3    0  502 -0.46899684775E+03 -0.65350335535E+02  0.39378123176E+03  0.61586716755E+03  0.50400001928E-02 0.  1.
</event>
<event>
 5   0  0.1081574E-03  0.1298472E+04  0.7818609E-02  0.9030778E-01
       -2   -1    0    0    0  501  0.00000000000E+00  0.00000000000E+00  0.97102068932E+03  0.97102068933E+03  0.25500000920E-02 0. -1.
        2   -1    0    0  501    0  0.00000000000E+00  0.00000000000E+00 -0.43408701155E+03  0.43408701155E+03  0.25500000920E-02 0.  1.
    10030    2    1    2    0    0  0.00000000000E+00  0.00000000000E+00  0.53693367778E+03  0.14051077009E+04  0.12984721317E+04 0.  0.
        5    1    3    3  502    0  0.16195523450E+03 -0.45072328863E+03 -0.20582498170E+03  0.52131276023E+03  0.46999998093E+01 0.  1.
       -5    1    3    3    0  502 -0.16195523450E+03  0.45072328863E+03  0.74275865947E+03  0.88379494065E+03  0.46999998093E+01 0. -1.
</event>
<event>
 5   0  0.5812938E-04  0.1293840E+04  0.7818609E-02  0.9034464E-01
       -1   -1    0    0    0  501  0.00000000000E+00  0.00000000000E+00  0.31109168967E+03  0.31109168971E+03  0.50400001928E-02 0.  1.
        1   -1    0    0  501    0  0.00000000000E+00  0.00000000000E+00 -0.13452808617E+04  0.13452808617E+04  0.50400001928E-02 0. -1.
    10030    2    1    2    0    0  0.00000000000E+00  0.00000000000E+00 -0.10341891721E+04  0.16563725514E+04  0.12938403246E+04 0.  0.
        5    1    3    3  502    0  0.26036840778E+03  0.64030407284E+02 -0.12707739305E+04  0.12987609762E+04  0.46999998093E+01 0. -1.
       -5    1    3    3    0  502 -0.26036840778E+03 -0.64030407284E+02  0.23658475845E+03  0.35761157525E+03  0.46999998093E+01 0.  1.
</event>
<event>
 5   0  0.5812938E-04  0.1281719E+04  0.7818609E-02  0.9044189E-01
       -1   -1    0    0    0  501  0.00000000000E+00  0.00000000000E+00  0.71957596374E+03  0.71957596376E+03  0.50400001928E-02 0.  1.
        1   -1    0    0  501    0  0.00000000000E+00  0.00000000000E+00 -0.57075434226E+03  0.57075434228E+03  0.50400001928E-02 0. -1.
    10030    2    1    2    0    0  0.00000000000E+00  0.00000000000E+00  0.14882162148E+03  0.12903303060E+04  0.12817193233E+04 0.  0.
        5    1    3    3  502    0 -0.10916535675E+03 -0.51981572798E+03 -0.28654164636E+03  0.60353431656E+03  0.46999998093E+01 0. -1.
       -5    1    3    3    0  502  0.10916535675E+03  0.51981572798E+03  0.43536326784E+03  0.68679598947E+03  0.46999998093E+01 0.  1.
</event>
<event>
 5   0  0.1081574E-03  0.1301784E+04  0.7818609E-02  0.9028152E-01
        2   -1    0    0  501    0  0.00000000000E+00  0.00000000000E+00  0.93535342572E+03  0.93535342572E+03  0.25500000920E-02 0. -1.
       -2   -1    0    0    0  501  0.00000000000E+00  0.00000000000E+00 -0.45294139737E+03  0.45294139737E+03  0.25500000920E-02 0.  1.
    10030    2    1    2    0    0  0.00000000000E+00  0.00000000000E+00  0.48241202835E+03  0.13882948231E+04  0.13017838341E+04 0.  0.
        5    1    3    3  502    0  0.40259805330E+03  0.19670671299E+03  0.74465837409E+03  0.86908970052E+03  0.46999998093E+01 0. -1.
       -5    1    3    3    0  502 -0.40259805330E+03 -0.19670671299E+03 -0.26224634574E+03  0.51920512257E+03  0.46999998093E+01 0.  1.
</event>
<event>
 5   0  0.6006119E-04  0.1296175E+04  0.7818609E-02  0.9032604E-01
       -1   -1    0    0    0  501  0.00000000000E+00  0.00000000000E+00  0.10550410093E+04  0.10550410093E+04  0.50400001928E-02 0.  1.
        1   -1    0    0  501    0  0.00000000000E+00  0.00000000000E+00 -0.39810551971E+03  0.39810551974E+03  0.50400001928E-02 0. -1.
    10030    2    1    2    0    0  0.00000000000E+00  0.00000000000E+00  0.65693548963E+03  0.14531465291E+04  0.12961753730E+04 0.  0.
        4    1    3    3  502    0 -0.22310168874E+03  0.48946759404E+03 -0.76781487395E+02  0.54336902640E+03  0.12699999809E+01 0. -1.
       -4    1    3    3    0  502  0.22310168874E+03 -0.48946759404E+03  0.73371697702E+03  0.90977750269E+03  0.12699999809E+01 0.  1.
</event>
<event>
 5   0  0.6006119E-04  0.1301284E+04  0.7818609E-02  0.9028547E-01
        1   -1    0    0  501    0  0.00000000000E+00  0.00000000000E+00  0.12083186876E+04  0.12083186876E+04  0.50400001928E-02 0.  1.
       -1   -1    0    0    0  501  0.00000000000E+00  0.00000000000E+00 -0.35035064374E+03  0.35035064378E+03  0.50400001928E-02 0. -1.
    10030    2    1    2    0    0  0.00000000000E+00  0.00000000000E+00  0.85796804384E+03  0.15586693314E+04  0.13012843349E+04 0.  0.
        4    1    3    3  502    0 -0.45236213295E+03 -0.40976631655E+03  0.15903196342E+03  0.63073981307E+03  0.12699999809E+01 0. -1.
       -4    1    3    3    0  502  0.45236213295E+03  0.40976631655E+03  0.69893608042E+03  0.92792951829E+03  0.12699999809E+01 0.  1.
</event>
<event>
 5   0  0.5812938E-04  0.1287240E+04  0.7818609E-02  0.9039746E-01
       -1   -1    0    0    0  501  0.00000000000E+00  0.00000000000E+00  0.15273011714E+04  0.15273011714E+04  0.50400001928E-02 0.  1.
        1   -1    0    0  501    0  0.00000000000E+00  0.00000000000E+00 -0.27122788537E+03  0.27122788542E+03  0.50400001928E-02 0. -1.
    10030    2    1    2    0    0  0.00000000000E+00  0.00000000000E+00  0.12560732860E+04  0.17985290568E+04  0.12872399420E+04 0.  0.
        5    1    3    3  502    0  0.23303215232E+03  0.26964964959E+03 -0.12074893763E+03  0.37632075876E+03  0.46999998093E+01 0. -1.
       -5    1    3    3    0  502 -0.23303215232E+03 -0.26964964959E+03  0.13768222236E+04  0.14222082980E+04  0.46999998093E+01 0.  1.
</event>
<event>
 5   0  0.6006119E-04  0.1289819E+04  0.7818609E-02  0.9037678E-01
       -1   -1    0    0    0  501  0.00000000000E+00  0.00000000000E+00  0.67985954125E+03  0.67985954127E+03  0.50400001928E-02 0. -1.
        1   -1    0    0  501    0  0.00000000000E+00  0.00000000000E+00 -0.61175600456E+03  0.61175600458E+03  0.50400001928E-02 0.  1.
    10030    2    1    2    0    0  0.00000000000E+00  0.00000000000E+00  0.68103536696E+02  0.12916155459E+04  0.12898188348E+04 0.  0.
        4    1    3    3  502    0  0.92377135587E+02  0.63626269016E+03  0.84548172289E+02  0.64847031729E+03  0.12699999809E+01 0.  1.
       -4    1    3    3    0  502 -0.92377135587E+02 -0.63626269016E+03 -0.16444635593E+02  0.64314522856E+03  0.12699999809E+01 0. -1.
</event>
<event>
 5   0  0.6006119E-04  0.1301491E+04  0.7818609E-02  0.9028384E-01
        1   -1    0    0  501    0  0.00000000000E+00  0.00000000000E+00  0.38245281182E+03  0.38245281186E+03  0.50400001928E-02 0. -1.
       -1   -1    0    0    0  501  0.00000000000E+00  0.00000000000E+00 -0.11072469511E+04  0.11072469511E+04  0.50400001928E-02 0.  1.
    10030    2    1    2    0    0  0.00000000000E+00  0.00000000000E+00 -0.72479413929E+03  0.14896997630E+04  0.13014910063E+04 0.  0.
        4    1    3    3  502    0 -0.16010201481E+03  0.11805688507E+03  0.34679767692E+03  0.39980035628E+03  0.12699999809E+01 0. -1.
       -4    1    3    3    0  502  0.16010201481E+03 -0.11805688507E+03 -0.10715918162E+04  0.10898994067E+04  0.12699999809E+01 0.  1.
</event>
<event>
 5   0  0.6006119E-04  0.1304301E+04  0.7818609E-02  0.9026161E-01
       -1   -1    0    0    0  501  0.00000000000E+00  0.00000000000E+00  0.99296555137E+03  0.99296555138E+03  0.50400001928E-02 0.  1.
        1   -1    0    0  501    0  0.00000000000E+00  0.00000000000E+00 -0.42831349119E+03  0.42831349122E+03  0.50400001928E-02 0. -1.
    10030    2    1    2    0    0  0.00000000000E+00  0.00000000000E+00  0.56465206018E+03  0.14212790426E+04  0.13043014099E+04 0.  0.
        4    1    3    3  502    0 -0.22514548970E+03  0.57616328048E+03  0.50735163783E+03  0.80003869570E+03  0.12699999809E+01 0.  1.
       -4    1    3    3    0  502  0.22514548970E+03 -0.57616328048E+03  0.57300422349E+02  0.62124034689E+03  0.12699999809E+01 0. -1.
</event>
<event>
 5   0  0.5710383E-04  0.1291682E+04  0.7818609E-02  0.9036188E-01
        1   -1    0    0  501    0  0.00000000000E+00  0.00000000000E+00  0.20069719280E+04  0.20069719280E+04  0.50400001928E-02 0. -1.
       -1   -1    0    0    0  501  0.00000000000E+00  0.00000000000E+00 -0.20783077010E+03  0.20783077016E+03  0.50400001928E-02 0.  1.
    10030    2    1    2    0    0  0.00000000000E+00  0.00000000000E+00  0.17991411579E+04  0.22148026981E+04  0.12916818826E+04 0.  0.
        1    1    3    3  502    0 -0.63972635912E+03 -0.75613210730E+02  0.97895329327E+03  0.11718859683E+04  0.50400001928E-02 0. -1.
       -1    1    3    3    0  502  0.63972635912E+03  0.75613210730E+02  0.82018786459E+03  0.10429167299E+04  0.50400001928E-02 0.  1.
</event>
<event>
 5   0  0.1031295E-03  0.1296069E+04  0.7818609E-02  0.9032688E-01
       -2   -1    0    0    0  501  0.00000000000E+00  0.00000000000E+00  0.21291489991E+03  0.21291489992E+03  0.25500000920E-02 0. -1.
        2   -1    0    0  501    0  0.00000000000E+00  0.00000000000E+00 -0.19723784339E+04  0.19723784339E+04  0.25500000920E-02 0.  1.
    10030    2    1    2    0    0  0.00000000000E+00  0.00000000000E+00 -0.17594635340E+04  0.21852933338E+04  0.12960690674E+04 0.  0.
        2    1    3    3  502    0 -0.76954259273E+02  0.61227413165E+03 -0.54612728797E+03  0.82404889720E+03  0.25500000920E-02 0. -1.
       -2    1    3    3    0  502  0.76954259273E+02 -0.61227413165E+03 -0.12133362460E+04  0.13612444366E+04  0.25500000920E-02 0.  1.
</event>
<event>
 5   0  0.5710383E-04  0.1307087E+04  0.7818609E-02  0.9023964E-01
       -1   -1    0    0    0  501  0.00000000000E+00  0.00000000000E+00  0.11648352917E+04  0.11648352917E+04  0.50400001928E-02 0.  1.
        1   -1    0    0  501    0  0.00000000000E+00  0.00000000000E+00 -0.36667764095E+03  0.36667764098E+03  0.50400001928E-02 0. -1.
    10030    2    1    2    0    0  0.00000000000E+00  0.00000000000E+00  0.79815765074E+03  0.15315129327E+04  0.13070869242E+04 0.  0.
        1    1    3    3  502    0  0.12656223138E+03  0.99682730821E+02 -0.34304674840E+03  0.37899303008E+03  0.50400001928E-02 0. -1.
       -1    1    3    3    0  502 -0.12656223138E+03 -0.99682730821E+02  0.11412043991E+04  0.11525199026E+04  0.50400001928E-02 0.  1.
</event>
<event>
 5   0  0.6006119E-04  0.1314286E+04  0.7818609E-02  0.9018312E-01
       -1   -1    0    0    0  501  0.00000000000E+00  0.00000000000E+00  0.22071320292E+03  0.22071320298E+03  0.50400001928E-02 0. -1.
        1   -1    0    0  501    0  0.00000000000E+00  0.00000000000E+00 -0.19565527806E+04  0.19565527806E+04  0.50400001928E-02 0.  1.
    10030    2    1    2    0    0  0.00000000000E+00  0.00000000000E+00 -0.17358395777E+04  0.21772659836E+04  0.13142861651E+04 0.  0.
        4    1    3    3  502    0 -0.10909064945E+03 -0.58199332622E+03 -0.39580368975E+03  0.71223533701E+03  0.12699999809E+01 0. -1.
       -4    1    3    3    0  502  0.10909064945E+03  0.58199332622E+03 -0.13400358879E+04  0.14650306466E+04  0.12699999809E+01 0.  1.
</event>
<event>
 5   0  0.1081574E-03  0.1295943E+04  0.7818609E-02  0.9032789E-01
       -2   -1    0    0    0  501  0.00000000000E+00  0.00000000000E+00  0.26293491753E+03  0.26293491755E+03  0.25500000920E-02 0. -1.
        2   -1    0    0  501    0  0.00000000000E+00  0.00000000000E+00 -0.15968467973E+04  0.15968467973E+04  0.25500000920E-02 0.  1.
    10030    2    1    2    0    0  0.00000000000E+00  0.00000000000E+00 -0.13339118797E+04  0.18597817148E+04  0.12959425619E+04 0.  0.
        5    1    3    3  502    0 -0.52537143347E+03 -0.27767482101E+03 -0.10376576179E+04  0.11957733361E+04  0.46999998093E+01 0.  1.
       -5    1    3    3    0  502  0.52537143347E+03  0.27767482101E+03 -0.29625426178E+03  0.66400837868E+03  0.46999998093E+01 0. -1.
</event>
<event>
 5   0  0.4012375E-04  0.1303739E+04  0.7818609E-02  0.9026605E-01
       -4   -1    0    0    0  501  0.00000000000E+00  0.00000000000E+00  0.11166746609E+04  0.11166753831E+04  0.12699999809E+01 0.  1.
        4   -1    0    0  501    0  0.00000000000E+00  0.00000000000E+00 -0.38053338716E+03  0.38053550641E+03  0.12699999809E+01 0. -1.
    10030    2    1    2    0    0  0.00000000000E+00  0.00000000000E+00  0.73614127374E+03  0.14972108895E+04  0.13037394190E+04 0.  0.
        3    1    3    3  502    0 -0.55115778525E+03  0.34511722823E+03  0.31603287012E+03  0.72301977197E+03  0.10100000352E+00 0.  1.
       -3    1    3    3    0  502  0.55115778525E+03 -0.34511722823E+03  0.42010840362E+03  0.77419111753E+03  0.10100000352E+00 0. -1.
</event>
<event>
 5   0  0.5766027E-04  0.1299190E+04  0.7818609E-02  0.9030208E-01
        1   -1    0    0  501    0  0.00000000000E+00  0.00000000000E+00  0.99341211369E+03  0.99341211370E+03  0.50400001928E-02 0.  1.
       -1   -1    0    0    0  501  0.00000000000E+00  0.00000000000E+00 -0.42477217406E+03  0.42477217409E+03  0.50400001928E-02 0. -1.
    10030    2    1    2    0    0  0.00000000000E+00  0.00000000000E+00  0.56863993962E+03  0.14181842878E+04  0.12991902452E+04 0.  0.
        3    1    3    3  502    0 -0.22383652578E+03  0.14549149963E+03 -0.36212239664E+03  0.44989243946E+03  0.10100000352E+00 0. -1.
       -3    1    3    3    0  502  0.22383652578E+03 -0.14549149963E+03  0.93076233626E+03  0.96829184833E+03  0.10100000352E+00 0.  1.
</event>
<event>
 5   0  0.6006119E-04  0.1298959E+04  0.7818609E-02  0.9030391E-01
        1   -1    0    0  501    0  0.00000000000E+00  0.00000000000E+00  0.21238979013E+04  0.21238979013E+04  0.50400001928E-02 0.  1.
       -1   -1    0    0    0  501  0.00000000000E+00  0.00000000000E+00 -0.19860834784E+03  0.19860834790E+03  0.50400001928E-02 0. -1.
    10030    2    1    2    0    0  0.00000000000E+00  0.00000000000E+00  0.19252895535E+04  0.23225062493E+04  0.12989593577E+04 0.  0.
        4    1    3    3  502    0  0.40900867632E+03 -0.50195630632E+03  0.87193242879E+03  0.10860552491E+04  0.12699999809E+01 0. -1.
       -4    1    3    3    0  502 -0.40900867632E+03  0.50195630632E+03  0.10533571247E+04  0.12364510002E+04  0.12699999809E+01 0.  1.
</event>
<event>
 5   0  0.6006119E-04  0.1300450E+04  0.7818609E-02  0.9029208E-01
       -1   -1    0    0    0  501  0.00000000000E+00  0.00000000000E+00  0.47876383783E+03  0.47876383786E+03  0.50400001928E-02 0.  1.
        1   -1    0    0  501    0  0.00000000000E+00  0.00000000000E+00 -0.88309256372E+03  0.88309256374E+03  0.50400001928E-02 0. -1.
    10030    2    1    2    0    0  0.00000000000E+00  0.00000000000E+00 -0.40432872589E+03  0.13618564016E+04  0.13004503604E+04 0.  0.
        4    1    3    3  502    0 -0.22163886822E+03  0.30122568425E+03 -0.75919284069E+03  0.84630732185E+03  0.12699999809E+01 0. -1.
       -4    1    3    3    0  502  0.22163886822E+03 -0.30122568425E+03  0.35486411480E+03  0.51554907975E+03  0.12699999809E+01 0.  1.
</event>
<event>
 5   0  0.1103241E-03  0.1322917E+04  0.7818609E-02  0.9011586E-01
        2   -1    0    0  501    0  0.00000000000E+00  0.00000000000E+00  0.20953164107E+04  0.20953164107E+04  0.25500000920E-02 0. -1.
       -2   -1    0    0    0  501  0.00000000000E+00  0.00000000000E+00 -0.20881218712E+03  0.20881218713E+03  0.25500000920E-02 0.  1.
    10030    2    1    2    0    0  0.00000000000E+00  0.00000000000E+00  0.18865042236E+04  0.23041285979E+04  0.13229173859E+04 0.  0.
        4    1    3    3  502    0 -0.35422123506E+03 -0.48958323978E+03  0.14117719054E+04  0.15356646632E+04  0.12699999809E+01 0. -1.
       -4    1    3    3    0  502  0.35422123506E+03  0.48958323978E+03  0.47473231827E+03  0.76846393471E+03  0.12699999809E+01 0.  1.
</event>
<event>
 5   0  0.4012375E-04  0.1295362E+04  0.7818609E-02  0.9033252E-01
       -3   -1    0    0    0  501  0.00000000000E+00  0.00000000000E+00  0.10404362078E+04  0.10404362127E+04  0.10100000352E+00 0. -1.
        3   -1    0    0  501    0  0.00000000000E+00  0.00000000000E+00 -0.40318700873E+03  0.40318702138E+03  0.10100000352E+00 0.  1.
    10030    2    1    2    0    0  0.00000000000E+00  0.00000000000E+00  0.63724919911E+03  0.14436232341E+04  0.12953615327E+04 0.  0.
        2    1    3    3  502    0  0.54557464374E+03  0.34881938685E+03  0.30436485319E+03  0.71551703012E+03  0.25500000920E-02 0. -1.
       -2    1    3    3    0  502 -0.54557464374E+03 -0.34881938685E+03  0.33288434593E+03  0.72810620400E+03  0.25500000920E-02 0.  1.
</event>
<event>
 5   0  0.5766027E-04  0.1299560E+04  0.7818609E-02  0.9029914E-01
       -1   -1    0    0    0  501  0.00000000000E+00  0.00000000000E+00  0.37250520262E+03  0.37250520266E+03  0.50400001928E-02 0. -1.
        1   -1    0    0  501    0  0.00000000000E+00  0.00000000000E+00 -0.11334452529E+04  0.11334452529E+04  0.50400001928E-02 0.  1.
    10030    2    1    2    0    0  0.00000000000E+00  0.00000000000E+00 -0.76094005032E+03  0.15059504556E+04  0.12995603159E+04 0.  0.
        3    1    3    3  502    0 -0.59295308647E+03 -0.26441537534E+03 -0.41124720933E+03  0.76852659736E+03  0.10100000352E+00 0.  1.
       -3    1    3    3    0  502  0.59295308647E+03  0.26441537534E+03 -0.34969284099E+03  0.73742385824E+03  0.10100000352E+00 0. -1.
</event>
<event>
 5   0  0.1031295E-03  0.1301194E+04  0.7818609E-02  0.9028618E-01
        2   -1    0    0  501    0  0.00000000000E+00  0.00000000000E+00  0.58665554797E+03  0.58665554797E+03  0.25500000920E-02 0.  1.
       -2   -1    0    0    0  501  0.00000000000E+00  0.00000000000E+00 -0.72150811800E+03  0.72150811800E+03  0.25500000920E-02 0. -1.
    10030    2    1    2    0    0  0.00000000000E+00  0.00000000000E+00 -0.13485257003E+03  0.13081636660E+04  0.13011944364E+04 0.  0.
        2    1    3    3  502    0 -0.40353726018E+03 -0.39265672272E+03  0.26028757843E+03  0.62029931948E+03  0.25500000920E-02 0.  1.
       -2    1    3    3    0  502  0.40353726018E+03  0.39265672272E+03 -0.39514014845E+03  0.68786434650E+03  0.25500000920E-02 0. -1.
</event>
<event>
 5   0  0.1081574E-03  0.1296427E+04  0.7818609E-02  0.9032403E-01
       -2   -1    0    0    0  501  0.00000000000E+00  0.00000000000E+00  0.29215174167E+03  0.29215174168E+03  0.25500000920E-02 0.  1.
        2   -1    0    0  501    0  0.00000000000E+00  0.00000000000E+00 -0.14382276686E+04  0.14382276686E+04  0.25500000920E-02 0. -1.
    10030    2    1    2    0    0  0.00000000000E+00  0.00000000000E+00 -0.11460759269E+04  0.17303794103E+04  0.12964269641E+04 0.  0.
        5    1    3    3  502    0  0.10788724537E+03  0.62239464759E+03 -0.37895583031E+03  0.73664398890E+03  0.46999998093E+01 0. -1.
       -5    1    3    3    0  502 -0.10788724537E+03 -0.62239464759E+03 -0.76712009659E+03  0.99373542135E+03  0.46999998093E+01 0.  1.
</event>
<event>
 5   0  0.1046253E-03  0.1301117E+04  0.7818609E-02  0.9028680E-01
       -2   -1    0    0    0  501  0.00000000000E+00  0.00000000000E+00  0.29861749847E+03  0.29861749848E+03  0.25500000920E-02 0.  1.
        2   -1    0    0  501    0  0.00000000000E+00  0.00000000000E+00 -0.14172852918E+04  0.14172852918E+04  0.25500000920E-02 0. -1.
    10030    2    1    2    0    0  0.00000000000E+00  0.00000000000E+00 -0.11186677933E+04  0.17159027903E+04  0.13011167334E+04 0.  0.
        3    1    3    3  502    0  0.44258472246E+03  0.44025906678E+03 -0.80077339109E+03  0.10153557586E+04  0.10100000352E+00 0. -1.
       -3    1    3    3    0  502 -0.44258472246E+03 -0.44025906678E+03 -0.31789440225E+03  0.70054703170E+03  0.10100000352E+00 0.  1.
</event>
<event>
 5   0  0.5563545E-04  0.1303241E+04  0.7818609E-02  0.9026999E-01
        1   -1    0    0  501    0  0.00000000000E+00  0.00000000000E+00  0.60838702490E+03  0.60838702492E+03  0.50400001928E-02 0. -1.
       -1   -1    0    0    0  501  0.00000000000E+00  0.00000000000E+00 -0.69792623888E+03  0.69792623890E+03  0.50400001928E-02 0.  1.
    10030    2    1    2    0    0  0.00000000000E+00  0.00000000000E+00 -0.89539213983E+02  0.13063132638E+04  0.13032409878E+04 0.  0.
        2    1    3    3  502    0  0.15805320603E+03  0.92613679765E+02  0.58204541286E+03  0.61019256981E+03  0.25500000920E-02 0. -1.
       -2    1    3    3    0  502 -0.15805320603E+03 -0.92613679765E+02 -0.67158462684E+03  0.69612069401E+03  0.25500000920E-02 0.  1.
</event>
<event>
 5   0  0.1046253E-03  0.1316139E+04  0.7818609E-02  0.9016864E-01
        2   -1    0    0  501    0  0.00000000000E+00  0.00000000000E+00  0.60557265144E+03  0.60557265145E+03  0.25500000920E-02 0.  1.
       -2   -1    0    0    0  501  0.00000000000E+00  0.00000000000E+00 -0.71511711428E+03  0.71511711428E+03  0.25500000920E-02 0. -1.
    10030    2    1    2    0    0  0.00000000000E+00  0.00000000000E+00 -0.10954446284E+03  0.13206897657E+04  0.13161388483E+04 0.  0.
        3    1    3    3  502    0 -0.41479410432E+03 -0.17941250457E+03 -0.53476958763E+03  0.70015820914E+03  0.10100000352E+00 0. -1.
       -3    1    3    3    0  502  0.41479410432E+03  0.17941250457E+03  0.42522512479E+03  0.62053155659E+03  0.10100000352E+00 0.  1.
</event>
<event>
 5   0  0.5812938E-04  0.1308168E+04  0.7818609E-02  0.9023113E-01
       -1   -1    0    0    0  501  0.00000000000E+00  0.00000000000E+00  0.56822902060E+03  0.56822902062E+03  0.50400001928E-02 0.  1.
        1   -1    0    0  501    0  0.00000000000E+00  0.00000000000E+00 -0.75291112646E+03  0.75291112647E+03  0.50400001928E-02 0. -1.
    10030    2    1    2    0    0  0.00000000000E+00  0.00000000000E+00 -0.18468210586E+03  0.13211401471E+04  0.13081681115E+04 0.  0.
        5    1    3    3  502    0  0.40145625077E+03 -0.10776233475E+03  0.41766563996E+03  0.58927626702E+03  0.46999998093E+01 0.  1.
       -5    1    3    3    0  502 -0.40145625077E+03  0.10776233475E+03 -0.60234774582E+03  0.73186388008E+03  0.46999998093E+01 0. -1.
</event>
<event>
 5   0  0.5766027E-04  0.1309606E+04  0.7818609E-02  0.9021982E-01
       -1   -1    0    0    0  501  0.00000000000E+00  0.00000000000E+00  0.24299619895E+03  0.24299619900E+03  0.50400001928E-02 0. -1.
        1   -1    0    0  501    0  0.00000000000E+00  0.00000000000E+00 -0.17645017873E+04  0.17645017874E+04  0.50400001928E-02 0.  1.
    10030    2    1    2    0    0  0.00000000000E+00  0.00000000000E+00 -0.15215055884E+04  0.20074979864E+04  0.13096063949E+04 0.  0.
        3    1    3    3  502    0  0.79086978264E+01 -0.30678181987E+03 -0.16474402004E+04  0.16757794774E+04  0.10100000352E+00 0.  1.
       -3    1    3    3    0  502 -0.79086978264E+01  0.30678181987E+03  0.12593461204E+03  0.33171850900E+03  0.10100000352E+00 0. -1.
</event>
<event>
 5   0  0.6006119E-04  0.1294327E+04  0.7818609E-02  0.9034076E-01
        1   -1    0    0  501    0  0.00000000000E+00  0.00000000000E+00  0.76862404964E+03  0.76862404966E+03  0.50400001928E-02 0.  1.
       -1   -1    0    0    0  501  0.00000000000E+00  0.00000000000E+00 -0.54489630600E+03  0.54489630603E+03  0.50400001928E-02 0. -1.
    10030    2    1    2    0    0  0.00000000000E+00  0.00000000000E+00  0.22372774364E+03  0.13135203557E+04  0.12943267059E+04 0.  0.
        4    1    3    3  502    0  0.52600815852E+03 -0.37432256645E+03  0.66288827488E+02  0.64899752552E+03  0.12699999809E+01 0.  1.
       -4    1    3    3    0  502 -0.52600815852E+03  0.37432256645E+03  0.15743891615E+03  0.66452283016E+03  0.12699999809E+01 0. -1.
</event>
<event>
 5   0  0.1103241E-03  0.1304884E+04  0.7818609E-02  0.9025701E-01
       -2   -1    0    0    0  501  0.00000000000E+00  0.00000000000E+00  0.41228711297E+03  0.41228711297E+03  0.25500000920E-02 0.  1.
        2   -1    0    0  501    0  0.00000000000E+00  0.00000000000E+00 -0.10324852893E+04  0.10324852893E+04  0.25500000920E-02 0. -1.
    10030    2    1    2    0    0  0.00000000000E+00  0.00000000000E+00 -0.62019817629E+03  0.14447724022E+04  0.13048837176E+04 0.  0.
        4    1    3    3  502    0  0.18622972661E+02  0.11831651626E+03 -0.10202072143E+04  0.10272146739E+04  0.12699999809E+01 0. -1.
       -4    1    3    3    0  502 -0.18622972661E+02 -0.11831651626E+03  0.40000903803E+03  0.41755772838E+03  0.12699999809E+01 0.  1.
</event>
<event>
 5   0  0.6006119E-04  0.1301891E+04  0.7818609E-02  0.9028067E-01
       -1   -1    0    0    0  501  0.00000000000E+00  0.00000000000E+00  0.33143661505E+03  0.33143661509E+03  0.50400001928E-02 0.  1.
        1   -1    0    0  501    0  0.00000000000E+00  0.00000000000E+00 -0.12784652019E+04  0.12784652019E+04  0.50400001928E-02 0. -1.
    10030    2    1    2    0    0  0.00000000000E+00  0.00000000000E+00 -0.94702858685E+03  0.16099018170E+04  0.13018912075E+04 0.  0.
        4    1    3    3  502    0  0.24855119925E+03  0.10325093986E+03 -0.12064361258E+04  0.12360939260E+04  0.12699999809E+01 0. -1.
       -4    1    3    3    0  502 -0.24855119925E+03 -0.10325093986E+03  0.25940753897E+03  0.37380789104E+03  0.12699999809E+01 0.  1.
</event>
<event>
 5   0  0.4012375E-04  0.1312224E+04  0.7818609E-02  0.9019927E-01
       -4   -1    0    0    0  501  0.00000000000E+00  0.00000000000E+00  0.88352692820E+03  0.88352784096E+03  0.12699999809E+01 0.  1.
        4   -1    0    0  501    0  0.00000000000E+00  0.00000000000E+00 -0.48723022633E+03  0.48723188150E+03  0.12699999809E+01 0. -1.
    10030    2    1    2    0    0  0.00000000000E+00  0.00000000000E+00  0.39629670187E+03  0.13707597225E+04  0.13122237388E+04 0.  0.
        4    1    3    3  502    0  0.21021536473E+03  0.43565760859E+03  0.66119753151E+03  0.81925077971E+03  0.12699999809E+01 0.  1.
       -4    1    3    3    0  502 -0.21021536473E+03 -0.43565760859E+03 -0.26490082964E+03  0.55150894275E+03  0.12699999809E+01 0. -1.
</event>
<event>
 5   0  0.5766027E-04  0.1307905E+04  0.7818609E-02  0.9023320E-01
       -1   -1    0    0    0  501  0.00000000000E+00  0.00000000000E+00  0.49218534674E+03  0.49218534676E+03  0.50400001928E-02 0.  1.
        1   -1    0    0  501    0  0.00000000000E+00  0.00000000000E+00 -0.86888789454E+03  0.86888789456E+03  0.50400001928E-02 0. -1.
    10030    2    1    2    0    0  0.00000000000E+00  0.00000000000E+00 -0.37670254780E+03  0.13610732413E+04  0.13079050266E+04 0.  0.
        3    1    3    3  502    0  0.45609406043E+03 -0.27554550446E+03  0.20614589393E+03  0.57135213028E+03  0.10100000352E+00 0.  1.
       -3    1    3    3    0  502 -0.45609406043E+03  0.27554550446E+03 -0.58284844173E+03  0.78972111104E+03  0.10100000352E+00 0. -1.
</event>
<event>
 5   0  0.1031295E-03  0.1298930E+04  0.7818609E-02  0.9030414E-01
       -2   -1    0    0    0  501  0.00000000000E+00  0.00000000000E+00  0.33147351329E+03  0.33147351330E+03  0.25500000920E-02 0.  1.
        2   -1    0    0  501    0  0.00000000000E+00  0.00000000000E+00 -0.12725137079E+04  0.12725137079E+04  0.25500000920E-02 0. -1.
    10030    2    1    2    0    0  0.00000000000E+00  0.00000000000E+00 -0.94104019463E+03  0.16039872212E+04  0.12989296971E+04 0.  0.
        2    1    3    3  502    0  0.48410096224E+03 -0.21190833031E+03 -0.93674163205E+03  0.10755202310E+04  0.25500000920E-02 0.  1.
       -2    1    3    3    0  502 -0.48410096224E+03  0.21190833031E+03 -0.42985625772E+01  0.52846699021E+03  0.25500000920E-02 0. -1.
</event>
<event>
 5   0  0.1103241E-03  0.1288853E+04  0.7818609E-02  0.9038452E-01
       -2   -1    0    0    0  501  0.00000000000E+00  0.00000000000E+00  0.36628487027E+03  0.36628487028E+03  0.25500000920E-02 0. -1.
        2   -1    0    0  501    0  0.00000000000E+00  0.00000000000E+00 -0.11337778152E+04  0.11337778152E+04  0.25500000920E-02 0.  1.
    10030    2    1    2    0    0  0.00000000000E+00  0.00000000000E+00 -0.76749294496E+03  0.15000626855E+04  0.12888532267E+04 0.  0.
        4    1    3    3  502    0  0.13332036082E+03  0.39522930236E+03 -0.95547225787E+03  0.10425494562E+04  0.12699999809E+01 0.  1.
       -4    1    3    3    0  502 -0.13332036082E+03 -0.39522930236E+03  0.18797931291E+03  0.45751322936E+03  0.12699999809E+01 0. -1.
</event>
<event>
 5   0  0.1031295E-03  0.1303748E+04  0.7818609E-02  0.9026598E-01
       -2   -1    0    0    0  501  0.00000000000E+00  0.00000000000E+00  0.52721611999E+03  0.52721612000E+03  0.25500000920E-02 0.  1.
        2   -1    0    0  501    0  0.00000000000E+00  0.00000000000E+00 -0.80600644413E+03  0.80600644413E+03  0.25500000920E-02 0. -1.
    10030    2    1    2    0    0  0.00000000000E+00  0.00000000000E+00 -0.27879032414E+03  0.13332225641E+04  0.13037478133E+04 0.  0.
        2    1    3    3  502    0 -0.25270547332E+03  0.40601715663E+03  0.31359766399E+03  0.57188589997E+03  0.25500000920E-02 0.  1.
       -2    1    3    3    0  502  0.25270547332E+03 -0.40601715663E+03 -0.59238798812E+03  0.76133666416E+03  0.25500000920E-02 0. -1.
</event>
<event>
 5   0  0.6006119E-04  0.1300704E+04  0.7818609E-02  0.9029007E-01
        1   -1    0    0  501    0  0.00000000000E+00  0.00000000000E+00  0.20262879361E+04  0.20262879361E+04  0.50400001928E-02 0.  1.
       -1   -1    0    0    0  501  0.00000000000E+00  0.00000000000E+00 -0.20873513772E+03  0.20873513778E+03  0.50400001928E-02 0. -1.
    10030    2    1    2    0    0  0.00000000000E+00  0.00000000000E+00  0.18175527983E+04  0.22350230738E+04  0.13007036426E+04 0.  0.
        4    1    3    3  502    0  0.20265481622E+03 -0.27305718382E+03  0.18613615024E+04  0.18921673963E+04  0.12699999809E+01 0.  1.
       -4    1    3    3    0  502 -0.20265481622E+03  0.27305718382E+03 -0.43808704043E+02  0.34285567754E+03  0.12699999809E+01 0. -1.
</event>
<event>
 5   0  0.1081574E-03  0.1299081E+04  0.7818609E-02  0.9030295E-01
        2   -1    0    0  501    0  0.00000000000E+00  0.00000000000E+00  0.66872227737E+03  0.66872227738E+03  0.25500000920E-02 0. -1.
       -2   -1    0    0    0  501  0.00000000000E+00  0.00000000000E+00 -0.63090855128E+03  0.63090855128E+03  0.25500000920E-02 0.  1.
    10030    2    1    2    0    0  0.00000000000E+00  0.00000000000E+00  0.37813726098E+02  0.12996308287E+04  0.12990806029E+04 0.  0.
        5    1    3    3  502    0  0.40988872698E+03 -0.49117025931E+03 -0.93495168761E+02  0.64654499357E+03  0.46999998093E+01 0.  1.
       -5    1    3    3    0  502 -0.40988872698E+03  0.49117025931E+03  0.13130889486E+03  0.65308583509E+03  0.46999998093E+01 0. -1.
</event>
<event>
 5   0  0.5563545E-04  0.1297277E+04  0.7818609E-02  0.9031727E-01
       -1   -1    0    0    0  501  0.00000000000E+00  0.00000000000E+00  0.24787291984E+03  0.24787291989E+03  0.50400001928E-02 0. -1.
        1   -1    0    0  501    0  0.00000000000E+00  0.00000000000E+00 -0.16973693603E+04  0.16973693603E+04  0.50400001928E-02 0.  1.
    10030    2    1    2    0    0  0.00000000000E+00  0.00000000000E+00 -0.14494964405E+04  0.19452422802E+04  0.12972769935E+04 0.  0.
        2    1    3    3  502    0 -0.54776130020E+03  0.89025394036E+02 -0.12282790877E+04  0.13478269473E+04  0.25500000920E-02 0.  1.
       -2    1    3    3    0  502  0.54776130020E+03 -0.89025394036E+02 -0.22121735284E+03  0.59741533290E+03  0.25500000920E-02 0. -1.
</event>
<event>
 5   0  0.5710383E-04  0.1301071E+04  0.7818609E-02  0.9028716E-01
        1   -1    0    0  501    0  0.00000000000E+00  0.00000000000E+00  0.18006350710E+04  0.18006350710E+04  0.50400001928E-02 0.  1.
       -1   -1    0    0    0  501  0.00000000000E+00  0.00000000000E+00 -0.23502629841E+03  0.23502629847E+03  0.50400001928E-02 0. -1.
    10030    2    1    2    0    0  0.00000000000E+00  0.00000000000E+00  0.15656087726E+04  0.20356613695E+04  0.13010712442E+04 0.  0.
        1    1    3    3  502    0 -0.23751376152E+03 -0.53322121111E+03  0.12320908700E+04  0.13633728613E+04  0.50400001928E-02 0.  1.
       -1    1    3    3    0  502  0.23751376152E+03  0.53322121111E+03  0.33351790260E+03  0.67228850821E+03  0.50400001928E-02 0. -1.
</event>
<event>
 5   0  0.5812938E-04  0.1303095E+04  0.7818609E-02  0.9027114E-01
        1   -1    0    0  501    0  0.00000000000E+00  0.00000000000E+00  0.86161477320E+03  0.86161477321E+03  0.50400001928E-02 0.  1.
       -1   -1    0    0    0  501  0.00000000000E+00  0.00000000000E+00 -0.49269607842E+03  0.49269607844E+03  0.50400001928E-02 0. -1.
    10030    2    1    2    0    0  0.00000000000E+00  0.00000000000E+00  0.36891869478E+03  0.13543108517E+04  0.13030951153E+04 0.  0.
        5    1    3    3  502    0  0.58775959807E+03  0.25780862211E+03  0.30096100745E+03  0.70889085815E+03  0.46999998093E+01 0.  1.
       -5    1    3    3    0  502 -0.58775959807E+03 -0.25780862211E+03  0.67957687330E+02  0.64541999351E+03  0.46999998093E+01 0. -1.
</event>
<event>
 5   0  0.6006119E-04  0.1353233E+04  0.7818609E-02  0.8988384E-01
       -1   -1    0    0    0  501  0.00000000000E+00  0.00000000000E+00  0.14862842514E+04  0.14862842514E+04  0.50400001928E-02 0. -1.
        1   -1    0    0  501    0  0.00000000000E+00  0.00000000000E+00 -0.30802319844E+03  0.30802319849E+03  0.50400001928E-02 0.  1.
    10030    2    1    2    0    0  0.00000000000E+00  0.00000000000E+00  0.11782610530E+04  0.17943074499E+04  0.13532332082E+04 0.  0.
        4    1    3    3  502    0 -0.60078595711E+03 -0.14560607206E+03  0.95385716906E+03  0.11366573830E+04  0.12699999809E+01 0. -1.
       -4    1    3    3    0  502  0.60078595711E+03  0.14560607206E+03  0.22440388391E+03  0.65765006690E+03  0.12699999809E+01 0.  1.
</event>
<event>
 5   0  0.1101619E-03  0.1285037E+04  0.7818609E-02  0.9041515E-01
       -2   -1    0    0    0  501  0.00000000000E+00  0.00000000000E+00  0.29735898892E+03  0.29735898893E+03  0.25500000920E-02 0.  1.
        2   -1    0    0  501    0  0.00000000000E+00  0.00000000000E+00 -0.13883230285E+04  0.13883230285E+04  0.25500000920E-02 0. -1.
    10030    2    1    2    0    0  0.00000000000E+00  0.00000000000E+00 -0.10909640396E+04  0.16856820174E+04  0.12850374813E+04 0.  0.
        1    1    3    3  502    0  0.28654624442E+03  0.11584550255E+03 -0.12843993524E+04  0.13210642025E+04  0.50400001928E-02 0. -1.
       -1    1    3    3    0  502 -0.28654624442E+03 -0.11584550255E+03  0.19343531286E+03  0.36461781490E+03  0.50400001928E-02 0.  1.
</event>
<event>
 5   0  0.5710383E-04  0.1297419E+04  0.7818609E-02  0.9031614E-01
        1   -1    0    0  501    0  0.00000000000E+00  0.00000000000E+00  0.13083647836E+04  0.13083647836E+04  0.50400001928E-02 0. -1.
       -1   -1    0    0    0  501  0.00000000000E+00  0.00000000000E+00 -0.32164136397E+03  0.32164136401E+03  0.50400001928E-02 0.  1.
    10030    2    1    2    0    0  0.00000000000E+00  0.00000000000E+00  0.98672341962E+03  0.16300061476E+04  0.12974193364E+04 0.  0.
        1    1    3    3  502    0 -0.15614969087E+03 -0.16643478468E+03 -0.26954172998E+03  0.35317985182E+03  0.50400001928E-02 0.  1.
       -1    1    3    3    0  502  0.15614969087E+03  0.16643478468E+03  0.12562651496E+04  0.12768262958E+04  0.50400001928E-02 0. -1.
</event>
<event>
 5   0  0.1046253E-03  0.1301492E+04  0.7818609E-02  0.9028383E-01
        2   -1    0    0  501    0  0.00000000000E+00  0.00000000000E+00  0.13237225786E+04  0.13237225786E+04  0.25500000920E-02 0. -1.
       -2   -1    0    0    0  501  0.00000000000E+00  0.00000000000E+00 -0.31990861185E+03  0.31990861186E+03  0.25500000920E-02 0.  1.
    10030    2    1    2    0    0  0.00000000000E+00  0.00000000000E+00  0.10038139668E+04  0.16436311905E+04  0.13014918403E+04 0.  0.
        3    1    3    3  502    0 -0.13120915160E+03 -0.72216258331E+02 -0.29784687517E+03  0.33338236408E+03  0.10100000352E+00 0.  1.
       -3    1    3    3    0  502  0.13120915160E+03  0.72216258331E+02  0.13016608419E+04  0.13102488264E+04  0.10100000352E+00 0. -1.
</event>
<event>
 5   0  0.1101619E-03  0.1300557E+04  0.7818609E-02  0.9029124E-01
       -2   -1    0    0    0  501  0.00000000000E+00  0.00000000000E+00  0.38002505644E+03  0.38002505645E+03  0.25500000920E-02 0.  1.
        2   -1    0    0  501    0  0.00000000000E+00  0.00000000000E+00 -0.11127212443E+04  0.11127212443E+04  0.25500000920E-02 0. -1.
    10030    2    1    2    0    0  0.00000000000E+00  0.00000000000E+00 -0.73269618786E+03  0.14927463008E+04  0.13005567326E+04 0.  0.
        1    1    3    3  502    0  0.36844582536E+03  0.50963590952E+03 -0.17642389598E+03  0.65315119045E+03  0.50400001928E-02 0. -1.
       -1    1    3    3    0  502 -0.36844582536E+03 -0.50963590952E+03 -0.55627229188E+03  0.83959511030E+03  0.50400001928E-02 0.  1.
</event>
<event>
 5   0  0.1101619E-03  0.1279623E+04  0.7818609E-02  0.9045882E-01
        2   -1    0    0  501    0  0.00000000000E+00  0.00000000000E+00  0.91897893924E+03  0.91897893924E+03  0.25500000920E-02 0. -1.
       -2   -1    0    0    0  501  0.00000000000E+00  0.00000000000E+00 -0.44544969962E+03  0.44544969963E+03  0.25500000920E-02 0.  1.
    10030    2    1    2    0    0  0.00000000000E+00  0.00000000000E+00  0.47352923962E+03  0.13644286389E+04  0.12796232140E+04 0.  0.
        1    1    3    3  502    0  0.14044668835E+03  0.19442230787E+03  0.86923088232E+03  0.90171372002E+03  0.50400001928E-02 0. -1.
       -1    1    3    3    0  502 -0.14044668835E+03 -0.19442230787E+03 -0.39570164271E+03  0.46271491885E+03  0.50400001928E-02 0.  1.
</event>
<event>
 5   0  0.1081574E-03  0.1295719E+04  0.7818609E-02  0.9032967E-01
        2   -1    0    0  501    0  0.00000000000E+00  0.00000000000E+00  0.30034558563E+03  0.30034558564E+03  0.25500000920E-02 0.  1.
       -2   -1    0    0    0  501  0.00000000000E+00  0.00000000000E+00 -0.13974634549E+04  0.13974634549E+04  0.25500000920E-02 0. -1.
    10030    2    1    2    0    0  0.00000000000E+00  0.00000000000E+00 -0.10971178692E+04  0.16978090405E+04  0.12957190741E+04 0.  0.
        5    1    3    3  502    0  0.56713257475E+03  0.31311594315E+03 -0.55426125246E+03  0.85258933677E+03  0.46999998093E+01 0. -1.
       -5    1    3    3    0  502 -0.56713257475E+03 -0.31311594315E+03 -0.54285661677E+03  0.84521970372E+03  0.46999998093E+01 0.  1.
</event>
<event>
 5   0  0.5812938E-04  0.1298062E+04  0.7818609E-02  0.9031103E-01
       -1   -1    0    0    0  501  0.00000000000E+00  0.00000000000E+00  0.13475510520E+04  0.13475510520E+04  0.50400001928E-02 0. -1.
        1   -1    0    0  501    0  0.00000000000E+00  0.00000000000E+00 -0.31259765743E+03  0.31259765747E+03  0.50400001928E-02 0.  1.
    10030    2    1    2    0    0  0.00000000000E+00  0.00000000000E+00  0.10349533945E+04  0.16601487095E+04  0.12980620974E+04 0.  0.
        5    1    3    3  502    0  0.43639291729E+03 -0.33976774581E+03  0.95182519150E+03  0.11008515724E+04  0.46999998093E+01 0. -1.
       -5    1    3    3    0  502 -0.43639291729E+03  0.33976774581E+03  0.83128203050E+02  0.55929713703E+03  0.46999998093E+01 0.  1.
</event>
<event>
 5   0  0.1046253E-03  0.1293843E+04  0.7818609E-02  0.9034462E-01
        2   -1    0    0  501    0  0.00000000000E+00  0.00000000000E+00  0.13956717240E+04  0.13956717240E+04  0.25500000920E-02 0.  1.
       -2   -1    0    0    0  501  0.00000000000E+00  0.00000000000E+00 -0.29986085182E+03  0.29986085183E+03  0.25500000920E-02 0. -1.
    10030    2    1    2    0    0  0.00000000000E+00  0.00000000000E+00  0.10958108722E+04  0.16955325759E+04  0.12938428220E+04 0.  0.
        3    1    3    3  502    0  0.11281610333E+03  0.58918193856E+03  0.86525518383E+03  0.10528672154E+04  0.10100000352E+00 0.  1.
       -3    1    3    3    0  502 -0.11281610333E+03 -0.58918193856E+03  0.23055568838E+03  0.64266536047E+03  0.10100000352E+00 0. -1.
</event>
<event>
 5   0  0.5563545E-04  0.1293970E+04  0.7818609E-02  0.9034361E-01
        1   -1    0    0  501    0  0.00000000000E+00  0.00000000000E+00  0.16644529348E+04  0.16644529348E+04  0.50400001928E-02 0.  1.
       -1   -1    0    0    0  501  0.00000000000E+00  0.00000000000E+00 -0.25148776761E+03  0.25148776766E+03  0.50400001928E-02 0. -1.
    10030    2    1    2    0    0  0.00000000000E+00  0.00000000000E+00  0.14129651671E+04  0.19159407024E+04  0.12939699423E+04 0.  0.
        2    1    3    3  502    0 -0.47358422954E+03  0.43276647717E+03  0.58241786644E+03  0.86647528377E+03  0.25500000920E-02 0.  1.
       -2    1    3    3    0  502  0.47358422954E+03 -0.43276647717E+03  0.83054730070E+03  0.10494654187E+04  0.25500000920E-02 0. -1.
</event>
<event>
 5   0  0.5710383E-04  0.1299780E+04  0.7818609E-02  0.9029739E-01
        1   -1    0    0  501    0  0.00000000000E+00  0.00000000000E+00  0.52124948047E+03  0.52124948049E+03  0.50400001928E-02 0. -1.
       -1   -1    0    0    0  501  0.00000000000E+00  0.00000000000E+00 -0.81027834545E+03  0.81027834547E+03  0.50400001928E-02 0.  1.
    10030    2    1    2    0    0  0.00000000000E+00  0.00000000000E+00 -0.28902886498E+03  0.13315278260E+04  0.12997802378E+04 0.  0.
        1    1    3    3  502    0  0.61362523158E+03  0.18840111876E+03 -0.24861470099E+03  0.68836049854E+03  0.50400001928E-02 0.  1.
       -1    1    3    3    0  502 -0.61362523158E+03 -0.18840111876E+03 -0.40414163993E+02  0.64316732742E+03  0.50400001928E-02 0. -1.
</event>
<event>
 5   0  0.5766027E-04  0.1311445E+04  0.7818609E-02  0.9020538E-01
        1   -1    0    0  501    0  0.00000000000E+00  0.00000000000E+00  0.54982862549E+03  0.54982862551E+03  0.50400001928E-02 0.  1.
       -1   -1    0    0    0  501  0.00000000000E+00  0.00000000000E+00 -0.78201079210E+03  0.78201079212E+03  0.50400001928E-02 0. -1.
    10030    2    1    2    0    0  0.00000000000E+00  0.00000000000E+00 -0.23218216661E+03  0.13318394176E+04  0.13114448810E+04 0.  0.
        3    1    3    3  502    0  0.41956112386E+03  0.19264288906E+03  0.35679942274E+03  0.58347978339E+03  0.10100000352E+00 0.  1.
       -3    1    3    3    0  502 -0.41956112386E+03 -0.19264288906E+03 -0.58898158935E+03  0.74835963424E+03  0.10100000352E+00 0. -1.
</event>
<event>
 5   0  0.5766027E-04  0.1292559E+04  0.7818609E-02  0.9035487E-01
        1   -1    0    0  501    0  0.00000000000E+00  0.00000000000E+00  0.43961156921E+03  0.43961156924E+03  0.50400001928E-02 0. -1.
       -1   -1    0    0    0  501  0.00000000000E+00  0.00000000000E+00 -0.95010557040E+03  0.95010557041E+03  0.50400001928E-02 0.  1.
    10030    2    1    2    0    0  0.00000000000E+00  0.00000000000E+00 -0.51049400119E+03  0.13897171397E+04  0.12925593228E+04 0.  0.
        3    1    3    3  502    0 -0.56651873566E+02  0.13775467557E+02 -0.94727228996E+03  0.94906480274E+03  0.10100000352E+00 0.  1.
       -3    1    3    3    0  502  0.56651873566E+02 -0.13775467557E+02  0.43677828876E+03  0.44065233691E+03  0.10100000352E+00 0. -1.
</event>
<event>
 5   0  0.1031295E-03  0.1297474E+04  0.7818609E-02  0.9031571E-01
        2   -1    0    0  501    0  0.00000000000E+00  0.00000000000E+00  0.87981325339E+03  0.87981325340E+03  0.25500000920E-02 0. -1.
       -2   -1    0    0    0  501  0.00000000000E+00  0.00000000000E+00 -0.47835094930E+03  0.47835094931E+03  0.25500000920E-02 0.  1.
    10030    2    1    2    0    0  0.00000000000E+00  0.00000000000E+00  0.40146230409E+03  0.13581642027E+04  0.12974737068E+04 0.  0.
        2    1    3    3  502    0  0.49063487571E+03 -0.25088394120E+03 -0.15761828034E+03  0.57315692050E+03  0.25500000920E-02 0.  1.
       -2    1    3    3    0  502 -0.49063487571E+03  0.25088394120E+03  0.55908058443E+03  0.78500728220E+03  0.25500000920E-02 0. -1.
</event>
<event>
 5   0  0.5812938E-04  0.1302087E+04  0.7818609E-02  0.9027911E-01
        1   -1    0    0  501    0  0.00000000000E+00  0.00000000000E+00  0.72620160377E+03  0.72620160379E+03  0.50400001928E-02 0. -1.
       -1   -1    0    0    0  501  0.00000000000E+00  0.00000000000E+00 -0.58366429836E+03  0.58366429838E+03  0.50400001928E-02 0.  1.
    10030    2    1    2    0    0  0.00000000000E+00  0.00000000000E+00  0.14253730541E+03  0.13098659022E+04  0.13020874772E+04 0.  0.
        5    1    3    3  502    0  0.53030487451E+03 -0.17678122262E+03 -0.26443281028E+03  0.61840250787E+03  0.46999998093E+01 0.  1.
       -5    1    3    3    0  502 -0.53030487451E+03  0.17678122262E+03  0.40697011569E+03  0.69146339430E+03  0.46999998093E+01 0. -1.
</event>
<event>
 5   0  0.1081574E-03  0.1293593E+04  0.7818609E-02  0.9034662E-01
        2   -1    0    0  501    0  0.00000000000E+00  0.00000000000E+00  0.11964186413E+04  0.11964186413E+04  0.25500000920E-02 0. -1.
       -2   -1    0    0    0  501  0.00000000000E+00  0.00000000000E+00 -0.34966473432E+03  0.34966473433E+03  0.25500000920E-02 0.  1.
    10030    2    1    2    0    0  0.00000000000E+00  0.00000000000E+00  0.84675390696E+03  0.15460833756E+04  0.12935925268E+04 0.  0.
        5    1    3    3  502    0  0.14988704457E+03  0.62106438630E+03  0.54370680747E+03  0.83894355028E+03  0.46999998093E+01 0.  1.
       -5    1    3    3    0  502 -0.14988704457E+03 -0.62106438630E+03  0.30304709949E+03  0.70713982533E+03  0.46999998093E+01 0. -1.
</event>
<event>
 5   0  0.5563545E-04  0.1289919E+04  0.7818609E-02  0.9037598E-01
        1   -1    0    0  501    0  0.00000000000E+00  0.00000000000E+00  0.66996075194E+03  0.66996075196E+03  0.50400001928E-02 0.  1.
       -1   -1    0    0    0  501  0.00000000000E+00  0.00000000000E+00 -0.62089102250E+03  0.62089102252E+03  0.50400001928E-02 0. -1.
    10030    2    1    2    0    0  0.00000000000E+00  0.00000000000E+00  0.49069729436E+02  0.12908517745E+04  0.12899187825E+04 0.  0.
        2    1    3    3  502    0  0.41734369487E+02 -0.32421668308E+03  0.58091757901E+03  0.66657591375E+03  0.25500000920E-02 0.  1.
       -2    1    3    3    0  502 -0.41734369487E+02  0.32421668308E+03 -0.53184784957E+03  0.62427586073E+03  0.25500000920E-02 0. -1.
</event>
<event>
 5   0  0.4012375E-04  0.1299921E+04  0.7818609E-02  0.9029627E-01
        4   -1    0    0  501    0  0.00000000000E+00  0.00000000000E+00  0.84871291832E+03  0.84871386853E+03  0.12699999809E+01 0. -1.
       -4   -1    0    0    0  501  0.00000000000E+00  0.00000000000E+00 -0.49775045665E+03  0.49775207684E+03  0.12699999809E+01 0.  1.
    10030    2    1    2    0    0  0.00000000000E+00  0.00000000000E+00  0.35096246167E+03  0.13464659454E+04  0.12999214948E+04 0.  0.
        3    1    3    3  502    0 -0.11412102006E+03  0.56008765875E+03  0.49595748751E+03  0.75676656396E+03  0.10100000352E+00 0. -1.
       -3    1    3    3    0  502  0.11412102006E+03 -0.56008765875E+03 -0.14499502584E+03  0.58969938140E+03  0.10100000352E+00 0.  1.
</event>
<event>
 5   0  0.5710383E-04  0.1300125E+04  0.7818609E-02  0.9029466E-01
        1   -1    0    0  501    0  0.00000000000E+00  0.00000000000E+00  0.10180122317E+04  0.10180122317E+04  0.50400001928E-02 0.  1.
       -1   -1    0    0    0  501  0.00000000000E+00  0.00000000000E+00 -0.41510409131E+03  0.41510409134E+03  0.50400001928E-02 0. -1.
    10030    2    1    2    0    0  0.00000000000E+00  0.00000000000E+00  0.60290814039E+03  0.14331163230E+04  0.13001246747E+04 0.  0.
        1    1    3    3  502    0  0.12977497978E+03  0.18815499039E+03 -0.36934910439E+03  0.43435308993E+03  0.50400001928E-02 0. -1.
       -1    1    3    3    0  502 -0.12977497978E+03 -0.18815499039E+03  0.97225724478E+03  0.99876323312E+03  0.50400001928E-02 0.  1.
</event>
<event>
 5   0  0.5563545E-04  0.1305250E+04  0.7818609E-02  0.9025413E-01
        1   -1    0    0  501    0  0.00000000000E+00  0.00000000000E+00  0.54452044290E+03  0.54452044292E+03  0.50400001928E-02 0. -1.
       -1   -1    0    0    0  501  0.00000000000E+00  0.00000000000E+00 -0.78219126431E+03  0.78219126433E+03  0.50400001928E-02 0.  1.
    10030    2    1    2    0    0  0.00000000000E+00  0.00000000000E+00 -0.23767082142E+03  0.13267117073E+04  0.13052496063E+04 0.  0.
        2    1    3    3  502    0  0.61208838223E+03  0.13057837656E+03  0.69182443445E+02  0.62967381284E+03  0.25500000920E-02 0. -1.
       -2    1    3    3    0  502 -0.61208838223E+03 -0.13057837656E+03 -0.30685326486E+03  0.69703789441E+03  0.25500000920E-02 0.  1.
</event>
<event>
 5   0  0.1101619E-03  0.1301911E+04  0.7818609E-02  0.9028051E-01
        2   -1    0    0  501    0  0.00000000000E+00  0.00000000000E+00  0.30343068878E+03  0.30343068879E+03  0.25500000920E-02 0. -1.
       -2   -1    0    0    0  501  0.00000000000E+00  0.00000000000E+00 -0.13965060673E+04  0.13965060673E+04  0.25500000920E-02 0.  1.
    10030    2    1    2    0    0  0.00000000000E+00  0.00000000000E+00 -0.10930753785E+04  0.16999367561E+04  0.13019105928E+04 0.  0.
        1    1    3    3  502    0  0.48844167017E+03 -0.15649723550E+02 -0.11080336306E+04  0.12110155678E+04  0.50400001928E-02 0.  1.
       -1    1    3    3    0  502 -0.48844167017E+03  0.15649723550E+02  0.14958252063E+02  0.48892118827E+03  0.50400001928E-02 0. -1.
</event>
<event>
 5   0  0.1101619E-03  0.1297966E+04  0.7818609E-02  0.9031180E-01
       -2   -1    0    0    0  501  0.00000000000E+00  0.00000000000E+00  0.26408331203E+03  0.26408331204E+03  0.25500000920E-02 0. -1.
        2   -1    0    0  501    0  0.00000000000E+00  0.00000000000E+00 -0.15948720011E+04  0.15948720011E+04  0.25500000920E-02 0.  1.
    10030    2    1    2    0    0  0.00000000000E+00  0.00000000000E+00 -0.13307886890E+04  0.18589553131E+04  0.12979662250E+04 0.  0.
        1    1    3    3  502    0 -0.56413994960E+03  0.18679384882E+03 -0.10389593494E+04  0.11969053239E+04  0.50400001928E-02 0.  1.
       -1    1    3    3    0  502  0.56413994960E+03 -0.18679384882E+03 -0.29182933965E+03  0.66204998920E+03  0.50400001928E-02 0. -1.
</event>
<event>
 5   0  0.4012375E-04  0.1306771E+04  0.7818609E-02  0.9024213E-01
       -3   -1    0    0    0  501  0.00000000000E+00  0.00000000000E+00  0.65781603786E+03  0.65781604561E+03  0.10100000352E+00 0. -1.
        3   -1    0    0  501    0  0.00000000000E+00  0.00000000000E+00 -0.64898493723E+03  0.64898494508E+03  0.10100000352E+00 0.  1.
    10030    2    1    2    0    0  0.00000000000E+00  0.00000000000E+00  0.88311006326E+01  0.13068009907E+04  0.13067711509E+04 0.  0.
        2    1    3    3  502    0 -0.37964306331E+03 -0.45416398828E+03  0.28104241285E+03  0.65526988455E+03  0.25500000920E-02 0. -1.
       -2    1    3    3    0  502  0.37964306331E+03  0.45416398828E+03 -0.27221131222E+03  0.65153110615E+03  0.25500000920E-02 0.  1.
</event>
<event>
 5   0  0.6006119E-04  0.1296801E+04  0.7818609E-02  0.9032106E-01
       -1   -1    0    0    0  501  0.00000000000E+00  0.00000000000E+00  0.39436828512E+03  0.39436828515E+03  0.50400001928E-02 0. -1.
        1   -1    0    0  501    0  0.00000000000E+00  0.00000000000E+00 -0.10660672362E+04  0.10660672362E+04  0.50400001928E-02 0.  1.
    10030    2    1    2    0    0  0.00000000000E+00  0.00000000000E+00 -0.67169895104E+03  0.14604355213E+04  0.12968008448E+04 0.  0.
        4    1    3    3  502    0 -0.31410097950E+03  0.54691920454E+03 -0.50530715391E+03  0.80815652835E+03  0.12699999809E+01 0.  1.
       -4    1    3    3    0  502  0.31410097950E+03 -0.54691920454E+03 -0.16639179712E+03  0.65227899297E+03  0.12699999809E+01 0. -1.
</event>
<event>
 5   0  0.1081574E-03  0.1301460E+04  0.7818609E-02  0.9028408E-01
       -2   -1    0    0    0  501  0.00000000000E+00  0.00000000000E+00  0.28587795132E+03  0.28587795133E+03  0.25500000920E-02 0.  1.
        2   -1    0    0  501    0  0.00000000000E+00  0.00000000000E+00 -0.14812249139E+04  0.14812249139E+04  0.25500000920E-02 0. -1.
    10030    2    1    2    0    0  0.00000000000E+00  0.00000000000E+00 -0.11953469626E+04  0.17671028653E+04  0.13014600168E+04 0.  0.
        5    1    3    3  502    0 -0.23737010790E+03 -0.16631616959E+02 -0.14200096251E+04  0.14398161703E+04  0.46999998093E+01 0. -1.
       -5    1    3    3    0  502  0.23737010790E+03  0.16631616959E+02  0.22466266248E+03  0.32728669499E+03  0.46999998093E+01 0.  1.
</event>
<event>
 5   0  0.5812938E-04  0.1291084E+04  0.7818609E-02  0.9036666E-01
        1   -1    0    0  501    0  0.00000000000E+00  0.00000000000E+00  0.71069350304E+03  0.71069350305E+03  0.50400001928E-02 0.  1.
       -1   -1    0    0    0  501  0.00000000000E+00  0.00000000000E+00 -0.58636316355E+03  0.58636316357E+03  0.50400001928E-02 0. -1.
    10030    2    1    2    0    0  0.00000000000E+00  0.00000000000E+00  0.12433033949E+03  0.12970566666E+04  0.12910840264E+04 0.  0.
        5    1    3    3  502    0 -0.12427585937E+03  0.19449694761E+03 -0.54347425959E+03  0.59047431162E+03  0.46999998093E+01 0. -1.
       -5    1    3    3    0  502  0.12427585937E+03 -0.19449694761E+03  0.66780459908E+03  0.70658235500E+03  0.46999998093E+01 0.  1.
</event>
<event>
 5   0  0.5563545E-04  0.1264106E+04  0.7818609E-02  0.9058524E-01
       -1   -1    0    0    0  501  0.00000000000E+00  0.00000000000E+00  0.48407380232E+03  0.48407380235E+03  0.50400001928E-02 0. -1.
        1   -1    0    0  501    0  0.00000000000E+00  0.00000000000E+00 -0.82526918145E+03  0.82526918147E+03  0.50400001928E-02 0.  1.
    10030    2    1    2    0    0  0.00000000000E+00  0.00000000000E+00 -0.34119537913E+03  0.13093429838E+04  0.12641063098E+04 0.  0.
        2    1    3    3  502    0  0.15721606911E+03 -0.81303793171E+02  0.45788089130E+03  0.49089928682E+03  0.25500000920E-02 0. -1.
       -2    1    3    3    0  502 -0.15721606911E+03  0.81303793171E+02 -0.79907627044E+03  0.81844369699E+03  0.25500000920E-02 0.  1.
</event>
<event>
 5   0  0.1081574E-03  0.1301476E+04  0.7818609E-02  0.9028396E-01
        2   -1    0    0  501    0  0.00000000000E+00  0.00000000000E+00  0.29424235122E+03  0.29424235123E+03  0.25500000920E-02 0. -1.
       -2   -1    0    0    0  501  0.00000000000E+00  0.00000000000E+00 -0.14391534710E+04  0.14391534710E+04  0.25500000920E-02 0.  1.
    10030    2    1    2    0    0  0.00000000000E+00  0.00000000000E+00 -0.11449111198E+04  0.17333958223E+04  0.13014759331E+04 0.  0.
        5    1    3    3  502    0  0.28395615703E+03 -0.48237869441E+03 -0.13048861465E+03  0.57477793319E+03  0.46999998093E+01 0. -1.
       -5    1    3    3    0  502 -0.28395615703E+03  0.48237869441E+03 -0.10144225052E+04  0.11586178891E+04  0.46999998093E+01 0.  1.
</event>
<event>
 5   0  0.1101619E-03  0.1295893E+04  0.7818609E-02  0.9032828E-01
       -2   -1    0    0    0  501  0.00000000000E+00  0.00000000000E+00  0.78908585655E+03  0.78908585655E+03  0.25500000920E-02 0.  1.
        2   -1    0    0  501    0  0.00000000000E+00  0.00000000000E+00 -0.53205186902E+03  0.53205186902E+03  0.25500000920E-02 0. -1.
    10030    2    1    2    0    0  0.00000000000E+00  0.00000000000E+00  0.25703398753E+03  0.13211377256E+04  0.12958929042E+04 0.  0.
        1    1    3    3  502    0  0.15151712911E+03 -0.59780320104E+03 -0.74122567970E+02  0.62114431713E+03  0.50400001928E-02 0. -1.
       -1    1    3    3    0  502 -0.15151712911E+03  0.59780320104E+03  0.33115655550E+03  0.69999340844E+03  0.50400001928E-02 0.  1.
</event>
<event>
 5   0  0.5563545E-04  0.1303409E+04  0.7818609E-02  0.9026866E-01
        1   -1    0    0  501    0  0.00000000000E+00  0.00000000000E+00  0.13527570704E+04  0.13527570704E+04  0.50400001928E-02 0. -1.
       -1   -1    0    0    0  501  0.00000000000E+00  0.00000000000E+00 -0.31396532437E+03  0.31396532441E+03  0.50400001928E-02 0.  1.
    10030    2    1    2    0    0  0.00000000000E+00  0.00000000000E+00  0.10387917461E+04  0.16667223949E+04  0.13034090877E+04 0.  0.
        2    1    3    3  502    0 -0.31831289130E+03  0.21734399766E+03 -0.15259100405E+03  0.41454254861E+03  0.25500000920E-02 0.  1.
       -2    1    3    3    0  502  0.31831289130E+03 -0.21734399766E+03  0.11913827501E+04  0.12521798462E+04  0.25500000920E-02 0. -1.
</event>
<event>
 5   0  0.5812938E-04  0.1299834E+04  0.7818609E-02  0.9029697E-01
        1   -1    0    0  501    0  0.00000000000E+00  0.00000000000E+00  0.43281703507E+03  0.43281703510E+03  0.50400001928E-02 0. -1.
       -1   -1    0    0    0  501  0.00000000000E+00  0.00000000000E+00 -0.97591385216E+03  0.97591385218E+03  0.50400001928E-02 0.  1.
    10030    2    1    2    0    0  0.00000000000E+00  0.00000000000E+00 -0.54309681709E+03  0.14087308873E+04  0.12998340510E+04 0.  0.
        5    1    3    3  502    0 -0.46984316987E+03  0.95874530409E+02  0.20386503870E+03  0.52108307769E+03  0.46999998093E+01 0.  1.
       -5    1    3    3    0  502  0.46984316987E+03 -0.95874530409E+02 -0.74696185579E+03  0.88764780958E+03  0.46999998093E+01 0. -1.
</event>
<event>
 5   0  0.5766027E-04  0.1303140E+04  0.7818609E-02  0.9027079E-01
        1   -1    0    0  501    0  0.00000000000E+00  0.00000000000E+00  0.11494779606E+04  0.11494779606E+04  0.50400001928E-02 0.  1.
       -1   -1    0    0    0  501  0.00000000000E+00  0.00000000000E+00 -0.36933586883E+03  0.36933586887E+03  0.50400001928E-02 0. -1.
    10030    2    1    2    0    0  0.00000000000E+00  0.00000000000E+00  0.78014209174E+03  0.15188138295E+04  0.13031399638E+04 0.  0.
        3    1    3    3  502    0 -0.14115838609E+03 -0.60213750717E+03  0.62906504474E+03  0.88216671226E+03  0.10100000352E+00 0.  1.
       -3    1    3    3    0  502  0.14115838609E+03  0.60213750717E+03  0.15107704700E+03  0.63664711719E+03  0.10100000352E+00 0. -1.
</event>
<event>
 5   0  0.5766027E-04  0.1295362E+04  0.7818609E-02  0.9033252E-01
        1   -1    0    0  501    0  0.00000000000E+00  0.00000000000E+00  0.89275844062E+03  0.89275844063E+03  0.50400001928E-02 0. -1.
       -1   -1    0    0    0  501  0.00000000000E+00  0.00000000000E+00 -0.46988125182E+03  0.46988125185E+03  0.50400001928E-02 0.  1.
    10030    2    1    2    0    0  0.00000000000E+00  0.00000000000E+00  0.42287718879E+03  0.13626396925E+04  0.12953616540E+04 0.  0.
        3    1    3    3  502    0 -0.10268256050E+03 -0.23039143799E+03  0.83896725349E+03  0.87606505784E+03  0.10100000352E+00 0. -1.
       -3    1    3    3    0  502  0.10268256050E+03  0.23039143799E+03 -0.41609006470E+03  0.48657463464E+03  0.10100000352E+00 0.  1.
</event>
<event>
 5   0  0.5812938E-04  0.1304884E+04  0.7818609E-02  0.9025701E-01
       -1   -1    0    0    0  501  0.00000000000E+00  0.00000000000E+00  0.56659158093E+03  0.56659158095E+03  0.50400001928E-02 0. -1.
        1   -1    0    0  501    0  0.00000000000E+00  0.00000000000E+00 -0.75130064109E+03  0.75130064110E+03  0.50400001928E-02 0.  1.
    10030    2    1    2    0    0  0.00000000000E+00  0.00000000000E+00 -0.18470906016E+03  0.13178922221E+04  0.13048840838E+04 0.  0.
        5    1    3    3  502    0  0.36367088418E+03 -0.54001731490E+03 -0.49704232241E+02  0.65296846255E+03  0.46999998093E+01 0. -1.
       -5    1    3    3    0  502 -0.36367088418E+03  0.54001731490E+03 -0.13500482791E+03  0.66492375950E+03  0.46999998093E+01 0.  1.
</event>
<event>
 5   0  0.6006119E-04  0.1299812E+04  0.7818609E-02  0.9029714E-01
        1   -1    0    0  501    0  0.00000000000E+00  0.00000000000E+00  0.68463046379E+03  0.68463046381E+03  0.50400001928E-02 0. -1.
       -1   -1    0    0    0  501  0.00000000000E+00  0.00000000000E+00 -0.61694279909E+03  0.61694279911E+03  0.50400001928E-02 0.  1.
    10030    2    1    2    0    0  0.00000000000E+00  0.00000000000E+00  0.67687664695E+02  0.13015732629E+04  0.12998120398E+04 0.  0.
        4    1    3    3  502    0 -0.51074432993E+03 -0.21874445283E+03  0.37144649649E+03  0.66834348867E+03  0.12699999809E+01 0. -1.
       -4    1    3    3    0  502  0.51074432993E+03  0.21874445283E+03 -0.30375883180E+03  0.63322977425E+03  0.12699999809E+01 0.  1.
</event>
<event>
 5   0  0.5812938E-04  0.1301382E+04  0.7818609E-02  0.9028470E-01
        1   -1    0    0  501    0  0.00000000000E+00  0.00000000000E+00  0.58135386249E+03  0.58135386251E+03  0.50400001928E-02 0. -1.
       -1   -1    0    0    0  501  0.00000000000E+00  0.00000000000E+00 -0.72829831315E+03  0.72829831317E+03  0.50400001928E-02 0.  1.
    10030    2    1    2    0    0  0.00000000000E+00  0.00000000000E+00 -0.14694445067E+03  0.13096521757E+04  0.13013823995E+04 0.  0.
        5    1    3    3  502    0  0.36475462511E+03  0.46204184770E+03 -0.35244915519E+03  0.68612761390E+03  0.46999998093E+01 0. -1.
       -5    1    3    3    0  502 -0.36475462511E+03 -0.46204184770E+03  0.20550470453E+03  0.62352456178E+03  0.46999998093E+01 0.  1.
</event>
<event>
 5   0  0.1103241E-03  0.1317882E+04  0.7818609E-02  0.9015503E-01
       -2   -1    0    0    0  501  0.00000000000E+00  0.00000000000E+00  0.23519693644E+03  0.23519693645E+03  0.25500000920E-02 0.  1.
        2   -1    0    0  501    0  0.00000000000E+00  0.00000000000E+00 -0.18461273320E+04  0.18461273320E+04  0.25500000920E-02 0. -1.
    10030    2    1    2    0    0  0.00000000000E+00  0.00000000000E+00 -0.16109303956E+04  0.20813242684E+04  0.13178823814E+04 0.  0.
        4    1    3    3  502    0  0.36104088240E+02 -0.62915392073E+03 -0.11095100059E+04  0.12759906846E+04  0.12699999809E+01 0. -1.
       -4    1    3    3    0  502 -0.36104088240E+02  0.62915392073E+03 -0.50142038963E+03  0.80533358380E+03  0.12699999809E+01 0.  1.
</event>
<event>
 5   0  0.5766027E-04  0.1294807E+04  0.7818609E-02  0.9033694E-01
        1   -1    0    0  501    0  0.00000000000E+00  0.00000000000E+00  0.33873377516E+03  0.33873377520E+03  0.50400001928E-02 0. -1.
       -1   -1    0    0    0  501  0.00000000000E+00  0.00000000000E+00 -0.12373466818E+04  0.12373466818E+04  0.50400001928E-02 0.  1.
    10030    2    1    2    0    0  0.00000000000E+00  0.00000000000E+00 -0.89861290666E+03  0.15760804570E+04  0.12948067234E+04 0.  0.
        3    1    3    3  502    0 -0.18464512300E+03 -0.26183386945E+03  0.23546679071E+03  0.39761214314E+03  0.10100000352E+00 0. -1.
       -3    1    3    3    0  502  0.18464512300E+03  0.26183386945E+03 -0.11340796974E+04  0.11784683139E+04  0.10100000352E+00 0.  1.
</event>
<event>
 5   0  0.1046253E-03  0.1297641E+04  0.7818609E-02  0.9031438E-01
        2   -1    0    0  501    0  0.00000000000E+00  0.00000000000E+00  0.49305627990E+03  0.49305627991E+03  0.25500000920E-02 0. -1.
       -2   -1    0    0    0  501  0.00000000000E+00  0.00000000000E+00 -0.85379365010E+03  0.85379365011E+03  0.25500000920E-02 0.  1.
    10030    2    1    2    0    0  0.00000000000E+00  0.00000000000E+00 -0.36073737020E+03  0.13468499300E+04  0.12976414311E+04 0.  0.
        3    1    3    3  502    0  0.45981543617E+03  0.21216394217E+03  0.24062913150E+03  0.56066582099E+03  0.10100000352E+00 0. -1.
       -3    1    3    3    0  502 -0.45981543617E+03 -0.21216394217E+03 -0.60136650171E+03  0.78618410902E+03  0.10100000352E+00 0.  1.
</event>
<event>
 5   0  0.1046253E-03  0.1311810E+04  0.7818609E-02  0.9020252E-01
       -2   -1    0    0    0  501  0.00000000000E+00  0.00000000000E+00  0.38562613170E+03  0.38562613171E+03  0.25500000920E-02 0. -1.
        2   -1    0    0  501    0  0.00000000000E+00  0.00000000000E+00 -0.11156172335E+04  0.11156172335E+04  0.25500000920E-02 0.  1.
    10030    2    1    2    0    0  0.00000000000E+00  0.00000000000E+00 -0.72999110178E+03  0.15012433652E+04  0.13118096786E+04 0.  0.
        3    1    3    3  502    0  0.25955046121E+03 -0.63617910976E+02 -0.10504915979E+04  0.10839493936E+04  0.10100000352E+00 0.  1.
       -3    1    3    3    0  502 -0.25955046121E+03  0.63617910976E+02  0.32050049610E+03  0.41729397158E+03  0.10100000352E+00 0. -1.
</event>
<event>
 5   0  0.4012375E-04  0.1301494E+04  0.7818609E-02  0.9028381E-01
        4   -1    0    0  501    0  0.00000000000E+00  0.00000000000E+00  0.44765997721E+03  0.44766177869E+03  0.12699999809E+01 0. -1.
       -4   -1    0    0    0  501  0.00000000000E+00  0.00000000000E+00 -0.94596314377E+03  0.94596399629E+03  0.12699999809E+01 0.  1.
    10030    2    1    2    0    0  0.00000000000E+00  0.00000000000E+00 -0.49830316656E+03  0.13936257750E+04  0.13014940472E+04 0.  0.
        5    1    3    3  502    0  0.18025452597E+02 -0.13306448283E+03  0.43264650418E+03  0.45302997816E+03  0.46999998093E+01 0. -1.
       -5    1    3    3    0  502 -0.18025452597E+02  0.13306448283E+03 -0.93094967074E+03  0.94059579682E+03  0.46999998093E+01 0.  1.
</event>
<event>
 5   0  0.1081574E-03  0.1326463E+04  0.7818609E-02  0.9008839E-01
        2   -1    0    0  501    0  0.00000000000E+00  0.00000000000E+00  0.70003882160E+03  0.70003882160E+03  0.25500000920E-02 0. -1.
       -2   -1    0    0    0  501  0.00000000000E+00  0.00000000000E+00 -0.62835970319E+03  0.62835970320E+03  0.25500000920E-02 0.  1.
    10030    2    1    2    0    0  0.00000000000E+00  0.00000000000E+00  0.71679118404E+02  0.13283985248E+04  0.13264632466E+04 0.  0.
        5    1    3    3  502    0 -0.34745283072E+03  0.45606253875E+03  0.36969898782E+03  0.68221399899E+03  0.46999998093E+01 0. -1.
       -5    1    3    3    0  502  0.34745283072E+03 -0.45606253875E+03 -0.29801986942E+03  0.64618452581E+03  0.46999998093E+01 0.  1.
</event>
<event>
 5   0  0.5812938E-04  0.1304708E+04  0.7818609E-02  0.9025840E-01
        1   -1    0    0  501    0  0.00000000000E+00  0.00000000000E+00  0.53369302243E+03  0.53369302246E+03  0.50400001928E-02 0.  1.
       -1   -1    0    0    0  501  0.00000000000E+00  0.00000000000E+00 -0.79739810911E+03  0.79739810913E+03  0.50400001928E-02 0. -1.
    10030    2    1    2    0    0  0.00000000000E+00  0.00000000000E+00 -0.26370508668E+03  0.13310911316E+04  0.13047081006E+04 0.  0.
        5    1    3    3  502    0  0.27905110634E+03  0.55334909954E+03 -0.33963478072E+03  0.70670971422E+03  0.46999998093E+01 0. -1.
       -5    1    3    3    0  502 -0.27905110634E+03 -0.55334909954E+03  0.75929694044E+02  0.62438141736E+03  0.46999998093E+01 0.  1.
</event>
<event>
 5   0  0.5563545E-04  0.1292179E+04  0.7818609E-02  0.9035790E-01
        1   -1    0    0  501    0  0.00000000000E+00  0.00000000000E+00  0.10844567684E+04  0.10844567685E+04  0.50400001928E-02 0. -1.
       -1   -1    0    0    0  501  0.00000000000E+00  0.00000000000E+00 -0.38492256012E+03  0.38492256015E+03  0.50400001928E-02 0.  1.
    10030    2    1    2    0    0  0.00000000000E+00  0.00000000000E+00  0.69953420832E+03  0.14693793286E+04  0.12921793617E+04 0.  0.
        2    1    3    3  502    0 -0.40590373472E+03 -0.40834685942E+03  0.16436156206E+02  0.57599925928E+03  0.25500000920E-02 0.  1.
       -2    1    3    3    0  502  0.40590373472E+03  0.40834685942E+03  0.68309805212E+03  0.89338006933E+03  0.25500000920E-02 0. -1.
</event>
<event>
 5   0  0.1081574E-03  0.1313595E+04  0.7818609E-02  0.9018853E-01
       -2   -1    0    0    0  501  0.00000000000E+00  0.00000000000E+00  0.63426432626E+03  0.63426432626E+03  0.25500000920E-02 0. -1.
        2   -1    0    0  501    0  0.00000000000E+00  0.00000000000E+00 -0.68013159842E+03  0.68013159842E+03  0.25500000920E-02 0.  1.
    10030    2    1    2    0    0  0.00000000000E+00  0.00000000000E+00 -0.45867272162E+02  0.13143959247E+04  0.13135953868E+04 0.  0.
        5    1    3    3  502    0 -0.32088965735E+03 -0.44574381362E+03  0.33742942756E+03  0.64462270218E+03  0.46999998093E+01 0. -1.
       -5    1    3    3    0  502  0.32088965735E+03  0.44574381362E+03 -0.38329669972E+03  0.66977322251E+03  0.46999998093E+01 0.  1.
</event>
<event>
 5   0  0.1101619E-03  0.1300320E+04  0.7818609E-02  0.9029311E-01
        2   -1    0    0  501    0  0.00000000000E+00  0.00000000000E+00  0.27217739235E+03  0.27217739236E+03  0.25500000920E-02 0. -1.
       -2   -1    0    0    0  501  0.00000000000E+00  0.00000000000E+00 -0.15530606218E+04  0.15530606218E+04  0.25500000920E-02 0.  1.
    10030    2    1    2    0    0  0.00000000000E+00  0.00000000000E+00 -0.12808832295E+04  0.18252380142E+04  0.13003199456E+04 0.  0.
        1    1    3    3  502    0  0.10831093884E+03  0.59526834032E+03 -0.97448394940E+03  0.11470373246E+04  0.50400001928E-02 0.  1.
       -1    1    3    3    0  502 -0.10831093884E+03 -0.59526834032E+03 -0.30639928009E+03  0.67820068956E+03  0.50400001928E-02 0. -1.
</event>
<event>
 5   0  0.5563545E-04  0.1309106E+04  0.7818609E-02  0.9022375E-01
        1   -1    0    0  501    0  0.00000000000E+00  0.00000000000E+00  0.10834991300E+04  0.10834991300E+04  0.50400001928E-02 0. -1.
       -1   -1    0    0    0  501  0.00000000000E+00  0.00000000000E+00 -0.39542247335E+03  0.39542247338E+03  0.50400001928E-02 0.  1.
    10030    2    1    2    0    0  0.00000000000E+00  0.00000000000E+00  0.68807665665E+03  0.14789216034E+04  0.13091064218E+04 0.  0.
        2    1    3    3  502    0 -0.21983736529E+03 -0.14025804733E+03 -0.33420598218E+03  0.42390379280E+03  0.25500000920E-02 0.  1.
       -2    1    3    3    0  502  0.21983736529E+03  0.14025804733E+03  0.10222826388E+04  0.10550178106E+04  0.25500000920E-02 0. -1.
</event>
<event>
 5   0  0.1101619E-03  0.1300274E+04  0.7818609E-02  0.9029348E-01
        2   -1    0    0  501    0  0.00000000000E+00  0.00000000000E+00  0.42827171095E+03  0.42827171095E+03  0.25500000920E-02 0.  1.
       -2   -1    0    0    0  501  0.00000000000E+00  0.00000000000E+00 -0.98693930064E+03  0.98693930064E+03  0.25500000920E-02 0. -1.
    10030    2    1    2    0    0  0.00000000000E+00  0.00000000000E+00 -0.55866758969E+03  0.14152110116E+04  0.13002740986E+04 0.  0.
        1    1    3    3  502    0 -0.51858371847E+02  0.33645418451E+03 -0.88217801205E+03  0.94558381647E+03  0.50400001928E-02 0. -1.
       -1    1    3    3    0  502  0.51858371847E+02 -0.33645418451E+03  0.32351042235E+03  0.46962719513E+03  0.50400001928E-02 0.  1.
</event>
<event>
 5   0  0.6006119E-04  0.1264974E+04  0.7818609E-02  0.9057812E-01
        1   -1    0    0  501    0  0.00000000000E+00  0.00000000000E+00  0.14324143736E+04  0.14324143736E+04  0.50400001928E-02 0.  1.
       -1   -1    0    0    0  501  0.00000000000E+00  0.00000000000E+00 -0.27927670193E+03  0.27927670198E+03  0.50400001928E-02 0. -1.
    10030    2    1    2    0    0  0.00000000000E+00  0.00000000000E+00  0.11531376716E+04  0.17116910756E+04  0.12649742481E+04 0.  0.
        4    1    3    3  502    0  0.57927780828E+03  0.21440451499E+03  0.39249028113E+03  0.73183489183E+03  0.12699999809E+01 0. -1.
       -4    1    3    3    0  502 -0.57927780828E+03 -0.21440451499E+03  0.76064739050E+03  0.97985618373E+03  0.12699999809E+01 0.  1.
</event>
<event>
 5   0  0.1046253E-03  0.1293944E+04  0.7818609E-02  0.9034382E-01
        2   -1    0    0  501    0  0.00000000000E+00  0.00000000000E+00  0.82205517686E+03  0.82205517687E+03  0.25500000920E-02 0.  1.
       -2   -1    0    0    0  501  0.00000000000E+00  0.00000000000E+00 -0.50917835953E+03  0.50917835954E+03  0.25500000920E-02 0. -1.
    10030    2    1    2    0    0  0.00000000000E+00  0.00000000000E+00  0.31287681733E+03  0.13312335364E+04  0.12939439036E+04 0.  0.
        3    1    3    3  502    0  0.49432491445E+03 -0.21427908564E+03 -0.21207408095E+03  0.57900610843E+03  0.10100000352E+00 0. -1.
       -3    1    3    3    0  502 -0.49432491445E+03  0.21427908564E+03  0.52495089828E+03  0.75222742797E+03  0.10100000352E+00 0.  1.
</event>
<event>
 5   0  0.6006119E-04  0.1292022E+04  0.7818609E-02  0.9035916E-01
        1   -1    0    0  501    0  0.00000000000E+00  0.00000000000E+00  0.12043849915E+04  0.12043849915E+04  0.50400001928E-02 0.  1.
       -1   -1    0    0    0  501  0.00000000000E+00  0.00000000000E+00 -0.34650907883E+03  0.34650907887E+03  0.50400001928E-02 0. -1.
    10030    2    1    2    0    0  0.00000000000E+00  0.00000000000E+00  0.85787591270E+03  0.15508940704E+04  0.12920221887E+04 0.  0.
        4    1    3    3  502    0 -0.15437260818E+03  0.11899026274E+03  0.11682469492E+04  0.11843952601E+04  0.12699999809E+01 0.  1.
       -4    1    3    3    0  502  0.15437260818E+03 -0.11899026274E+03 -0.31037103651E+03  0.36649881035E+03  0.12699999809E+01 0. -1.
</event>
<event>
 5   0  0.1046253E-03  0.1279298E+04  0.7818609E-02  0.9046145E-01
       -2   -1    0    0    0  501  0.00000000000E+00  0.00000000000E+00  0.62784274309E+03  0.62784274310E+03  0.25500000920E-02 0.  1.
        2   -1    0    0  501    0  0.00000000000E+00  0.00000000000E+00 -0.65167705427E+03  0.65167705427E+03  0.25500000920E-02 0. -1.
    10030    2    1    2    0    0  0.00000000000E+00  0.00000000000E+00 -0.23834311175E+02  0.12795197974E+04  0.12792977908E+04 0.  0.
        3    1    3    3  502    0  0.51234811607E+02 -0.18922761515E+03 -0.62088947146E+03  0.65110355722E+03  0.10100000352E+00 0. -1.
       -3    1    3    3    0  502 -0.51234811607E+02  0.18922761515E+03  0.59705516029E+03  0.62841624015E+03  0.10100000352E+00 0.  1.
</event>
<event>
 5   0  0.1103241E-03  0.1300816E+04  0.7818609E-02  0.9028918E-01
        2   -1    0    0  501    0  0.00000000000E+00  0.00000000000E+00  0.24258170871E+04  0.24258170871E+04  0.25500000920E-02 0. -1.
       -2   -1    0    0    0  501  0.00000000000E+00  0.00000000000E+00 -0.17438680815E+03  0.17438680817E+03  0.25500000920E-02 0.  1.
    10030    2    1    2    0    0  0.00000000000E+00  0.00000000000E+00  0.22514302789E+04  0.26002038953E+04  0.13008158963E+04 0.  0.
        4    1    3    3  502    0  0.59115129151E+03 -0.17374370948E+03  0.70937608139E+03  0.93960777125E+03  0.12699999809E+01 0.  1.
       -4    1    3    3    0  502 -0.59115129151E+03  0.17374370948E+03  0.15420541975E+04  0.16605961240E+04  0.12699999809E+01 0. -1.
</event>
<event>
 5   0  0.1031295E-03  0.1318378E+04  0.7818609E-02  0.9015117E-01
        2   -1    0    0  501    0  0.00000000000E+00  0.00000000000E+00  0.15156682485E+04  0.15156682485E+04  0.25500000920E-02 0. -1.
       -2   -1    0    0    0  501  0.00000000000E+00  0.00000000000E+00 -0.28669200876E+03  0.28669200877E+03  0.25500000920E-02 0.  1.
    10030    2    1    2    0    0  0.00000000000E+00  0.00000000000E+00  0.12289762398E+04  0.18023602573E+04  0.13183777528E+04 0.  0.
        2    1    3    3  502    0  0.50650810781E+03  0.39842391774E+03  0.42486971353E+03  0.77188493637E+03  0.25500000920E-02 0.  1.
       -2    1    3    3    0  502 -0.50650810781E+03 -0.39842391774E+03  0.80410652625E+03  0.10304753209E+04  0.25500000920E-02 0. -1.
</event>
<event>
 5   0  0.1031295E-03  0.1220042E+04  0.7818609E-02  0.9095493E-01
       -2   -1    0    0    0  501  0.00000000000E+00  0.00000000000E+00  0.16673433458E+03  0.16673433460E+03  0.25500000920E-02 0. -1.
        2   -1    0    0  501    0  0.00000000000E+00  0.00000000000E+00 -0.22318464788E+04  0.22318464788E+04  0.25500000920E-02 0.  1.
    10030    2    1    2    0    0  0.00000000000E+00  0.00000000000E+00 -0.20651121442E+04  0.23985808134E+04  0.12200417002E+04 0.  0.
        2    1    3    3  502    0 -0.11921447780E+03 -0.34941521184E+03 -0.19872676011E+04  0.20212707885E+04  0.25500000920E-02 0.  1.
       -2    1    3    3    0  502  0.11921447780E+03  0.34941521184E+03 -0.77844543098E+02  0.37731002489E+03  0.25500000920E-02 0. -1.
</event>
<event>
 5   0  0.6006119E-04  0.1294135E+04  0.7818609E-02  0.9034229E-01
       -1   -1    0    0    0  501  0.00000000000E+00  0.00000000000E+00  0.22811596973E+03  0.22811596979E+03  0.50400001928E-02 0. -1.
        1   -1    0    0  501    0  0.00000000000E+00  0.00000000000E+00 -0.18354543770E+04  0.18354543770E+04  0.50400001928E-02 0.  1.
    10030    2    1    2    0    0  0.00000000000E+00  0.00000000000E+00 -0.16073384072E+04  0.20635703468E+04  0.12941351632E+04 0.  0.
        4    1    3    3  502    0  0.35356768227E+03 -0.26426450604E+03 -0.49242196298E+02  0.44415339905E+03  0.12699999809E+01 0. -1.
       -4    1    3    3    0  502 -0.35356768227E+03  0.26426450604E+03 -0.15580962109E+04  0.16194169477E+04  0.12699999809E+01 0.  1.
</event>
<event>
 5   0  0.1031295E-03  0.1298113E+04  0.7818609E-02  0.9031063E-01
        2   -1    0    0  501    0  0.00000000000E+00  0.00000000000E+00  0.52969856175E+03  0.52969856175E+03  0.25500000920E-02 0. -1.
       -2   -1    0    0    0  501  0.00000000000E+00  0.00000000000E+00 -0.79530994783E+03  0.79530994783E+03  0.25500000920E-02 0.  1.
    10030    2    1    2    0    0  0.00000000000E+00  0.00000000000E+00 -0.26561138608E+03  0.13250085096E+04  0.12981133009E+04 0.  0.
        2    1    3    3  502    0  0.16385231442E+03 -0.16254975184E+03 -0.75200812235E+03  0.78662965800E+03  0.25500000920E-02 0.  1.
       -2    1    3    3    0  502 -0.16385231442E+03  0.16254975184E+03  0.48639673627E+03  0.53837885158E+03  0.25500000920E-02 0. -1.
</event>
<event>
 5   0  0.1081574E-03  0.1305375E+04  0.7818609E-02  0.9025313E-01
        2   -1    0    0  501    0  0.00000000000E+00  0.00000000000E+00  0.13244102726E+04  0.13244102726E+04  0.25500000920E-02 0. -1.
       -2   -1    0    0    0  501  0.00000000000E+00  0.00000000000E+00 -0.32165342557E+03  0.32165342558E+03  0.25500000920E-02 0.  1.
    10030    2    1    2    0    0  0.00000000000E+00  0.00000000000E+00  0.10027568470E+04  0.16460636982E+04  0.13053751967E+04 0.  0.
        5    1    3    3  502    0 -0.30783891935E+03 -0.19456963205E+03  0.11843606652E+04  0.12390941923E+04  0.46999998093E+01 0. -1.
       -5    1    3    3    0  502  0.30783891935E+03  0.19456963205E+03 -0.18160381817E+03  0.40696950593E+03  0.46999998093E+01 0.  1.
</event>
<event>
 5   0  0.1081574E-03  0.1300570E+04  0.7818609E-02  0.9029113E-01
       -2   -1    0    0    0  501  0.00000000000E+00  0.00000000000E+00  0.10737152358E+04  0.10737152358E+04  0.25500000920E-02 0.  1.
        2   -1    0    0  501    0  0.00000000000E+00  0.00000000000E+00 -0.39383881536E+03  0.39383881537E+03  0.25500000920E-02 0. -1.
    10030    2    1    2    0    0  0.00000000000E+00  0.00000000000E+00  0.67987642045E+03  0.14675540512E+04  0.13005702388E+04 0.  0.
        5    1    3    3  502    0  0.36418189694E+03 -0.43278361669E+03  0.70193697505E+03  0.90148084831E+03  0.46999998093E+01 0.  1.
       -5    1    3    3    0  502 -0.36418189694E+03  0.43278361669E+03 -0.22060554603E+02  0.56607320287E+03  0.46999998093E+01 0. -1.
</event>
<event>
 5   0  0.1046253E-03  0.1300328E+04  0.7818609E-02  0.9029305E-01
       -2   -1    0    0    0  501  0.00000000000E+00  0.00000000000E+00  0.45215602632E+03  0.45215602633E+03  0.25500000920E-02 0. -1.
        2   -1    0    0  501    0  0.00000000000E+00  0.00000000000E+00 -0.93488373613E+03  0.93488373614E+03  0.25500000920E-02 0.  1.
    10030    2    1    2    0    0  0.00000000000E+00  0.00000000000E+00 -0.48272770981E+03  0.13870397625E+04  0.13003281358E+04 0.  0.
        3    1    3    3  502    0 -0.24848778099E+03  0.31074969106E+03 -0.78985310489E+03  0.88440911647E+03  0.10100000352E+00 0. -1.
       -3    1    3    3    0  502  0.24848778099E+03 -0.31074969106E+03  0.30712539508E+03  0.50263064600E+03  0.10100000352E+00 0.  1.
</event>
<event>
 5   0  0.5812938E-04  0.1302495E+04  0.7818609E-02  0.9027589E-01
        1   -1    0    0  501    0  0.00000000000E+00  0.00000000000E+00  0.63711278559E+03  0.63711278561E+03  0.50400001928E-02 0.  1.
       -1   -1    0    0    0  501  0.00000000000E+00  0.00000000000E+00 -0.66569567419E+03  0.66569567421E+03  0.50400001928E-02 0. -1.
    10030    2    1    2    0    0  0.00000000000E+00  0.00000000000E+00 -0.28582888609E+02  0.13028084598E+04  0.13024948758E+04 0.  0.
        5    1    3    3  502    0  0.69413326462E+02 -0.51427691064E+03 -0.40783525747E+03  0.66003836096E+03  0.46999998093E+01 0. -1.
       -5    1    3    3    0  502 -0.69413326462E+02  0.51427691064E+03  0.37925236886E+03  0.64277009886E+03  0.46999998093E+01 0.  1.
</event>
<event>
 5   0  0.5710383E-04  0.1300676E+04  0.7818609E-02  0.9029030E-01
        1   -1    0    0  501    0  0.00000000000E+00  0.00000000000E+00  0.12838046949E+04  0.12838046949E+04  0.50400001928E-02 0. -1.
       -1   -1    0    0    0  501  0.00000000000E+00  0.00000000000E+00 -0.32944201576E+03  0.32944201580E+03  0.50400001928E-02 0.  1.
    10030    2    1    2    0    0  0.00000000000E+00  0.00000000000E+00  0.95436267916E+03  0.16132467107E+04  0.13006755269E+04 0.  0.
        1    1    3    3  502    0 -0.55760982310E+03 -0.68410471571E+02  0.88352491159E+03  0.10470076298E+04  0.50400001928E-02 0. -1.
       -1    1    3    3    0  502  0.55760982310E+03  0.68410471571E+02  0.70837767567E+02  0.56623908093E+03  0.50400001928E-02 0.  1.
</event>
<event>
 5   0  0.1046253E-03  0.1287962E+04  0.7818609E-02  0.9039166E-01
       -2   -1    0    0    0  501  0.00000000000E+00  0.00000000000E+00  0.35891269637E+03  0.35891269637E+03  0.25500000920E-02 0. -1.
        2   -1    0    0  501    0  0.00000000000E+00  0.00000000000E+00 -0.11554657476E+04  0.11554657477E+04  0.25500000920E-02 0.  1.
    10030    2    1    2    0    0  0.00000000000E+00  0.00000000000E+00 -0.79655305128E+03  0.15143784440E+04  0.12879616874E+04 0.  0.
        3    1    3    3  502    0 -0.41230846350E+03 -0.24870486806E+02  0.18263564796E+03  0.45163325862E+03  0.10100000352E+00 0. -1.
       -3    1    3    3    0  502  0.41230846350E+03  0.24870486806E+02 -0.97918869924E+03  0.10627451854E+04  0.10100000352E+00 0.  1.
</event>
<event>
 5   0  0.5563545E-04  0.1334402E+04  0.7818609E-02  0.9002721E-01
       -1   -1    0    0    0  501  0.00000000000E+00  0.00000000000E+00  0.26221848995E+03  0.26221849000E+03  0.50400001928E-02 0. -1.
        1   -1    0    0  501    0  0.00000000000E+00  0.00000000000E+00 -0.16976567401E+04  0.16976567402E+04  0.50400001928E-02 0.  1.
    10030    2    1    2    0    0  0.00000000000E+00  0.00000000000E+00 -0.14354382502E+04  0.19598752302E+04  0.13344017190E+04 0.  0.
        2    1    3    3  502    0  0.58838636815E+02 -0.60909517350E+03 -0.11082412238E+04  0.12659611075E+04  0.25500000920E-02 0.  1.
       -2    1    3    3    0  502 -0.58838636815E+02  0.60909517350E+03 -0.32719702643E+03  0.69391412269E+03  0.25500000920E-02 0. -1.
</event>
<event>
 5   0  0.1103241E-03  0.1304693E+04  0.7818609E-02  0.9025852E-01
       -2   -1    0    0    0  501  0.00000000000E+00  0.00000000000E+00  0.16523608860E+03  0.16523608862E+03  0.25500000920E-02 0.  1.
        2   -1    0    0  501    0  0.00000000000E+00  0.00000000000E+00 -0.25754422017E+04  0.25754422017E+04  0.25500000920E-02 0. -1.
    10030    2    1    2    0    0  0.00000000000E+00  0.00000000000E+00 -0.24102061131E+04  0.27406782903E+04  0.13046930610E+04 0.  0.
        4    1    3    3  502    0 -0.59090749871E+02  0.48503585140E+03 -0.21130103427E+04  0.21687705768E+04  0.12699999809E+01 0. -1.
       -4    1    3    3    0  502  0.59090749871E+02 -0.48503585140E+03 -0.29719577040E+03  0.57190771346E+03  0.12699999809E+01 0.  1.
</event>
<event>
 5   0  0.4012375E-04  0.1307784E+04  0.7818609E-02  0.9023415E-01
        3   -1    0    0  501    0  0.00000000000E+00  0.00000000000E+00  0.14900363425E+04  0.14900363459E+04  0.10100000352E+00 0. -1.
       -3   -1    0    0    0  501  0.00000000000E+00  0.00000000000E+00 -0.28695597421E+03  0.28695599198E+03  0.10100000352E+00 0.  1.
    10030    2    1    2    0    0  0.00000000000E+00  0.00000000000E+00  0.12030803683E+04  0.17769923379E+04  0.13077841551E+04 0.  0.
        3    1    3    3  502    0 -0.80469688748E+02  0.12693649885E+03  0.14662488418E+04  0.14739314509E+04  0.10100000352E+00 0. -1.
       -3    1    3    3    0  502  0.80469688748E+02 -0.12693649885E+03 -0.26316847356E+03  0.30306088699E+03  0.10100000352E+00 0.  1.
</event>
<event>
 5   0  0.6006119E-04  0.1297507E+04  0.7818609E-02  0.9031545E-01
        1   -1    0    0  501    0  0.00000000000E+00  0.00000000000E+00  0.36667231646E+03  0.36667231650E+03  0.50400001928E-02 0.  1.
       -1   -1    0    0    0  501  0.00000000000E+00  0.00000000000E+00 -0.11478394538E+04  0.11478394538E+04  0.50400001928E-02 0. -1.
    10030    2    1    2    0    0  0.00000000000E+00  0.00000000000E+00 -0.78116713737E+03  0.15145117703E+04  0.12975067653E+04 0.  0.
        4    1    3    3  502    0 -0.52023569000E+03 -0.50937202419E+02  0.57918451028E+02  0.52592388386E+03  0.12699999809E+01 0.  1.
       -4    1    3    3    0  502  0.52023569000E+03  0.50937202419E+02 -0.83908558840E+03  0.98858788648E+03  0.12699999809E+01 0. -1.
</event>
<event>
 5   0  0.1103241E-03  0.1301780E+04  0.7818609E-02  0.9028155E-01
        2   -1    0    0  501    0  0.00000000000E+00  0.00000000000E+00  0.13600498853E+04  0.13600498853E+04  0.25500000920E-02 0. -1.
       -2   -1    0    0    0  501  0.00000000000E+00  0.00000000000E+00 -0.31150169955E+03  0.31150169956E+03  0.25500000920E-02 0.  1.
    10030    2    1    2    0    0  0.00000000000E+00  0.00000000000E+00  0.10485481858E+04  0.16715515849E+04  0.13017800901E+04 0.  0.
        4    1    3    3  502    0 -0.45790787751E+01  0.13827217905E+03  0.13409505775E+04  0.13480690737E+04  0.12699999809E+01 0. -1.
       -4    1    3    3    0  502  0.45790787751E+01 -0.13827217905E+03 -0.29240239169E+03  0.32348251116E+03  0.12699999809E+01 0.  1.
</event>
<event>
 5   0  0.1101619E-03  0.1341796E+04  0.7818609E-02  0.8997062E-01
       -2   -1    0    0    0  501  0.00000000000E+00  0.00000000000E+00  0.43177957061E+03  0.43177957062E+03  0.25500000920E-02 0. -1.
        2   -1    0    0  501    0  0.00000000000E+00  0.00000000000E+00 -0.10424391398E+04  0.10424391398E+04  0.25500000920E-02 0.  1.
    10030    2    1    2    0    0  0.00000000000E+00  0.00000000000E+00 -0.61065956922E+03  0.14742187105E+04  0.13417956986E+04 0.  0.
        1    1    3    3  502    0  0.40206418347E+03 -0.96335702364E+02  0.27517813087E+03  0.49664794262E+03  0.50400001928E-02 0. -1.
       -1    1    3    3    0  502 -0.40206418347E+03  0.96335702364E+02 -0.88583770009E+03  0.97757076783E+03  0.50400001928E-02 0.  1.
</event>
<event>
 5   0  0.1031295E-03  0.1312666E+04  0.7818609E-02  0.9019581E-01
        2   -1    0    0  501    0  0.00000000000E+00  0.00000000000E+00  0.21210202812E+04  0.21210202812E+04  0.25500000920E-02 0.  1.
       -2   -1    0    0    0  501  0.00000000000E+00  0.00000000000E+00 -0.20309700814E+03  0.20309700815E+03  0.25500000920E-02 0. -1.
    10030    2    1    2    0    0  0.00000000000E+00  0.00000000000E+00  0.19179232731E+04  0.23241172894E+04  0.13126657965E+04 0.  0.
        2    1    3    3  502    0  0.55014675105E+03  0.33803535840E+03  0.75064345706E+03  0.99014895387E+03  0.25500000920E-02 0. -1.
       -2    1    3    3    0  502 -0.55014675105E+03 -0.33803535840E+03  0.11672798160E+04  0.13339683355E+04  0.25500000920E-02 0.  1.
</event>
<event>
 5   0  0.5766027E-04  0.1299491E+04  0.7818609E-02  0.9029969E-01
       -1   -1    0    0    0  501  0.00000000000E+00  0.00000000000E+00  0.46908201464E+03  0.46908201467E+03  0.50400001928E-02 0.  1.
        1   -1    0    0  501    0  0.00000000000E+00  0.00000000000E+00 -0.89998964086E+03  0.89998964087E+03  0.50400001928E-02 0. -1.
    10030    2    1    2    0    0  0.00000000000E+00  0.00000000000E+00 -0.43090762622E+03  0.13690716555E+04  0.12994905985E+04 0.  0.
        3    1    3    3  502    0  0.40736782746E+03 -0.26066774917E+03 -0.67259119580E+03  0.82841725548E+03  0.10100000352E+00 0. -1.
       -3    1    3    3    0  502 -0.40736782746E+03  0.26066774917E+03  0.24168356957E+03  0.54065440006E+03  0.10100000352E+00 0.  1.
</event>
<event>
 5   0  0.4012375E-04  0.1306413E+04  0.7818609E-02  0.9024495E-01
        3   -1    0    0  501    0  0.00000000000E+00  0.00000000000E+00  0.40272597932E+03  0.40272599199E+03  0.10100000352E+00 0.  1.
       -3   -1    0    0    0  501  0.00000000000E+00  0.00000000000E+00 -0.10594757773E+04  0.10594757821E+04  0.10100000352E+00 0. -1.
    10030    2    1    2    0    0  0.00000000000E+00  0.00000000000E+00 -0.65674979796E+03  0.14622017741E+04  0.13064125424E+04 0.  0.
        1    1    3    3  502    0  0.40460831270E+03  0.50832454776E+03 -0.25265619079E+03  0.69709173236E+03  0.50400001928E-02 0.  1.
       -1    1    3    3    0  502 -0.40460831270E+03 -0.50832454776E+03 -0.40409360717E+03  0.76511004172E+03  0.50400001928E-02 0. -1.
</event>
<event>
 5   0  0.5710383E-04  0.1299158E+04  0.7818609E-02  0.9030233E-01
       -1   -1    0    0    0  501  0.00000000000E+00  0.00000000000E+00  0.59256839751E+03  0.59256839753E+03  0.50400001928E-02 0.  1.
        1   -1    0    0  501    0  0.00000000000E+00  0.00000000000E+00 -0.71207420765E+03  0.71207420766E+03  0.50400001928E-02 0. -1.
    10030    2    1    2    0    0  0.00000000000E+00  0.00000000000E+00 -0.11950581014E+03  0.13046426052E+04  0.12991576843E+04 0.  0.
        1    1    3    3  502    0 -0.17847441957E+03  0.21947387307E+03  0.52746431731E+03  0.59853195859E+03  0.50400001928E-02 0.  1.
       -1    1    3    3    0  502  0.17847441957E+03 -0.21947387307E+03 -0.64697012745E+03  0.70611064660E+03  0.50400001928E-02 0. -1.
</event>
<event>
 5   0  0.5563545E-04  0.1302520E+04  0.7818609E-02  0.9027569E-01
       -1   -1    0    0    0  501  0.00000000000E+00  0.00000000000E+00  0.35935047742E+03  0.35935047746E+03  0.50400001928E-02 0. -1.
        1   -1    0    0  501    0  0.00000000000E+00  0.00000000000E+00 -0.11802956217E+04  0.11802956217E+04  0.50400001928E-02 0.  1.
    10030    2    1    2    0    0  0.00000000000E+00  0.00000000000E+00 -0.82094514423E+03  0.15396460991E+04  0.13025203187E+04 0.  0.
        2    1    3    3  502    0 -0.38184332825E+03  0.17317187684E+03  0.17859597031E+03  0.45572946676E+03  0.25500000920E-02 0. -1.
       -2    1    3    3    0  502  0.38184332825E+03 -0.17317187684E+03 -0.99954111454E+03  0.10839166324E+04  0.25500000920E-02 0.  1.
</event>
<event>
 5   0  0.1031295E-03  0.1303128E+04  0.7818609E-02  0.9027088E-01
       -2   -1    0    0    0  501  0.00000000000E+00  0.00000000000E+00  0.25193095864E+03  0.25193095865E+03  0.25500000920E-02 0. -1.
        2   -1    0    0  501    0  0.00000000000E+00  0.00000000000E+00 -0.16851280180E+04  0.16851280180E+04  0.25500000920E-02 0.  1.
    10030    2    1    2    0    0  0.00000000000E+00  0.00000000000E+00 -0.14331970594E+04  0.19370589767E+04  0.13031284158E+04 0.  0.
        2    1    3    3  502    0  0.29684550959E+02  0.45716805977E+03 -0.14052876293E+04  0.14780788641E+04  0.25500000920E-02 0.  1.
       -2    1    3    3    0  502 -0.29684550959E+02 -0.45716805977E+03 -0.27909430074E+02  0.45898011256E+03  0.25500000920E-02 0. -1.
</event>
<event>
 5   0  0.1081574E-03  0.1297707E+04  0.7818609E-02  0.9031386E-01
        2   -1    0    0  501    0  0.00000000000E+00  0.00000000000E+00  0.21271571431E+04  0.21271571431E+04  0.25500000920E-02 0. -1.
       -2   -1    0    0    0  501  0.00000000000E+00  0.00000000000E+00 -0.19792172169E+03  0.19792172171E+03  0.25500000920E-02 0.  1.
    10030    2    1    2    0    0  0.00000000000E+00  0.00000000000E+00  0.19292354214E+04  0.23250788648E+04  0.12977065987E+04 0.  0.
        5    1    3    3  502    0  0.27986157030E+03 -0.54397400160E+03  0.13520452937E+04  0.14840076749E+04  0.46999998093E+01 0. -1.
       -5    1    3    3    0  502 -0.27986157030E+03  0.54397400160E+03  0.57719012767E+03  0.84107118987E+03  0.46999998093E+01 0.  1.
</event>
<event>
 5   0  0.5710383E-04  0.1294214E+04  0.7818609E-02  0.9034166E-01
       -1   -1    0    0    0  501  0.00000000000E+00  0.00000000000E+00  0.26103469453E+03  0.26103469458E+03  0.50400001928E-02 0.  1.
        1   -1    0    0  501    0  0.00000000000E+00  0.00000000000E+00 -0.16041828520E+04  0.16041828520E+04  0.50400001928E-02 0. -1.
    10030    2    1    2    0    0  0.00000000000E+00  0.00000000000E+00 -0.13431481575E+04  0.18652175466E+04  0.12942138630E+04 0.  0.
        1    1    3    3  502    0  0.17316991866E+02 -0.30244337824E+03 -0.14956762432E+04  0.15260469521E+04  0.50400001928E-02 0. -1.
       -1    1    3    3    0  502 -0.17316991866E+02  0.30244337824E+03  0.15252808574E+03  0.33917059456E+03  0.50400001928E-02 0.  1.
</event>
<event>
 5   0  0.1101619E-03  0.1296903E+04  0.7818609E-02  0.9032025E-01
        2   -1    0    0  501    0  0.00000000000E+00  0.00000000000E+00  0.97843261981E+03  0.97843261982E+03  0.25500000920E-02 0. -1.
       -2   -1    0    0    0  501  0.00000000000E+00  0.00000000000E+00 -0.42975785108E+03  0.42975785109E+03  0.25500000920E-02 0.  1.
    10030    2    1    2    0    0  0.00000000000E+00  0.00000000000E+00  0.54867476873E+03  0.14081904709E+04  0.12969026180E+04 0.  0.
        1    1    3    3  502    0 -0.21647870932E+03 -0.52352583370E+03  0.61692181411E+03  0.83757677552E+03  0.50400001928E-02 0. -1.
       -1    1    3    3    0  502  0.21647870932E+03  0.52352583370E+03 -0.68247045373E+02  0.57061369539E+03  0.50400001928E-02 0.  1.
</event>
<event>
 5   0  0.5710383E-04  0.1310931E+04  0.7818609E-02  0.9020942E-01
       -1   -1    0    0    0  501  0.00000000000E+00  0.00000000000E+00  0.32176782271E+03  0.32176782275E+03  0.50400001928E-02 0.  1.
        1   -1    0    0  501    0  0.00000000000E+00  0.00000000000E+00 -0.13352324112E+04  0.13352324112E+04  0.50400001928E-02 0. -1.
    10030    2    1    2    0    0  0.00000000000E+00  0.00000000000E+00 -0.10134645885E+04  0.16570002340E+04  0.13109307012E+04 0.  0.
        1    1    3    3  502    0  0.52446123296E+02  0.23475452494E+03  0.26396291518E+03  0.35712281283E+03  0.50400001928E-02 0.  1.
       -1    1    3    3    0  502 -0.52446123296E+02 -0.23475452494E+03 -0.12774275037E+04  0.12998774212E+04  0.50400001928E-02 0. -1.
</event>
<event>
 5   0  0.1081574E-03  0.1316972E+04  0.7818609E-02  0.9016214E-01
        2   -1    0    0  501    0  0.00000000000E+00  0.00000000000E+00  0.16926697355E+04  0.16926697355E+04  0.25500000920E-02 0. -1.
       -2   -1    0    0    0  501  0.00000000000E+00  0.00000000000E+00 -0.25616559239E+03  0.25616559240E+03  0.25500000920E-02 0.  1.
    10030    2    1    2    0    0  0.00000000000E+00  0.00000000000E+00  0.14365041431E+04  0.19488353279E+04  0.13169718988E+04 0.  0.
        5    1    3    3  502    0  0.47742435112E+03  0.25139072875E+03  0.12767613466E+04  0.13860999011E+04  0.46999998093E+01 0. -1.
       -5    1    3    3    0  502 -0.47742435112E+03 -0.25139072875E+03  0.15974279644E+03  0.56273542678E+03  0.46999998093E+01 0.  1.
</event>
<event>
 5   0  0.1101619E-03  0.1299292E+04  0.7818609E-02  0.9030126E-01
       -2   -1    0    0    0  501  0.00000000000E+00  0.00000000000E+00  0.50989241778E+03  0.50989241778E+03  0.25500000920E-02 0. -1.
        2   -1    0    0  501    0  0.00000000000E+00  0.00000000000E+00 -0.82770446594E+03  0.82770446594E+03  0.25500000920E-02 0.  1.
    10030    2    1    2    0    0  0.00000000000E+00  0.00000000000E+00 -0.31781204816E+03  0.13375968837E+04  0.12992924711E+04 0.  0.
        1    1    3    3  502    0  0.45845225115E+03  0.62347669188E+02 -0.62839284457E+03  0.78034816945E+03  0.50400001928E-02 0.  1.
       -1    1    3    3    0  502 -0.45845225115E+03 -0.62347669188E+02  0.31058079641E+03  0.55724871427E+03  0.50400001928E-02 0. -1.
</event>
<event>
 5   0  0.1081574E-03  0.1299070E+04  0.7818609E-02  0.9030303E-01
        2   -1    0    0  501    0  0.00000000000E+00  0.00000000000E+00  0.68188876570E+03  0.68188876571E+03  0.25500000920E-02 0.  1.
       -2   -1    0    0    0  501  0.00000000000E+00  0.00000000000E+00 -0.61871679915E+03  0.61871679915E+03  0.25500000920E-02 0. -1.
    10030    2    1    2    0    0  0.00000000000E+00  0.00000000000E+00  0.63171966559E+02  0.13006055649E+04  0.12990704900E+04 0.  0.
        5    1    3    3  502    0 -0.80830864102E+02 -0.34216730570E+03 -0.51519291398E+03  0.62374507797E+03  0.46999998093E+01 0. -1.
       -5    1    3    3    0  502  0.80830864102E+02  0.34216730570E+03  0.57836488054E+03  0.67686048689E+03  0.46999998093E+01 0.  1.
</event>
<event>
 5   0  0.1081574E-03  0.1303189E+04  0.7818609E-02  0.9027040E-01
       -2   -1    0    0    0  501  0.00000000000E+00  0.00000000000E+00  0.50201327936E+03  0.50201327936E+03  0.25500000920E-02 0. -1.
        2   -1    0    0  501    0  0.00000000000E+00  0.00000000000E+00 -0.84574512541E+03  0.84574512541E+03  0.25500000920E-02 0.  1.
    10030    2    1    2    0    0  0.00000000000E+00  0.00000000000E+00 -0.34373184605E+03  0.13477584048E+04  0.13031888335E+04 0.  0.
        5    1    3    3  502    0  0.47388390918E+01 -0.65112103571E+03 -0.14712854626E+03  0.66757019022E+03  0.46999998093E+01 0.  1.
       -5    1    3    3    0  502 -0.47388390918E+01  0.65112103571E+03 -0.19660329979E+03  0.68018821456E+03  0.46999998093E+01 0. -1.
</event>
<event>
 5   0  0.4012375E-04  0.1329635E+04  0.7818609E-02  0.9006389E-01
       -4   -1    0    0    0  501  0.00000000000E+00  0.00000000000E+00  0.13850848460E+04  0.13850854283E+04  0.12699999809E+01 0.  1.
        4   -1    0    0  501    0  0.00000000000E+00  0.00000000000E+00 -0.31909938099E+03  0.31910190825E+03  0.12699999809E+01 0. -1.
    10030    2    1    2    0    0  0.00000000000E+00  0.00000000000E+00  0.10659854650E+04  0.17041873365E+04  0.13296350876E+04 0.  0.
        5    1    3    3  502    0  0.49641999563E+03  0.38669543612E+03  0.80786817978E+03  0.10240308874E+04  0.46999998093E+01 0.  1.
       -5    1    3    3    0  502 -0.49641999563E+03 -0.38669543612E+03  0.25811728526E+03  0.68015644915E+03  0.46999998093E+01 0. -1.
</event>
<event>
 5   0  0.1046253E-03  0.1296155E+04  0.7818609E-02  0.9032620E-01
        2   -1    0    0  501    0  0.00000000000E+00  0.00000000000E+00  0.15356584791E+04  0.15356584791E+04  0.25500000920E-02 0. -1.
       -2   -1    0    0    0  501  0.00000000000E+00  0.00000000000E+00 -0.27350126680E+03  0.27350126681E+03  0.25500000920E-02 0.  1.
    10030    2    1    2    0    0  0.00000000000E+00  0.00000000000E+00  0.12621572123E+04  0.18091597459E+04  0.12961551441E+04 0.  0.
        3    1    3    3  502    0  0.29322102999E+03  0.39631344801E+03  0.43914558210E+02  0.49494587596E+03  0.10100000352E+00 0.  1.
       -3    1    3    3    0  502 -0.29322102999E+03 -0.39631344801E+03  0.12182426541E+04  0.13142138699E+04  0.10100000352E+00 0. -1.
</event>
<event>
 5   0  0.5563545E-04  0.1297011E+04  0.7818609E-02  0.9031939E-01
       -1   -1    0    0    0  501  0.00000000000E+00  0.00000000000E+00  0.59599230013E+03  0.59599230015E+03  0.50400001928E-02 0.  1.
        1   -1    0    0  501    0  0.00000000000E+00  0.00000000000E+00 -0.70564513206E+03  0.70564513207E+03  0.50400001928E-02 0. -1.
    10030    2    1    2    0    0  0.00000000000E+00  0.00000000000E+00 -0.10965283193E+03  0.13016374322E+04  0.12970105094E+04 0.  0.
        2    1    3    3  502    0 -0.57927785116E+03 -0.29120322464E+03 -0.40743592225E+02  0.64963234772E+03  0.25500000920E-02 0.  1.
       -2    1    3    3    0  502  0.57927785116E+03  0.29120322464E+03 -0.68909239703E+02  0.65200508450E+03  0.25500000920E-02 0. -1.
</event>
<event>
 5   0  0.1103241E-03  0.1288569E+04  0.7818609E-02  0.9038680E-01
        2   -1    0    0  501    0  0.00000000000E+00  0.00000000000E+00  0.14463815628E+04  0.14463815628E+04  0.25500000920E-02 0. -1.
       -2   -1    0    0    0  501  0.00000000000E+00  0.00000000000E+00 -0.28699362214E+03  0.28699362215E+03  0.25500000920E-02 0.  1.
    10030    2    1    2    0    0  0.00000000000E+00  0.00000000000E+00  0.11593879407E+04  0.17333751850E+04  0.12885686380E+04 0.  0.
        4    1    3    3  502    0  0.36433457305E+03  0.37873369495E+03  0.10810776397E+04  0.12020438298E+04  0.12699999809E+01 0. -1.
       -4    1    3    3    0  502 -0.36433457305E+03 -0.37873369495E+03  0.78310300945E+02  0.53133135513E+03  0.12699999809E+01 0.  1.
</event>
<event>
 5   0  0.5766027E-04  0.1317640E+04  0.7818609E-02  0.9015692E-01
        1   -1    0    0  501    0  0.00000000000E+00  0.00000000000E+00  0.54838419246E+03  0.54838419248E+03  0.50400001928E-02 0.  1.
       -1   -1    0    0    0  501  0.00000000000E+00  0.00000000000E+00 -0.79149635144E+03  0.79149635145E+03  0.50400001928E-02 0. -1.
    10030    2    1    2    0    0  0.00000000000E+00  0.00000000000E+00 -0.24311215898E+03  0.13398805439E+04  0.13176404480E+04 0.  0.
        3    1    3    3  502    0  0.61179103274E+03 -0.72973130948E+02 -0.35879790073E+03  0.71298617753E+03  0.10100000352E+00 0. -1.
       -3    1    3    3    0  502 -0.61179103274E+03  0.72973130948E+02  0.11568574176E+03  0.62689436640E+03  0.10100000352E+00 0.  1.
</event>
<event>
 5   0  0.1046253E-03  0.1289902E+04  0.7818609E-02  0.9037611E-01
        2   -1    0    0  501    0  0.00000000000E+00  0.00000000000E+00  0.87033933468E+03  0.87033933468E+03  0.25500000920E-02 0.  1.
       -2   -1    0    0    0  501  0.00000000000E+00  0.00000000000E+00 -0.47793090690E+03  0.47793090690E+03  0.25500000920E-02 0. -1.
    10030    2    1    2    0    0  0.00000000000E+00  0.00000000000E+00  0.39240842778E+03  0.13482702416E+04  0.12899024266E+04 0.  0.
        3    1    3    3  502    0 -0.62844108575E+03  0.14427260990E+03  0.21132508472E+03  0.67853598715E+03  0.10100000352E+00 0.  1.
       -3    1    3    3    0  502  0.62844108575E+03 -0.14427260990E+03  0.18108334306E+03  0.66973425443E+03  0.10100000352E+00 0. -1.
</event>
<event>
 5   0  0.6006119E-04  0.1304910E+04  0.7818609E-02  0.9025680E-01
        1   -1    0    0  501    0  0.00000000000E+00  0.00000000000E+00  0.17792352069E+04  0.17792352069E+04  0.50400001928E-02 0.  1.
       -1   -1    0    0    0  501  0.00000000000E+00  0.00000000000E+00 -0.23925886676E+03  0.23925886681E+03  0.50400001928E-02 0. -1.
    10030    2    1    2    0    0  0.00000000000E+00  0.00000000000E+00  0.15399763402E+04  0.20184940738E+04  0.13049104174E+04 0.  0.
        4    1    3    3  502    0  0.43899129869E+03 -0.40476340680E+03  0.11767507770E+04  0.13195797739E+04  0.12699999809E+01 0.  1.
       -4    1    3    3    0  502 -0.43899129869E+03  0.40476340680E+03  0.36322556321E+03  0.69891429981E+03  0.12699999809E+01 0. -1.
</event>
<event>
 5   0  0.1101619E-03  0.1289277E+04  0.7818609E-02  0.9038112E-01
       -2   -1    0    0    0  501  0.00000000000E+00  0.00000000000E+00  0.18175826363E+03  0.18175826365E+03  0.25500000920E-02 0.  1.
        2   -1    0    0  501    0  0.00000000000E+00  0.00000000000E+00 -0.22863278112E+04  0.22863278112E+04  0.25500000920E-02 0. -1.
    10030    2    1    2    0    0  0.00000000000E+00  0.00000000000E+00 -0.21045695476E+04  0.24680860749E+04  0.12892772752E+04 0.  0.
        1    1    3    3  502    0  0.37137482161E+03 -0.39713703618E+03 -0.38936159366E+03  0.66875969845E+03  0.50400001928E-02 0. -1.
       -1    1    3    3    0  502 -0.37137482161E+03  0.39713703618E+03 -0.17152079539E+04  0.17993263764E+04  0.50400001928E-02 0.  1.
</event>
<event>
 5   0  0.5812938E-04  0.1294800E+04  0.7818609E-02  0.9033699E-01
        1   -1    0    0  501    0  0.00000000000E+00  0.00000000000E+00  0.44685859713E+03  0.44685859716E+03  0.50400001928E-02 0. -1.
       -1   -1    0    0    0  501  0.00000000000E+00  0.00000000000E+00 -0.93794042533E+03  0.93794042535E+03  0.50400001928E-02 0.  1.
    10030    2    1    2    0    0  0.00000000000E+00  0.00000000000E+00 -0.49108182820E+03  0.13847990225E+04  0.12947999733E+04 0.  0.
        5    1    3    3  502    0  0.10848758333E+03 -0.76799958376E+01 -0.92808158813E+03  0.93444425318E+03  0.46999998093E+01 0.  1.
       -5    1    3    3    0  502 -0.10848758333E+03  0.76799958376E+01  0.43699975993E+03  0.45035476932E+03  0.46999998093E+01 0. -1.
</event>
<event>
 5   0  0.6006119E-04  0.1299988E+04  0.7818609E-02  0.9029574E-01
        1   -1    0    0  501    0  0.00000000000E+00  0.00000000000E+00  0.42867088586E+03  0.42867088588E+03  0.50400001928E-02 0. -1.
       -1   -1    0    0    0  501  0.00000000000E+00  0.00000000000E+00 -0.98558683569E+03  0.98558683570E+03  0.50400001928E-02 0.  1.
    10030    2    1    2    0    0  0.00000000000E+00  0.00000000000E+00 -0.55691594983E+03  0.14142577216E+04  0.12999882799E+04 0.  0.
        4    1    3    3  502    0 -0.42179825894E+03 -0.36597230588E+02  0.25808499968E+03  0.49584534735E+03  0.12699999809E+01 0. -1.
       -4    1    3    3    0  502  0.42179825894E+03  0.36597230588E+02 -0.81500094952E+03  0.91841237423E+03  0.12699999809E+01 0.  1.
</event>
<event>
 5   0  0.1046253E-03  0.1300962E+04  0.7818609E-02  0.9028803E-01
       -2   -1    0    0    0  501  0.00000000000E+00  0.00000000000E+00  0.37756910519E+03  0.37756910520E+03  0.25500000920E-02 0.  1.
        2   -1    0    0  501    0  0.00000000000E+00  0.00000000000E+00 -0.11206565172E+04  0.11206565172E+04  0.25500000920E-02 0. -1.
    10030    2    1    2    0    0  0.00000000000E+00  0.00000000000E+00 -0.74308741197E+03  0.14982256224E+04  0.13009616111E+04 0.  0.
        3    1    3    3  502    0  0.11020353564E+03  0.62911669408E+03 -0.22959570567E+03  0.67870968190E+03  0.10100000352E+00 0.  1.
       -3    1    3    3    0  502 -0.11020353564E+03 -0.62911669408E+03 -0.51349170630E+03  0.81951594047E+03  0.10100000352E+00 0. -1.
</event>
<event>
 5   0  0.5812938E-04  0.1318760E+04  0.7818609E-02  0.9014819E-01
        1   -1    0    0  501    0  0.00000000000E+00  0.00000000000E+00  0.87862902827E+03  0.87862902828E+03  0.50400001928E-02 0. -1.
       -1   -1    0    0    0  501  0.00000000000E+00  0.00000000000E+00 -0.49484126226E+03  0.49484126228E+03  0.50400001928E-02 0.  1.
    10030    2    1    2    0    0  0.00000000000E+00  0.00000000000E+00  0.38378776601E+03  0.13734702906E+04  0.13187598681E+04 0.  0.
        5    1    3    3  502    0  0.49549758151E+03 -0.11639095263E+03 -0.24465549359E+03  0.56475048267E+03  0.46999998093E+01 0.  1.
       -5    1    3    3    0  502 -0.49549758151E+03  0.11639095263E+03  0.62844325960E+03  0.80871980789E+03  0.46999998093E+01 0. -1.
</event>
<event>
 5   0  0.5766027E-04  0.1410759E+04  0.7818609E-02  0.8946067E-01
       -1   -1    0    0    0  501  0.00000000000E+00  0.00000000000E+00  0.41232913626E+03  0.41232913629E+03  0.50400001928E-02 0. -1.
        1   -1    0    0  501    0  0.00000000000E+00  0.00000000000E+00 -0.12067060892E+04  0.12067060892E+04  0.50400001928E-02 0.  1.
    10030    2    1    2    0    0  0.00000000000E+00  0.00000000000E+00 -0.79437695298E+03  0.16190352255E+04  0.14107587739E+04 0.  0.
        3    1    3    3  502    0 -0.58444023290E+03  0.38655983238E+03 -0.49014813019E+03  0.85512811296E+03  0.10100000352E+00 0.  1.
       -3    1    3    3    0  502  0.58444023290E+03 -0.38655983238E+03 -0.30422882279E+03  0.76390711258E+03  0.10100000352E+00 0. -1.
</event>
<event>
 5   0  0.5563545E-04  0.1320983E+04  0.7818609E-02  0.9013089E-01
        1   -1    0    0  501    0  0.00000000000E+00  0.00000000000E+00  0.11436567057E+04  0.11436567057E+04  0.50400001928E-02 0. -1.
       -1   -1    0    0    0  501  0.00000000000E+00  0.00000000000E+00 -0.38145088988E+03  0.38145088992E+03  0.50400001928E-02 0.  1.
    10030    2    1    2    0    0  0.00000000000E+00  0.00000000000E+00  0.76220581577E+03  0.15251075956E+04  0.13209827677E+04 0.  0.
        2    1    3    3  502    0 -0.27595247271E+02 -0.40340082967E+03 -0.22185889993E+03  0.46121047098E+03  0.25500000920E-02 0.  1.
       -2    1    3    3    0  502  0.27595247271E+02  0.40340082967E+03  0.98406471571E+03  0.10638971246E+04  0.25500000920E-02 0. -1.
</event>
<event>
 5   0  0.1031295E-03  0.1315168E+04  0.7818609E-02  0.9017623E-01
        2   -1    0    0  501    0  0.00000000000E+00  0.00000000000E+00  0.15203530401E+04  0.15203530401E+04  0.25500000920E-02 0. -1.
       -2   -1    0    0    0  501  0.00000000000E+00  0.00000000000E+00 -0.28441842617E+03  0.28441842618E+03  0.25500000920E-02 0.  1.
    10030    2    1    2    0    0  0.00000000000E+00  0.00000000000E+00  0.12359346139E+04  0.18047714663E+04  0.13151675466E+04 0.  0.
        2    1    3    3  502    0  0.54237954809E+03  0.16039718513E+03  0.15766450436E+03  0.58716345861E+03  0.25500000920E-02 0. -1.
       -2    1    3    3    0  502 -0.54237954809E+03 -0.16039718513E+03  0.10782701095E+04  0.12176080077E+04  0.25500000920E-02 0.  1.
</event>
<event>
 5   0  0.5563545E-04  0.1303639E+04  0.7818609E-02  0.9026684E-01
       -1   -1    0    0    0  501  0.00000000000E+00  0.00000000000E+00  0.55226730504E+03  0.55226730506E+03  0.50400001928E-02 0.  1.
        1   -1    0    0  501    0  0.00000000000E+00  0.00000000000E+00 -0.76931729293E+03  0.76931729295E+03  0.50400001928E-02 0. -1.
    10030    2    1    2    0    0  0.00000000000E+00  0.00000000000E+00 -0.21704998790E+03  0.13215845980E+04  0.13036391957E+04 0.  0.
        2    1    3    3  502    0  0.28417604089E+03  0.45461540200E+03  0.26730405396E+03  0.59906814572E+03  0.25500000920E-02 0.  1.
       -2    1    3    3    0  502 -0.28417604089E+03 -0.45461540200E+03 -0.48435404185E+03  0.72251645228E+03  0.25500000920E-02 0. -1.
</event>
<event>
 5   0  0.5563545E-04  0.1299754E+04  0.7818609E-02  0.9029760E-01
        1   -1    0    0  501    0  0.00000000000E+00  0.00000000000E+00  0.95801052468E+03  0.95801052469E+03  0.50400001928E-02 0.  1.
       -1   -1    0    0    0  501  0.00000000000E+00  0.00000000000E+00 -0.44085141742E+03  0.44085141745E+03  0.50400001928E-02 0. -1.
    10030    2    1    2    0    0  0.00000000000E+00  0.00000000000E+00  0.51715910726E+03  0.13988619421E+04  0.12997542810E+04 0.  0.
        2    1    3    3  502    0 -0.18452260867E+03 -0.17794241282E+03 -0.38413989299E+03  0.46181766183E+03  0.25500000920E-02 0. -1.
       -2    1    3    3    0  502  0.18452260867E+03  0.17794241282E+03  0.90129900025E+03  0.93704428030E+03  0.25500000920E-02 0.  1.
</event>
<event>
 5   0  0.5766027E-04  0.1306592E+04  0.7818609E-02  0.9024354E-01
        1   -1    0    0  501    0  0.00000000000E+00  0.00000000000E+00  0.75336209180E+03  0.75336209181E+03  0.50400001928E-02 0.  1.
       -1   -1    0    0    0  501  0.00000000000E+00  0.00000000000E+00 -0.56652142926E+03  0.56652142928E+03  0.50400001928E-02 0. -1.
    10030    2    1    2    0    0  0.00000000000E+00  0.00000000000E+00  0.18684066254E+03  0.13198835211E+04  0.13065921613E+04 0.  0.
        3    1    3    3  502    0  0.54537314743E+03 -0.26044136768E+03  0.34400458502E+03  0.69541407855E+03  0.10100000352E+00 0.  1.
       -3    1    3    3    0  502 -0.54537314743E+03  0.26044136768E+03 -0.15716392248E+03  0.62446944254E+03  0.10100000352E+00 0. -1.
</event>
<event>
 5   0  0.1101619E-03  0.1306154E+04  0.7818609E-02  0.9024699E-01
       -2   -1    0    0    0  501  0.00000000000E+00  0.00000000000E+00  0.33257027859E+03  0.33257027860E+03  0.25500000920E-02 0. -1.
        2   -1    0    0  501    0  0.00000000000E+00  0.00000000000E+00 -0.12824640153E+04  0.12824640153E+04  0.25500000920E-02 0.  1.
    10030    2    1    2    0    0  0.00000000000E+00  0.00000000000E+00 -0.94989373667E+03  0.16150342939E+04  0.13061537656E+04 0.  0.
        1    1    3    3  502    0  0.50193364281E+03 -0.39700650749E+03 -0.63596435448E+03  0.90222070967E+03  0.50400001928E-02 0.  1.
       -1    1    3    3    0  502 -0.50193364281E+03  0.39700650749E+03 -0.31392938219E+03  0.71281358419E+03  0.50400001928E-02 0. -1.
</event>
<event>
 5   0  0.1103241E-03  0.1314648E+04  0.7818609E-02  0.9018029E-01
        2   -1    0    0  501    0  0.00000000000E+00  0.00000000000E+00  0.59525748400E+03  0.59525748401E+03  0.25500000920E-02 0. -1.
       -2   -1    0    0    0  501  0.00000000000E+00  0.00000000000E+00 -0.72586190522E+03  0.72586190522E+03  0.25500000920E-02 0.  1.
    10030    2    1    2    0    0  0.00000000000E+00  0.00000000000E+00 -0.13060442121E+03  0.13211193892E+04  0.13146478334E+04 0.  0.
        4    1    3    3  502    0  0.33158627853E+03 -0.41415663258E+03  0.32467762795E+03  0.62200671332E+03  0.12699999809E+01 0.  1.
       -4    1    3    3    0  502 -0.33158627853E+03  0.41415663258E+03 -0.45528204917E+03  0.69911267591E+03  0.12699999809E+01 0. -1.
</event>
<event>
 5   0  0.5710383E-04  0.1279761E+04  0.7818609E-02  0.9045771E-01
       -1   -1    0    0    0  501  0.00000000000E+00  0.00000000000E+00  0.11922315085E+04  0.11922315085E+04  0.50400001928E-02 0. -1.
        1   -1    0    0  501    0  0.00000000000E+00  0.00000000000E+00 -0.34342920573E+03  0.34342920577E+03  0.50400001928E-02 0.  1.
    10030    2    1    2    0    0  0.00000000000E+00  0.00000000000E+00  0.84880230279E+03  0.15356607143E+04  0.12797611028E+04 0.  0.
        1    1    3    3  502    0  0.23827685810E+03 -0.25813939844E+03 -0.21736409103E+03  0.41310889391E+03  0.50400001928E-02 0.  1.
       -1    1    3    3    0  502 -0.23827685810E+03  0.25813939844E+03  0.10661663938E+04  0.11225518204E+04  0.50400001928E-02 0. -1.
</event>
<event>
 5   0  0.1101619E-03  0.1303676E+04  0.7818609E-02  0.9026655E-01
        2   -1    0    0  501    0  0.00000000000E+00  0.00000000000E+00  0.68621850742E+03  0.68621850742E+03  0.25500000920E-02 0.  1.
       -2   -1    0    0    0  501  0.00000000000E+00  0.00000000000E+00 -0.61918001212E+03  0.61918001212E+03  0.25500000920E-02 0. -1.
    10030    2    1    2    0    0  0.00000000000E+00  0.00000000000E+00  0.67038495303E+02  0.13053985195E+04  0.13036760084E+04 0.  0.
        1    1    3    3  502    0 -0.37759464516E+03  0.13265907047E+03  0.54870525910E+03  0.67915654044E+03  0.50400001928E-02 0.  1.
       -1    1    3    3    0  502  0.37759464516E+03 -0.13265907047E+03 -0.48166676380E+03  0.62624197911E+03  0.50400001928E-02 0. -1.
</event>
<event>
 5   0  0.1103241E-03  0.1303205E+04  0.7818609E-02  0.9027028E-01
        2   -1    0    0  501    0  0.00000000000E+00  0.00000000000E+00  0.97947925258E+03  0.97947925258E+03  0.25500000920E-02 0.  1.
       -2   -1    0    0    0  501  0.00000000000E+00  0.00000000000E+00 -0.43348103549E+03  0.43348103549E+03  0.25500000920E-02 0. -1.
    10030    2    1    2    0    0  0.00000000000E+00  0.00000000000E+00  0.54599821710E+03  0.14129602881E+04  0.13032047892E+04 0.  0.
        4    1    3    3  502    0  0.64715583893E+03 -0.71289190422E+02  0.24449342409E+03  0.69546493503E+03  0.12699999809E+01 0. -1.
       -4    1    3    3    0  502 -0.64715583893E+03  0.71289190422E+02  0.30150479300E+03  0.71749535304E+03  0.12699999809E+01 0.  1.
</event>
<event>
 5   0  0.1081574E-03  0.1306668E+04  0.7818609E-02  0.9024294E-01
       -2   -1    0    0    0  501  0.00000000000E+00  0.00000000000E+00  0.37389731908E+03  0.37389731909E+03  0.25500000920E-02 0.  1.
        2   -1    0    0  501    0  0.00000000000E+00  0.00000000000E+00 -0.11416106940E+04  0.11416106940E+04  0.25500000920E-02 0. -1.
    10030    2    1    2    0    0  0.00000000000E+00  0.00000000000E+00 -0.76771337496E+03  0.15155080131E+04  0.13066677894E+04 0.  0.
        5    1    3    3  502    0 -0.16732481881E+03 -0.60167085839E+03 -0.60640341299E+03  0.87048986560E+03  0.46999998093E+01 0. -1.
       -5    1    3    3    0  502  0.16732481881E+03  0.60167085839E+03 -0.16130996197E+03  0.64501814754E+03  0.46999998093E+01 0.  1.
</event>
<event>
 5   0  0.1101619E-03  0.1300893E+04  0.7818609E-02  0.9028857E-01
        2   -1    0    0  501    0  0.00000000000E+00  0.00000000000E+00  0.46243723396E+03  0.46243723397E+03  0.25500000920E-02 0.  1.
       -2   -1    0    0    0  501  0.00000000000E+00  0.00000000000E+00 -0.91489294858E+03  0.91489294858E+03  0.25500000920E-02 0. -1.
    10030    2    1    2    0    0  0.00000000000E+00  0.00000000000E+00 -0.45245571461E+03  0.13773301826E+04  0.13008928696E+04 0.  0.
        1    1    3    3  502    0 -0.24049347698E+03  0.59758181912E+03 -0.13070808023E+03  0.65728665381E+03  0.50400001928E-02 0.  1.
       -1    1    3    3    0  502  0.24049347698E+03 -0.59758181912E+03 -0.32174763439E+03  0.72004352874E+03  0.50400001928E-02 0. -1.
</event>
<event>
 5   0  0.1081574E-03  0.1299242E+04  0.7818609E-02  0.9030166E-01
        2   -1    0    0  501    0  0.00000000000E+00  0.00000000000E+00  0.15535329139E+04  0.15535329139E+04  0.25500000920E-02 0.  1.
       -2   -1    0    0    0  501  0.00000000000E+00  0.00000000000E+00 -0.27164371581E+03  0.27164371582E+03  0.25500000920E-02 0. -1.
    10030    2    1    2    0    0  0.00000000000E+00  0.00000000000E+00  0.12818891981E+04  0.18251766297E+04  0.12992420150E+04 0.  0.
        5    1    3    3  502    0 -0.28153706061E+03  0.46991245115E+02  0.14606963888E+04  0.14883303813E+04  0.46999998093E+01 0.  1.
       -5    1    3    3    0  502  0.28153706061E+03 -0.46991245115E+02 -0.17880719073E+03  0.33684624841E+03  0.46999998093E+01 0. -1.
</event>
<event>
 5   0  0.1101619E-03  0.1302616E+04  0.7818609E-02  0.9027493E-01
       -2   -1    0    0    0  501  0.00000000000E+00  0.00000000000E+00  0.30095012029E+03  0.30095012030E+03  0.25500000920E-02 0.  1.
        2   -1    0    0  501    0  0.00000000000E+00  0.00000000000E+00 -0.14095438372E+04  0.14095438372E+04  0.25500000920E-02 0. -1.
    10030    2    1    2    0    0  0.00000000000E+00  0.00000000000E+00 -0.11085937169E+04  0.17104939575E+04  0.13026164245E+04 0.  0.
        1    1    3    3  502    0 -0.87896544935E+02 -0.61336615745E+03 -0.29082513415E+03  0.68448747570E+03  0.50400001928E-02 0. -1.
       -1    1    3    3    0  502  0.87896544935E+02  0.61336615745E+03 -0.81776858271E+03  0.10260064818E+04  0.50400001928E-02 0.  1.
</event>
<event>
 5   0  0.6006119E-04  0.1304293E+04  0.7818609E-02  0.9026168E-01
       -1   -1    0    0    0  501  0.00000000000E+00  0.00000000000E+00  0.32336686340E+03  0.32336686344E+03  0.50400001928E-02 0. -1.
        1   -1    0    0  501    0  0.00000000000E+00  0.00000000000E+00 -0.13152091757E+04  0.13152091757E+04  0.50400001928E-02 0.  1.
    10030    2    1    2    0    0  0.00000000000E+00  0.00000000000E+00 -0.99184231227E+03  0.16385760391E+04  0.13042930129E+04 0.  0.
        4    1    3    3  502    0 -0.37444221848E+03  0.75251574117E+02 -0.11600051841E+04  0.12212630406E+04  0.12699999809E+01 0.  1.
       -4    1    3    3    0  502  0.37444221848E+03 -0.75251574117E+02  0.16816287179E+03  0.41731299852E+03  0.12699999809E+01 0. -1.
</event>
<event>
 5   0  0.5766027E-04  0.1316175E+04  0.7818609E-02  0.9016835E-01
        1   -1    0    0  501    0  0.00000000000E+00  0.00000000000E+00  0.23509296908E+04  0.23509296908E+04  0.50400001928E-02 0. -1.
       -1   -1    0    0    0  501  0.00000000000E+00  0.00000000000E+00 -0.18421622279E+03  0.18421622286E+03  0.50400001928E-02 0.  1.
    10030    2    1    2    0    0  0.00000000000E+00  0.00000000000E+00  0.21667134680E+04  0.25351459136E+04  0.13161753497E+04 0.  0.
        3    1    3    3  502    0 -0.16038541075E+03  0.48698124643E+03  0.18780061585E+04  0.19467360776E+04  0.10100000352E+00 0. -1.
       -3    1    3    3    0  502  0.16038541075E+03 -0.48698124643E+03  0.28870730946E+03  0.58840983600E+03  0.10100000352E+00 0.  1.
</event>
<event>
 5   0  0.1101619E-03  0.1328864E+04  0.7818609E-02  0.9006984E-01
       -2   -1    0    0    0  501  0.00000000000E+00  0.00000000000E+00  0.87118352446E+03  0.87118352446E+03  0.25500000920E-02 0. -1.
        2   -1    0    0  501    0  0.00000000000E+00  0.00000000000E+00 -0.50674708351E+03  0.50674708352E+03  0.25500000920E-02 0.  1.
    10030    2    1    2    0    0  0.00000000000E+00  0.00000000000E+00  0.36443644095E+03  0.13779306080E+04  0.13288637405E+04 0.  0.
        1    1    3    3  502    0  0.62813299968E+03 -0.13795347717E+03  0.35537980673E+03  0.73476325044E+03  0.50400001928E-02 0. -1.
       -1    1    3    3    0  502 -0.62813299968E+03  0.13795347717E+03  0.90566342161E+01  0.64316735753E+03  0.50400001928E-02 0.  1.
</event>
<event>
 5   0  0.5563545E-04  0.1303696E+04  0.7818609E-02  0.9026640E-01
        1   -1    0    0  501    0  0.00000000000E+00  0.00000000000E+00  0.98563922552E+03  0.98563922554E+03  0.50400001928E-02 0. -1.
       -1   -1    0    0    0  501  0.00000000000E+00  0.00000000000E+00 -0.43109652222E+03  0.43109652225E+03  0.50400001928E-02 0.  1.
    10030    2    1    2    0    0  0.00000000000E+00  0.00000000000E+00  0.55454270330E+03  0.14167357478E+04  0.13036957349E+04 0.  0.
        2    1    3    3  502    0  0.55974085437E+03 -0.25272016248E+03  0.39860392698E+02  0.61543980655E+03  0.25500000920E-02 0.  1.
       -2    1    3    3    0  502 -0.55974085437E+03  0.25272016248E+03  0.51468231061E+03  0.80129594123E+03  0.25500000920E-02 0. -1.
</event>
<event>
 5   0  0.1031295E-03  0.1302028E+04  0.7818609E-02  0.9027959E-01
        2   -1    0    0  501    0  0.00000000000E+00  0.00000000000E+00  0.21461775442E+04  0.21461775442E+04  0.25500000920E-02 0. -1.
       -2   -1    0    0    0  501  0.00000000000E+00  0.00000000000E+00 -0.19747619753E+03  0.19747619755E+03  0.25500000920E-02 0.  1.
    10030    2    1    2    0    0  0.00000000000E+00  0.00000000000E+00  0.19487013467E+04  0.23436537417E+04  0.13020276198E+04 0.  0.
        2    1    3    3  502    0 -0.60966333854E+03 -0.29097724050E+02  0.56672680112E+03  0.83289575039E+03  0.25500000920E-02 0. -1.
       -2    1    3    3    0  502  0.60966333854E+03  0.29097724050E+02  0.13819745455E+04  0.15107579914E+04  0.25500000920E-02 0.  1.
</event>
<event>
 5   0  0.6006119E-04  0.1298355E+04  0.7818609E-02  0.9030870E-01
       -1   -1    0    0    0  501  0.00000000000E+00  0.00000000000E+00  0.62224276049E+03  0.62224276051E+03  0.50400001928E-02 0. -1.
        1   -1    0    0  501    0  0.00000000000E+00  0.00000000000E+00 -0.67727861645E+03  0.67727861647E+03  0.50400001928E-02 0.  1.
    10030    2    1    2    0    0  0.00000000000E+00  0.00000000000E+00 -0.55035855968E+02  0.12995213770E+04  0.12983554459E+04 0.  0.
        4    1    3    3  502    0  0.54391768271E+03  0.35294701183E+03  0.43235985756E+01  0.64841217226E+03  0.12699999809E+01 0. -1.
       -4    1    3    3    0  502 -0.54391768271E+03 -0.35294701183E+03 -0.59359454544E+02  0.65110920472E+03  0.12699999809E+01 0.  1.
</event>
<event>
 5   0  0.1081574E-03  0.1282278E+04  0.7818609E-02  0.9043738E-01
       -2   -1    0    0    0  501  0.00000000000E+00  0.00000000000E+00  0.42494979097E+03  0.42494979098E+03  0.25500000920E-02 0.  1.
        2   -1    0    0  501    0  0.00000000000E+00  0.00000000000E+00 -0.96731218786E+03  0.96731218786E+03  0.25500000920E-02 0. -1.
    10030    2    1    2    0    0  0.00000000000E+00  0.00000000000E+00 -0.54236239689E+03  0.13922619788E+04  0.12822778358E+04 0.  0.
        5    1    3    3  502    0  0.73606370534E+02 -0.18269146088E+02  0.42004356268E+03  0.42686103597E+03  0.46999998093E+01 0.  1.
       -5    1    3    3    0  502 -0.73606370534E+02  0.18269146088E+02 -0.96240595957E+03  0.96540094287E+03  0.46999998093E+01 0. -1.
</event>
<event>
 5   0  0.6006119E-04  0.1303744E+04  0.7818609E-02  0.9026602E-01
       -1   -1    0    0    0  501  0.00000000000E+00  0.00000000000E+00  0.86389906691E+03  0.86389906692E+03  0.50400001928E-02 0.  1.
        1   -1    0    0  501    0  0.00000000000E+00  0.00000000000E+00 -0.49188259552E+03  0.49188259555E+03  0.50400001928E-02 0. -1.
    10030    2    1    2    0    0  0.00000000000E+00  0.00000000000E+00  0.37201647138E+03  0.13557816625E+04  0.13037437100E+04 0.  0.
        4    1    3    3  502    0 -0.38013803471E+03 -0.52260202262E+03  0.97051470371E+02  0.65348175206E+03  0.12699999809E+01 0.  1.
       -4    1    3    3    0  502  0.38013803471E+03  0.52260202262E+03  0.27496500101E+03  0.70229991041E+03  0.12699999809E+01 0. -1.
</event>
<event>
 5   0  0.1101619E-03  0.1306580E+04  0.7818609E-02  0.9024363E-01
        2   -1    0    0  501    0  0.00000000000E+00  0.00000000000E+00  0.11433117744E+04  0.11433117744E+04  0.25500000920E-02 0.  1.
       -2   -1    0    0    0  501  0.00000000000E+00  0.00000000000E+00 -0.37329096570E+03  0.37329096570E+03  0.25500000920E-02 0. -1.
    10030    2    1    2    0    0  0.00000000000E+00  0.00000000000E+00  0.77002080866E+03  0.15166027401E+04  0.13065802024E+04 0.  0.
        1    1    3    3  502    0  0.36443138951E+03  0.43506942389E+01 -0.24432039786E+03  0.43877286041E+03  0.50400001928E-02 0. -1.
       -1    1    3    3    0  502 -0.36443138951E+03 -0.43506942389E+01  0.10143412065E+04  0.10778298796E+04  0.50400001928E-02 0.  1.
</event>
<event>
 5   0  0.5563545E-04  0.1298068E+04  0.7818609E-02  0.9031098E-01
       -1   -1    0    0    0  501  0.00000000000E+00  0.00000000000E+00  0.47900443047E+03  0.47900443050E+03  0.50400001928E-02 0.  1.
        1   -1    0    0  501    0  0.00000000000E+00  0.00000000000E+00 -0.87941839727E+03  0.87941839728E+03  0.50400001928E-02 0. -1.
    10030    2    1    2    0    0  0.00000000000E+00  0.00000000000E+00 -0.40041396680E+03  0.13584228278E+04  0.12980682703E+04 0.  0.
        2    1    3    3  502    0 -0.33603511389E+03 -0.18402049862E+03  0.34804306762E+03  0.51760710834E+03  0.25500000920E-02 0.  1.
       -2    1    3    3    0  502  0.33603511389E+03  0.18402049862E+03 -0.74845703442E+03  0.84081571944E+03  0.25500000920E-02 0. -1.
</event>
<event>
 5   0  0.5563545E-04  0.1294502E+04  0.7818609E-02  0.9033937E-01
        1   -1    0    0  501    0  0.00000000000E+00  0.00000000000E+00  0.12501985761E+04  0.12501985761E+04  0.50400001928E-02 0. -1.
       -1   -1    0    0    0  501  0.00000000000E+00  0.00000000000E+00 -0.33509372885E+03  0.33509372889E+03  0.50400001928E-02 0.  1.
    10030    2    1    2    0    0  0.00000000000E+00  0.00000000000E+00  0.91510484725E+03  0.15852923050E+04  0.12945017616E+04 0.  0.
        2    1    3    3  502    0  0.20565975646E+03 -0.40095624268E+03  0.10265425383E+04  0.11210938529E+04  0.25500000920E-02 0. -1.
       -2    1    3    3    0  502 -0.20565975646E+03  0.40095624268E+03 -0.11143769105E+03  0.46419845214E+03  0.25500000920E-02 0.  1.
</event>
<event>
 5   0  0.5766027E-04  0.1303969E+04  0.7818609E-02  0.9026424E-01
       -1   -1    0    0    0  501  0.00000000000E+00  0.00000000000E+00  0.64473397735E+03  0.64473397737E+03  0.50400001928E-02 0.  1.
        1   -1    0    0  501    0  0.00000000000E+00  0.00000000000E+00 -0.65931636789E+03  0.65931636791E+03  0.50400001928E-02 0. -1.
    10030    2    1    2    0    0  0.00000000000E+00  0.00000000000E+00 -0.14582390532E+02  0.13040503453E+04  0.13039688098E+04 0.  0.
        3    1    3    3  502    0 -0.58677167008E+03 -0.26700925313E+03 -0.10470734711E+03  0.65311451737E+03  0.10100000352E+00 0.  1.
       -3    1    3    3    0  502  0.58677167008E+03  0.26700925313E+03  0.90124956579E+02  0.65093582791E+03  0.10100000352E+00 0. -1.
</event>
<event>
 5   0  0.5812938E-04  0.1304510E+04  0.7818609E-02  0.9025996E-01
        1   -1    0    0  501    0  0.00000000000E+00  0.00000000000E+00  0.10548923139E+04  0.10548923140E+04  0.50400001928E-02 0.  1.
       -1   -1    0    0    0  501  0.00000000000E+00  0.00000000000E+00 -0.40329849914E+03  0.40329849917E+03  0.50400001928E-02 0. -1.
    10030    2    1    2    0    0  0.00000000000E+00  0.00000000000E+00  0.65159381481E+03  0.14581908131E+04  0.13045098497E+04 0.  0.
        5    1    3    3  502    0  0.17461008952E+03  0.42497079727E+03 -0.19169546577E+03  0.49785349601E+03  0.46999998093E+01 0. -1.
       -5    1    3    3    0  502 -0.17461008952E+03 -0.42497079727E+03  0.84328928059E+03  0.96033731712E+03  0.46999998093E+01 0.  1.
</event>
<event>
 5   0  0.6006119E-04  0.1246180E+04  0.7818609E-02  0.9073369E-01
        1   -1    0    0  501    0  0.00000000000E+00  0.00000000000E+00  0.68247760299E+03  0.68247760300E+03  0.50400001928E-02 0. -1.
       -1   -1    0    0    0  501  0.00000000000E+00  0.00000000000E+00 -0.56887022262E+03  0.56887022264E+03  0.50400001928E-02 0.  1.
    10030    2    1    2    0    0  0.00000000000E+00  0.00000000000E+00  0.11360738036E+03  0.12513478256E+04  0.12461800608E+04 0.  0.
        4    1    3    3  502    0  0.23418430016E+03  0.16340670285E+02  0.63637154936E+03  0.67829172609E+03  0.12699999809E+01 0. -1.
       -4    1    3    3    0  502 -0.23418430016E+03 -0.16340670285E+02 -0.52276416900E+03  0.57305609956E+03  0.12699999809E+01 0.  1.
</event>
<event>
 5   0  0.1103241E-03  0.1302046E+04  0.7818609E-02  0.9027944E-01
        2   -1    0    0  501    0  0.00000000000E+00  0.00000000000E+00  0.58335324203E+03  0.58335324203E+03  0.25500000920E-02 0.  1.
       -2   -1    0    0    0  501  0.00000000000E+00  0.00000000000E+00 -0.72654265513E+03  0.72654265514E+03  0.25500000920E-02 0. -1.
    10030    2    1    2    0    0  0.00000000000E+00  0.00000000000E+00 -0.14318941311E+03  0.13098958972E+04  0.13020461026E+04 0.  0.
        4    1    3    3  502    0 -0.33424009355E+01  0.47646437347E+03 -0.51789059853E+03  0.70373415135E+03  0.12699999809E+01 0. -1.
       -4    1    3    3    0  502  0.33424009355E+01 -0.47646437347E+03  0.37470118543E+03  0.60616174582E+03  0.12699999809E+01 0.  1.
</event>
<event>
 5   0  0.1101619E-03  0.1378092E+04  0.7818609E-02  0.8969831E-01
       -2   -1    0    0    0  501  0.00000000000E+00  0.00000000000E+00  0.19843315594E+03  0.19843315596E+03  0.25500000920E-02 0. -1.
        2   -1    0    0  501    0  0.00000000000E+00  0.00000000000E+00 -0.23926676990E+04  0.23926676990E+04  0.25500000920E-02 0.  1.
    10030    2    1    2    0    0  0.00000000000E+00  0.00000000000E+00 -0.21942345431E+04  0.25911008550E+04  0.13780923085E+04 0.  0.
        1    1    3    3  502    0 -0.67469308380E+03  0.47191735535E+02 -0.84948028427E+03  0.10858427928E+04  0.50400001928E-02 0.  1.
       -1    1    3    3    0  502  0.67469308380E+03 -0.47191735535E+02 -0.13447542588E+04  0.15052580622E+04  0.50400001928E-02 0. -1.
</event>
<event>
 5   0  0.1081574E-03  0.1301627E+04  0.7818609E-02  0.9028276E-01
        2   -1    0    0  501    0  0.00000000000E+00  0.00000000000E+00  0.25442182648E+04  0.25442182648E+04  0.25500000920E-02 0. -1.
       -2   -1    0    0    0  501  0.00000000000E+00  0.00000000000E+00 -0.16647872994E+03  0.16647872996E+03  0.25500000920E-02 0.  1.
    10030    2    1    2    0    0  0.00000000000E+00  0.00000000000E+00  0.23777395348E+04  0.27106969947E+04  0.13016270210E+04 0.  0.
        5    1    3    3  502    0  0.19185964690E+03 -0.16849438819E+03 -0.57765556741E+02  0.26183856191E+03  0.46999998093E+01 0.  1.
       -5    1    3    3    0  502 -0.19185964690E+03  0.16849438819E+03  0.24355050916E+04  0.24488584328E+04  0.46999998093E+01 0. -1.
</event>
<event>
 5   0  0.1031295E-03  0.1312333E+04  0.7818609E-02  0.9019842E-01
       -2   -1    0    0    0  501  0.00000000000E+00  0.00000000000E+00  0.12331435708E+04  0.12331435708E+04  0.25500000920E-02 0.  1.
        2   -1    0    0  501    0  0.00000000000E+00  0.00000000000E+00 -0.34915183658E+03  0.34915183659E+03  0.25500000920E-02 0. -1.
    10030    2    1    2    0    0  0.00000000000E+00  0.00000000000E+00  0.88399173422E+03  0.15822954074E+04  0.13123327970E+04 0.  0.
        2    1    3    3  502    0 -0.48374605201E+03 -0.35939146671E+02  0.97476844270E+03  0.10887953811E+04  0.25500000920E-02 0.  1.
       -2    1    3    3    0  502  0.48374605201E+03  0.35939146671E+02 -0.90776708483E+02  0.49350002625E+03  0.25500000920E-02 0. -1.
</event>
<event>
 5   0  0.5563545E-04  0.1301680E+04  0.7818609E-02  0.9028234E-01
       -1   -1    0    0    0  501  0.00000000000E+00  0.00000000000E+00  0.66326308066E+03  0.66326308067E+03  0.50400001928E-02 0.  1.
        1   -1    0    0  501    0  0.00000000000E+00  0.00000000000E+00 -0.63864954488E+03  0.63864954490E+03  0.50400001928E-02 0. -1.
    10030    2    1    2    0    0  0.00000000000E+00  0.00000000000E+00  0.24613535773E+02  0.13019126256E+04  0.13016799370E+04 0.  0.
        2    1    3    3  502    0 -0.52795024240E+03 -0.14857449851E+03  0.36277891696E+03  0.65758222501E+03  0.25500000920E-02 0.  1.
       -2    1    3    3    0  502  0.52795024240E+03  0.14857449851E+03 -0.33816538118E+03  0.64433040057E+03  0.25500000920E-02 0. -1.
</event>
<event>
 5   0  0.5710383E-04  0.1307744E+04  0.7818609E-02  0.9023447E-01
       -1   -1    0    0    0  501  0.00000000000E+00  0.00000000000E+00  0.72836263010E+03  0.72836263012E+03  0.50400001928E-02 0. -1.
        1   -1    0    0  501    0  0.00000000000E+00  0.00000000000E+00 -0.58699936837E+03  0.58699936839E+03  0.50400001928E-02 0.  1.
    10030    2    1    2    0    0  0.00000000000E+00  0.00000000000E+00  0.14136326173E+03  0.13153619985E+04  0.13077437117E+04 0.  0.
        1    1    3    3  502    0 -0.13226763956E+03  0.10766333992E+03 -0.56423435008E+03  0.58944594754E+03  0.50400001928E-02 0.  1.
       -1    1    3    3    0  502  0.13226763956E+03 -0.10766333992E+03  0.70559761181E+03  0.72591605097E+03  0.50400001928E-02 0. -1.
</event>
<event>
 5   0  0.1081574E-03  0.1301919E+04  0.7818609E-02  0.9028045E-01
        2   -1    0    0  501    0  0.00000000000E+00  0.00000000000E+00  0.14077440326E+04  0.14077440326E+04  0.25500000920E-02 0. -1.
       -2   -1    0    0    0  501  0.00000000000E+00  0.00000000000E+00 -0.30101235244E+03  0.30101235245E+03  0.25500000920E-02 0.  1.
    10030    2    1    2    0    0  0.00000000000E+00  0.00000000000E+00  0.11067316801E+04  0.17087563850E+04  0.13019191110E+04 0.  0.
        5    1    3    3  502    0 -0.12506194683E+03 -0.63798093234E+03  0.59622005637E+03  0.88213412029E+03  0.46999998093E+01 0. -1.
       -5    1    3    3    0  502  0.12506194683E+03  0.63798093234E+03  0.51051162378E+03  0.82662226475E+03  0.46999998093E+01 0.  1.
</event>
<event>
 5   0  0.1101619E-03  0.1282387E+04  0.7818609E-02  0.9043650E-01
       -2   -1    0    0    0  501  0.00000000000E+00  0.00000000000E+00  0.55950787548E+03  0.55950787549E+03  0.25500000920E-02 0.  1.
        2   -1    0    0  501    0  0.00000000000E+00  0.00000000000E+00 -0.73480484008E+03  0.73480484008E+03  0.25500000920E-02 0. -1.
    10030    2    1    2    0    0  0.00000000000E+00  0.00000000000E+00 -0.17529696460E+03  0.12943127156E+04  0.12823869852E+04 0.  0.
        1    1    3    3  502    0  0.57918069009E+02  0.29679767080E+02 -0.73146275570E+03  0.73435220044E+03  0.50400001928E-02 0. -1.
       -1    1    3    3    0  502 -0.57918069009E+02 -0.29679767080E+02  0.55616579110E+03  0.55996051513E+03  0.50400001928E-02 0.  1.
</event>
<event>
 5   0  0.5812938E-04  0.1289850E+04  0.7818609E-02  0.9037653E-01
       -1   -1    0    0    0  501  0.00000000000E+00  0.00000000000E+00  0.61395822130E+03  0.61395822132E+03  0.50400001928E-02 0. -1.
        1   -1    0    0  501    0  0.00000000000E+00  0.00000000000E+00 -0.67745370550E+03  0.67745370552E+03  0.50400001928E-02 0.  1.
    10030    2    1    2    0    0  0.00000000000E+00  0.00000000000E+00 -0.63495484202E+02  0.12914119268E+04  0.12898500255E+04 0.  0.
        5    1    3    3  502    0  0.21181655696E+02 -0.44045331679E+03 -0.50291125456E+03  0.66887189114E+03  0.46999998093E+01 0.  1.
       -5    1    3    3    0  502 -0.21181655696E+02  0.44045331679E+03  0.43941577035E+03  0.62254003569E+03  0.46999998093E+01 0. -1.
</event>
<event>
 5   0  0.5766027E-04  0.1320742E+04  0.7818609E-02  0.9013276E-01
        1   -1    0    0  501    0  0.00000000000E+00  0.00000000000E+00  0.45800289758E+03  0.45800289761E+03  0.50400001928E-02 0. -1.
       -1   -1    0    0    0  501  0.00000000000E+00  0.00000000000E+00 -0.95215592813E+03  0.95215592815E+03  0.50400001928E-02 0.  1.
    10030    2    1    2    0    0  0.00000000000E+00  0.00000000000E+00 -0.49415303055E+03  0.14101588258E+04  0.13207424792E+04 0.  0.
        3    1    3    3  502    0  0.54065260285E+03  0.32355151548E+03 -0.35953967822E+02  0.63109707505E+03  0.10100000352E+00 0. -1.
       -3    1    3    3    0  502 -0.54065260285E+03 -0.32355151548E+03 -0.45819906273E+03  0.77906175071E+03  0.10100000352E+00 0.  1.
</event>
<event>
 5   0  0.1081574E-03  0.1299144E+04  0.7818609E-02  0.9030244E-01
        2   -1    0    0  501    0  0.00000000000E+00  0.00000000000E+00  0.13263865489E+04  0.13263865489E+04  0.25500000920E-02 0.  1.
       -2   -1    0    0    0  501  0.00000000000E+00  0.00000000000E+00 -0.31811522786E+03  0.31811522787E+03  0.25500000920E-02 0. -1.
    10030    2    1    2    0    0  0.00000000000E+00  0.00000000000E+00  0.10082713210E+04  0.16445017768E+04  0.12991439631E+04 0.  0.
        5    1    3    3  502    0 -0.61381319417E+03 -0.13940105772E+03  0.70715275931E+03  0.94672403964E+03  0.46999998093E+01 0.  1.
       -5    1    3    3    0  502  0.61381319417E+03  0.13940105772E+03  0.30111856173E+03  0.69777773714E+03  0.46999998093E+01 0. -1.
</event>
<event>
 5   0  0.5766027E-04  0.1300876E+04  0.7818609E-02  0.9028871E-01
        1   -1    0    0  501    0  0.00000000000E+00  0.00000000000E+00  0.10856137038E+04  0.10856137039E+04  0.50400001928E-02 0.  1.
       -1   -1    0    0    0  501  0.00000000000E+00  0.00000000000E+00 -0.38970520342E+03  0.38970520345E+03  0.50400001928E-02 0. -1.
    10030    2    1    2    0    0  0.00000000000E+00  0.00000000000E+00  0.69590850042E+03  0.14753189073E+04  0.13008755656E+04 0.  0.
        3    1    3    3  502    0 -0.83385004519E+02 -0.88574558242E+01  0.10794579717E+04  0.10827100426E+04  0.10100000352E+00 0.  1.
       -3    1    3    3    0  502  0.83385004519E+02  0.88574558242E+01 -0.38354947129E+03  0.39260886468E+03  0.10100000352E+00 0. -1.
</event>
<event>
 5   0  0.1081574E-03  0.1311606E+04  0.7818609E-02  0.9020412E-01
       -2   -1    0    0    0  501  0.00000000000E+00  0.00000000000E+00  0.57147819353E+03  0.57147819354E+03  0.25500000920E-02 0.  1.
        2   -1    0    0  501    0  0.00000000000E+00  0.00000000000E+00 -0.75257066297E+03  0.75257066297E+03  0.25500000920E-02 0. -1.
    10030    2    1    2    0    0  0.00000000000E+00  0.00000000000E+00 -0.18109246944E+03  0.13240488565E+04  0.13116062259E+04 0.  0.
        5    1    3    3  502    0  0.14977064066E+03 -0.60309977953E+03 -0.30204521897E+03  0.69095151290E+03  0.46999998093E+01 0. -1.
       -5    1    3    3    0  502 -0.14977064066E+03  0.60309977953E+03  0.12095274953E+03  0.63309734361E+03  0.46999998093E+01 0.  1.
</event>
<event>
 5   0  0.5563545E-04  0.1297227E+04  0.7818609E-02  0.9031767E-01
       -1   -1    0    0    0  501  0.00000000000E+00  0.00000000000E+00  0.48371008886E+03  0.48371008889E+03  0.50400001928E-02 0. -1.
        1   -1    0    0  501    0  0.00000000000E+00  0.00000000000E+00 -0.86973446971E+03  0.86973446973E+03  0.50400001928E-02 0.  1.
    10030    2    1    2    0    0  0.00000000000E+00  0.00000000000E+00 -0.38602438085E+03  0.13534445586E+04  0.12972267923E+04 0.  0.
        2    1    3    3  502    0 -0.41893529056E+02 -0.61886649615E+03  0.48055001872E+01  0.62030145951E+03  0.25500000920E-02 0.  1.
       -2    1    3    3    0  502  0.41893529056E+02  0.61886649615E+03 -0.39082988104E+03  0.73314309910E+03  0.25500000920E-02 0. -1.
</event>
<event>
 5   0  0.1101619E-03  0.1299123E+04  0.7818609E-02  0.9030261E-01
        2   -1    0    0  501    0  0.00000000000E+00  0.00000000000E+00  0.95822475813E+03  0.95822475813E+03  0.25500000920E-02 0. -1.
       -2   -1    0    0    0  501  0.00000000000E+00  0.00000000000E+00 -0.44032493152E+03  0.44032493153E+03  0.25500000920E-02 0.  1.
    10030    2    1    2    0    0  0.00000000000E+00  0.00000000000E+00  0.51789982661E+03  0.13985496897E+04  0.12991231674E+04 0.  0.
        1    1    3    3  502    0  0.53860902188E+03 -0.34945260781E+03  0.36504964126E+03  0.73856485441E+03  0.50400001928E-02 0. -1.
       -1    1    3    3    0  502 -0.53860902188E+03  0.34945260781E+03  0.15285018534E+03  0.65998483524E+03  0.50400001928E-02 0.  1.
</event>
<event>
 5   0  0.5563545E-04  0.1308276E+04  0.7818609E-02  0.9023028E-01
        1   -1    0    0  501    0  0.00000000000E+00  0.00000000000E+00  0.57550779021E+03  0.57550779023E+03  0.50400001928E-02 0.  1.
       -1   -1    0    0    0  501  0.00000000000E+00  0.00000000000E+00 -0.74351071457E+03  0.74351071459E+03  0.50400001928E-02 0. -1.
    10030    2    1    2    0    0  0.00000000000E+00  0.00000000000E+00 -0.16800292436E+03  0.13190185048E+04  0.13082755189E+04 0.  0.
        2    1    3    3  502    0 -0.57489794630E+03 -0.31110888399E+03 -0.10869383764E+03  0.66265431161E+03  0.25500000920E-02 0. -1.
       -2    1    3    3    0  502  0.57489794630E+03  0.31110888399E+03 -0.59309086728E+02  0.65636419321E+03  0.25500000920E-02 0.  1.
</event>
<event>
 5   0  0.1103241E-03  0.1299605E+04  0.7818609E-02  0.9029879E-01
        2   -1    0    0  501    0  0.00000000000E+00  0.00000000000E+00  0.11579979578E+04  0.11579979578E+04  0.25500000920E-02 0. -1.
       -2   -1    0    0    0  501  0.00000000000E+00  0.00000000000E+00 -0.36463212003E+03  0.36463212004E+03  0.25500000920E-02 0.  1.
    10030    2    1    2    0    0  0.00000000000E+00  0.00000000000E+00  0.79336583778E+03  0.15226300779E+04  0.12996049405E+04 0.  0.
        4    1    3    3  502    0 -0.30947467929E+03  0.48905500995E+03  0.74283816160E+03  0.94167909985E+03  0.12699999809E+01 0. -1.
       -4    1    3    3    0  502  0.30947467929E+03 -0.48905500995E+03  0.50527676184E+02  0.58095097800E+03  0.12699999809E+01 0.  1.
</event>
<event>
 5   0  0.6006119E-04  0.1325114E+04  0.7818609E-02  0.9009884E-01
       -1   -1    0    0    0  501  0.00000000000E+00  0.00000000000E+00  0.25184748745E+03  0.25184748750E+03  0.50400001928E-02 0. -1.
        1   -1    0    0  501    0  0.00000000000E+00  0.00000000000E+00 -0.17430449459E+04  0.17430449459E+04  0.50400001928E-02 0.  1.
    10030    2    1    2    0    0  0.00000000000E+00  0.00000000000E+00 -0.14911974585E+04  0.19948924334E+04  0.13251135653E+04 0.  0.
        4    1    3    3  502    0 -0.58178787819E+03  0.21576475530E+03 -0.39593119157E+03  0.73606703921E+03  0.12699999809E+01 0. -1.
       -4    1    3    3    0  502  0.58178787819E+03 -0.21576475530E+03 -0.10952662669E+04  0.12588253942E+04  0.12699999809E+01 0.  1.
</event>
<event>
 5   0  0.5563545E-04  0.1292089E+04  0.7818609E-02  0.9035862E-01
       -1   -1    0    0    0  501  0.00000000000E+00  0.00000000000E+00  0.28779727431E+03  0.28779727435E+03  0.50400001928E-02 0.  1.
        1   -1    0    0  501    0  0.00000000000E+00  0.00000000000E+00 -0.14502344695E+04  0.14502344695E+04  0.50400001928E-02 0. -1.
    10030    2    1    2    0    0  0.00000000000E+00  0.00000000000E+00 -0.11624371952E+04  0.17380317438E+04  0.12920890487E+04 0.  0.
        2    1    3    3  502    0 -0.45395386569E+03  0.32446325968E+03 -0.10192097324E+04  0.11619548174E+04  0.25500000920E-02 0. -1.
       -2    1    3    3    0  502  0.45395386569E+03 -0.32446325968E+03 -0.14322746275E+03  0.57607692642E+03  0.25500000920E-02 0.  1.
</event>
<event>
 5   0  0.5766027E-04  0.1301413E+04  0.7818609E-02  0.9028445E-01
       -1   -1    0    0    0  501  0.00000000000E+00  0.00000000000E+00  0.58241087967E+03  0.58241087970E+03  0.50400001928E-02 0. -1.
        1   -1    0    0  501    0  0.00000000000E+00  0.00000000000E+00 -0.72701076161E+03  0.72701076162E+03  0.50400001928E-02 0.  1.
    10030    2    1    2    0    0  0.00000000000E+00  0.00000000000E+00 -0.14459988193E+03  0.13094216413E+04  0.13014130432E+04 0.  0.
        3    1    3    3  502    0  0.36168771729E+03 -0.37706217024E+03 -0.46253338581E+03  0.69780443411E+03  0.10100000352E+00 0.  1.
       -3    1    3    3    0  502 -0.36168771729E+03  0.37706217024E+03  0.31793350388E+03  0.61161720721E+03  0.10100000352E+00 0. -1.
</event>
<event>
 5   0  0.5563545E-04  0.1302694E+04  0.7818609E-02  0.9027432E-01
        1   -1    0    0  501    0  0.00000000000E+00  0.00000000000E+00  0.14311252605E+04  0.14311252605E+04  0.50400001928E-02 0.  1.
       -1   -1    0    0    0  501  0.00000000000E+00  0.00000000000E+00 -0.29644696229E+03  0.29644696233E+03  0.50400001928E-02 0. -1.
    10030    2    1    2    0    0  0.00000000000E+00  0.00000000000E+00  0.11346782982E+04  0.17275722228E+04  0.13026937264E+04 0.  0.
        2    1    3    3  502    0 -0.49066693764E+03 -0.38525971400E+03  0.81570068869E+03  0.10269112447E+04  0.25500000920E-02 0. -1.
       -2    1    3    3    0  502  0.49066693764E+03  0.38525971400E+03  0.31897760950E+03  0.70066097814E+03  0.25500000920E-02 0.  1.
</event>
<event>
 5   0  0.5766027E-04  0.1160609E+04  0.7818609E-02  0.9148052E-01
        1   -1    0    0  501    0  0.00000000000E+00  0.00000000000E+00  0.73175881217E+03  0.73175881219E+03  0.50400001928E-02 0.  1.
       -1   -1    0    0    0  501  0.00000000000E+00  0.00000000000E+00 -0.46019713543E+03  0.46019713546E+03  0.50400001928E-02 0. -1.
    10030    2    1    2    0    0  0.00000000000E+00  0.00000000000E+00  0.27156167674E+03  0.11919559476E+04  0.11606089940E+04 0.  0.
        3    1    3    3  502    0  0.34328261583E+03  0.12447513799E+03  0.59897932547E+03  0.70150784518E+03  0.10100000352E+00 0.  1.
       -3    1    3    3    0  502 -0.34328261583E+03 -0.12447513799E+03 -0.32741764873E+03  0.49044810246E+03  0.10100000352E+00 0. -1.
</event>
<event>
 5   0  0.5812938E-04  0.1309032E+04  0.7818609E-02  0.9022433E-01
        1   -1    0    0  501    0  0.00000000000E+00  0.00000000000E+00  0.14910019598E+04  0.14910019598E+04  0.50400001928E-02 0.  1.
       -1   -1    0    0    0  501  0.00000000000E+00  0.00000000000E+00 -0.28731753249E+03  0.28731753253E+03  0.50400001928E-02 0. -1.
    10030    2    1    2    0    0  0.00000000000E+00  0.00000000000E+00  0.12036844273E+04  0.17783194924E+04  0.13090317094E+04 0.  0.
        5    1    3    3  502    0  0.15730097352E+02  0.31191122672E+03  0.13832251893E+04  0.14180515025E+04  0.46999998093E+01 0.  1.
       -5    1    3    3    0  502 -0.15730097352E+02 -0.31191122672E+03 -0.17954076199E+03  0.36026798988E+03  0.46999998093E+01 0. -1.
</event>
<event>
 5   0  0.5812938E-04  0.1273856E+04  0.7818609E-02  0.9050558E-01
        1   -1    0    0  501    0  0.00000000000E+00  0.00000000000E+00  0.86959135558E+03  0.86959135559E+03  0.50400001928E-02 0.  1.
       -1   -1    0    0    0  501  0.00000000000E+00  0.00000000000E+00 -0.46651510150E+03  0.46651510153E+03  0.50400001928E-02 0. -1.
    10030    2    1    2    0    0  0.00000000000E+00  0.00000000000E+00  0.40307625408E+03  0.13361064571E+04  0.12738563491E+04 0.  0.
        5    1    3    3  502    0  0.63014940674E+03 -0.73182103052E+01  0.29831613531E+03  0.69724919333E+03  0.46999998093E+01 0. -1.
       -5    1    3    3    0  502 -0.63014940674E+03  0.73182103052E+01  0.10476011877E+03  0.63885726379E+03  0.46999998093E+01 0.  1.
</event>
<event>
 5   0  0.5812938E-04  0.1295427E+04  0.7818609E-02  0.9033199E-01
        1   -1    0    0  501    0  0.00000000000E+00  0.00000000000E+00  0.68209591388E+03  0.68209591390E+03  0.50400001928E-02 0.  1.
       -1   -1    0    0    0  501  0.00000000000E+00  0.00000000000E+00 -0.61506441185E+03  0.61506441187E+03  0.50400001928E-02 0. -1.
    10030    2    1    2    0    0  0.00000000000E+00  0.00000000000E+00  0.67031502032E+02  0.12971603258E+04  0.12954272224E+04 0.  0.
        5    1    3    3  502    0 -0.13071728937E+03  0.32241262633E+03  0.58057433021E+03  0.67684972797E+03  0.46999998093E+01 0.  1.
       -5    1    3    3    0  502  0.13071728937E+03 -0.32241262633E+03 -0.51354282818E+03  0.62031059779E+03  0.46999998093E+01 0. -1.
</event>
<event>
 5   0  0.1103241E-03  0.1302595E+04  0.7818609E-02  0.9027510E-01
       -2   -1    0    0    0  501  0.00000000000E+00  0.00000000000E+00  0.22418190100E+03  0.22418190101E+03  0.25500000920E-02 0.  1.
        2   -1    0    0  501    0  0.00000000000E+00  0.00000000000E+00 -0.18921629839E+04  0.18921629839E+04  0.25500000920E-02 0. -1.
    10030    2    1    2    0    0  0.00000000000E+00  0.00000000000E+00 -0.16679810829E+04  0.21163448849E+04  0.13025954011E+04 0.  0.
        4    1    3    3  502    0 -0.26019921741E+03  0.11599371873E+03 -0.17855638719E+04  0.18081477067E+04  0.12699999809E+01 0. -1.
       -4    1    3    3    0  502  0.26019921741E+03 -0.11599371873E+03  0.11758278900E+03  0.30819717827E+03  0.12699999809E+01 0.  1.
</event>
<event>
 5   0  0.6006119E-04  0.1349523E+04  0.7818609E-02  0.8991189E-01
        1   -1    0    0  501    0  0.00000000000E+00  0.00000000000E+00  0.22638904528E+04  0.22638904528E+04  0.50400001928E-02 0.  1.
       -1   -1    0    0    0  501  0.00000000000E+00  0.00000000000E+00 -0.20111541540E+03  0.20111541546E+03  0.50400001928E-02 0. -1.
    10030    2    1    2    0    0  0.00000000000E+00  0.00000000000E+00  0.20627750374E+04  0.24650058683E+04  0.13495232772E+04 0.  0.
        4    1    3    3  502    0 -0.38494071034E+03 -0.53198760779E+02  0.20389755170E+04  0.20756763309E+04  0.12699999809E+01 0.  1.
       -4    1    3    3    0  502  0.38494071034E+03  0.53198760779E+02  0.23799520386E+02  0.38932953741E+03  0.12699999809E+01 0. -1.
</event>
<event>
 5   0  0.1046253E-03  0.1292183E+04  0.7818609E-02  0.9035787E-01
       -2   -1    0    0    0  501  0.00000000000E+00  0.00000000000E+00  0.18106351967E+03  0.18106351969E+03  0.25500000920E-02 0.  1.
        2   -1    0    0  501    0  0.00000000000E+00  0.00000000000E+00 -0.23054583391E+04  0.23054583391E+04  0.25500000920E-02 0. -1.
    10030    2    1    2    0    0  0.00000000000E+00  0.00000000000E+00 -0.21243948195E+04  0.24865218588E+04  0.12921832709E+04 0.  0.
        3    1    3    3  502    0 -0.46794092119E+02  0.10774210083E+03  0.16034321369E+03  0.19876620368E+03  0.10100000352E+00 0.  1.
       -3    1    3    3    0  502  0.46794092119E+02 -0.10774210083E+03 -0.22847380332E+04  0.22877556552E+04  0.10100000352E+00 0. -1.
</event>
<event>
 5   0  0.1101619E-03  0.1306731E+04  0.7818609E-02  0.9024245E-01
       -2   -1    0    0    0  501  0.00000000000E+00  0.00000000000E+00  0.83913922928E+03  0.83913922929E+03  0.25500000920E-02 0. -1.
        2   -1    0    0  501    0  0.00000000000E+00  0.00000000000E+00 -0.50871917793E+03  0.50871917793E+03  0.25500000920E-02 0.  1.
    10030    2    1    2    0    0  0.00000000000E+00  0.00000000000E+00  0.33042005136E+03  0.13478584072E+04  0.13067306056E+04 0.  0.
        1    1    3    3  502    0 -0.15207069426E+01  0.52718529200E+03 -0.23289019651E+03  0.57633713077E+03  0.50400001928E-02 0.  1.
       -1    1    3    3    0  502  0.15207069426E+01 -0.52718529200E+03  0.56331024786E+03  0.77152127645E+03  0.50400001928E-02 0. -1.
</event>
<event>
 5   0  0.6006119E-04  0.1273908E+04  0.7818609E-02  0.9050516E-01
        1   -1    0    0  501    0  0.00000000000E+00  0.00000000000E+00  0.95751826944E+03  0.95751826946E+03  0.50400001928E-02 0. -1.
       -1   -1    0    0    0  501  0.00000000000E+00  0.00000000000E+00 -0.42371036441E+03  0.42371036444E+03  0.50400001928E-02 0.  1.
    10030    2    1    2    0    0  0.00000000000E+00  0.00000000000E+00  0.53380790504E+03  0.13812286339E+04  0.12739080264E+04 0.  0.
        4    1    3    3  502    0 -0.32006513708E+03  0.10281811468E+03  0.85349516875E+03  0.91731612472E+03  0.12699999809E+01 0. -1.
       -4    1    3    3    0  502  0.32006513708E+03 -0.10281811468E+03 -0.31968726372E+03  0.46391250917E+03  0.12699999809E+01 0.  1.
</event>
<event>
 5   0  0.1101619E-03  0.1300913E+04  0.7818609E-02  0.9028841E-01
       -2   -1    0    0    0  501  0.00000000000E+00  0.00000000000E+00  0.13577683935E+04  0.13577683935E+04  0.25500000920E-02 0.  1.
        2   -1    0    0  501    0  0.00000000000E+00  0.00000000000E+00 -0.31160958398E+03  0.31160958399E+03  0.25500000920E-02 0. -1.
    10030    2    1    2    0    0  0.00000000000E+00  0.00000000000E+00  0.10461588095E+04  0.16693779775E+04  0.13009129783E+04 0.  0.
        1    1    3    3  502    0 -0.49811795080E+03  0.25158451420E+03  0.95191324466E+03  0.11034287861E+04  0.50400001928E-02 0.  1.
       -1    1    3    3    0  502  0.49811795080E+03 -0.25158451420E+03  0.94245564874E+02  0.56594919138E+03  0.50400001928E-02 0. -1.
</event>
<event>
 5   0  0.1046253E-03  0.1302694E+04  0.7818609E-02  0.9027432E-01
       -2   -1    0    0    0  501  0.00000000000E+00  0.00000000000E+00  0.32851537411E+03  0.32851537412E+03  0.25500000920E-02 0.  1.
        2   -1    0    0  501    0  0.00000000000E+00  0.00000000000E+00 -0.12914245376E+04  0.12914245376E+04  0.25500000920E-02 0. -1.
    10030    2    1    2    0    0  0.00000000000E+00  0.00000000000E+00 -0.96290916344E+03  0.16199399117E+04  0.13026938475E+04 0.  0.
        3    1    3    3  502    0 -0.17630548817E+03 -0.46642014208E+03 -0.10025836506E+04  0.11197345046E+04  0.10100000352E+00 0. -1.
       -3    1    3    3    0  502  0.17630548817E+03  0.46642014208E+03  0.39674487205E+02  0.50020540704E+03  0.10100000352E+00 0.  1.
</event>
<event>
 5   0  0.5563545E-04  0.1308751E+04  0.7818609E-02  0.9022654E-01
        1   -1    0    0  501    0  0.00000000000E+00  0.00000000000E+00  0.21357807505E+04  0.21357807505E+04  0.50400001928E-02 0. -1.
       -1   -1    0    0    0  501  0.00000000000E+00  0.00000000000E+00 -0.20049226977E+03  0.20049226984E+03  0.50400001928E-02 0.  1.
    10030    2    1    2    0    0  0.00000000000E+00  0.00000000000E+00  0.19352884807E+04  0.23362730204E+04  0.13087513599E+04 0.  0.
        2    1    3    3  502    0 -0.53879391655E+01 -0.35434730687E+03  0.19496470723E+04  0.19815939923E+04  0.25500000920E-02 0. -1.
       -2    1    3    3    0  502  0.53879391655E+01  0.35434730687E+03 -0.14358591575E+02  0.35467902804E+03  0.25500000920E-02 0.  1.
</event>
<event>
 5   0  0.1046253E-03  0.1311267E+04  0.7818609E-02  0.9020678E-01
        2   -1    0    0  501    0  0.00000000000E+00  0.00000000000E+00  0.57478049409E+03  0.57478049409E+03  0.25500000920E-02 0.  1.
       -2   -1    0    0    0  501  0.00000000000E+00  0.00000000000E+00 -0.74785975976E+03  0.74785975977E+03  0.25500000920E-02 0. -1.
    10030    2    1    2    0    0  0.00000000000E+00  0.00000000000E+00 -0.17307926568E+03  0.13226402539E+04  0.13112668717E+04 0.  0.
        3    1    3    3  502    0  0.45635881019E+03 -0.46136881900E+03 -0.18078797471E+03  0.67365336248E+03  0.10100000352E+00 0. -1.
       -3    1    3    3    0  502 -0.45635881019E+03  0.46136881900E+03  0.77087090323E+01  0.64898689138E+03  0.10100000352E+00 0.  1.
</event>
<event>
 5   0  0.6006119E-04  0.1300624E+04  0.7818609E-02  0.9029070E-01
        1   -1    0    0  501    0  0.00000000000E+00  0.00000000000E+00  0.10247789023E+04  0.10247789023E+04  0.50400001928E-02 0. -1.
       -1   -1    0    0    0  501  0.00000000000E+00  0.00000000000E+00 -0.41268003864E+03  0.41268003867E+03  0.50400001928E-02 0.  1.
    10030    2    1    2    0    0  0.00000000000E+00  0.00000000000E+00  0.61209886365E+03  0.14374589410E+04  0.13006241533E+04 0.  0.
        4    1    3    3  502    0  0.15874826954E+03  0.54284471641E+03  0.66078952556E+03  0.86978492124E+03  0.12699999809E+01 0.  1.
       -4    1    3    3    0  502 -0.15874826954E+03 -0.54284471641E+03 -0.48690661915E+02  0.56767401973E+03  0.12699999809E+01 0. -1.
</event>
<event>
 5   0  0.5563545E-04  0.1318338E+04  0.7818609E-02  0.9015148E-01
       -1   -1    0    0    0  501  0.00000000000E+00  0.00000000000E+00  0.35346188766E+03  0.35346188770E+03  0.50400001928E-02 0.  1.
        1   -1    0    0  501    0  0.00000000000E+00  0.00000000000E+00 -0.12292798460E+04  0.12292798460E+04  0.50400001928E-02 0. -1.
    10030    2    1    2    0    0  0.00000000000E+00  0.00000000000E+00 -0.87581795831E+03  0.15827417337E+04  0.13183377031E+04 0.  0.
        2    1    3    3  502    0  0.12842799182E+03 -0.12964457613E+03 -0.11983490355E+04  0.12121641292E+04  0.25500000920E-02 0. -1.
       -2    1    3    3    0  502 -0.12842799182E+03  0.12964457613E+03  0.32253107718E+03  0.37057760450E+03  0.25500000920E-02 0.  1.
</event>
<event>
 5   0  0.6006119E-04  0.1302360E+04  0.7818609E-02  0.9027696E-01
        1   -1    0    0  501    0  0.00000000000E+00  0.00000000000E+00  0.53616847642E+03  0.53616847645E+03  0.50400001928E-02 0.  1.
       -1   -1    0    0    0  501  0.00000000000E+00  0.00000000000E+00 -0.79086252198E+03  0.79086252199E+03  0.50400001928E-02 0. -1.
    10030    2    1    2    0    0  0.00000000000E+00  0.00000000000E+00 -0.25469404555E+03  0.13270309984E+04  0.13023602474E+04 0.  0.
        4    1    3    3  502    0 -0.47607277826E+03 -0.42758191470E+03 -0.43864812010E+01  0.63991596174E+03  0.12699999809E+01 0.  1.
       -4    1    3    3    0  502  0.47607277826E+03  0.42758191470E+03 -0.25030756435E+03  0.68711503669E+03  0.12699999809E+01 0. -1.
</event>
<event>
 5   0  0.1101619E-03  0.1298598E+04  0.7818609E-02  0.9030678E-01
       -2   -1    0    0    0  501  0.00000000000E+00  0.00000000000E+00  0.42780113928E+03  0.42780113928E+03  0.25500000920E-02 0.  1.
        2   -1    0    0  501    0  0.00000000000E+00  0.00000000000E+00 -0.98547960534E+03  0.98547960534E+03  0.25500000920E-02 0. -1.
    10030    2    1    2    0    0  0.00000000000E+00  0.00000000000E+00 -0.55767846606E+03  0.14132807446E+04  0.12985981640E+04 0.  0.
        1    1    3    3  502    0 -0.30280346276E+03 -0.18371031246E+03 -0.87109519232E+03  0.94034368721E+03  0.50400001928E-02 0. -1.
       -1    1    3    3    0  502  0.30280346276E+03  0.18371031246E+03  0.31341672626E+03  0.47293705742E+03  0.50400001928E-02 0.  1.
</event>
<event>
 5   0  0.5710383E-04  0.1297930E+04  0.7818609E-02  0.9031208E-01
       -1   -1    0    0    0  501  0.00000000000E+00  0.00000000000E+00  0.51596299308E+03  0.51596299310E+03  0.50400001928E-02 0. -1.
        1   -1    0    0  501    0  0.00000000000E+00  0.00000000000E+00 -0.81625192438E+03  0.81625192440E+03  0.50400001928E-02 0.  1.
    10030    2    1    2    0    0  0.00000000000E+00  0.00000000000E+00 -0.30028893130E+03  0.13322149175E+04  0.12979303310E+04 0.  0.
        1    1    3    3  502    0  0.56107864450E+03  0.28448093988E+03 -0.31378323823E+03  0.70299258253E+03  0.50400001928E-02 0. -1.
       -1    1    3    3    0  502 -0.56107864450E+03 -0.28448093988E+03  0.13494306931E+02  0.62922233497E+03  0.50400001928E-02 0.  1.
</event>
<event>
 5   0  0.5563545E-04  0.1262642E+04  0.7818609E-02  0.9059726E-01
        1   -1    0    0  501    0  0.00000000000E+00  0.00000000000E+00  0.75847968846E+03  0.75847968848E+03  0.50400001928E-02 0.  1.
       -1   -1    0    0    0  501  0.00000000000E+00  0.00000000000E+00 -0.52548078056E+03  0.52548078058E+03  0.50400001928E-02 0. -1.
    10030    2    1    2    0    0  0.00000000000E+00  0.00000000000E+00  0.23299890790E+03  0.12839604691E+04  0.12626424652E+04 0.  0.
        2    1    3    3  502    0  0.88794766817E+02  0.58800007171E+03  0.33206416505E+03  0.68109852787E+03  0.25500000920E-02 0.  1.
       -2    1    3    3    0  502 -0.88794766817E+02 -0.58800007171E+03 -0.99065257154E+02  0.60286194119E+03  0.25500000920E-02 0. -1.
</event>
<event>
 5   0  0.1031295E-03  0.1298125E+04  0.7818609E-02  0.9031054E-01
       -2   -1    0    0    0  501  0.00000000000E+00  0.00000000000E+00  0.69189086548E+03  0.69189086548E+03  0.25500000920E-02 0. -1.
        2   -1    0    0  501    0  0.00000000000E+00  0.00000000000E+00 -0.60888501558E+03  0.60888501559E+03  0.25500000920E-02 0.  1.
    10030    2    1    2    0    0  0.00000000000E+00  0.00000000000E+00  0.83005849894E+02  0.13007758811E+04  0.12981247712E+04 0.  0.
        2    1    3    3  502    0 -0.10639170449E+03  0.35464724664E+03  0.57568461136E+03  0.68447544594E+03  0.25500000920E-02 0. -1.
       -2    1    3    3    0  502  0.10639170449E+03 -0.35464724664E+03 -0.49267876147E+03  0.61630043513E+03  0.25500000920E-02 0.  1.
</event>
<event>
 5   0  0.1031295E-03  0.1290600E+04  0.7818609E-02  0.9037053E-01
        2   -1    0    0  501    0  0.00000000000E+00  0.00000000000E+00  0.22394660418E+04  0.22394660418E+04  0.25500000920E-02 0. -1.
       -2   -1    0    0    0  501  0.00000000000E+00  0.00000000000E+00 -0.18594256359E+03  0.18594256360E+03  0.25500000920E-02 0.  1.
    10030    2    1    2    0    0  0.00000000000E+00  0.00000000000E+00  0.20535234782E+04  0.24254086054E+04  0.12905999487E+04 0.  0.
        2    1    3    3  502    0  0.18329434168E+03  0.24828610592E+02 -0.13505577632E+03  0.22902693798E+03  0.25500000920E-02 0.  1.
       -2    1    3    3    0  502 -0.18329434168E+03 -0.24828610592E+02  0.21885792545E+04  0.21963816674E+04  0.25500000920E-02 0. -1.
</event>
<event>
 5   0  0.4012375E-04  0.1325026E+04  0.7818609E-02  0.9009952E-01
        4   -1    0    0  501    0  0.00000000000E+00  0.00000000000E+00  0.10450279305E+04  0.10450287022E+04  0.12699999809E+01 0. -1.
       -4   -1    0    0    0  501  0.00000000000E+00  0.00000000000E+00 -0.42000909803E+03  0.42001101811E+03  0.12699999809E+01 0.  1.
    10030    2    1    2    0    0  0.00000000000E+00  0.00000000000E+00  0.62501883244E+03  0.14650397203E+04  0.13250256002E+04 0.  0.
        4    1    3    3  502    0  0.61699460383E+03 -0.14334197429E+02  0.46151513851E+02  0.61888559969E+03  0.12699999809E+01 0.  1.
       -4    1    3    3    0  502 -0.61699460383E+03  0.14334197429E+02  0.57886731859E+03  0.84615412060E+03  0.12699999809E+01 0. -1.
</event>
<event>
 5   0  0.1101619E-03  0.1306437E+04  0.7818609E-02  0.9024476E-01
       -2   -1    0    0    0  501  0.00000000000E+00  0.00000000000E+00  0.45721407986E+03  0.45721407987E+03  0.25500000920E-02 0. -1.
        2   -1    0    0  501    0  0.00000000000E+00  0.00000000000E+00 -0.93324797965E+03  0.93324797966E+03  0.25500000920E-02 0.  1.
    10030    2    1    2    0    0  0.00000000000E+00  0.00000000000E+00 -0.47603389979E+03  0.13904620595E+04  0.13064365523E+04 0.  0.
        1    1    3    3  502    0  0.11101705899E+03 -0.34764042794E+03  0.33859854970E+03  0.49782289261E+03  0.50400001928E-02 0. -1.
       -1    1    3    3    0  502 -0.11101705899E+03  0.34764042794E+03 -0.81463244949E+03  0.89263916691E+03  0.50400001928E-02 0.  1.
</event>
<event>
 5   0  0.5766027E-04  0.1300401E+04  0.7818609E-02  0.9029248E-01
       -1   -1    0    0    0  501  0.00000000000E+00  0.00000000000E+00  0.54341483840E+03  0.54341483842E+03  0.50400001928E-02 0. -1.
        1   -1    0    0  501    0  0.00000000000E+00  0.00000000000E+00 -0.77796986344E+03  0.77796986345E+03  0.50400001928E-02 0.  1.
    10030    2    1    2    0    0  0.00000000000E+00  0.00000000000E+00 -0.23455502504E+03  0.13213847019E+04  0.13004005039E+04 0.  0.
        3    1    3    3  502    0  0.99699279692E+02 -0.49800611121E+03 -0.52979688871E+03  0.73391742496E+03  0.10100000352E+00 0.  1.
       -3    1    3    3    0  502 -0.99699279692E+02  0.49800611121E+03  0.29524186367E+03  0.58746727691E+03  0.10100000352E+00 0. -1.
</event>
<event>
 5   0  0.1103241E-03  0.1296172E+04  0.7818609E-02  0.9032607E-01
       -2   -1    0    0    0  501  0.00000000000E+00  0.00000000000E+00  0.28425465809E+03  0.28425465810E+03  0.25500000920E-02 0.  1.
        2   -1    0    0  501    0  0.00000000000E+00  0.00000000000E+00 -0.14776020413E+04  0.14776020413E+04  0.25500000920E-02 0. -1.
    10030    2    1    2    0    0  0.00000000000E+00  0.00000000000E+00 -0.11933473832E+04  0.17618566994E+04  0.12961716909E+04 0.  0.
        4    1    3    3  502    0 -0.26043810276E+02 -0.17634431321E+03 -0.14436223815E+04  0.14545868107E+04  0.12699999809E+01 0. -1.
       -4    1    3    3    0  502  0.26043810276E+02  0.17634431321E+03  0.25027499822E+03  0.30726988868E+03  0.12699999809E+01 0.  1.
</event>
<event>
 5   0  0.1081574E-03  0.1318250E+04  0.7818609E-02  0.9015217E-01
        2   -1    0    0  501    0  0.00000000000E+00  0.00000000000E+00  0.11071970447E+04  0.11071970447E+04  0.25500000920E-02 0. -1.
       -2   -1    0    0    0  501  0.00000000000E+00  0.00000000000E+00 -0.39238324827E+03  0.39238324828E+03  0.25500000920E-02 0.  1.
    10030    2    1    2    0    0  0.00000000000E+00  0.00000000000E+00  0.71481379641E+03  0.14995802930E+04  0.13182497076E+04 0.  0.
        5    1    3    3  502    0  0.27990246235E+03  0.21863627418E+02  0.10357555457E+04  0.10731426034E+04  0.46999998093E+01 0. -1.
       -5    1    3    3    0  502 -0.27990246235E+03 -0.21863627418E+02 -0.32094174933E+03  0.42643768959E+03  0.46999998093E+01 0.  1.
</event>
<event>
 5   0  0.1046253E-03  0.1309577E+04  0.7818609E-02  0.9022005E-01
        2   -1    0    0  501    0  0.00000000000E+00  0.00000000000E+00  0.86095751115E+03  0.86095751116E+03  0.25500000920E-02 0. -1.
       -2   -1    0    0    0  501  0.00000000000E+00  0.00000000000E+00 -0.49798958087E+03  0.49798958087E+03  0.25500000920E-02 0.  1.
    10030    2    1    2    0    0  0.00000000000E+00  0.00000000000E+00  0.36296793028E+03  0.13589470920E+04  0.13095768326E+04 0.  0.
        3    1    3    3  502    0 -0.28763362697E+03 -0.43290998488E+03  0.59474858334E+03  0.78985444606E+03  0.10100000352E+00 0. -1.
       -3    1    3    3    0  502  0.28763362697E+03  0.43290998488E+03 -0.23178065306E+03  0.56909264597E+03  0.10100000352E+00 0.  1.
</event>
<event>
 5   0  0.5710383E-04  0.1298549E+04  0.7818609E-02  0.9030717E-01
        1   -1    0    0  501    0  0.00000000000E+00  0.00000000000E+00  0.59793026247E+03  0.59793026249E+03  0.50400001928E-02 0.  1.
       -1   -1    0    0    0  501  0.00000000000E+00  0.00000000000E+00 -0.70502725105E+03  0.70502725107E+03  0.50400001928E-02 0. -1.
    10030    2    1    2    0    0  0.00000000000E+00  0.00000000000E+00 -0.10709698858E+03  0.13029575136E+04  0.12985486195E+04 0.  0.
        1    1    3    3  502    0 -0.12634324483E+03  0.12665733011E+03  0.57271197793E+03  0.60000308705E+03  0.50400001928E-02 0.  1.
       -1    1    3    3    0  502  0.12634324483E+03 -0.12665733011E+03 -0.67980896650E+03  0.70295442651E+03  0.50400001928E-02 0. -1.
</event>
<event>
 5   0  0.5563545E-04  0.1300643E+04  0.7818609E-02  0.9029055E-01
        1   -1    0    0  501    0  0.00000000000E+00  0.00000000000E+00  0.44597520175E+03  0.44597520178E+03  0.50400001928E-02 0.  1.
       -1   -1    0    0    0  501  0.00000000000E+00  0.00000000000E+00 -0.94829950255E+03  0.94829950256E+03  0.50400001928E-02 0. -1.
    10030    2    1    2    0    0  0.00000000000E+00  0.00000000000E+00 -0.50232430079E+03  0.13942747043E+04  0.13006430133E+04 0.  0.
        2    1    3    3  502    0  0.56650216586E+03  0.27801907454E+03 -0.41963415480E+03  0.75783384301E+03  0.25500000920E-02 0. -1.
       -2    1    3    3    0  502 -0.56650216586E+03 -0.27801907454E+03 -0.82690145996E+02  0.63644086134E+03  0.25500000920E-02 0.  1.
</event>
<event>
 5   0  0.5563545E-04  0.1298489E+04  0.7818609E-02  0.9030764E-01
       -1   -1    0    0    0  501  0.00000000000E+00  0.00000000000E+00  0.38689187510E+03  0.38689187513E+03  0.50400001928E-02 0.  1.
        1   -1    0    0  501    0  0.00000000000E+00  0.00000000000E+00 -0.10894989707E+04  0.10894989707E+04  0.50400001928E-02 0. -1.
    10030    2    1    2    0    0  0.00000000000E+00  0.00000000000E+00 -0.70260709563E+03  0.14763908459E+04  0.12984888136E+04 0.  0.
        2    1    3    3  502    0 -0.13895953759E+02 -0.48616831860E+03 -0.84030322978E+03  0.97090795110E+03  0.25500000920E-02 0. -1.
       -2    1    3    3    0  502  0.13895953759E+02  0.48616831860E+03  0.13769613415E+03  0.50548289477E+03  0.25500000920E-02 0.  1.
</event>
<event>
 5   0  0.1031295E-03  0.1344686E+04  0.7818609E-02  0.8994861E-01
        2   -1    0    0  501    0  0.00000000000E+00  0.00000000000E+00  0.34915668129E+03  0.34915668129E+03  0.25500000920E-02 0.  1.
       -2   -1    0    0    0  501  0.00000000000E+00  0.00000000000E+00 -0.12946766030E+04  0.12946766030E+04  0.25500000920E-02 0. -1.
    10030    2    1    2    0    0  0.00000000000E+00  0.00000000000E+00 -0.94551992175E+03  0.16438332843E+04  0.13446858162E+04 0.  0.
        2    1    3    3  502    0  0.25194840458E+03 -0.47707683560E+03  0.17698512149E+02  0.53980880224E+03  0.25500000920E-02 0.  1.
       -2    1    3    3    0  502 -0.25194840458E+03  0.47707683560E+03 -0.96321843390E+03  0.11040244821E+04  0.25500000920E-02 0. -1.
</event>
<event>
 5   0  0.1103241E-03  0.1234961E+04  0.7818609E-02  0.9082794E-01
        2   -1    0    0  501    0  0.00000000000E+00  0.00000000000E+00  0.13584441234E+04  0.13584441234E+04  0.25500000920E-02 0.  1.
       -2   -1    0    0    0  501  0.00000000000E+00  0.00000000000E+00 -0.28067552406E+03  0.28067552408E+03  0.25500000920E-02 0. -1.
    10030    2    1    2    0    0  0.00000000000E+00  0.00000000000E+00  0.10777685993E+04  0.16391196475E+04  0.12349607544E+04 0.  0.
        4    1    3    3  502    0  0.41651111218E+03  0.38038907516E+03  0.20547119233E+03  0.60033105770E+03  0.12699999809E+01 0. -1.
       -4    1    3    3    0  502 -0.41651111218E+03 -0.38038907516E+03  0.87229740698E+03  0.10387885897E+04  0.12699999809E+01 0.  1.
</event>
<event>
 5   0  0.1081574E-03  0.1298481E+04  0.7818609E-02  0.9030771E-01
        2   -1    0    0  501    0  0.00000000000E+00  0.00000000000E+00  0.98968645401E+03  0.98968645401E+03  0.25500000920E-02 0. -1.
       -2   -1    0    0    0  501  0.00000000000E+00  0.00000000000E+00 -0.42590566498E+03  0.42590566499E+03  0.25500000920E-02 0.  1.
    10030    2    1    2    0    0  0.00000000000E+00  0.00000000000E+00  0.56378078903E+03  0.14155921190E+04  0.12984807543E+04 0.  0.
        5    1    3    3  502    0 -0.53300558174E+03 -0.35134942588E+03  0.15312960753E+03  0.65651514524E+03  0.46999998093E+01 0.  1.
       -5    1    3    3    0  502  0.53300558174E+03  0.35134942588E+03  0.41065118150E+03  0.75907697376E+03  0.46999998093E+01 0. -1.
</event>
<event>
 5   0  0.5710383E-04  0.1294562E+04  0.7818609E-02  0.9033888E-01
        1   -1    0    0  501    0  0.00000000000E+00  0.00000000000E+00  0.16676422511E+04  0.16676422511E+04  0.50400001928E-02 0. -1.
       -1   -1    0    0    0  501  0.00000000000E+00  0.00000000000E+00 -0.25123671388E+03  0.25123671393E+03  0.50400001928E-02 0.  1.
    10030    2    1    2    0    0  0.00000000000E+00  0.00000000000E+00  0.14164055372E+04  0.19188789650E+04  0.12945624112E+04 0.  0.
        1    1    3    3  502    0  0.62293916007E+03 -0.12063657256E+03  0.89783124224E+03  0.10994122609E+04  0.50400001928E-02 0.  1.
       -1    1    3    3    0  502 -0.62293916007E+03  0.12063657256E+03  0.51857429497E+03  0.81946670416E+03  0.50400001928E-02 0. -1.
</event>
<event>
 5   0  0.6006119E-04  0.1302686E+04  0.7818609E-02  0.9027438E-01
        1   -1    0    0  501    0  0.00000000000E+00  0.00000000000E+00  0.63304018074E+03  0.63304018076E+03  0.50400001928E-02 0. -1.
       -1   -1    0    0    0  501  0.00000000000E+00  0.00000000000E+00 -0.67017467786E+03  0.67017467788E+03  0.50400001928E-02 0.  1.
    10030    2    1    2    0    0  0.00000000000E+00  0.00000000000E+00 -0.37134497129E+02  0.13032148586E+04  0.13026856862E+04 0.  0.
        4    1    3    3  502    0  0.75021350030E+02  0.14143086213E+03 -0.65018335697E+03  0.66960503456E+03  0.12699999809E+01 0.  1.
       -4    1    3    3    0  502 -0.75021350030E+02 -0.14143086213E+03  0.61304885984E+03  0.63360982408E+03  0.12699999809E+01 0. -1.
</event>
<event>
 5   0  0.1031295E-03  0.1286904E+04  0.7818609E-02  0.9040016E-01
       -2   -1    0    0    0  501  0.00000000000E+00  0.00000000000E+00  0.61254936619E+03  0.61254936619E+03  0.25500000920E-02 0. -1.
        2   -1    0    0  501    0  0.00000000000E+00  0.00000000000E+00 -0.67591332954E+03  0.67591332954E+03  0.25500000920E-02 0.  1.
    10030    2    1    2    0    0  0.00000000000E+00  0.00000000000E+00 -0.63363963352E+02  0.12884626957E+04  0.12869036974E+04 0.  0.
        2    1    3    3  502    0 -0.45747995690E+03  0.18075005130E+03 -0.44699987101E+03  0.66465583327E+03  0.25500000920E-02 0.  1.
       -2    1    3    3    0  502  0.45747995690E+03 -0.18075005130E+03  0.38363590766E+03  0.62380686247E+03  0.25500000920E-02 0. -1.
</event>
<event>
 5   0  0.1101619E-03  0.1303960E+04  0.7818609E-02  0.9026431E-01
        2   -1    0    0  501    0  0.00000000000E+00  0.00000000000E+00  0.42527390465E+03  0.42527390465E+03  0.25500000920E-02 0. -1.
       -2   -1    0    0    0  501  0.00000000000E+00  0.00000000000E+00 -0.99953872600E+03  0.99953872600E+03  0.25500000920E-02 0.  1.
    10030    2    1    2    0    0  0.00000000000E+00  0.00000000000E+00 -0.57426482135E+03  0.14248126307E+04  0.13039597185E+04 0.  0.
        1    1    3    3  502    0  0.14990281529E+03  0.37590546254E+03  0.27142127200E+03  0.48728357013E+03  0.50400001928E-02 0. -1.
       -1    1    3    3    0  502 -0.14990281529E+03 -0.37590546254E+03 -0.84568609335E+03  0.93752906052E+03  0.50400001928E-02 0.  1.
</event>
<event>
 5   0  0.1101619E-03  0.1250492E+04  0.7818609E-02  0.9069774E-01
       -2   -1    0    0    0  501  0.00000000000E+00  0.00000000000E+00  0.24050187705E+03  0.24050187707E+03  0.25500000920E-02 0.  1.
        2   -1    0    0  501    0  0.00000000000E+00  0.00000000000E+00 -0.16254856700E+04  0.16254856700E+04  0.25500000920E-02 0. -1.
    10030    2    1    2    0    0  0.00000000000E+00  0.00000000000E+00 -0.13849837930E+04  0.18659875471E+04  0.12504916709E+04 0.  0.
        1    1    3    3  502    0 -0.62293181848E+03  0.39666141874E+01 -0.77246855717E+03  0.99235450135E+03  0.50400001928E-02 0. -1.
       -1    1    3    3    0  502  0.62293181848E+03 -0.39666141874E+01 -0.61251523578E+03  0.87363304573E+03  0.50400001928E-02 0.  1.
</event>
<event>
 5   0  0.5563545E-04  0.1291647E+04  0.7818609E-02  0.9036216E-01
        1   -1    0    0  501    0  0.00000000000E+00  0.00000000000E+00  0.11606178128E+04  0.11606178128E+04  0.50400001928E-02 0.  1.
       -1   -1    0    0    0  501  0.00000000000E+00  0.00000000000E+00 -0.35936695040E+03  0.35936695043E+03  0.50400001928E-02 0. -1.
    10030    2    1    2    0    0  0.00000000000E+00  0.00000000000E+00  0.80125086238E+03  0.15199847632E+04  0.12916465213E+04 0.  0.
        2    1    3    3  502    0  0.13057390187E+03  0.32985117303E+02  0.11439095558E+04  0.11518101552E+04  0.25500000920E-02 0.  1.
       -2    1    3    3    0  502 -0.13057390187E+03 -0.32985117303E+02 -0.34265869341E+03  0.36817460801E+03  0.25500000920E-02 0. -1.
</event>
<event>
 5   0  0.1081574E-03  0.1314560E+04  0.7818609E-02  0.9018098E-01
        2   -1    0    0  501    0  0.00000000000E+00  0.00000000000E+00  0.11992816698E+04  0.11992816698E+04  0.25500000920E-02 0.  1.
       -2   -1    0    0    0  501  0.00000000000E+00  0.00000000000E+00 -0.36023000002E+03  0.36023000003E+03  0.25500000920E-02 0. -1.
    10030    2    1    2    0    0  0.00000000000E+00  0.00000000000E+00  0.83905166974E+03  0.15595116698E+04  0.13145603614E+04 0.  0.
        5    1    3    3  502    0 -0.38809089956E+00  0.58381170829E+03  0.61340667489E+02  0.58704431590E+03  0.46999998093E+01 0. -1.
       -5    1    3    3    0  502  0.38809089956E+00 -0.58381170829E+03  0.77771100225E+03  0.97246735388E+03  0.46999998093E+01 0.  1.
</event>
<event>
 5   0  0.6006119E-04  0.1308321E+04  0.7818609E-02  0.9022992E-01
        1   -1    0    0  501    0  0.00000000000E+00  0.00000000000E+00  0.78429426774E+03  0.78429426776E+03  0.50400001928E-02 0.  1.
       -1   -1    0    0    0  501  0.00000000000E+00  0.00000000000E+00 -0.54561954041E+03  0.54561954043E+03  0.50400001928E-02 0. -1.
    10030    2    1    2    0    0  0.00000000000E+00  0.00000000000E+00  0.23867472733E+03  0.13299138082E+04  0.13083214864E+04 0.  0.
        4    1    3    3  502    0 -0.53672712851E+03  0.14000434194E+03 -0.23315274843E+03  0.60169680342E+03  0.12699999809E+01 0. -1.
       -4    1    3    3    0  502  0.53672712851E+03 -0.14000434194E+03  0.47182747577E+03  0.72821700477E+03  0.12699999809E+01 0.  1.
</event>
<event>
 5   0  0.5710383E-04  0.1304253E+04  0.7818609E-02  0.9026199E-01
        1   -1    0    0  501    0  0.00000000000E+00  0.00000000000E+00  0.11796041142E+04  0.11796041143E+04  0.50400001928E-02 0.  1.
       -1   -1    0    0    0  501  0.00000000000E+00  0.00000000000E+00 -0.36051847774E+03  0.36051847778E+03  0.50400001928E-02 0. -1.
    10030    2    1    2    0    0  0.00000000000E+00  0.00000000000E+00  0.81908563650E+03  0.15401225920E+04  0.13042531651E+04 0.  0.
        1    1    3    3  502    0 -0.25528113656E+03  0.27526006334E+03 -0.22011798370E+03  0.43518787658E+03  0.50400001928E-02 0. -1.
       -1    1    3    3    0  502  0.25528113656E+03 -0.27526006334E+03  0.10392036202E+04  0.11049347154E+04  0.50400001928E-02 0.  1.
</event>
<event>
 5   0  0.5710383E-04  0.1294063E+04  0.7818609E-02  0.9034287E-01
       -1   -1    0    0    0  501  0.00000000000E+00  0.00000000000E+00  0.99509765151E+03  0.99509765153E+03  0.50400001928E-02 0.  1.
        1   -1    0    0  501    0  0.00000000000E+00  0.00000000000E+00 -0.42071205150E+03  0.42071205153E+03  0.50400001928E-02 0. -1.
    10030    2    1    2    0    0  0.00000000000E+00  0.00000000000E+00  0.57438560001E+03  0.14158097031E+04  0.12940627101E+04 0.  0.
        1    1    3    3  502    0 -0.28421118468E+03  0.45205031089E+02  0.92122214578E+03  0.96512679697E+03  0.50400001928E-02 0.  1.
       -1    1    3    3    0  502  0.28421118468E+03 -0.45205031089E+02 -0.34683654577E+03  0.45068290609E+03  0.50400001928E-02 0. -1.
</event>
<event>
 5   0  0.5563545E-04  0.1299894E+04  0.7818609E-02  0.9029650E-01
        1   -1    0    0  501    0  0.00000000000E+00  0.00000000000E+00  0.74013904183E+03  0.74013904185E+03  0.50400001928E-02 0.  1.
       -1   -1    0    0    0  501  0.00000000000E+00  0.00000000000E+00 -0.57074526815E+03  0.57074526817E+03  0.50400001928E-02 0. -1.
    10030    2    1    2    0    0  0.00000000000E+00  0.00000000000E+00  0.16939377368E+03  0.13108843100E+04  0.12998936201E+04 0.  0.
        2    1    3    3  502    0 -0.36253592461E+03  0.89146474926E+02  0.62122101426E+03  0.72477233611E+03  0.25500000920E-02 0.  1.
       -2    1    3    3    0  502  0.36253592461E+03 -0.89146474926E+02 -0.45182724058E+03  0.58611197391E+03  0.25500000920E-02 0. -1.
</event>
<event>
 5   0  0.5710383E-04  0.1289144E+04  0.7818609E-02  0.9038218E-01
       -1   -1    0    0    0  501  0.00000000000E+00  0.00000000000E+00  0.49634524424E+03  0.49634524426E+03  0.50400001928E-02 0. -1.
        1   -1    0    0  501    0  0.00000000000E+00  0.00000000000E+00 -0.83706494943E+03  0.83706494944E+03  0.50400001928E-02 0.  1.
    10030    2    1    2    0    0  0.00000000000E+00  0.00000000000E+00 -0.34071970519E+03  0.13334101937E+04  0.12891442228E+04 0.  0.
        1    1    3    3  502    0  0.22208661412E+03 -0.60313889195E+03 -0.11996076110E+03  0.65382686652E+03  0.50400001928E-02 0.  1.
       -1    1    3    3    0  502 -0.22208661412E+03  0.60313889195E+03 -0.22075894409E+03  0.67958332718E+03  0.50400001928E-02 0. -1.
</event>
<event>
 5   0  0.1046253E-03  0.1300244E+04  0.7818609E-02  0.9029371E-01
        2   -1    0    0  501    0  0.00000000000E+00  0.00000000000E+00  0.15153060773E+04  0.15153060773E+04  0.25500000920E-02 0. -1.
       -2   -1    0    0    0  501  0.00000000000E+00  0.00000000000E+00 -0.27892636556E+03  0.27892636557E+03  0.25500000920E-02 0.  1.
    10030    2    1    2    0    0  0.00000000000E+00  0.00000000000E+00  0.12363797118E+04  0.17942324429E+04  0.13002443107E+04 0.  0.
        3    1    3    3  502    0 -0.18580796218E+03 -0.11819670236E+03  0.14622717728E+04  0.14787609026E+04  0.10100000352E+00 0. -1.
       -3    1    3    3    0  502  0.18580796218E+03  0.11819670236E+03 -0.22589206109E+03  0.31547154027E+03  0.10100000352E+00 0.  1.
</event>
<event>
 5   0  0.5766027E-04  0.1300403E+04  0.7818609E-02  0.9029245E-01
       -1   -1    0    0    0  501  0.00000000000E+00  0.00000000000E+00  0.51217228024E+03  0.51217228027E+03  0.50400001928E-02 0.  1.
        1   -1    0    0  501    0  0.00000000000E+00  0.00000000000E+00 -0.82542961519E+03  0.82542961520E+03  0.50400001928E-02 0. -1.
    10030    2    1    2    0    0  0.00000000000E+00  0.00000000000E+00 -0.31325733495E+03  0.13376018955E+04  0.13004032732E+04 0.  0.
        3    1    3    3  502    0  0.32618594837E+03 -0.24774804084E+03  0.36277715494E+03  0.54715961018E+03  0.10100000352E+00 0.  1.
       -3    1    3    3    0  502 -0.32618594837E+03  0.24774804084E+03 -0.67603448989E+03  0.79044228529E+03  0.10100000352E+00 0. -1.
</event>
<event>
 5   0  0.1103241E-03  0.1305407E+04  0.7818609E-02  0.9025288E-01
       -2   -1    0    0    0  501  0.00000000000E+00  0.00000000000E+00  0.36320008918E+03  0.36320008919E+03  0.25500000920E-02 0.  1.
        2   -1    0    0  501    0  0.00000000000E+00  0.00000000000E+00 -0.11729671293E+04  0.11729671293E+04  0.25500000920E-02 0. -1.
    10030    2    1    2    0    0  0.00000000000E+00  0.00000000000E+00 -0.80976704016E+03  0.15361672185E+04  0.13054068576E+04 0.  0.
        4    1    3    3  502    0 -0.15206024879E+03  0.40025546659E+02 -0.11503444810E+04  0.11610419465E+04  0.12699999809E+01 0. -1.
       -4    1    3    3    0  502  0.15206024879E+03 -0.40025546659E+02  0.34057744082E+03  0.37512527207E+03  0.12699999809E+01 0.  1.
</event>
<event>
 5   0  0.1046253E-03  0.1298178E+04  0.7818609E-02  0.9031011E-01
       -2   -1    0    0    0  501  0.00000000000E+00  0.00000000000E+00  0.24309061357E+03  0.24309061358E+03  0.25500000920E-02 0.  1.
        2   -1    0    0  501    0  0.00000000000E+00  0.00000000000E+00 -0.17331669670E+04  0.17331669670E+04  0.25500000920E-02 0. -1.
    10030    2    1    2    0    0  0.00000000000E+00  0.00000000000E+00 -0.14900763534E+04  0.19762575806E+04  0.12981781410E+04 0.  0.
        3    1    3    3  502    0 -0.46529672716E+03 -0.35272295232E+03 -0.11766992781E+04  0.13135964855E+04  0.10100000352E+00 0.  1.
       -3    1    3    3    0  502  0.46529672716E+03  0.35272295232E+03 -0.31337707531E+03  0.66266109508E+03  0.10100000352E+00 0. -1.
</event>
<event>
 5   0  0.1031295E-03  0.1308363E+04  0.7818609E-02  0.9022959E-01
       -2   -1    0    0    0  501  0.00000000000E+00  0.00000000000E+00  0.36881413832E+03  0.36881413832E+03  0.25500000920E-02 0.  1.
        2   -1    0    0  501    0  0.00000000000E+00  0.00000000000E+00 -0.11603500926E+04  0.11603500926E+04  0.25500000920E-02 0. -1.
    10030    2    1    2    0    0  0.00000000000E+00  0.00000000000E+00 -0.79153595430E+03  0.15291642309E+04  0.13083631294E+04 0.  0.
        2    1    3    3  502    0 -0.53079036679E+02 -0.13013154726E+03  0.35096159936E+03  0.37805508588E+03  0.25500000920E-02 0.  1.
       -2    1    3    3    0  502  0.53079036679E+02  0.13013154726E+03 -0.11424975537E+04  0.11511091451E+04  0.25500000920E-02 0. -1.
</event>
<event>
 5   0  0.5812938E-04  0.1298387E+04  0.7818609E-02  0.9030845E-01
        1   -1    0    0  501    0  0.00000000000E+00  0.00000000000E+00  0.58191031363E+03  0.58191031365E+03  0.50400001928E-02 0. -1.
       -1   -1    0    0    0  501  0.00000000000E+00  0.00000000000E+00 -0.72425635011E+03  0.72425635013E+03  0.50400001928E-02 0.  1.
    10030    2    1    2    0    0  0.00000000000E+00  0.00000000000E+00 -0.14234603648E+03  0.13061666638E+04  0.12983870607E+04 0.  0.
        5    1    3    3  502    0  0.19779676509E+03  0.60921459728E+03  0.35120680904E+02  0.64149944509E+03  0.46999998093E+01 0.  1.
       -5    1    3    3    0  502 -0.19779676509E+03 -0.60921459728E+03 -0.17746671739E+03  0.66466721869E+03  0.46999998093E+01 0. -1.
</event>
<event>
 5   0  0.5710383E-04  0.1304529E+04  0.7818609E-02  0.9025981E-01
        1   -1    0    0  501    0  0.00000000000E+00  0.00000000000E+00  0.13046561564E+04  0.13046561564E+04  0.50400001928E-02 0. -1.
       -1   -1    0    0    0  501  0.00000000000E+00  0.00000000000E+00 -0.32610043856E+03  0.32610043860E+03  0.50400001928E-02 0.  1.
    10030    2    1    2    0    0  0.00000000000E+00  0.00000000000E+00  0.97855571781E+03  0.16307565950E+04  0.13045289492E+04 0.  0.
        1    1    3    3  502    0 -0.34900836859E+03  0.54664131407E+03  0.40244160982E+03  0.76327112937E+03  0.50400001928E-02 0.  1.
       -1    1    3    3    0  502  0.34900836859E+03 -0.54664131407E+03  0.57611410799E+03  0.86748546561E+03  0.50400001928E-02 0. -1.
</event>
<event>
 5   0  0.1101619E-03  0.1296032E+04  0.7818609E-02  0.9032718E-01
        2   -1    0    0  501    0  0.00000000000E+00  0.00000000000E+00  0.15145169787E+04  0.15145169787E+04  0.25500000920E-02 0.  1.
       -2   -1    0    0    0  501  0.00000000000E+00  0.00000000000E+00 -0.27726627831E+03  0.27726627832E+03  0.25500000920E-02 0. -1.
    10030    2    1    2    0    0  0.00000000000E+00  0.00000000000E+00  0.12372507004E+04  0.17917832570E+04  0.12960316140E+04 0.  0.
        1    1    3    3  502    0  0.32856676943E+02 -0.41434392369E+03  0.13059509495E+04  0.13704992998E+04  0.50400001928E-02 0.  1.
       -1    1    3    3    0  502 -0.32856676943E+02  0.41434392369E+03 -0.68700249113E+02  0.42128395718E+03  0.50400001928E-02 0. -1.
</event>
<event>
 5   0  0.1103241E-03  0.1295443E+04  0.7818609E-02  0.9033186E-01
        2   -1    0    0  501    0  0.00000000000E+00  0.00000000000E+00  0.92094929279E+03  0.92094929280E+03  0.25500000920E-02 0. -1.
       -2   -1    0    0    0  501  0.00000000000E+00  0.00000000000E+00 -0.45555531114E+03  0.45555531115E+03  0.25500000920E-02 0.  1.
    10030    2    1    2    0    0  0.00000000000E+00  0.00000000000E+00  0.46539398165E+03  0.13765046039E+04  0.12954433089E+04 0.  0.
        4    1    3    3  502    0 -0.43796023870E+03  0.39168342490E+03 -0.56972213462E+02  0.59031561221E+03  0.12699999809E+01 0.  1.
       -4    1    3    3    0  502  0.43796023870E+03 -0.39168342490E+03  0.52236619511E+03  0.78618899173E+03  0.12699999809E+01 0. -1.
</event>
<event>
 5   0  0.4012375E-04  0.1306055E+04  0.7818609E-02  0.9024777E-01
        4   -1    0    0  501    0  0.00000000000E+00  0.00000000000E+00  0.13568146377E+04  0.13568152320E+04  0.12699999809E+01 0. -1.
       -4   -1    0    0    0  501  0.00000000000E+00  0.00000000000E+00 -0.31429686534E+03  0.31429943122E+03  0.12699999809E+01 0.  1.
    10030    2    1    2    0    0  0.00000000000E+00  0.00000000000E+00  0.10425177723E+04  0.16711146633E+04  0.13060554782E+04 0.  0.
        2    1    3    3  502    0 -0.48004342071E+03 -0.12635381752E+03  0.10641678626E+04  0.11742487866E+04  0.25500000920E-02 0. -1.
       -2    1    3    3    0  502  0.48004342071E+03  0.12635381752E+03 -0.21650090307E+02  0.49686587666E+03  0.25500000920E-02 0.  1.
</event>
<event>
 5   0  0.1046253E-03  0.1303503E+04  0.7818609E-02  0.9026792E-01
       -2   -1    0    0    0  501  0.00000000000E+00  0.00000000000E+00  0.28407644714E+03  0.28407644715E+03  0.25500000920E-02 0.  1.
        2   -1    0    0  501    0  0.00000000000E+00  0.00000000000E+00 -0.14953008568E+04  0.14953008568E+04  0.25500000920E-02 0. -1.
    10030    2    1    2    0    0  0.00000000000E+00  0.00000000000E+00 -0.12112244097E+04  0.17793773040E+04  0.13035025966E+04 0.  0.
        3    1    3    3  502    0 -0.51427365845E+03 -0.11319916468E+03 -0.81366443079E+02  0.53283389055E+03  0.10100000352E+00 0. -1.
       -3    1    3    3    0  502  0.51427365845E+03  0.11319916468E+03 -0.11298579666E+04  0.12465434134E+04  0.10100000352E+00 0.  1.
</event>
<event>
 5   0  0.1103241E-03  0.1303325E+04  0.7818609E-02  0.9026933E-01
       -2   -1    0    0    0  501  0.00000000000E+00  0.00000000000E+00  0.12835803598E+03  0.12835803600E+03  0.25500000920E-02 0. -1.
        2   -1    0    0  501    0  0.00000000000E+00  0.00000000000E+00 -0.33084326034E+04  0.33084326034E+04  0.25500000920E-02 0.  1.
    10030    2    1    2    0    0  0.00000000000E+00  0.00000000000E+00 -0.31800745674E+04  0.34367906394E+04  0.13033248424E+04 0.  0.
        4    1    3    3  502    0 -0.35286652483E+03 -0.50303887877E+03 -0.10177579108E+04  0.11888631863E+04  0.12699999809E+01 0. -1.
       -4    1    3    3    0  502  0.35286652483E+03  0.50303887877E+03 -0.21623166566E+04  0.22479274531E+04  0.12699999809E+01 0.  1.
</event>
<event>
 5   0  0.5812938E-04  0.1285849E+04  0.7818609E-02  0.9040863E-01
       -1   -1    0    0    0  501  0.00000000000E+00  0.00000000000E+00  0.53613710329E+03  0.53613710332E+03  0.50400001928E-02 0.  1.
        1   -1    0    0  501    0  0.00000000000E+00  0.00000000000E+00 -0.77098200037E+03  0.77098200039E+03  0.50400001928E-02 0. -1.
    10030    2    1    2    0    0  0.00000000000E+00  0.00000000000E+00 -0.23484489708E+03  0.13071191037E+04  0.12858492235E+04 0.  0.
        5    1    3    3  502    0 -0.46924702626E+02 -0.30073733159E+03  0.45823549679E+03  0.55013337551E+03  0.46999998093E+01 0.  1.
       -5    1    3    3    0  502  0.46924702626E+02  0.30073733159E+03 -0.69308039387E+03  0.75698572820E+03  0.46999998093E+01 0. -1.
</event>
<event>
 5   0  0.5563545E-04  0.1306789E+04  0.7818609E-02  0.9024199E-01
        1   -1    0    0  501    0  0.00000000000E+00  0.00000000000E+00  0.21487472963E+04  0.21487472963E+04  0.50400001928E-02 0. -1.
       -1   -1    0    0    0  501  0.00000000000E+00  0.00000000000E+00 -0.19868522705E+03  0.19868522711E+03  0.50400001928E-02 0.  1.
    10030    2    1    2    0    0  0.00000000000E+00  0.00000000000E+00  0.19500620692E+04  0.23474325234E+04  0.13067889570E+04 0.  0.
        2    1    3    3  502    0  0.56847592903E+03 -0.23613327867E+03  0.58147125289E+03  0.84677778970E+03  0.25500000920E-02 0.  1.
       -2    1    3    3    0  502 -0.56847592903E+03  0.23613327867E+03  0.13685908163E+04  0.15006547337E+04  0.25500000920E-02 0. -1.
</event>
<event>
 5   0  0.4012375E-04  0.1262868E+04  0.7818609E-02  0.9059541E-01
       -3   -1    0    0    0  501  0.00000000000E+00  0.00000000000E+00  0.18783755986E+04  0.18783756013E+04  0.10100000352E+00 0. -1.
        3   -1    0    0  501    0  0.00000000000E+00  0.00000000000E+00 -0.21226257390E+03  0.21226259793E+03  0.10100000352E+00 0.  1.
    10030    2    1    2    0    0  0.00000000000E+00  0.00000000000E+00  0.16661130247E+04  0.20906381992E+04  0.12628679539E+04 0.  0.
        5    1    3    3  502    0  0.11194561973E+03  0.61993642230E+03  0.76216479832E+03  0.98882266321E+03  0.46999998093E+01 0.  1.
       -5    1    3    3    0  502 -0.11194561973E+03 -0.61993642230E+03  0.90394822638E+03  0.11018155360E+04  0.46999998093E+01 0. -1.
</event>
<event>
 5   0  0.1103241E-03  0.1295959E+04  0.7818609E-02  0.9032776E-01
       -2   -1    0    0    0  501  0.00000000000E+00  0.00000000000E+00  0.37930592998E+03  0.37930592999E+03  0.25500000920E-02 0.  1.
        2   -1    0    0  501    0  0.00000000000E+00  0.00000000000E+00 -0.11069618971E+04  0.11069618971E+04  0.25500000920E-02 0. -1.
    10030    2    1    2    0    0  0.00000000000E+00  0.00000000000E+00 -0.72765596708E+03  0.14862678271E+04  0.12959586596E+04 0.  0.
        4    1    3    3  502    0  0.40985045905E+03 -0.34476763140E+02  0.21040927822E+03  0.46199537145E+03  0.12699999809E+01 0.  1.
       -4    1    3    3    0  502 -0.40985045905E+03  0.34476763140E+02 -0.93806524529E+03  0.10242724556E+04  0.12699999809E+01 0. -1.
</event>
<event>
 5   0  0.1046253E-03  0.1291858E+04  0.7818609E-02  0.9036047E-01
       -2   -1    0    0    0  501  0.00000000000E+00  0.00000000000E+00  0.24754243612E+03  0.24754243613E+03  0.25500000920E-02 0.  1.
        2   -1    0    0  501    0  0.00000000000E+00  0.00000000000E+00 -0.16854650471E+04  0.16854650471E+04  0.25500000920E-02 0. -1.
    10030    2    1    2    0    0  0.00000000000E+00  0.00000000000E+00 -0.14379226110E+04  0.19330074833E+04  0.12918577689E+04 0.  0.
        3    1    3    3  502    0  0.45279331931E+03 -0.44739036354E+03 -0.55474829462E+03  0.84434922158E+03  0.10100000352E+00 0.  1.
       -3    1    3    3    0  502 -0.45279331931E+03  0.44739036354E+03 -0.88317431640E+03  0.10886582617E+04  0.10100000352E+00 0. -1.
</event>
<event>
 5   0  0.5812938E-04  0.1283637E+04  0.7818609E-02  0.9042642E-01
       -1   -1    0    0    0  501  0.00000000000E+00  0.00000000000E+00  0.79134764580E+03  0.79134764582E+03  0.50400001928E-02 0. -1.
        1   -1    0    0  501    0  0.00000000000E+00  0.00000000000E+00 -0.52054397416E+03  0.52054397419E+03  0.50400001928E-02 0.  1.
    10030    2    1    2    0    0  0.00000000000E+00  0.00000000000E+00  0.27080367164E+03  0.13118916200E+04  0.12836374076E+04 0.  0.
        5    1    3    3  502    0 -0.21751591198E+03 -0.16064321014E+03 -0.45946632058E+03  0.53315176327E+03  0.46999998093E+01 0.  1.
       -5    1    3    3    0  502  0.21751591198E+03  0.16064321014E+03  0.73026999223E+03  0.77873985674E+03  0.46999998093E+01 0. -1.
</event>
<event>
 5   0  0.1031295E-03  0.1308378E+04  0.7818609E-02  0.9022948E-01
       -2   -1    0    0    0  501  0.00000000000E+00  0.00000000000E+00  0.37973619855E+03  0.37973619856E+03  0.25500000920E-02 0. -1.
        2   -1    0    0  501    0  0.00000000000E+00  0.00000000000E+00 -0.11270014145E+04  0.11270014145E+04  0.25500000920E-02 0.  1.
    10030    2    1    2    0    0  0.00000000000E+00  0.00000000000E+00 -0.74726521594E+03  0.15067376130E+04  0.13083779774E+04 0.  0.
        2    1    3    3  502    0 -0.97804317048E+02 -0.55257190449E+03  0.13591534441E+02  0.56132532802E+03  0.25500000920E-02 0. -1.
       -2    1    3    3    0  502  0.97804317048E+02  0.55257190449E+03 -0.76085675038E+03  0.94541228503E+03  0.25500000920E-02 0.  1.
</event>
<event>
 5   0  0.1103241E-03  0.1297557E+04  0.7818609E-02  0.9031505E-01
       -2   -1    0    0    0  501  0.00000000000E+00  0.00000000000E+00  0.22820042880E+03  0.22820042882E+03  0.25500000920E-02 0. -1.
        2   -1    0    0  501    0  0.00000000000E+00  0.00000000000E+00 -0.18444909917E+04  0.18444909917E+04  0.25500000920E-02 0.  1.
    10030    2    1    2    0    0  0.00000000000E+00  0.00000000000E+00 -0.16162905629E+04  0.20726914206E+04  0.12975571436E+04 0.  0.
        4    1    3    3  502    0  0.31004539941E+03  0.40905491903E+03 -0.17428951229E+03  0.54206320984E+03  0.12699999809E+01 0. -1.
       -4    1    3    3    0  502 -0.31004539941E+03 -0.40905491903E+03 -0.14420010507E+04  0.15306282107E+04  0.12699999809E+01 0.  1.
</event>
<event>
 5   0  0.5710383E-04  0.1278865E+04  0.7818609E-02  0.9046495E-01
        1   -1    0    0  501    0  0.00000000000E+00  0.00000000000E+00  0.41097175687E+03  0.41097175690E+03  0.50400001928E-02 0. -1.
       -1   -1    0    0    0  501  0.00000000000E+00  0.00000000000E+00 -0.99489598458E+03  0.99489598460E+03  0.50400001928E-02 0.  1.
    10030    2    1    2    0    0  0.00000000000E+00  0.00000000000E+00 -0.58392422771E+03  0.14058677415E+04  0.12788653576E+04 0.  0.
        1    1    3    3  502    0  0.26160047891E+03  0.47727299775E+03 -0.66092688777E+03  0.85618261834E+03  0.50400001928E-02 0.  1.
       -1    1    3    3    0  502 -0.26160047891E+03 -0.47727299775E+03  0.77002660058E+02  0.54968512316E+03  0.50400001928E-02 0. -1.
</event>
<event>
 5   0  0.1031295E-03  0.1300240E+04  0.7818609E-02  0.9029375E-01
        2   -1    0    0  501    0  0.00000000000E+00  0.00000000000E+00  0.55894297525E+03  0.55894297526E+03  0.25500000920E-02 0. -1.
       -2   -1    0    0    0  501  0.00000000000E+00  0.00000000000E+00 -0.75617011743E+03  0.75617011743E+03  0.25500000920E-02 0.  1.
    10030    2    1    2    0    0  0.00000000000E+00  0.00000000000E+00 -0.19722714218E+03  0.13151130927E+04  0.13002399398E+04 0.  0.
        2    1    3    3  502    0  0.56366285999E+03 -0.32075825204E+03 -0.52770737650E+02  0.65068150945E+03  0.25500000920E-02 0. -1.
       -2    1    3    3    0  502 -0.56366285999E+03  0.32075825204E+03 -0.14445640453E+03  0.66443158324E+03  0.25500000920E-02 0.  1.
</event>
<event>
 5   0  0.5812938E-04  0.1300391E+04  0.7818609E-02  0.9029255E-01
        1   -1    0    0  501    0  0.00000000000E+00  0.00000000000E+00  0.12778850482E+04  0.12778850482E+04  0.50400001928E-02 0. -1.
       -1   -1    0    0    0  501  0.00000000000E+00  0.00000000000E+00 -0.33082335682E+03  0.33082335686E+03  0.50400001928E-02 0.  1.
    10030    2    1    2    0    0  0.00000000000E+00  0.00000000000E+00  0.94706169141E+03  0.16087084051E+04  0.13003910509E+04 0.  0.
        5    1    3    3  502    0  0.31022409219E+02 -0.41346817178E+03  0.10930847292E+04  0.11690913712E+04  0.46999998093E+01 0.  1.
       -5    1    3    3    0  502 -0.31022409219E+02  0.41346817178E+03 -0.14602303779E+03  0.43961703392E+03  0.46999998093E+01 0. -1.
</event>
<event>
 5   0  0.4012375E-04  0.1303905E+04  0.7818609E-02  0.9026474E-01
       -3   -1    0    0    0  501  0.00000000000E+00  0.00000000000E+00  0.81711991768E+03  0.81711992393E+03  0.10100000352E+00 0. -1.
        3   -1    0    0  501    0  0.00000000000E+00  0.00000000000E+00 -0.52017124760E+03  0.52017125740E+03  0.10100000352E+00 0.  1.
    10030    2    1    2    0    0  0.00000000000E+00  0.00000000000E+00  0.29694867009E+03  0.13372911813E+04  0.13039053612E+04 0.  0.
        3    1    3    3  502    0  0.42632469410E+03  0.43472856094E+03  0.38746575416E+03  0.72171420060E+03  0.10100000352E+00 0.  1.
       -3    1    3    3    0  502 -0.42632469410E+03 -0.43472856094E+03 -0.90517084073E+02  0.61557698073E+03  0.10100000352E+00 0. -1.
</event>
<event>
 5   0  0.5766027E-04  0.1299035E+04  0.7818609E-02  0.9030330E-01
        1   -1    0    0  501    0  0.00000000000E+00  0.00000000000E+00  0.47667676976E+03  0.47667676979E+03  0.50400001928E-02 0.  1.
       -1   -1    0    0    0  501  0.00000000000E+00  0.00000000000E+00 -0.88503009018E+03  0.88503009020E+03  0.50400001928E-02 0. -1.
    10030    2    1    2    0    0  0.00000000000E+00  0.00000000000E+00 -0.40835332042E+03  0.13617068600E+04  0.12990354646E+04 0.  0.
        3    1    3    3  502    0  0.30667154830E+03 -0.55585749066E+03 -0.34808917023E+03  0.72401040676E+03  0.10100000352E+00 0.  1.
       -3    1    3    3    0  502 -0.30667154830E+03  0.55585749066E+03 -0.60264150190E+02  0.63769645323E+03  0.10100000352E+00 0. -1.
</event>
<event>
 5   0  0.1081574E-03  0.1294496E+04  0.7818609E-02  0.9033941E-01
        2   -1    0    0  501    0  0.00000000000E+00  0.00000000000E+00  0.66388744983E+03  0.66388744983E+03  0.25500000920E-02 0.  1.
       -2   -1    0    0    0  501  0.00000000000E+00  0.00000000000E+00 -0.63102566437E+03  0.63102566437E+03  0.25500000920E-02 0. -1.
    10030    2    1    2    0    0  0.00000000000E+00  0.00000000000E+00  0.32861785458E+02  0.12949131142E+04  0.12944960704E+04 0.  0.
        5    1    3    3  502    0  0.50467412848E+03 -0.28839303053E+03  0.30120034196E+03  0.65468332193E+03  0.46999998093E+01 0.  1.
       -5    1    3    3    0  502 -0.50467412848E+03  0.28839303053E+03 -0.26833855650E+03  0.64022979228E+03  0.46999998093E+01 0. -1.
</event>
<event>
 5   0  0.5812938E-04  0.1279204E+04  0.7818609E-02  0.9046221E-01
        1   -1    0    0  501    0  0.00000000000E+00  0.00000000000E+00  0.32484095973E+03  0.32484095977E+03  0.50400001928E-02 0. -1.
       -1   -1    0    0    0  501  0.00000000000E+00  0.00000000000E+00 -0.12593573905E+04  0.12593573905E+04  0.50400001928E-02 0.  1.
    10030    2    1    2    0    0  0.00000000000E+00  0.00000000000E+00 -0.93451643073E+03  0.15841983502E+04  0.12792042267E+04 0.  0.
        5    1    3    3  502    0  0.23396249864E+03  0.25266300360E+03  0.20021917128E+03  0.39835518160E+03  0.46999998093E+01 0. -1.
       -5    1    3    3    0  502 -0.23396249864E+03 -0.25266300360E+03 -0.11347356020E+04  0.11858431686E+04  0.46999998093E+01 0.  1.
</event>
<event>
 5   0  0.1046253E-03  0.1309405E+04  0.7818609E-02  0.9022140E-01
        2   -1    0    0  501    0  0.00000000000E+00  0.00000000000E+00  0.11479633346E+04  0.11479633346E+04  0.25500000920E-02 0.  1.
       -2   -1    0    0    0  501  0.00000000000E+00  0.00000000000E+00 -0.37338780869E+03  0.37338780870E+03  0.25500000920E-02 0. -1.
    10030    2    1    2    0    0  0.00000000000E+00  0.00000000000E+00  0.77457552589E+03  0.15213511433E+04  0.13094052298E+04 0.  0.
        3    1    3    3  502    0  0.37626001405E+03  0.18274695816E+02  0.10094331950E+04  0.10774325724E+04  0.10100000352E+00 0.  1.
       -3    1    3    3    0  502 -0.37626001405E+03 -0.18274695816E+02 -0.23485766908E+03  0.44391857092E+03  0.10100000352E+00 0. -1.
</event>
<event>
 5   0  0.5710383E-04  0.1305059E+04  0.7818609E-02  0.9025563E-01
        1   -1    0    0  501    0  0.00000000000E+00  0.00000000000E+00  0.22381273272E+04  0.22381273272E+04  0.50400001928E-02 0. -1.
       -1   -1    0    0    0  501  0.00000000000E+00  0.00000000000E+00 -0.19024608577E+03  0.19024608583E+03  0.50400001928E-02 0.  1.
    10030    2    1    2    0    0  0.00000000000E+00  0.00000000000E+00  0.20478812414E+04  0.24283734130E+04  0.13050593297E+04 0.  0.
        1    1    3    3  502    0 -0.32541753009E+03 -0.14300213636E+03  0.57092097097E+01  0.35549792544E+03  0.50400001928E-02 0.  1.
       -1    1    3    3    0  502  0.32541753009E+03  0.14300213636E+03  0.20421720317E+04  0.20728754876E+04  0.50400001928E-02 0. -1.
</event>
<event>
 5   0  0.5766027E-04  0.1304267E+04  0.7818609E-02  0.9026188E-01
       -1   -1    0    0    0  501  0.00000000000E+00  0.00000000000E+00  0.12437804545E+04  0.12437804545E+04  0.50400001928E-02 0. -1.
        1   -1    0    0  501    0  0.00000000000E+00  0.00000000000E+00 -0.34192364835E+03  0.34192364839E+03  0.50400001928E-02 0.  1.
    10030    2    1    2    0    0  0.00000000000E+00  0.00000000000E+00  0.90185680618E+03  0.15857041029E+04  0.13042667684E+04 0.  0.
        3    1    3    3  502    0 -0.26116967557E+03  0.15411908789E+03 -0.25098505959E+03  0.39364425949E+03  0.10100000352E+00 0.  1.
       -3    1    3    3    0  502  0.26116967557E+03 -0.15411908789E+03  0.11528418658E+04  0.11920598435E+04  0.10100000352E+00 0. -1.
</event>
<event>
 5   0  0.1046253E-03  0.1296976E+04  0.7818609E-02  0.9031967E-01
       -2   -1    0    0    0  501  0.00000000000E+00  0.00000000000E+00  0.35728630266E+03  0.35728630267E+03  0.25500000920E-02 0.  1.
        2   -1    0    0  501    0  0.00000000000E+00  0.00000000000E+00 -0.11770299140E+04  0.11770299140E+04  0.25500000920E-02 0. -1.
    10030    2    1    2    0    0  0.00000000000E+00  0.00000000000E+00 -0.81974361133E+03  0.15343162167E+04  0.12969759691E+04 0.  0.
        3    1    3    3  502    0  0.58109185288E+03 -0.28785283855E+03 -0.40619541956E+03  0.76519391478E+03  0.10100000352E+00 0.  1.
       -3    1    3    3    0  502 -0.58109185288E+03  0.28785283855E+03 -0.41354819176E+03  0.76912230188E+03  0.10100000352E+00 0. -1.
</event>
<event>
 5   0  0.1081574E-03  0.1296289E+04  0.7818609E-02  0.9032514E-01
       -2   -1    0    0    0  501  0.00000000000E+00  0.00000000000E+00  0.37661321202E+03  0.37661321203E+03  0.25500000920E-02 0.  1.
        2   -1    0    0  501    0  0.00000000000E+00  0.00000000000E+00 -0.11154441135E+04  0.11154441135E+04  0.25500000920E-02 0. -1.
    10030    2    1    2    0    0  0.00000000000E+00  0.00000000000E+00 -0.73883090150E+03  0.14920573255E+04  0.12962885334E+04 0.  0.
        5    1    3    3  502    0 -0.40934281276E+02  0.55629046025E+03 -0.74931254501E+03  0.93414456678E+03  0.46999998093E+01 0. -1.
       -5    1    3    3    0  502  0.40934281276E+02 -0.55629046025E+03  0.10481643513E+02  0.55791275876E+03  0.46999998093E+01 0.  1.
</event>
<event>
 5   0  0.1081574E-03  0.1299110E+04  0.7818609E-02  0.9030271E-01
       -2   -1    0    0    0  501  0.00000000000E+00  0.00000000000E+00  0.18183955948E+03  0.18183955950E+03  0.25500000920E-02 0. -1.
        2   -1    0    0  501    0  0.00000000000E+00  0.00000000000E+00 -0.23202975343E+04  0.23202975343E+04  0.25500000920E-02 0.  1.
    10030    2    1    2    0    0  0.00000000000E+00  0.00000000000E+00 -0.21384579748E+04  0.25021370938E+04  0.12991102825E+04 0.  0.
        5    1    3    3  502    0 -0.59711058176E+02 -0.64575603160E+03 -0.99889483394E+03  0.11909572797E+04  0.46999998093E+01 0. -1.
       -5    1    3    3    0  502  0.59711058176E+02  0.64575603160E+03 -0.11395631408E+04  0.13111798141E+04  0.46999998093E+01 0.  1.
</event>
<event>
 5   0  0.6006119E-04  0.1308009E+04  0.7818609E-02  0.9023238E-01
        1   -1    0    0  501    0  0.00000000000E+00  0.00000000000E+00  0.12420807470E+04  0.12420807470E+04  0.50400001928E-02 0.  1.
       -1   -1    0    0    0  501  0.00000000000E+00  0.00000000000E+00 -0.34435901474E+03  0.34435901478E+03  0.50400001928E-02 0. -1.
    10030    2    1    2    0    0  0.00000000000E+00  0.00000000000E+00  0.89772173221E+03  0.15864397617E+04  0.13080087191E+04 0.  0.
        4    1    3    3  502    0  0.40008545953E+03 -0.19831490804E+03 -0.13068484259E+03  0.46527123129E+03  0.12699999809E+01 0. -1.
       -4    1    3    3    0  502 -0.40008545953E+03  0.19831490804E+03  0.10284065748E+04  0.11211685305E+04  0.12699999809E+01 0.  1.
</event>
<event>
 5   0  0.5812938E-04  0.1305797E+04  0.7818609E-02  0.9024981E-01
       -1   -1    0    0    0  501  0.00000000000E+00  0.00000000000E+00  0.68235921464E+03  0.68235921466E+03  0.50400001928E-02 0.  1.
        1   -1    0    0  501    0  0.00000000000E+00  0.00000000000E+00 -0.62470961515E+03  0.62470961517E+03  0.50400001928E-02 0. -1.
    10030    2    1    2    0    0  0.00000000000E+00  0.00000000000E+00  0.57649599489E+02  0.13070688298E+04  0.13057968638E+04 0.  0.
        5    1    3    3  502    0 -0.52351039733E+03  0.37821514651E+03  0.12454451013E+03  0.65775623005E+03  0.46999998093E+01 0.  1.
       -5    1    3    3    0  502  0.52351039733E+03 -0.37821514651E+03 -0.66894910640E+02  0.64931259978E+03  0.46999998093E+01 0. -1.
</event>
<event>
 5   0  0.6006119E-04  0.1308861E+04  0.7818609E-02  0.9022568E-01
        1   -1    0    0  501    0  0.00000000000E+00  0.00000000000E+00  0.42329798896E+03  0.42329798899E+03  0.50400001928E-02 0.  1.
       -1   -1    0    0    0  501  0.00000000000E+00  0.00000000000E+00 -0.10117672872E+04  0.10117672872E+04  0.50400001928E-02 0. -1.
    10030    2    1    2    0    0  0.00000000000E+00  0.00000000000E+00 -0.58846929824E+03  0.14350652762E+04  0.13088606618E+04 0.  0.
        4    1    3    3  502    0 -0.48714689626E+03  0.15018828802E+03 -0.74418092702E+03  0.90203962520E+03  0.12699999809E+01 0. -1.
       -4    1    3    3    0  502  0.48714689626E+03 -0.15018828802E+03  0.15571162878E+03  0.53302565101E+03  0.12699999809E+01 0.  1.
</event>
<event>
 5   0  0.5710383E-04  0.1282925E+04  0.7818609E-02  0.9043217E-01
        1   -1    0    0  501    0  0.00000000000E+00  0.00000000000E+00  0.14253006576E+04  0.14253006576E+04  0.50400001928E-02 0. -1.
       -1   -1    0    0    0  501  0.00000000000E+00  0.00000000000E+00 -0.28869280373E+03  0.28869280378E+03  0.50400001928E-02 0.  1.
    10030    2    1    2    0    0  0.00000000000E+00  0.00000000000E+00  0.11366078538E+04  0.17139934613E+04  0.12829248505E+04 0.  0.
        1    1    3    3  502    0  0.27231347687E+03  0.40792869836E+03  0.15976967438E+02  0.49072977915E+03  0.50400001928E-02 0.  1.
       -1    1    3    3    0  502 -0.27231347687E+03 -0.40792869836E+03  0.11206308864E+04  0.12232636822E+04  0.50400001928E-02 0. -1.
</event>
<event>
 5   0  0.6006119E-04  0.1297992E+04  0.7818609E-02  0.9031159E-01
       -1   -1    0    0    0  501  0.00000000000E+00  0.00000000000E+00  0.20391508858E+03  0.20391508864E+03  0.50400001928E-02 0.  1.
        1   -1    0    0  501    0  0.00000000000E+00  0.00000000000E+00 -0.20655455062E+04  0.20655455062E+04  0.50400001928E-02 0. -1.
    10030    2    1    2    0    0  0.00000000000E+00  0.00000000000E+00 -0.18616304176E+04  0.22694605948E+04  0.12979921339E+04 0.  0.
        4    1    3    3  502    0  0.37729257601E+03 -0.20401149409E+03 -0.17824037531E+04  0.18332853377E+04  0.12699999809E+01 0. -1.
       -4    1    3    3    0  502 -0.37729257601E+03  0.20401149409E+03 -0.79226664527E+02  0.43617525710E+03  0.12699999809E+01 0.  1.
</event>
<event>
 5   0  0.1046253E-03  0.1308251E+04  0.7818609E-02  0.9023047E-01
        2   -1    0    0  501    0  0.00000000000E+00  0.00000000000E+00  0.59269177666E+03  0.59269177667E+03  0.25500000920E-02 0.  1.
       -2   -1    0    0    0  501  0.00000000000E+00  0.00000000000E+00 -0.72192742013E+03  0.72192742013E+03  0.25500000920E-02 0. -1.
    10030    2    1    2    0    0  0.00000000000E+00  0.00000000000E+00 -0.12923564346E+03  0.13146191968E+04  0.13082514212E+04 0.  0.
        3    1    3    3  502    0  0.59662787843E+02  0.30562283885E+03  0.51343468387E+03  0.60048326595E+03  0.10100000352E+00 0.  1.
       -3    1    3    3    0  502 -0.59662787843E+02 -0.30562283885E+03 -0.64267032734E+03  0.71413593084E+03  0.10100000352E+00 0. -1.
</event>
<event>
 5   0  0.1081574E-03  0.1280675E+04  0.7818609E-02  0.9045032E-01
       -2   -1    0    0    0  501  0.00000000000E+00  0.00000000000E+00  0.49742410010E+03  0.49742410011E+03  0.25500000920E-02 0.  1.
        2   -1    0    0  501    0  0.00000000000E+00  0.00000000000E+00 -0.82431058575E+03  0.82431058576E+03  0.25500000920E-02 0. -1.
    10030    2    1    2    0    0  0.00000000000E+00  0.00000000000E+00 -0.32688648565E+03  0.13217346859E+04  0.12806747461E+04 0.  0.
        5    1    3    3  502    0  0.44525808698E+03  0.42819518014E+03 -0.33738148588E+03  0.70388509952E+03  0.46999998093E+01 0. -1.
       -5    1    3    3    0  502 -0.44525808698E+03 -0.42819518014E+03  0.10495000236E+02  0.61784958634E+03  0.46999998093E+01 0.  1.
</event>
<event>
 5   0  0.1081574E-03  0.1289241E+04  0.7818609E-02  0.9038141E-01
        2   -1    0    0  501    0  0.00000000000E+00  0.00000000000E+00  0.38912468562E+03  0.38912468563E+03  0.25500000920E-02 0.  1.
       -2   -1    0    0    0  501  0.00000000000E+00  0.00000000000E+00 -0.10678725408E+04  0.10678725408E+04  0.25500000920E-02 0. -1.
    10030    2    1    2    0    0  0.00000000000E+00  0.00000000000E+00 -0.67874785519E+03  0.14569972264E+04  0.12892409654E+04 0.  0.
        5    1    3    3  502    0 -0.30776796536E+03 -0.42317076020E+03  0.86066209053E+02  0.53030566198E+03  0.46999998093E+01 0. -1.
       -5    1    3    3    0  502  0.30776796536E+03  0.42317076020E+03 -0.76481406424E+03  0.92669156447E+03  0.46999998093E+01 0.  1.
</event>
<event>
 5   0  0.5710383E-04  0.1294041E+04  0.7818609E-02  0.9034304E-01
        1   -1    0    0  501    0  0.00000000000E+00  0.00000000000E+00  0.21296631540E+03  0.21296631546E+03  0.50400001928E-02 0. -1.
       -1   -1    0    0    0  501  0.00000000000E+00  0.00000000000E+00 -0.19657353545E+04  0.19657353545E+04  0.50400001928E-02 0.  1.
    10030    2    1    2    0    0  0.00000000000E+00  0.00000000000E+00 -0.17527690391E+04  0.21787016699E+04  0.12940408271E+04 0.  0.
        1    1    3    3  502    0  0.25679579491E+02 -0.64423503311E+03 -0.96763104042E+03  0.11627588095E+04  0.50400001928E-02 0.  1.
       -1    1    3    3    0  502 -0.25679579491E+02  0.64423503311E+03 -0.78513799866E+03  0.10159428604E+04  0.50400001928E-02 0. -1.
</event>
<event>
 5   0  0.1101619E-03  0.1338426E+04  0.7818609E-02  0.8999636E-01
       -2   -1    0    0    0  501  0.00000000000E+00  0.00000000000E+00  0.35847460217E+03  0.35847460218E+03  0.25500000920E-02 0.  1.
        2   -1    0    0  501    0  0.00000000000E+00  0.00000000000E+00 -0.12493098715E+04  0.12493098715E+04  0.25500000920E-02 0. -1.
    10030    2    1    2    0    0  0.00000000000E+00  0.00000000000E+00 -0.89083526931E+03  0.16077844737E+04  0.13384257307E+04 0.  0.
        1    1    3    3  502    0  0.57382451893E+03 -0.34431471401E+03 -0.45060647215E+03  0.80676724870E+03  0.50400001928E-02 0.  1.
       -1    1    3    3    0  502 -0.57382451893E+03  0.34431471401E+03 -0.44022879717E+03  0.80101722496E+03  0.50400001928E-02 0. -1.
</event>
<event>
 5   0  0.1101619E-03  0.1303508E+04  0.7818609E-02  0.9026788E-01
        2   -1    0    0  501    0  0.00000000000E+00  0.00000000000E+00  0.92960008764E+03  0.92960008764E+03  0.25500000920E-02 0.  1.
       -2   -1    0    0    0  501  0.00000000000E+00  0.00000000000E+00 -0.45695268347E+03  0.45695268348E+03  0.25500000920E-02 0. -1.
    10030    2    1    2    0    0  0.00000000000E+00  0.00000000000E+00  0.47264740417E+03  0.13865527711E+04  0.13035079664E+04 0.  0.
        1    1    3    3  502    0 -0.32292200996E+03  0.51979520392E+03  0.47493036632E+03  0.77461250404E+03  0.50400001928E-02 0. -1.
       -1    1    3    3    0  502  0.32292200996E+03 -0.51979520392E+03 -0.22829621544E+01  0.61194026708E+03  0.50400001928E-02 0.  1.
</event>
<event>
 5   0  0.5766027E-04  0.1301226E+04  0.7818609E-02  0.9028594E-01
        1   -1    0    0  501    0  0.00000000000E+00  0.00000000000E+00  0.11572010546E+04  0.11572010546E+04  0.50400001928E-02 0.  1.
       -1   -1    0    0    0  501  0.00000000000E+00  0.00000000000E+00 -0.36579386631E+03  0.36579386634E+03  0.50400001928E-02 0. -1.
    10030    2    1    2    0    0  0.00000000000E+00  0.00000000000E+00  0.79140718827E+03  0.15229949209E+04  0.13012256497E+04 0.  0.
        3    1    3    3  502    0  0.49557433869E+03  0.36663733581E+03  0.63919876425E+03  0.88802698810E+03  0.10100000352E+00 0.  1.
       -3    1    3    3    0  502 -0.49557433869E+03 -0.36663733581E+03  0.15220842402E+03  0.63496793283E+03  0.10100000352E+00 0. -1.
</event>
<event>
 5   0  0.1103241E-03  0.1299050E+04  0.7818609E-02  0.9030319E-01
        2   -1    0    0  501    0  0.00000000000E+00  0.00000000000E+00  0.51434040787E+03  0.51434040787E+03  0.25500000920E-02 0.  1.
       -2   -1    0    0    0  501  0.00000000000E+00  0.00000000000E+00 -0.82024056301E+03  0.82024056301E+03  0.25500000920E-02 0. -1.
    10030    2    1    2    0    0  0.00000000000E+00  0.00000000000E+00 -0.30590015514E+03  0.13345809709E+04  0.12990502157E+04 0.  0.
        4    1    3    3  502    0 -0.50304781080E+03 -0.21053339823E+03 -0.51544621841E+03  0.75037845698E+03  0.12699999809E+01 0.  1.
       -4    1    3    3    0  502  0.50304781080E+03  0.21053339823E+03  0.20954606327E+03  0.58420251391E+03  0.12699999809E+01 0. -1.
</event>
<event>
 5   0  0.5563545E-04  0.1305147E+04  0.7818609E-02  0.9025494E-01
        1   -1    0    0  501    0  0.00000000000E+00  0.00000000000E+00  0.11297059064E+04  0.11297059064E+04  0.50400001928E-02 0.  1.
       -1   -1    0    0    0  501  0.00000000000E+00  0.00000000000E+00 -0.37695841125E+03  0.37695841129E+03  0.50400001928E-02 0. -1.
    10030    2    1    2    0    0  0.00000000000E+00  0.00000000000E+00  0.75274749511E+03  0.15066643177E+04  0.13051469552E+04 0.  0.
        2    1    3    3  502    0  0.63293270834E+03  0.78641540941E+02  0.21698331005E+03  0.67369879182E+03  0.25500000920E-02 0. -1.
       -2    1    3    3    0  502 -0.63293270834E+03 -0.78641540941E+02  0.53576418506E+03  0.83296552584E+03  0.25500000920E-02 0.  1.
</event>
<event>
 5   0  0.1031295E-03  0.1337528E+04  0.7818609E-02  0.9000323E-01
        2   -1    0    0  501    0  0.00000000000E+00  0.00000000000E+00  0.78321321652E+03  0.78321321653E+03  0.25500000920E-02 0. -1.
       -2   -1    0    0    0  501  0.00000000000E+00  0.00000000000E+00 -0.57103884658E+03  0.57103884659E+03  0.25500000920E-02 0.  1.
    10030    2    1    2    0    0  0.00000000000E+00  0.00000000000E+00  0.21217436994E+03  0.13542520631E+04  0.13375278267E+04 0.  0.
        2    1    3    3  502    0  0.39602929007E+03  0.42794518656E+02 -0.43782117336E+03  0.59191042335E+03  0.25500000920E-02 0.  1.
       -2    1    3    3    0  502 -0.39602929007E+03 -0.42794518656E+02  0.64999554330E+03  0.76234163977E+03  0.25500000920E-02 0. -1.
</event>
<event>
 5   0  0.5710383E-04  0.1305955E+04  0.7818609E-02  0.9024856E-01
        1   -1    0    0  501    0  0.00000000000E+00  0.00000000000E+00  0.59477160707E+03  0.59477160709E+03  0.50400001928E-02 0.  1.
       -1   -1    0    0    0  501  0.00000000000E+00  0.00000000000E+00 -0.71687927782E+03  0.71687927784E+03  0.50400001928E-02 0. -1.
    10030    2    1    2    0    0  0.00000000000E+00  0.00000000000E+00 -0.12210767075E+03  0.13116508849E+04  0.13059547315E+04 0.  0.
        1    1    3    3  502    0 -0.11761799598E+03 -0.18845612757E+03  0.55565182547E+03  0.59841344919E+03  0.50400001928E-02 0.  1.
       -1    1    3    3    0  502  0.11761799598E+03  0.18845612757E+03 -0.67775949622E+03  0.71323743574E+03  0.50400001928E-02 0. -1.
</event>
<event>
 5   0  0.1031295E-03  0.1198263E+04  0.7818609E-02  0.9114378E-01
        2   -1    0    0  501    0  0.00000000000E+00  0.00000000000E+00  0.99210849849E+03  0.99210849850E+03  0.25500000920E-02 0.  1.
       -2   -1    0    0    0  501  0.00000000000E+00  0.00000000000E+00 -0.36181373523E+03  0.36181373524E+03  0.25500000920E-02 0. -1.
    10030    2    1    2    0    0  0.00000000000E+00  0.00000000000E+00  0.63029476327E+03  0.13539222337E+04  0.11982628787E+04 0.  0.
        2    1    3    3  502    0 -0.36585077544E+03  0.15456679378E+03 -0.19170098144E+03  0.44100674589E+03  0.25500000920E-02 0. -1.
       -2    1    3    3    0  502  0.36585077544E+03 -0.15456679378E+03  0.82199574471E+03  0.91291548785E+03  0.25500000920E-02 0.  1.
</event>
<event>
 5   0  0.1081574E-03  0.1314460E+04  0.7818609E-02  0.9018176E-01
       -2   -1    0    0    0  501  0.00000000000E+00  0.00000000000E+00  0.19372117957E+03  0.19372117959E+03  0.25500000920E-02 0. -1.
        2   -1    0    0  501    0  0.00000000000E+00  0.00000000000E+00 -0.22297586530E+04  0.22297586530E+04  0.25500000920E-02 0.  1.
    10030    2    1    2    0    0  0.00000000000E+00  0.00000000000E+00 -0.20360374734E+04  0.24234798326E+04  0.13144603097E+04 0.  0.
        5    1    3    3  502    0 -0.10769485111E+03  0.35991312427E+02 -0.22115052426E+04  0.22144234202E+04  0.46999998093E+01 0.  1.
       -5    1    3    3    0  502  0.10769485111E+03 -0.35991312427E+02  0.17546776924E+03  0.20905641240E+03  0.46999998093E+01 0. -1.
</event>
<event>
 5   0  0.1081574E-03  0.1288362E+04  0.7818609E-02  0.9038846E-01
        2   -1    0    0  501    0  0.00000000000E+00  0.00000000000E+00  0.11173732506E+04  0.11173732506E+04  0.25500000920E-02 0.  1.
       -2   -1    0    0    0  501  0.00000000000E+00  0.00000000000E+00 -0.37137893309E+03  0.37137893310E+03  0.25500000920E-02 0. -1.
    10030    2    1    2    0    0  0.00000000000E+00  0.00000000000E+00  0.74599431747E+03  0.14887521837E+04  0.12883615730E+04 0.  0.
        5    1    3    3  502    0 -0.15063392764E+03  0.92620231759E+01 -0.35064201819E+03  0.38176993091E+03  0.46999998093E+01 0. -1.
       -5    1    3    3    0  502  0.15063392764E+03 -0.92620231759E+01  0.10966363357E+04  0.11069822528E+04  0.46999998093E+01 0.  1.
</event>
<event>
 5   0  0.4012375E-04  0.1297446E+04  0.7818609E-02  0.9031593E-01
        4   -1    0    0  501    0  0.00000000000E+00  0.00000000000E+00  0.99009572078E+03  0.99009653529E+03  0.12699999809E+01 0.  1.
       -4   -1    0    0    0  501  0.00000000000E+00  0.00000000000E+00 -0.42504964633E+03  0.42505154363E+03  0.12699999809E+01 0. -1.
    10030    2    1    2    0    0  0.00000000000E+00  0.00000000000E+00  0.56504607445E+03  0.14151480789E+04  0.12974463453E+04 0.  0.
        4    1    3    3  502    0  0.12020169470E+03  0.53451242939E+03 -0.96394588395E+02  0.55627827043E+03  0.12699999809E+01 0. -1.
       -4    1    3    3    0  502 -0.12020169470E+03 -0.53451242939E+03  0.66144066284E+03  0.85886980849E+03  0.12699999809E+01 0.  1.
</event>
<event>
 5   0  0.5710383E-04  0.1304539E+04  0.7818609E-02  0.9025973E-01
        1   -1    0    0  501    0  0.00000000000E+00  0.00000000000E+00  0.58370700014E+03  0.58370700016E+03  0.50400001928E-02 0.  1.
       -1   -1    0    0    0  501  0.00000000000E+00  0.00000000000E+00 -0.72888578210E+03  0.72888578211E+03  0.50400001928E-02 0. -1.
    10030    2    1    2    0    0  0.00000000000E+00  0.00000000000E+00 -0.14517878196E+03  0.13125927823E+04  0.13045393568E+04 0.  0.
        1    1    3    3  502    0 -0.50415377676E+03 -0.35998141870E+03  0.13287230071E+03  0.63357138568E+03  0.50400001928E-02 0.  1.
       -1    1    3    3    0  502  0.50415377676E+03  0.35998141870E+03 -0.27805108266E+03  0.67902139659E+03  0.50400001928E-02 0. -1.
</event>
<event>
 5   0  0.5766027E-04  0.1293859E+04  0.7818609E-02  0.9034449E-01
       -1   -1    0    0    0  501  0.00000000000E+00  0.00000000000E+00  0.30550651352E+03  0.30550651356E+03  0.50400001928E-02 0.  1.
        1   -1    0    0  501    0  0.00000000000E+00  0.00000000000E+00 -0.13699148753E+04  0.13699148753E+04  0.50400001928E-02 0. -1.
    10030    2    1    2    0    0  0.00000000000E+00  0.00000000000E+00 -0.10644083617E+04  0.16754213888E+04  0.12938592155E+04 0.  0.
        3    1    3    3  502    0  0.29400361817E+02 -0.35908283975E+03 -0.12279814429E+04  0.12797434514E+04  0.10100000352E+00 0. -1.
       -3    1    3    3    0  502 -0.29400361817E+02  0.35908283975E+03  0.16357308117E+03  0.39567793742E+03  0.10100000352E+00 0.  1.
</event>
<event>
 5   0  0.5766027E-04  0.1315405E+04  0.7818609E-02  0.9017437E-01
       -1   -1    0    0    0  501  0.00000000000E+00  0.00000000000E+00  0.43424352770E+03  0.43424352773E+03  0.50400001928E-02 0. -1.
        1   -1    0    0  501    0  0.00000000000E+00  0.00000000000E+00 -0.99615186004E+03  0.99615186005E+03  0.50400001928E-02 0.  1.
    10030    2    1    2    0    0  0.00000000000E+00  0.00000000000E+00 -0.56190833234E+03  0.14303953878E+04  0.13154048774E+04 0.  0.
        3    1    3    3  502    0 -0.59777428789E+03  0.13378806697E+03 -0.20565398348E+02  0.61290806157E+03  0.10100000352E+00 0.  1.
       -3    1    3    3    0  502  0.59777428789E+03 -0.13378806697E+03 -0.54134293399E+03  0.81748732621E+03  0.10100000352E+00 0. -1.
</event>
<event>
 5   0  0.1101619E-03  0.1300202E+04  0.7818609E-02  0.9029405E-01
       -2   -1    0    0    0  501  0.00000000000E+00  0.00000000000E+00  0.37419671622E+03  0.37419671623E+03  0.25500000920E-02 0. -1.
        2   -1    0    0  501    0  0.00000000000E+00  0.00000000000E+00 -0.11294354852E+04  0.11294354852E+04  0.25500000920E-02 0.  1.
    10030    2    1    2    0    0  0.00000000000E+00  0.00000000000E+00 -0.75523876899E+03  0.15036322015E+04  0.13002015994E+04 0.  0.
        1    1    3    3  502    0  0.56178289767E+02  0.25630938285E+03 -0.10654759679E+04  0.10973101376E+04  0.50400001928E-02 0.  1.
       -1    1    3    3    0  502 -0.56178289767E+02 -0.25630938285E+03  0.31023719887E+03  0.40632206384E+03  0.50400001928E-02 0. -1.
</event>
<event>
 5   0  0.5812938E-04  0.1303500E+04  0.7818609E-02  0.9026795E-01
       -1   -1    0    0    0  501  0.00000000000E+00  0.00000000000E+00  0.54918910379E+03  0.54918910381E+03  0.50400001928E-02 0. -1.
        1   -1    0    0  501    0  0.00000000000E+00  0.00000000000E+00 -0.77346367113E+03  0.77346367114E+03  0.50400001928E-02 0.  1.
    10030    2    1    2    0    0  0.00000000000E+00  0.00000000000E+00 -0.22427456734E+03  0.13226527750E+04  0.13034996285E+04 0.  0.
        5    1    3    3  502    0  0.47523935505E+03  0.44345525992E+03 -0.63998456888E+02  0.65316376555E+03  0.46999998093E+01 0. -1.
       -5    1    3    3    0  502 -0.47523935505E+03 -0.44345525992E+03 -0.16027611045E+03  0.66948900941E+03  0.46999998093E+01 0.  1.
</event>
<event>
 5   0  0.1101619E-03  0.1299667E+04  0.7818609E-02  0.9029830E-01
        2   -1    0    0  501    0  0.00000000000E+00  0.00000000000E+00  0.59985785330E+03  0.59985785330E+03  0.25500000920E-02 0.  1.
       -2   -1    0    0    0  501  0.00000000000E+00  0.00000000000E+00 -0.70397225582E+03  0.70397225582E+03  0.25500000920E-02 0. -1.
    10030    2    1    2    0    0  0.00000000000E+00  0.00000000000E+00 -0.10411440252E+03  0.13038301091E+04  0.12996665513E+04 0.  0.
        1    1    3    3  502    0  0.57089773443E+03  0.75187148828E+01 -0.36337784273E+03  0.67677485980E+03  0.50400001928E-02 0. -1.
       -1    1    3    3    0  502 -0.57089773443E+03 -0.75187148828E+01  0.25926344020E+03  0.62705524932E+03  0.50400001928E-02 0.  1.
</event>
<event>
 5   0  0.1046253E-03  0.1333877E+04  0.7818609E-02  0.9003124E-01
        2   -1    0    0  501    0  0.00000000000E+00  0.00000000000E+00  0.11566381994E+04  0.11566381994E+04  0.25500000920E-02 0. -1.
       -2   -1    0    0    0  501  0.00000000000E+00  0.00000000000E+00 -0.38456860690E+03  0.38456860691E+03  0.25500000920E-02 0.  1.
    10030    2    1    2    0    0  0.00000000000E+00  0.00000000000E+00  0.77206959251E+03  0.15412068063E+04  0.13338766675E+04 0.  0.
        3    1    3    3  502    0  0.25347303016E+03  0.29152229701E+03  0.10142053173E+04  0.10852862583E+04  0.10100000352E+00 0. -1.
       -3    1    3    3    0  502 -0.25347303016E+03 -0.29152229701E+03 -0.24213572478E+03  0.45592054800E+03  0.10100000352E+00 0.  1.
</event>
<event>
 5   0  0.1031295E-03  0.1305182E+04  0.7818609E-02  0.9025466E-01
        2   -1    0    0  501    0  0.00000000000E+00  0.00000000000E+00  0.75459767008E+03  0.75459767009E+03  0.25500000920E-02 0.  1.
       -2   -1    0    0    0  501  0.00000000000E+00  0.00000000000E+00 -0.56437381873E+03  0.56437381873E+03  0.25500000920E-02 0. -1.
    10030    2    1    2    0    0  0.00000000000E+00  0.00000000000E+00  0.19022385135E+03  0.13189714888E+04  0.13051822381E+04 0.  0.
        2    1    3    3  502    0 -0.25764831674E+03 -0.21311703179E+03 -0.47123167784E+03  0.57780690422E+03  0.25500000920E-02 0. -1.
       -2    1    3    3    0  502  0.25764831674E+03  0.21311703179E+03  0.66145552920E+03  0.74116458460E+03  0.25500000920E-02 0.  1.
</event>
<event>
 5   0  0.5563545E-04  0.1299091E+04  0.7818609E-02  0.9030287E-01
        1   -1    0    0  501    0  0.00000000000E+00  0.00000000000E+00  0.59278204000E+03  0.59278204002E+03  0.50400001928E-02 0.  1.
       -1   -1    0    0    0  501  0.00000000000E+00  0.00000000000E+00 -0.71174396876E+03  0.71174396878E+03  0.50400001928E-02 0. -1.
    10030    2    1    2    0    0  0.00000000000E+00  0.00000000000E+00 -0.11896192876E+03  0.13045260088E+04  0.12990905154E+04 0.  0.
        2    1    3    3  502    0  0.19760477873E+03  0.26656154535E+03  0.50125162535E+03  0.60112885304E+03  0.25500000920E-02 0.  1.
       -2    1    3    3    0  502 -0.19760477873E+03 -0.26656154535E+03 -0.62021355410E+03  0.70339715576E+03  0.25500000920E-02 0. -1.
</event>
<event>
 5   0  0.1081574E-03  0.1320689E+04  0.7818609E-02  0.9013318E-01
       -2   -1    0    0    0  501  0.00000000000E+00  0.00000000000E+00  0.28277361415E+03  0.28277361416E+03  0.25500000920E-02 0.  1.
        2   -1    0    0  501    0  0.00000000000E+00  0.00000000000E+00 -0.15420623404E+04  0.15420623404E+04  0.25500000920E-02 0. -1.
    10030    2    1    2    0    0  0.00000000000E+00  0.00000000000E+00 -0.12592887262E+04  0.18248359545E+04  0.13206885193E+04 0.  0.
        5    1    3    3  502    0 -0.22439362341E+03  0.60465413371E+03 -0.43388021618E+03  0.77732441852E+03  0.46999998093E+01 0. -1.
       -5    1    3    3    0  502  0.22439362341E+03 -0.60465413371E+03 -0.82540851002E+03  0.10475115360E+04  0.46999998093E+01 0.  1.
</event>
<event>
 5   0  0.4012375E-04  0.1300702E+04  0.7818609E-02  0.9029009E-01
        3   -1    0    0  501    0  0.00000000000E+00  0.00000000000E+00  0.51186254046E+03  0.51186255042E+03  0.10100000352E+00 0. -1.
       -3   -1    0    0    0  501  0.00000000000E+00  0.00000000000E+00 -0.82630828516E+03  0.82630829133E+03  0.10100000352E+00 0.  1.
    10030    2    1    2    0    0  0.00000000000E+00  0.00000000000E+00 -0.31444574470E+03  0.13381708418E+04  0.13007017626E+04 0.  0.
        2    1    3    3  502    0 -0.36413184576E+03  0.47537066430E+03 -0.41827841981E+03  0.73042871388E+03  0.25500000920E-02 0.  1.
       -2    1    3    3    0  502  0.36413184576E+03 -0.47537066430E+03  0.10383267511E+03  0.60774212788E+03  0.25500000920E-02 0. -1.
</event>
<event>
 5   0  0.1081574E-03  0.1307329E+04  0.7818609E-02  0.9023773E-01
        2   -1    0    0  501    0  0.00000000000E+00  0.00000000000E+00  0.39005709474E+03  0.39005709475E+03  0.25500000920E-02 0.  1.
       -2   -1    0    0    0  501  0.00000000000E+00  0.00000000000E+00 -0.10954228967E+04  0.10954228967E+04  0.25500000920E-02 0. -1.
    10030    2    1    2    0    0  0.00000000000E+00  0.00000000000E+00 -0.70536580199E+03  0.14854799915E+04  0.13073292969E+04 0.  0.
        5    1    3    3  502    0 -0.38518020921E+03  0.49067769170E+03 -0.57455264590E+03  0.84809269753E+03  0.46999998093E+01 0. -1.
       -5    1    3    3    0  502  0.38518020921E+03 -0.49067769170E+03 -0.13081315609E+03  0.63738729396E+03  0.46999998093E+01 0.  1.
</event>
<event>
 5   0  0.1101619E-03  0.1355138E+04  0.7818609E-02  0.8986948E-01
       -2   -1    0    0    0  501  0.00000000000E+00  0.00000000000E+00  0.34283570990E+03  0.34283570991E+03  0.25500000920E-02 0.  1.
        2   -1    0    0  501    0  0.00000000000E+00  0.00000000000E+00 -0.13391238053E+04  0.13391238053E+04  0.25500000920E-02 0. -1.
    10030    2    1    2    0    0  0.00000000000E+00  0.00000000000E+00 -0.99628809544E+03  0.16819595153E+04  0.13551375730E+04 0.  0.
        1    1    3    3  502    0  0.49407329874E+03  0.43321069315E+03 -0.29299534598E+03  0.71946243959E+03  0.50400001928E-02 0.  1.
       -1    1    3    3    0  502 -0.49407329874E+03 -0.43321069315E+03 -0.70329274947E+03  0.96249707567E+03  0.50400001928E-02 0. -1.
</event>
<event>
 5   0  0.1103241E-03  0.1297844E+04  0.7818609E-02  0.9031276E-01
       -2   -1    0    0    0  501  0.00000000000E+00  0.00000000000E+00  0.93226537653E+03  0.93226537653E+03  0.25500000920E-02 0.  1.
        2   -1    0    0  501    0  0.00000000000E+00  0.00000000000E+00 -0.45169538188E+03  0.45169538189E+03  0.25500000920E-02 0. -1.
    10030    2    1    2    0    0  0.00000000000E+00  0.00000000000E+00  0.48056999465E+03  0.13839607584E+04  0.12978443131E+04 0.  0.
        4    1    3    3  502    0  0.26006258500E+02 -0.26506137518E+03 -0.39072644057E+03  0.47286638954E+03  0.12699999809E+01 0. -1.
       -4    1    3    3    0  502 -0.26006258500E+02  0.26506137518E+03  0.87129643522E+03  0.91109436889E+03  0.12699999809E+01 0.  1.
</event>
<event>
 5   0  0.5563545E-04  0.1300294E+04  0.7818609E-02  0.9029332E-01
       -1   -1    0    0    0  501  0.00000000000E+00  0.00000000000E+00  0.30417692162E+03  0.30417692166E+03  0.50400001928E-02 0.  1.
        1   -1    0    0  501    0  0.00000000000E+00  0.00000000000E+00 -0.13896225011E+04  0.13896225011E+04  0.50400001928E-02 0. -1.
    10030    2    1    2    0    0  0.00000000000E+00  0.00000000000E+00 -0.10854455795E+04  0.16937994227E+04  0.13002939585E+04 0.  0.
        2    1    3    3  502    0  0.63199738640E+03 -0.77743786597E+01 -0.34426981827E+03  0.71972414518E+03  0.25500000920E-02 0.  1.
       -2    1    3    3    0  502 -0.63199738640E+03  0.77743786597E+01 -0.74117576118E+03  0.97407527756E+03  0.25500000920E-02 0. -1.
</event>
<event>
 5   0  0.5563545E-04  0.1316005E+04  0.7818609E-02  0.9016968E-01
       -1   -1    0    0    0  501  0.00000000000E+00  0.00000000000E+00  0.88101287215E+03  0.88101287217E+03  0.50400001928E-02 0.  1.
        1   -1    0    0  501    0  0.00000000000E+00  0.00000000000E+00 -0.49144298581E+03  0.49144298584E+03  0.50400001928E-02 0. -1.
    10030    2    1    2    0    0  0.00000000000E+00  0.00000000000E+00  0.38956988634E+03  0.13724558580E+04  0.13160054657E+04 0.  0.
        2    1    3    3  502    0 -0.17945737299E+03 -0.62735893359E+03  0.10639431781E+03  0.66113836006E+03  0.25500000920E-02 0. -1.
       -2    1    3    3    0  502  0.17945737299E+03  0.62735893359E+03  0.28317556852E+03  0.71131749795E+03  0.25500000920E-02 0.  1.
</event>
<event>
 5   0  0.1081574E-03  0.1415888E+04  0.7818609E-02  0.8942397E-01
        2   -1    0    0  501    0  0.00000000000E+00  0.00000000000E+00  0.94878703801E+03  0.94878703801E+03  0.25500000920E-02 0.  1.
       -2   -1    0    0    0  501  0.00000000000E+00  0.00000000000E+00 -0.52823755903E+03  0.52823755903E+03  0.25500000920E-02 0. -1.
    10030    2    1    2    0    0  0.00000000000E+00  0.00000000000E+00  0.42054947898E+03  0.14770245970E+04  0.14158883416E+04 0.  0.
        5    1    3    3  502    0  0.64797422150E+03 -0.11054562675E+03  0.48443816820E+03  0.81657415838E+03  0.46999998093E+01 0. -1.
       -5    1    3    3    0  502 -0.64797422150E+03  0.11054562675E+03 -0.63888689226E+02  0.66045043866E+03  0.46999998093E+01 0.  1.
</event>
<event>
 5   0  0.1046253E-03  0.1290715E+04  0.7818609E-02  0.9036961E-01
        2   -1    0    0  501    0  0.00000000000E+00  0.00000000000E+00  0.94889167635E+03  0.94889167635E+03  0.25500000920E-02 0. -1.
       -2   -1    0    0    0  501  0.00000000000E+00  0.00000000000E+00 -0.43891895038E+03  0.43891895039E+03  0.25500000920E-02 0.  1.
    10030    2    1    2    0    0  0.00000000000E+00  0.00000000000E+00  0.50997272597E+03  0.13878106267E+04  0.12907153654E+04 0.  0.
        3    1    3    3  502    0  0.34989674408E+03  0.47936643406E+03  0.52756540078E+03  0.79406874509E+03  0.10100000352E+00 0. -1.
       -3    1    3    3    0  502 -0.34989674408E+03 -0.47936643406E+03 -0.17592674812E+02  0.59374188166E+03  0.10100000352E+00 0.  1.
</event>
<event>
 5   0  0.5563545E-04  0.1287088E+04  0.7818609E-02  0.9039868E-01
        1   -1    0    0  501    0  0.00000000000E+00  0.00000000000E+00  0.11399813966E+04  0.11399813967E+04  0.50400001928E-02 0. -1.
       -1   -1    0    0    0  501  0.00000000000E+00  0.00000000000E+00 -0.36329422857E+03  0.36329422860E+03  0.50400001928E-02 0.  1.
    10030    2    1    2    0    0  0.00000000000E+00  0.00000000000E+00  0.77668716807E+03  0.15032756253E+04  0.12870876615E+04 0.  0.
        2    1    3    3  502    0 -0.36499815510E+03 -0.23345995626E+03 -0.16741896743E+03  0.46449576431E+03  0.25500000920E-02 0.  1.
       -2    1    3    3    0  502  0.36499815510E+03  0.23345995626E+03  0.94410613550E+03  0.10387798609E+04  0.25500000920E-02 0. -1.
</event>
<event>
 5   0  0.1103241E-03  0.1311466E+04  0.7818609E-02  0.9020522E-01
        2   -1    0    0  501    0  0.00000000000E+00  0.00000000000E+00  0.75819621097E+03  0.75819621097E+03  0.25500000920E-02 0. -1.
       -2   -1    0    0    0  501  0.00000000000E+00  0.00000000000E+00 -0.56711643255E+03  0.56711643256E+03  0.25500000920E-02 0.  1.
    10030    2    1    2    0    0  0.00000000000E+00  0.00000000000E+00  0.19107977842E+03  0.13253126435E+04  0.13114656387E+04 0.  0.
        4    1    3    3  502    0  0.41090202361E+03  0.25071958961E+03  0.54553138868E+03  0.72753480642E+03  0.12699999809E+01 0. -1.
       -4    1    3    3    0  502 -0.41090202361E+03 -0.25071958961E+03 -0.35445161026E+03  0.59777783711E+03  0.12699999809E+01 0.  1.
</event>
<event>
 5   0  0.5563545E-04  0.1281266E+04  0.7818609E-02  0.9044554E-01
       -1   -1    0    0    0  501  0.00000000000E+00  0.00000000000E+00  0.29733861946E+03  0.29733861950E+03  0.50400001928E-02 0. -1.
        1   -1    0    0  501    0  0.00000000000E+00  0.00000000000E+00 -0.13802810088E+04  0.13802810088E+04  0.50400001928E-02 0.  1.
    10030    2    1    2    0    0  0.00000000000E+00  0.00000000000E+00 -0.10829423893E+04  0.16776196283E+04  0.12812663262E+04 0.  0.
        2    1    3    3  502    0  0.43980471871E+03  0.17035056965E+03  0.26191907360E+02  0.47237011252E+03  0.25500000920E-02 0. -1.
       -2    1    3    3    0  502 -0.43980471871E+03 -0.17035056965E+03 -0.11091342967E+04  0.12052495158E+04  0.25500000920E-02 0.  1.
</event>
<event>
 5   0  0.5766027E-04  0.1300188E+04  0.7818609E-02  0.9029416E-01
        1   -1    0    0  501    0  0.00000000000E+00  0.00000000000E+00  0.83155892754E+03  0.83155892756E+03  0.50400001928E-02 0. -1.
       -1   -1    0    0    0  501  0.00000000000E+00  0.00000000000E+00 -0.50822876221E+03  0.50822876224E+03  0.50400001928E-02 0.  1.
    10030    2    1    2    0    0  0.00000000000E+00  0.00000000000E+00  0.32333016533E+03  0.13397876898E+04  0.13001879318E+04 0.  0.
        3    1    3    3  502    0 -0.52403102683E+03  0.25991194250E+03 -0.13062783975E+03  0.59935496799E+03  0.10100000352E+00 0. -1.
       -3    1    3    3    0  502  0.52403102683E+03 -0.25991194250E+03  0.45395800508E+03  0.74043272180E+03  0.10100000352E+00 0.  1.
</event>
<event>
 5   0  0.1046253E-03  0.1301149E+04  0.7818609E-02  0.9028655E-01
        2   -1    0    0  501    0  0.00000000000E+00  0.00000000000E+00  0.10427907331E+04  0.10427907331E+04  0.25500000920E-02 0.  1.
       -2   -1    0    0    0  501  0.00000000000E+00  0.00000000000E+00 -0.40587928761E+03  0.40587928762E+03  0.25500000920E-02 0. -1.
    10030    2    1    2    0    0  0.00000000000E+00  0.00000000000E+00  0.63691144548E+03  0.14486700207E+04  0.13011489690E+04 0.  0.
        3    1    3    3  502    0 -0.61529352878E+02  0.11193513046E+03 -0.39178124506E+03  0.41207752775E+03  0.10100000352E+00 0. -1.
       -3    1    3    3    0  502  0.61529352878E+02 -0.11193513046E+03  0.10286926905E+04  0.10365924930E+04  0.10100000352E+00 0.  1.
</event>
<event>
 5   0  0.5563545E-04  0.1296508E+04  0.7818609E-02  0.9032339E-01
       -1   -1    0    0    0  501  0.00000000000E+00  0.00000000000E+00  0.83594178178E+03  0.83594178180E+03  0.50400001928E-02 0.  1.
        1   -1    0    0  501    0  0.00000000000E+00  0.00000000000E+00 -0.50270626219E+03  0.50270626222E+03  0.50400001928E-02 0. -1.
    10030    2    1    2    0    0  0.00000000000E+00  0.00000000000E+00  0.33323551959E+03  0.13386480440E+04  0.12965078767E+04 0.  0.
        2    1    3    3  502    0  0.27809334173E+03  0.58074618481E+03  0.89137859955E+02  0.65003661125E+03  0.25500000920E-02 0.  1.
       -2    1    3    3    0  502 -0.27809334173E+03 -0.58074618481E+03  0.24409765963E+03  0.68861143276E+03  0.25500000920E-02 0. -1.
</event>
<event>
 5   0  0.1101619E-03  0.1229572E+04  0.7818609E-02  0.9087359E-01
       -2   -1    0    0    0  501  0.00000000000E+00  0.00000000000E+00  0.38993431679E+03  0.38993431680E+03  0.25500000920E-02 0.  1.
        2   -1    0    0  501    0  0.00000000000E+00  0.00000000000E+00 -0.96929584952E+03  0.96929584953E+03  0.25500000920E-02 0. -1.
    10030    2    1    2    0    0  0.00000000000E+00  0.00000000000E+00 -0.57936153273E+03  0.13592301663E+04  0.12295718196E+04 0.  0.
        1    1    3    3  502    0 -0.57021528713E+03  0.17201538233E+03 -0.45815565984E+03  0.75142622665E+03  0.50400001928E-02 0. -1.
       -1    1    3    3    0  502  0.57021528713E+03 -0.17201538233E+03 -0.12120587289E+03  0.60780393968E+03  0.50400001928E-02 0.  1.
</event>
<event>
 5   0  0.1046253E-03  0.1325798E+04  0.7818609E-02  0.9009354E-01
        2   -1    0    0  501    0  0.00000000000E+00  0.00000000000E+00  0.27826853577E+03  0.27826853579E+03  0.25500000920E-02 0.  1.
       -2   -1    0    0    0  501  0.00000000000E+00  0.00000000000E+00 -0.15791759932E+04  0.15791759932E+04  0.25500000920E-02 0. -1.
    10030    2    1    2    0    0  0.00000000000E+00  0.00000000000E+00 -0.13009074574E+04  0.18574445290E+04  0.13257978600E+04 0.  0.
        3    1    3    3  502    0  0.26256183564E+03  0.13717064166E+03  0.18037722823E+03  0.34682914689E+03  0.10100000352E+00 0.  1.
       -3    1    3    3    0  502 -0.26256183564E+03 -0.13717064166E+03 -0.14812846856E+04  0.15106153821E+04  0.10100000352E+00 0. -1.
</event>
<event>
 5   0  0.5710383E-04  0.1296210E+04  0.7818609E-02  0.9032576E-01
       -1   -1    0    0    0  501  0.00000000000E+00  0.00000000000E+00  0.50687589994E+03  0.50687589996E+03  0.50400001928E-02 0.  1.
        1   -1    0    0  501    0  0.00000000000E+00  0.00000000000E+00 -0.82868399273E+03  0.82868399275E+03  0.50400001928E-02 0. -1.
    10030    2    1    2    0    0  0.00000000000E+00  0.00000000000E+00 -0.32180809279E+03  0.13355598927E+04  0.12962097741E+04 0.  0.
        1    1    3    3  502    0  0.29637867062E+03 -0.37976723221E+03  0.28582051408E+03  0.56014001228E+03  0.50400001928E-02 0.  1.
       -1    1    3    3    0  502 -0.29637867062E+03  0.37976723221E+03 -0.60762860688E+03  0.77541988044E+03  0.50400001928E-02 0. -1.
</event>
<event>
 5   0  0.5710383E-04  0.1351181E+04  0.7818609E-02  0.8989935E-01
       -1   -1    0    0    0  501  0.00000000000E+00  0.00000000000E+00  0.11971116409E+04  0.11971116409E+04  0.50400001928E-02 0.  1.
        1   -1    0    0  501    0  0.00000000000E+00  0.00000000000E+00 -0.38126958982E+03  0.38126958986E+03  0.50400001928E-02 0. -1.
    10030    2    1    2    0    0  0.00000000000E+00  0.00000000000E+00  0.81584205110E+03  0.15783812308E+04  0.13511806161E+04 0.  0.
        1    1    3    3  502    0 -0.26458202829E+03  0.49164999030E+03 -0.36435046320E+02  0.55950949526E+03  0.50400001928E-02 0. -1.
       -1    1    3    3    0  502  0.26458202829E+03 -0.49164999030E+03  0.85227709742E+03  0.10188717355E+04  0.50400001928E-02 0.  1.
</event>
<event>
 5   0  0.1101619E-03  0.1301665E+04  0.7818609E-02  0.9028246E-01
        2   -1    0    0  501    0  0.00000000000E+00  0.00000000000E+00  0.34757729519E+03  0.34757729520E+03  0.25500000920E-02 0.  1.
       -2   -1    0    0    0  501  0.00000000000E+00  0.00000000000E+00 -0.12186718527E+04  0.12186718527E+04  0.25500000920E-02 0. -1.
    10030    2    1    2    0    0  0.00000000000E+00  0.00000000000E+00 -0.87109455751E+03  0.15662491479E+04  0.13016645748E+04 0.  0.
        1    1    3    3  502    0  0.47550698477E+03 -0.41028694165E+03 -0.64095156918E+03  0.89736346098E+03  0.50400001928E-02 0. -1.
       -1    1    3    3    0  502 -0.47550698477E+03  0.41028694165E+03 -0.23014298833E+03  0.66888568691E+03  0.50400001928E-02 0.  1.
</event>
<event>
 5   0  0.5563545E-04  0.1325184E+04  0.7818609E-02  0.9009829E-01
        1   -1    0    0  501    0  0.00000000000E+00  0.00000000000E+00  0.20550988516E+04  0.20550988517E+04  0.50400001928E-02 0. -1.
       -1   -1    0    0    0  501  0.00000000000E+00  0.00000000000E+00 -0.21362858097E+03  0.21362858103E+03  0.50400001928E-02 0.  1.
    10030    2    1    2    0    0  0.00000000000E+00  0.00000000000E+00  0.18414702707E+04  0.22687274327E+04  0.13251835367E+04 0.  0.
        2    1    3    3  502    0 -0.58172227751E+03  0.29710434733E+03  0.11110383488E+04  0.12888281553E+04  0.25500000920E-02 0.  1.
       -2    1    3    3    0  502  0.58172227751E+03 -0.29710434733E+03  0.73043192191E+03  0.97989927743E+03  0.25500000920E-02 0. -1.
</event>
<event>
 5   0  0.5710383E-04  0.1272873E+04  0.7818609E-02  0.9051358E-01
        1   -1    0    0  501    0  0.00000000000E+00  0.00000000000E+00  0.10921802005E+04  0.10921802005E+04  0.50400001928E-02 0. -1.
       -1   -1    0    0    0  501  0.00000000000E+00  0.00000000000E+00 -0.37086483490E+03  0.37086483493E+03  0.50400001928E-02 0.  1.
    10030    2    1    2    0    0  0.00000000000E+00  0.00000000000E+00  0.72131536560E+03  0.14630450354E+04  0.12728727034E+04 0.  0.
        1    1    3    3  502    0  0.11714119503E+03  0.23503070636E+03 -0.30568916432E+03  0.40299796242E+03  0.50400001928E-02 0.  1.
       -1    1    3    3    0  502 -0.11714119503E+03 -0.23503070636E+03  0.10270045299E+04  0.10600470730E+04  0.50400001928E-02 0. -1.
</event>
<event>
 5   0  0.1046253E-03  0.1329376E+04  0.7818609E-02  0.9006589E-01
       -2   -1    0    0    0  501  0.00000000000E+00  0.00000000000E+00  0.35787341068E+03  0.35787341069E+03  0.25500000920E-02 0. -1.
        2   -1    0    0  501    0  0.00000000000E+00  0.00000000000E+00 -0.12345433643E+04  0.12345433643E+04  0.25500000920E-02 0.  1.
    10030    2    1    2    0    0  0.00000000000E+00  0.00000000000E+00 -0.87666995363E+03  0.15924167750E+04  0.13293761611E+04 0.  0.
        3    1    3    3  502    0 -0.15150998259E+03  0.34465725305E+03  0.21783672346E+03  0.43496752199E+03  0.10100000352E+00 0. -1.
       -3    1    3    3    0  502  0.15150998259E+03 -0.34465725305E+03 -0.10945066771E+04  0.11574492530E+04  0.10100000352E+00 0.  1.
</event>
<event>
 5   0  0.6006119E-04  0.1292556E+04  0.7818609E-02  0.9035489E-01
        1   -1    0    0  501    0  0.00000000000E+00  0.00000000000E+00  0.10617541390E+04  0.10617541390E+04  0.50400001928E-02 0.  1.
       -1   -1    0    0    0  501  0.00000000000E+00  0.00000000000E+00 -0.39338246522E+03  0.39338246525E+03  0.50400001928E-02 0. -1.
    10030    2    1    2    0    0  0.00000000000E+00  0.00000000000E+00  0.66837167380E+03  0.14551366043E+04  0.12925563209E+04 0.  0.
        4    1    3    3  502    0  0.28882291615E+03 -0.19504214877E+02  0.98468401113E+03  0.10263543764E+04  0.12699999809E+01 0.  1.
       -4    1    3    3    0  502 -0.28882291615E+03  0.19504214877E+02 -0.31631233734E+03  0.42878222788E+03  0.12699999809E+01 0. -1.
</event>
<event>
 5   0  0.6006119E-04  0.1300565E+04  0.7818609E-02  0.9029117E-01
       -1   -1    0    0    0  501  0.00000000000E+00  0.00000000000E+00  0.98448197597E+03  0.98448197598E+03  0.50400001928E-02 0.  1.
        1   -1    0    0  501    0  0.00000000000E+00  0.00000000000E+00 -0.42953313707E+03  0.42953313710E+03  0.50400001928E-02 0. -1.
    10030    2    1    2    0    0  0.00000000000E+00  0.00000000000E+00  0.55494883890E+03  0.14140151131E+04  0.13005654640E+04 0.  0.
        4    1    3    3  502    0 -0.94297019422E+02  0.65104427437E+02  0.97341735854E+03  0.98013952127E+03  0.12699999809E+01 0.  1.
       -4    1    3    3    0  502  0.94297019422E+02 -0.65104427437E+02 -0.41846851964E+03  0.43387559181E+03  0.12699999809E+01 0. -1.
</event>
<event>
 5   0  0.6006119E-04  0.1297953E+04  0.7818609E-02  0.9031190E-01
        1   -1    0    0  501    0  0.00000000000E+00  0.00000000000E+00  0.80501745024E+03  0.80501745025E+03  0.50400001928E-02 0. -1.
       -1   -1    0    0    0  501  0.00000000000E+00  0.00000000000E+00 -0.52318204662E+03  0.52318204664E+03  0.50400001928E-02 0.  1.
    10030    2    1    2    0    0  0.00000000000E+00  0.00000000000E+00  0.28183540362E+03  0.13281994969E+04  0.12979532768E+04 0.  0.
        4    1    3    3  502    0 -0.21208519121E+03  0.16286447190E+03  0.74602135493E+03  0.79249885770E+03  0.12699999809E+01 0. -1.
       -4    1    3    3    0  502  0.21208519121E+03 -0.16286447190E+03 -0.46418595131E+03  0.53570063920E+03  0.12699999809E+01 0.  1.
</event>
<event>
 5   0  0.1031295E-03  0.1292479E+04  0.7818609E-02  0.9035551E-01
       -2   -1    0    0    0  501  0.00000000000E+00  0.00000000000E+00  0.47414233903E+03  0.47414233904E+03  0.25500000920E-02 0.  1.
        2   -1    0    0  501    0  0.00000000000E+00  0.00000000000E+00 -0.88080215361E+03  0.88080215361E+03  0.25500000920E-02 0. -1.
    10030    2    1    2    0    0  0.00000000000E+00  0.00000000000E+00 -0.40665981458E+03  0.13549444927E+04  0.12924791578E+04 0.  0.
        2    1    3    3  502    0  0.35518072118E+03 -0.20590565016E+02 -0.76889223344E+03  0.84721460251E+03  0.25500000920E-02 0. -1.
       -2    1    3    3    0  502 -0.35518072118E+03  0.20590565016E+02  0.36223241886E+03  0.50772989014E+03  0.25500000920E-02 0.  1.
</event>
<event>
 5   0  0.1103241E-03  0.1305913E+04  0.7818609E-02  0.9024890E-01
       -2   -1    0    0    0  501  0.00000000000E+00  0.00000000000E+00  0.27326315452E+03  0.27326315453E+03  0.25500000920E-02 0.  1.
        2   -1    0    0  501    0  0.00000000000E+00  0.00000000000E+00 -0.15602244947E+04  0.15602244947E+04  0.25500000920E-02 0. -1.
    10030    2    1    2    0    0  0.00000000000E+00  0.00000000000E+00 -0.12869613402E+04  0.18334876492E+04  0.13059125043E+04 0.  0.
        4    1    3    3  502    0 -0.60870172271E+03 -0.99745220846E+02 -0.34274045524E+03  0.70564830395E+03  0.12699999809E+01 0.  1.
       -4    1    3    3    0  502  0.60870172271E+03  0.99745220846E+02 -0.94422088494E+03  0.11278393453E+04  0.12699999809E+01 0. -1.
</event>
<event>
 5   0  0.1046253E-03  0.1307645E+04  0.7818609E-02  0.9023525E-01
       -2   -1    0    0    0  501  0.00000000000E+00  0.00000000000E+00  0.69704381580E+03  0.69704381581E+03  0.25500000920E-02 0.  1.
        2   -1    0    0  501    0  0.00000000000E+00  0.00000000000E+00 -0.61328090315E+03  0.61328090316E+03  0.25500000920E-02 0. -1.
    10030    2    1    2    0    0  0.00000000000E+00  0.00000000000E+00  0.83762912649E+02  0.13103247190E+04  0.13076446932E+04 0.  0.
        3    1    3    3  502    0  0.77761290827E+02  0.82548621241E+02  0.68711307522E+03  0.69640899015E+03  0.10100000352E+00 0.  1.
       -3    1    3    3    0  502 -0.77761290827E+02 -0.82548621241E+02 -0.60335016257E+03  0.61391572882E+03  0.10100000352E+00 0. -1.
</event>
<event>
 5   0  0.5766027E-04  0.1300382E+04  0.7818609E-02  0.9029263E-01
        1   -1    0    0  501    0  0.00000000000E+00  0.00000000000E+00  0.95626011206E+03  0.95626011207E+03  0.50400001928E-02 0.  1.
       -1   -1    0    0    0  501  0.00000000000E+00  0.00000000000E+00 -0.44208482668E+03  0.44208482670E+03  0.50400001928E-02 0. -1.
    10030    2    1    2    0    0  0.00000000000E+00  0.00000000000E+00  0.51417528538E+03  0.13983449388E+04  0.13003816146E+04 0.  0.
        3    1    3    3  502    0 -0.53421815527E+03  0.45703715639E+02 -0.13841061465E+03  0.55374667086E+03  0.10100000352E+00 0. -1.
       -3    1    3    3    0  502  0.53421815527E+03 -0.45703715639E+02  0.65258590003E+03  0.84459826791E+03  0.10100000352E+00 0.  1.
</event>
<event>
 5   0  0.1081574E-03  0.1330947E+04  0.7818609E-02  0.9005378E-01
       -2   -1    0    0    0  501  0.00000000000E+00  0.00000000000E+00  0.43232852250E+03  0.43232852250E+03  0.25500000920E-02 0.  1.
        2   -1    0    0  501    0  0.00000000000E+00  0.00000000000E+00 -0.10243480864E+04  0.10243480864E+04  0.25500000920E-02 0. -1.
    10030    2    1    2    0    0  0.00000000000E+00  0.00000000000E+00 -0.59201956391E+03  0.14566766089E+04  0.13309468731E+04 0.  0.
        5    1    3    3  502    0 -0.58164012851E+02 -0.64814761340E+03 -0.14374742541E+03  0.66645614519E+03  0.46999998093E+01 0.  1.
       -5    1    3    3    0  502  0.58164012851E+02  0.64814761340E+03 -0.44827213850E+03  0.79022046373E+03  0.46999998093E+01 0. -1.
</event>
<event>
 5   0  0.1031295E-03  0.1288860E+04  0.7818609E-02  0.9038446E-01
       -2   -1    0    0    0  501  0.00000000000E+00  0.00000000000E+00  0.30148734839E+03  0.30148734840E+03  0.25500000920E-02 0. -1.
        2   -1    0    0  501    0  0.00000000000E+00  0.00000000000E+00 -0.13774710547E+04  0.13774710547E+04  0.25500000920E-02 0.  1.
    10030    2    1    2    0    0  0.00000000000E+00  0.00000000000E+00 -0.10759837064E+04  0.16789584031E+04  0.12888601100E+04 0.  0.
        2    1    3    3  502    0  0.14523004746E+03  0.56490783349E+03 -0.89492671278E+03  0.10682258414E+04  0.25500000920E-02 0.  1.
       -2    1    3    3    0  502 -0.14523004746E+03 -0.56490783349E+03 -0.18105699358E+03  0.61073256173E+03  0.25500000920E-02 0. -1.
</event>
<event>
 5   0  0.5766027E-04  0.1292978E+04  0.7818609E-02  0.9035152E-01
        1   -1    0    0  501    0  0.00000000000E+00  0.00000000000E+00  0.93586544507E+03  0.93586544508E+03  0.50400001928E-02 0. -1.
       -1   -1    0    0    0  501  0.00000000000E+00  0.00000000000E+00 -0.44658979149E+03  0.44658979151E+03  0.50400001928E-02 0.  1.
    10030    2    1    2    0    0  0.00000000000E+00  0.00000000000E+00  0.48927565358E+03  0.13824552366E+04  0.12929778869E+04 0.  0.
        3    1    3    3  502    0 -0.51495578151E+03 -0.19296068755E+03 -0.11878828331E+03  0.56260461276E+03  0.10100000352E+00 0.  1.
       -3    1    3    3    0  502  0.51495578151E+03  0.19296068755E+03  0.60806393689E+03  0.81985062383E+03  0.10100000352E+00 0. -1.
</event>
<event>
 5   0  0.1081574E-03  0.1302018E+04  0.7818609E-02  0.9027966E-01
        2   -1    0    0  501    0  0.00000000000E+00  0.00000000000E+00  0.18873961971E+04  0.18873961971E+04  0.25500000920E-02 0.  1.
       -2   -1    0    0    0  501  0.00000000000E+00  0.00000000000E+00 -0.22454896581E+03  0.22454896582E+03  0.25500000920E-02 0. -1.
    10030    2    1    2    0    0  0.00000000000E+00  0.00000000000E+00  0.16628472313E+04  0.21119451629E+04  0.13020182244E+04 0.  0.
        5    1    3    3  502    0  0.23853682775E+03  0.24043123330E+03  0.17332100137E+04  0.17659971794E+04  0.46999998093E+01 0.  1.
       -5    1    3    3    0  502 -0.23853682775E+03 -0.24043123330E+03 -0.70362782412E+02  0.34594798350E+03  0.46999998093E+01 0. -1.
</event>
<event>
 5   0  0.5812938E-04  0.1296083E+04  0.7818609E-02  0.9032677E-01
        1   -1    0    0  501    0  0.00000000000E+00  0.00000000000E+00  0.10031109864E+04  0.10031109864E+04  0.50400001928E-02 0.  1.
       -1   -1    0    0    0  501  0.00000000000E+00  0.00000000000E+00 -0.41865566067E+03  0.41865566070E+03  0.50400001928E-02 0. -1.
    10030    2    1    2    0    0  0.00000000000E+00  0.00000000000E+00  0.58445532570E+03  0.14217666471E+04  0.12960834738E+04 0.  0.
        5    1    3    3  502    0 -0.13587523360E+03  0.80804369357E+02  0.98161519812E+03  0.99427456590E+03  0.46999998093E+01 0.  1.
       -5    1    3    3    0  502  0.13587523360E+03 -0.80804369357E+02 -0.39715987243E+03  0.42749208119E+03  0.46999998093E+01 0. -1.
</event>
<event>
 5   0  0.1081574E-03  0.1296986E+04  0.7818609E-02  0.9031959E-01
       -2   -1    0    0    0  501  0.00000000000E+00  0.00000000000E+00  0.38076644747E+03  0.38076644748E+03  0.25500000920E-02 0. -1.
        2   -1    0    0  501    0  0.00000000000E+00  0.00000000000E+00 -0.11044643328E+04  0.11044643328E+04  0.25500000920E-02 0.  1.
    10030    2    1    2    0    0  0.00000000000E+00  0.00000000000E+00 -0.72369788533E+03  0.14852307803E+04  0.12969856751E+04 0.  0.
        5    1    3    3  502    0  0.38589170994E+03 -0.18542088997E+03  0.19590330025E+03  0.47084340421E+03  0.46999998093E+01 0. -1.
       -5    1    3    3    0  502 -0.38589170994E+03  0.18542088997E+03 -0.91960118558E+03  0.10143873761E+04  0.46999998093E+01 0.  1.
</event>
<event>
 5   0  0.1101619E-03  0.1303831E+04  0.7818609E-02  0.9026533E-01
       -2   -1    0    0    0  501  0.00000000000E+00  0.00000000000E+00  0.44036067224E+03  0.44036067225E+03  0.25500000920E-02 0.  1.
        2   -1    0    0  501    0  0.00000000000E+00  0.00000000000E+00 -0.96510334966E+03  0.96510334966E+03  0.25500000920E-02 0. -1.
    10030    2    1    2    0    0  0.00000000000E+00  0.00000000000E+00 -0.52474267742E+03  0.14054640219E+04  0.13038306023E+04 0.  0.
        1    1    3    3  502    0  0.16914142757E+03  0.16222683439E+03  0.39337949986E+03  0.45790151698E+03  0.50400001928E-02 0.  1.
       -1    1    3    3    0  502 -0.16914142757E+03 -0.16222683439E+03 -0.91812217728E+03  0.94756250493E+03  0.50400001928E-02 0. -1.
</event>
<event>
 5   0  0.1103241E-03  0.1298936E+04  0.7818609E-02  0.9030409E-01
       -2   -1    0    0    0  501  0.00000000000E+00  0.00000000000E+00  0.17906909954E+03  0.17906909956E+03  0.25500000920E-02 0.  1.
        2   -1    0    0  501    0  0.00000000000E+00  0.00000000000E+00 -0.23555645278E+04  0.23555645278E+04  0.25500000920E-02 0. -1.
    10030    2    1    2    0    0  0.00000000000E+00  0.00000000000E+00 -0.21764954282E+04  0.25346336273E+04  0.12989362092E+04 0.  0.
        4    1    3    3  502    0  0.34332846098E+03  0.20878014262E+03 -0.20838842925E+04  0.21222721167E+04  0.12699999809E+01 0. -1.
       -4    1    3    3    0  502 -0.34332846098E+03 -0.20878014262E+03 -0.92611135755E+02  0.41236151062E+03  0.12699999809E+01 0.  1.
</event>
<event>
 5   0  0.5766027E-04  0.1302472E+04  0.7818609E-02  0.9027607E-01
        1   -1    0    0  501    0  0.00000000000E+00  0.00000000000E+00  0.56224996795E+03  0.56224996797E+03  0.50400001928E-02 0. -1.
       -1   -1    0    0    0  501  0.00000000000E+00  0.00000000000E+00 -0.75430566781E+03  0.75430566782E+03  0.50400001928E-02 0.  1.
    10030    2    1    2    0    0  0.00000000000E+00  0.00000000000E+00 -0.19205569986E+03  0.13165556358E+04  0.13024720152E+04 0.  0.
        3    1    3    3  502    0 -0.27621488591E+03  0.34539474167E+03  0.38717473865E+03  0.58778948547E+03  0.10100000352E+00 0. -1.
       -3    1    3    3    0  502  0.27621488591E+03 -0.34539474167E+03 -0.57923043851E+03  0.72876615033E+03  0.10100000352E+00 0.  1.
</event>
<event>
 5   0  0.6006119E-04  0.1330365E+04  0.7818609E-02  0.9005826E-01
       -1   -1    0    0    0  501  0.00000000000E+00  0.00000000000E+00  0.12586492072E+04  0.12586492072E+04  0.50400001928E-02 0. -1.
        1   -1    0    0  501    0  0.00000000000E+00  0.00000000000E+00 -0.35154179179E+03  0.35154179182E+03  0.50400001928E-02 0.  1.
    10030    2    1    2    0    0  0.00000000000E+00  0.00000000000E+00  0.90710741539E+03  0.16101909990E+04  0.13303650590E+04 0.  0.
        4    1    3    3  502    0 -0.88626504276E+00 -0.23326399081E+03 -0.30041315821E+03  0.38034530811E+03  0.12699999809E+01 0.  1.
       -4    1    3    3    0  502  0.88626504276E+00  0.23326399081E+03  0.12075205736E+04  0.12298456909E+04  0.12699999809E+01 0. -1.
</event>
<event>
 5   0  0.1101619E-03  0.1307300E+04  0.7818609E-02  0.9023796E-01
        2   -1    0    0  501    0  0.00000000000E+00  0.00000000000E+00  0.98276202317E+03  0.98276202317E+03  0.25500000920E-02 0. -1.
       -2   -1    0    0    0  501  0.00000000000E+00  0.00000000000E+00 -0.43475270884E+03  0.43475270885E+03  0.25500000920E-02 0.  1.
    10030    2    1    2    0    0  0.00000000000E+00  0.00000000000E+00  0.54800931433E+03  0.14175147320E+04  0.13073001977E+04 0.  0.
        1    1    3    3  502    0 -0.59858635613E+03  0.16969247479E+03  0.49129201173E+03  0.79276036894E+03  0.50400001928E-02 0. -1.
       -1    1    3    3    0  502  0.59858635613E+03 -0.16969247479E+03  0.56717302607E+02  0.62475436308E+03  0.50400001928E-02 0.  1.
</event>
<event>
 5   0  0.5710383E-04  0.1296728E+04  0.7818609E-02  0.9032164E-01
       -1   -1    0    0    0  501  0.00000000000E+00  0.00000000000E+00  0.42925414232E+03  0.42925414235E+03  0.50400001928E-02 0. -1.
        1   -1    0    0  501    0  0.00000000000E+00  0.00000000000E+00 -0.97931766599E+03  0.97931766601E+03  0.50400001928E-02 0.  1.
    10030    2    1    2    0    0  0.00000000000E+00  0.00000000000E+00 -0.55006352367E+03  0.14085718084E+04  0.12967284447E+04 0.  0.
        1    1    3    3  502    0  0.48229159819E+03  0.26305771355E+03 -0.64907372558E+03  0.85035360151E+03  0.50400001928E-02 0.  1.
       -1    1    3    3    0  502 -0.48229159819E+03 -0.26305771355E+03  0.99010201909E+02  0.55821820684E+03  0.50400001928E-02 0. -1.
</event>
<event>
 5   0  0.1103241E-03  0.1291206E+04  0.7818609E-02  0.9036568E-01
        2   -1    0    0  501    0  0.00000000000E+00  0.00000000000E+00  0.12907238123E+04  0.12907238123E+04  0.25500000920E-02 0.  1.
       -2   -1    0    0    0  501  0.00000000000E+00  0.00000000000E+00 -0.32292230611E+03  0.32292230612E+03  0.25500000920E-02 0. -1.
    10030    2    1    2    0    0  0.00000000000E+00  0.00000000000E+00  0.96780150615E+03  0.16136461184E+04  0.12912064281E+04 0.  0.
        4    1    3    3  502    0 -0.13293801884E+02 -0.49782019428E+03  0.99735190221E+03  0.11147708737E+04  0.12699999809E+01 0.  1.
       -4    1    3    3    0  502  0.13293801884E+02  0.49782019428E+03 -0.29550396060E+02  0.49887524473E+03  0.12699999809E+01 0. -1.
</event>
<event>
 5   0  0.1081574E-03  0.1280244E+04  0.7818609E-02  0.9045380E-01
       -2   -1    0    0    0  501  0.00000000000E+00  0.00000000000E+00  0.26843791205E+03  0.26843791206E+03  0.25500000920E-02 0. -1.
        2   -1    0    0  501    0  0.00000000000E+00  0.00000000000E+00 -0.15264469967E+04  0.15264469967E+04  0.25500000920E-02 0.  1.
    10030    2    1    2    0    0  0.00000000000E+00  0.00000000000E+00 -0.12580090846E+04  0.17948849087E+04  0.12802441090E+04 0.  0.
        5    1    3    3  502    0  0.26819041815E+03 -0.58116943280E+03 -0.61907667211E+03  0.89048415256E+03  0.46999998093E+01 0. -1.
       -5    1    3    3    0  502 -0.26819041815E+03  0.58116943280E+03 -0.63893241250E+03  0.90440075616E+03  0.46999998093E+01 0.  1.
</event>
<event>
 5   0  0.1081574E-03  0.1305520E+04  0.7818609E-02  0.9025199E-01
        2   -1    0    0  501    0  0.00000000000E+00  0.00000000000E+00  0.27888717044E+04  0.27888717044E+04  0.25500000920E-02 0. -1.
       -2   -1    0    0    0  501  0.00000000000E+00  0.00000000000E+00 -0.15278416850E+03  0.15278416852E+03  0.25500000920E-02 0.  1.
    10030    2    1    2    0    0  0.00000000000E+00  0.00000000000E+00  0.26360875359E+04  0.29416558729E+04  0.13055197347E+04 0.  0.
        5    1    3    3  502    0 -0.56917480387E+02  0.25341835557E+03 -0.31296166401E+02  0.26165244609E+03  0.46999998093E+01 0.  1.
       -5    1    3    3    0  502  0.56917480387E+02 -0.25341835557E+03  0.26673837023E+04  0.26800034269E+04  0.46999998093E+01 0. -1.
</event>
<event>
 5   0  0.6006119E-04  0.1300275E+04  0.7818609E-02  0.9029347E-01
        1   -1    0    0  501    0  0.00000000000E+00  0.00000000000E+00  0.90550606635E+03  0.90550606636E+03  0.50400001928E-02 0.  1.
       -1   -1    0    0    0  501  0.00000000000E+00  0.00000000000E+00 -0.46678758445E+03  0.46678758448E+03  0.50400001928E-02 0. -1.
    10030    2    1    2    0    0  0.00000000000E+00  0.00000000000E+00  0.43871848190E+03  0.13722936508E+04  0.13002753392E+04 0.  0.
        4    1    3    3  502    0 -0.22062743816E+02  0.64954345701E+03  0.23714209914E+03  0.69183195596E+03  0.12699999809E+01 0.  1.
       -4    1    3    3    0  502  0.22062743816E+02 -0.64954345701E+03  0.20157638275E+03  0.68046169487E+03  0.12699999809E+01 0. -1.
</event>
<event>
 5   0  0.6006119E-04  0.1317556E+04  0.7818609E-02  0.9015757E-01
       -1   -1    0    0    0  501  0.00000000000E+00  0.00000000000E+00  0.37211605308E+03  0.37211605311E+03  0.50400001928E-02 0. -1.
        1   -1    0    0  501    0  0.00000000000E+00  0.00000000000E+00 -0.11662726577E+04  0.11662726577E+04  0.50400001928E-02 0.  1.
    10030    2    1    2    0    0  0.00000000000E+00  0.00000000000E+00 -0.79415660461E+03  0.15383887108E+04  0.13175564933E+04 0.  0.
        4    1    3    3  502    0  0.14458272768E+03 -0.44738726898E+02 -0.11456971838E+04  0.11556510584E+04  0.12699999809E+01 0.  1.
       -4    1    3    3    0  502 -0.14458272768E+03  0.44738726898E+02  0.35154057923E+03  0.38273765241E+03  0.12699999809E+01 0. -1.
</event>
<event>
 5   0  0.4012375E-04  0.1301448E+04  0.7818609E-02  0.9028418E-01
        3   -1    0    0  501    0  0.00000000000E+00  0.00000000000E+00  0.50068698393E+03  0.50068699412E+03  0.10100000352E+00 0. -1.
       -3   -1    0    0    0  501  0.00000000000E+00  0.00000000000E+00 -0.84572160136E+03  0.84572160739E+03  0.10100000352E+00 0.  1.
    10030    2    1    2    0    0  0.00000000000E+00  0.00000000000E+00 -0.34503461743E+03  0.13464086015E+04  0.13014481300E+04 0.  0.
        5    1    3    3  502    0 -0.30926029042E+03  0.48505988353E+03  0.14211871137E+03  0.59257475137E+03  0.46999998093E+01 0. -1.
       -5    1    3    3    0  502  0.30926029042E+03 -0.48505988353E+03 -0.48715332880E+03  0.75383385013E+03  0.46999998093E+01 0.  1.
</event>
<event>
 5   0  0.5710383E-04  0.1304801E+04  0.7818609E-02  0.9025767E-01
       -1   -1    0    0    0  501  0.00000000000E+00  0.00000000000E+00  0.43710174771E+03  0.43710174774E+03  0.50400001928E-02 0.  1.
        1   -1    0    0  501    0  0.00000000000E+00  0.00000000000E+00 -0.97374646942E+03  0.97374646944E+03  0.50400001928E-02 0. -1.
    10030    2    1    2    0    0  0.00000000000E+00  0.00000000000E+00 -0.53664472171E+03  0.14108482172E+04  0.13048008026E+04 0.  0.
        1    1    3    3  502    0 -0.63803022426E+03 -0.10781297657E+02 -0.41510309475E+03  0.76125513643E+03  0.50400001928E-02 0.  1.
       -1    1    3    3    0  502  0.63803022426E+03  0.10781297657E+02 -0.12154162696E+03  0.64959308075E+03  0.50400001928E-02 0. -1.
</event>
<event>
 5   0  0.1081574E-03  0.1323819E+04  0.7818609E-02  0.9010887E-01
       -2   -1    0    0    0  501  0.00000000000E+00  0.00000000000E+00  0.17010080198E+03  0.17010080200E+03  0.25500000920E-02 0. -1.
        2   -1    0    0  501    0  0.00000000000E+00  0.00000000000E+00 -0.25756726983E+04  0.25756726983E+04  0.25500000920E-02 0.  1.
    10030    2    1    2    0    0  0.00000000000E+00  0.00000000000E+00 -0.24055718964E+04  0.27457735003E+04  0.13238187061E+04 0.  0.
        5    1    3    3  502    0 -0.24169178245E+03 -0.15172445290E+03 -0.24414897254E+04  0.24581150088E+04  0.46999998093E+01 0.  1.
       -5    1    3    3    0  502  0.24169178245E+03  0.15172445290E+03  0.35917829036E+02  0.28765849153E+03  0.46999998093E+01 0. -1.
</event>
<event>
 5   0  0.1101619E-03  0.1302335E+04  0.7818609E-02  0.9027716E-01
       -2   -1    0    0    0  501  0.00000000000E+00  0.00000000000E+00  0.18368193389E+03  0.18368193391E+03  0.25500000920E-02 0.  1.
        2   -1    0    0  501    0  0.00000000000E+00  0.00000000000E+00 -0.23084405848E+04  0.23084405848E+04  0.25500000920E-02 0. -1.
    10030    2    1    2    0    0  0.00000000000E+00  0.00000000000E+00 -0.21247586509E+04  0.24921225187E+04  0.13023345667E+04 0.  0.
        1    1    3    3  502    0  0.33906711420E+03 -0.54233193229E+03 -0.12961841276E+04  0.14454008874E+04  0.50400001928E-02 0. -1.
       -1    1    3    3    0  502 -0.33906711420E+03  0.54233193229E+03 -0.82857452331E+03  0.10467216313E+04  0.50400001928E-02 0.  1.
</event>
<event>
 5   0  0.1101619E-03  0.1312719E+04  0.7818609E-02  0.9019539E-01
       -2   -1    0    0    0  501  0.00000000000E+00  0.00000000000E+00  0.46458929092E+03  0.46458929093E+03  0.25500000920E-02 0. -1.
        2   -1    0    0  501    0  0.00000000000E+00  0.00000000000E+00 -0.92728807733E+03  0.92728807734E+03  0.25500000920E-02 0.  1.
    10030    2    1    2    0    0  0.00000000000E+00  0.00000000000E+00 -0.46269878641E+03  0.13918773683E+04  0.13127194831E+04 0.  0.
        1    1    3    3  502    0  0.25804718201E+03  0.11444386599E+01  0.40854751926E+03  0.48321913601E+03  0.50400001928E-02 0. -1.
       -1    1    3    3    0  502 -0.25804718201E+03 -0.11444386599E+01 -0.87124630567E+03  0.90865823226E+03  0.50400001928E-02 0.  1.
</event>
<event>
 5   0  0.1101619E-03  0.1301618E+04  0.7818609E-02  0.9028283E-01
        2   -1    0    0  501    0  0.00000000000E+00  0.00000000000E+00  0.75526937219E+03  0.75526937219E+03  0.25500000920E-02 0.  1.
       -2   -1    0    0    0  501  0.00000000000E+00  0.00000000000E+00 -0.56079667742E+03  0.56079667743E+03  0.25500000920E-02 0. -1.
    10030    2    1    2    0    0  0.00000000000E+00  0.00000000000E+00  0.19447269477E+03  0.13160660496E+04  0.13016183073E+04 0.  0.
        1    1    3    3  502    0  0.42217955457E+03  0.30153676444E+03  0.49452596764E+03  0.71673979190E+03  0.50400001928E-02 0.  1.
       -1    1    3    3    0  502 -0.42217955457E+03 -0.30153676444E+03 -0.30005327287E+03  0.59932625772E+03  0.50400001928E-02 0. -1.
</event>
<event>
 5   0  0.5563545E-04  0.1317220E+04  0.7818609E-02  0.9016020E-01
        1   -1    0    0  501    0  0.00000000000E+00  0.00000000000E+00  0.12683611495E+04  0.12683611495E+04  0.50400001928E-02 0.  1.
       -1   -1    0    0    0  501  0.00000000000E+00  0.00000000000E+00 -0.34199008744E+03  0.34199008747E+03  0.50400001928E-02 0. -1.
    10030    2    1    2    0    0  0.00000000000E+00  0.00000000000E+00  0.92637106209E+03  0.16103512370E+04  0.13172197090E+04 0.  0.
        2    1    3    3  502    0  0.40272022387E+03  0.29347379924E+03 -0.63296326399E+02  0.50231153131E+03  0.25500000920E-02 0. -1.
       -2    1    3    3    0  502 -0.40272022387E+03 -0.29347379924E+03  0.98966738849E+03  0.11080397057E+04  0.25500000920E-02 0.  1.
</event>
<event>
 5   0  0.5812938E-04  0.1306281E+04  0.7818609E-02  0.9024599E-01
        1   -1    0    0  501    0  0.00000000000E+00  0.00000000000E+00  0.44140243081E+03  0.44140243084E+03  0.50400001928E-02 0. -1.
       -1   -1    0    0    0  501  0.00000000000E+00  0.00000000000E+00 -0.96644848636E+03  0.96644848637E+03  0.50400001928E-02 0.  1.
    10030    2    1    2    0    0  0.00000000000E+00  0.00000000000E+00 -0.52504605555E+03  0.14078509172E+04  0.13062813038E+04 0.  0.
        5    1    3    3  502    0 -0.13823128505E+03 -0.12642972054E+03  0.41180899043E+03  0.45243905336E+03  0.46999998093E+01 0. -1.
       -5    1    3    3    0  502  0.13823128505E+03  0.12642972054E+03 -0.93685504598E+03  0.95541186385E+03  0.46999998093E+01 0.  1.
</event>
<event>
 5   0  0.1081574E-03  0.1306885E+04  0.7818609E-02  0.9024123E-01
       -2   -1    0    0    0  501  0.00000000000E+00  0.00000000000E+00  0.25865535167E+03  0.25865535169E+03  0.25500000920E-02 0.  1.
        2   -1    0    0  501    0  0.00000000000E+00  0.00000000000E+00 -0.16507953525E+04  0.16507953525E+04  0.25500000920E-02 0. -1.
    10030    2    1    2    0    0  0.00000000000E+00  0.00000000000E+00 -0.13921400008E+04  0.19094507042E+04  0.13068849260E+04 0.  0.
        5    1    3    3  502    0 -0.15309616768E+03 -0.47578021434E+03 -0.13110395142E+04  0.14030865784E+04  0.46999998093E+01 0. -1.
       -5    1    3    3    0  502  0.15309616768E+03  0.47578021434E+03 -0.81100486680E+02  0.50636412576E+03  0.46999998093E+01 0.  1.
</event>
<event>
 5   0  0.6006119E-04  0.1278790E+04  0.7818609E-02  0.9046556E-01
       -1   -1    0    0    0  501  0.00000000000E+00  0.00000000000E+00  0.34340304672E+03  0.34340304676E+03  0.50400001928E-02 0.  1.
        1   -1    0    0  501    0  0.00000000000E+00  0.00000000000E+00 -0.11905132700E+04  0.11905132701E+04  0.50400001928E-02 0. -1.
    10030    2    1    2    0    0  0.00000000000E+00  0.00000000000E+00 -0.84711022333E+03  0.15339163168E+04  0.12787898719E+04 0.  0.
        4    1    3    3  502    0  0.58052277760E+03 -0.10389581427E+03 -0.12724252807E+03  0.60331858034E+03  0.12699999809E+01 0.  1.
       -4    1    3    3    0  502 -0.58052277760E+03  0.10389581427E+03 -0.71986769526E+03  0.93059773647E+03  0.12699999809E+01 0. -1.
</event>
<event>
 5   0  0.1031295E-03  0.1294685E+04  0.7818609E-02  0.9033791E-01
        2   -1    0    0  501    0  0.00000000000E+00  0.00000000000E+00  0.69962570061E+03  0.69962570061E+03  0.25500000920E-02 0. -1.
       -2   -1    0    0    0  501  0.00000000000E+00  0.00000000000E+00 -0.59896650999E+03  0.59896650999E+03  0.25500000920E-02 0.  1.
    10030    2    1    2    0    0  0.00000000000E+00  0.00000000000E+00  0.10065919062E+03  0.12985922106E+04  0.12946850802E+04 0.  0.
        2    1    3    3  502    0 -0.13167276607E+03  0.27141644761E+03 -0.52415341280E+03  0.60476557898E+03  0.25500000920E-02 0.  1.
       -2    1    3    3    0  502  0.13167276607E+03 -0.27141644761E+03  0.62481260342E+03  0.69382663163E+03  0.25500000920E-02 0. -1.
</event>
<event>
 5   0  0.5710383E-04  0.1292777E+04  0.7818609E-02  0.9035312E-01
        1   -1    0    0  501    0  0.00000000000E+00  0.00000000000E+00  0.63142848076E+03  0.63142848078E+03  0.50400001928E-02 0.  1.
       -1   -1    0    0    0  501  0.00000000000E+00  0.00000000000E+00 -0.66170343637E+03  0.66170343639E+03  0.50400001928E-02 0. -1.
    10030    2    1    2    0    0  0.00000000000E+00  0.00000000000E+00 -0.30274955606E+02  0.12931319172E+04  0.12927774682E+04 0.  0.
        1    1    3    3  502    0 -0.19818511351E+03 -0.48342008293E+03 -0.39582832004E+03  0.65547873708E+03  0.50400001928E-02 0. -1.
       -1    1    3    3    0  502  0.19818511351E+03  0.48342008293E+03  0.36555336444E+03  0.63765318009E+03  0.50400001928E-02 0.  1.
</event>
<event>
 5   0  0.1046253E-03  0.1287676E+04  0.7818609E-02  0.9039396E-01
       -2   -1    0    0    0  501  0.00000000000E+00  0.00000000000E+00  0.37460179209E+03  0.37460179210E+03  0.25500000920E-02 0. -1.
        2   -1    0    0  501    0  0.00000000000E+00  0.00000000000E+00 -0.11065816088E+04  0.11065816088E+04  0.25500000920E-02 0.  1.
    10030    2    1    2    0    0  0.00000000000E+00  0.00000000000E+00 -0.73197981669E+03  0.14811834009E+04  0.12876761297E+04 0.  0.
        3    1    3    3  502    0 -0.81182101910E+02 -0.53375178773E+03  0.37502932772E+02  0.54119126447E+03  0.10100000352E+00 0. -1.
       -3    1    3    3    0  502  0.81182101910E+02  0.53375178773E+03 -0.76948274946E+03  0.93999213640E+03  0.10100000352E+00 0.  1.
</event>
<event>
 5   0  0.1081574E-03  0.1309452E+04  0.7818609E-02  0.9022103E-01
        2   -1    0    0  501    0  0.00000000000E+00  0.00000000000E+00  0.15634630786E+04  0.15634630786E+04  0.25500000920E-02 0. -1.
       -2   -1    0    0    0  501  0.00000000000E+00  0.00000000000E+00 -0.27417746996E+03  0.27417746997E+03  0.25500000920E-02 0.  1.
    10030    2    1    2    0    0  0.00000000000E+00  0.00000000000E+00  0.12892856087E+04  0.18376405486E+04  0.13094523302E+04 0.  0.
        5    1    3    3  502    0 -0.28429177339E+01  0.58547018561E+03  0.23342828443E+03  0.63031283851E+03  0.46999998093E+01 0.  1.
       -5    1    3    3    0  502  0.28429177339E+01 -0.58547018561E+03  0.10558573242E+04  0.12073277101E+04  0.46999998093E+01 0. -1.
</event>
<event>
 5   0  0.5710383E-04  0.1292819E+04  0.7818609E-02  0.9035279E-01
       -1   -1    0    0    0  501  0.00000000000E+00  0.00000000000E+00  0.65083111468E+03  0.65083111470E+03  0.50400001928E-02 0.  1.
        1   -1    0    0  501    0  0.00000000000E+00  0.00000000000E+00 -0.64201832319E+03  0.64201832321E+03  0.50400001928E-02 0. -1.
    10030    2    1    2    0    0  0.00000000000E+00  0.00000000000E+00  0.88127914896E+01  0.12928494379E+04  0.12928194011E+04 0.  0.
        1    1    3    3  502    0 -0.18931652197E+02  0.60684157387E+03 -0.21747800055E+03  0.64491222967E+03  0.50400001928E-02 0.  1.
       -1    1    3    3    0  502  0.18931652197E+02 -0.60684157387E+03  0.22629079204E+03  0.64793720824E+03  0.50400001928E-02 0. -1.
</event>
<event>
 5   0  0.6006119E-04  0.1296349E+04  0.7818609E-02  0.9032466E-01
        1   -1    0    0  501    0  0.00000000000E+00  0.00000000000E+00  0.55874400761E+03  0.55874400764E+03  0.50400001928E-02 0. -1.
       -1   -1    0    0    0  501  0.00000000000E+00  0.00000000000E+00 -0.75191872475E+03  0.75191872477E+03  0.50400001928E-02 0.  1.
    10030    2    1    2    0    0  0.00000000000E+00  0.00000000000E+00 -0.19317471714E+03  0.13106627324E+04  0.12963488446E+04 0.  0.
        4    1    3    3  502    0 -0.29144162357E+03  0.31107654374E+03 -0.59026322242E+03  0.72809279674E+03  0.12699999809E+01 0.  1.
       -4    1    3    3    0  502  0.29144162357E+03 -0.31107654374E+03  0.39708850528E+03  0.58256993567E+03  0.12699999809E+01 0. -1.
</event>
<event>
 5   0  0.5812938E-04  0.1309789E+04  0.7818609E-02  0.9021839E-01
        1   -1    0    0  501    0  0.00000000000E+00  0.00000000000E+00  0.13795204333E+04  0.13795204333E+04  0.50400001928E-02 0. -1.
       -1   -1    0    0    0  501  0.00000000000E+00  0.00000000000E+00 -0.31089536719E+03  0.31089536723E+03  0.50400001928E-02 0.  1.
    10030    2    1    2    0    0  0.00000000000E+00  0.00000000000E+00  0.10686250661E+04  0.16904158005E+04  0.13097885504E+04 0.  0.
        5    1    3    3  502    0 -0.16710749635E+03 -0.49372855749E+03  0.22654949262E+02  0.52175486633E+03  0.46999998093E+01 0.  1.
       -5    1    3    3    0  502  0.16710749635E+03  0.49372855749E+03  0.10459701169E+04  0.11686609342E+04  0.46999998093E+01 0. -1.
</event>
<event>
 5   0  0.5812938E-04  0.1309303E+04  0.7818609E-02  0.9022220E-01
       -1   -1    0    0    0  501  0.00000000000E+00  0.00000000000E+00  0.58703333139E+03  0.58703333141E+03  0.50400001928E-02 0. -1.
        1   -1    0    0  501    0  0.00000000000E+00  0.00000000000E+00 -0.73005852147E+03  0.73005852149E+03  0.50400001928E-02 0.  1.
    10030    2    1    2    0    0  0.00000000000E+00  0.00000000000E+00 -0.14302519009E+03  0.13170918529E+04  0.13093031521E+04 0.  0.
        5    1    3    3  502    0  0.62478656472E+03 -0.80332187333E+02  0.10769057072E+03  0.63908595728E+03  0.46999998093E+01 0. -1.
       -5    1    3    3    0  502 -0.62478656472E+03  0.80332187333E+02 -0.25071576081E+03  0.67800589562E+03  0.46999998093E+01 0.  1.
</event>
<event>
 5   0  0.1081574E-03  0.1298015E+04  0.7818609E-02  0.9031141E-01
       -2   -1    0    0    0  501  0.00000000000E+00  0.00000000000E+00  0.43995817020E+03  0.43995817021E+03  0.25500000920E-02 0. -1.
        2   -1    0    0  501    0  0.00000000000E+00  0.00000000000E+00 -0.95738834652E+03  0.95738834653E+03  0.25500000920E-02 0.  1.
    10030    2    1    2    0    0  0.00000000000E+00  0.00000000000E+00 -0.51743017632E+03  0.13973465167E+04  0.12980151388E+04 0.  0.
        5    1    3    3  502    0  0.56647585093E+03  0.45265269211E+02  0.78711552564E+02  0.57372592132E+03  0.46999998093E+01 0. -1.
       -5    1    3    3    0  502 -0.56647585093E+03 -0.45265269211E+02 -0.59614172888E+03  0.82362059542E+03  0.46999998093E+01 0.  1.
</event>
<event>
 5   0  0.1081574E-03  0.1301871E+04  0.7818609E-02  0.9028083E-01
        2   -1    0    0  501    0  0.00000000000E+00  0.00000000000E+00  0.41091484533E+03  0.41091484534E+03  0.25500000920E-02 0.  1.
       -2   -1    0    0    0  501  0.00000000000E+00  0.00000000000E+00 -0.10311554499E+04  0.10311554499E+04  0.25500000920E-02 0. -1.
    10030    2    1    2    0    0  0.00000000000E+00  0.00000000000E+00 -0.62024060458E+03  0.14420702953E+04  0.13018710877E+04 0.  0.
        5    1    3    3  502    0 -0.18229047971E+03 -0.28692247731E+03  0.30476336422E+03  0.45657105159E+03  0.46999998093E+01 0.  1.
       -5    1    3    3    0  502  0.18229047971E+03  0.28692247731E+03 -0.92500396880E+03  0.98549924367E+03  0.46999998093E+01 0. -1.
</event>
<event>
 5   0  0.1046253E-03  0.1307750E+04  0.7818609E-02  0.9023442E-01
        2   -1    0    0  501    0  0.00000000000E+00  0.00000000000E+00  0.10671479887E+04  0.10671479887E+04  0.25500000920E-02 0.  1.
       -2   -1    0    0    0  501  0.00000000000E+00  0.00000000000E+00 -0.40064956273E+03  0.40064956274E+03  0.25500000920E-02 0. -1.
    10030    2    1    2    0    0  0.00000000000E+00  0.00000000000E+00  0.66649842593E+03  0.14677975514E+04  0.13077497850E+04 0.  0.
        3    1    3    3  502    0  0.46047932607E+03 -0.22874649199E+03  0.78665098480E+03  0.93977973453E+03  0.10100000352E+00 0.  1.
       -3    1    3    3    0  502 -0.46047932607E+03  0.22874649199E+03 -0.12015255887E+03  0.52801781688E+03  0.10100000352E+00 0. -1.
</event>
<event>
 5   0  0.1081574E-03  0.1302261E+04  0.7818609E-02  0.9027774E-01
       -2   -1    0    0    0  501  0.00000000000E+00  0.00000000000E+00  0.18960202713E+03  0.18960202714E+03  0.25500000920E-02 0. -1.
        2   -1    0    0  501    0  0.00000000000E+00  0.00000000000E+00 -0.22361094346E+04  0.22361094346E+04  0.25500000920E-02 0.  1.
    10030    2    1    2    0    0  0.00000000000E+00  0.00000000000E+00 -0.20465074075E+04  0.24257114617E+04  0.13022609288E+04 0.  0.
        5    1    3    3  502    0  0.16646188472E+02  0.37854978687E+03 -0.36955460606E+02  0.38074247570E+03  0.46999998093E+01 0.  1.
       -5    1    3    3    0  502 -0.16646188472E+02 -0.37854978687E+03 -0.20095519469E+04  0.20449689860E+04  0.46999998093E+01 0. -1.
</event>
<event>
 5   0  0.5563545E-04  0.1290945E+04  0.7818609E-02  0.9036777E-01
       -1   -1    0    0    0  501  0.00000000000E+00  0.00000000000E+00  0.35100551089E+03  0.35100551093E+03  0.50400001928E-02 0. -1.
        1   -1    0    0  501    0  0.00000000000E+00  0.00000000000E+00 -0.11869755073E+04  0.11869755073E+04  0.50400001928E-02 0.  1.
    10030    2    1    2    0    0  0.00000000000E+00  0.00000000000E+00 -0.83596999641E+03  0.15379810182E+04  0.12909453039E+04 0.  0.
        2    1    3    3  502    0  0.11069741145E+03  0.32759783402E+03 -0.10673153799E+04  0.11219342129E+04  0.25500000920E-02 0.  1.
       -2    1    3    3    0  502 -0.11069741145E+03 -0.32759783402E+03  0.23134538353E+03  0.41604680536E+03  0.25500000920E-02 0. -1.
</event>
<event>
 5   0  0.1046253E-03  0.1300194E+04  0.7818609E-02  0.9029411E-01
       -2   -1    0    0    0  501  0.00000000000E+00  0.00000000000E+00  0.66216623706E+03  0.66216623707E+03  0.25500000920E-02 0. -1.
        2   -1    0    0  501    0  0.00000000000E+00  0.00000000000E+00 -0.63824773443E+03  0.63824773444E+03  0.25500000920E-02 0.  1.
    10030    2    1    2    0    0  0.00000000000E+00  0.00000000000E+00  0.23918502633E+02  0.13004139715E+04  0.13001939865E+04 0.  0.
        3    1    3    3  502    0 -0.48234573652E+03 -0.11714812501E+03  0.43184571446E+03  0.65792995374E+03  0.10100000352E+00 0. -1.
       -3    1    3    3    0  502  0.48234573652E+03  0.11714812501E+03 -0.40792721183E+03  0.64248401776E+03  0.10100000352E+00 0.  1.
</event>
<event>
 5   0  0.1031295E-03  0.1337088E+04  0.7818609E-02  0.9000661E-01
       -2   -1    0    0    0  501  0.00000000000E+00  0.00000000000E+00  0.66836587854E+03  0.66836587854E+03  0.25500000920E-02 0.  1.
        2   -1    0    0  501    0  0.00000000000E+00  0.00000000000E+00 -0.66872178978E+03  0.66872178979E+03  0.25500000920E-02 0. -1.
    10030    2    1    2    0    0  0.00000000000E+00  0.00000000000E+00 -0.35591124799E+00  0.13370876683E+04  0.13370876210E+04 0.  0.
        2    1    3    3  502    0 -0.30771172804E+03 -0.53604385908E+03 -0.25497455036E+03  0.66861165692E+03  0.25500000920E-02 0. -1.
       -2    1    3    3    0  502  0.30771172804E+03  0.53604385908E+03  0.25461863912E+03  0.66847601141E+03  0.25500000920E-02 0.  1.
</event>
<event>
 5   0  0.1046253E-03  0.1301736E+04  0.7818609E-02  0.9028190E-01
       -2   -1    0    0    0  501  0.00000000000E+00  0.00000000000E+00  0.17727366129E+03  0.17727366130E+03  0.25500000920E-02 0. -1.
        2   -1    0    0  501    0  0.00000000000E+00  0.00000000000E+00 -0.23896907077E+04  0.23896907077E+04  0.25500000920E-02 0.  1.
    10030    2    1    2    0    0  0.00000000000E+00  0.00000000000E+00 -0.22124170465E+04  0.25669643691E+04  0.13017361040E+04 0.  0.
        3    1    3    3  502    0 -0.35684514873E+03 -0.46489327898E+03 -0.16645363344E+04  0.17646941491E+04  0.10100000352E+00 0.  1.
       -3    1    3    3    0  502  0.35684514873E+03  0.46489327898E+03 -0.54788071203E+03  0.80227021996E+03  0.10100000352E+00 0. -1.
</event>
<event>
 5   0  0.5563545E-04  0.1300068E+04  0.7818609E-02  0.9029511E-01
       -1   -1    0    0    0  501  0.00000000000E+00  0.00000000000E+00  0.22920148481E+03  0.22920148486E+03  0.50400001928E-02 0. -1.
        1   -1    0    0  501    0  0.00000000000E+00  0.00000000000E+00 -0.18435496759E+04  0.18435496759E+04  0.50400001928E-02 0.  1.
    10030    2    1    2    0    0  0.00000000000E+00  0.00000000000E+00 -0.16143481911E+04  0.20727511607E+04  0.13000681876E+04 0.  0.
        2    1    3    3  502    0  0.24362823157E+03 -0.58826231477E+03 -0.59846126167E+03  0.87382100451E+03  0.25500000920E-02 0.  1.
       -2    1    3    3    0  502 -0.24362823157E+03  0.58826231477E+03 -0.10158869294E+04  0.11989301562E+04  0.25500000920E-02 0. -1.
</event>
<event>
 5   0  0.1031295E-03  0.1280623E+04  0.7818609E-02  0.9045074E-01
        2   -1    0    0  501    0  0.00000000000E+00  0.00000000000E+00  0.10522217487E+04  0.10522217487E+04  0.25500000920E-02 0. -1.
       -2   -1    0    0    0  501  0.00000000000E+00  0.00000000000E+00 -0.38965081377E+03  0.38965081378E+03  0.25500000920E-02 0.  1.
    10030    2    1    2    0    0  0.00000000000E+00  0.00000000000E+00  0.66257093494E+03  0.14418725625E+04  0.12806233805E+04 0.  0.
        2    1    3    3  502    0  0.31631054762E+03 -0.55672023267E+03  0.33471547152E+03  0.72251244064E+03  0.25500000920E-02 0. -1.
       -2    1    3    3    0  502 -0.31631054762E+03  0.55672023267E+03  0.32785546342E+03  0.71936012185E+03  0.25500000920E-02 0.  1.
</event>
<event>
 5   0  0.6006119E-04  0.1290511E+04  0.7818609E-02  0.9037124E-01
       -1   -1    0    0    0  501  0.00000000000E+00  0.00000000000E+00  0.32919060313E+03  0.32919060317E+03  0.50400001928E-02 0. -1.
        1   -1    0    0  501    0  0.00000000000E+00  0.00000000000E+00 -0.12647833714E+04  0.12647833714E+04  0.50400001928E-02 0.  1.
    10030    2    1    2    0    0  0.00000000000E+00  0.00000000000E+00 -0.93559276828E+03  0.15939739746E+04  0.12905112179E+04 0.  0.
        4    1    3    3  502    0  0.29996866111E+03 -0.31157572096E+03  0.12364869690E+03  0.44983468151E+03  0.12699999809E+01 0. -1.
       -4    1    3    3    0  502 -0.29996866111E+03  0.31157572096E+03 -0.10592414652E+04  0.11441392931E+04  0.12699999809E+01 0.  1.
</event>
<event>
 5   0  0.6006119E-04  0.1315617E+04  0.7818609E-02  0.9017272E-01
        1   -1    0    0  501    0  0.00000000000E+00  0.00000000000E+00  0.34034044021E+03  0.34034044025E+03  0.50400001928E-02 0. -1.
       -1   -1    0    0    0  501  0.00000000000E+00  0.00000000000E+00 -0.12714095489E+04  0.12714095489E+04  0.50400001928E-02 0.  1.
    10030    2    1    2    0    0  0.00000000000E+00  0.00000000000E+00 -0.93106910872E+03  0.16117499892E+04  0.13156170957E+04 0.  0.
        4    1    3    3  502    0  0.22020769989E+03 -0.59473699873E+03 -0.67951176401E+03  0.92948446952E+03  0.12699999809E+01 0.  1.
       -4    1    3    3    0  502 -0.22020769989E+03  0.59473699873E+03 -0.25155734471E+03  0.68226551967E+03  0.12699999809E+01 0. -1.
</event>
<event>
 5   0  0.1103241E-03  0.1299939E+04  0.7818609E-02  0.9029613E-01
       -2   -1    0    0    0  501  0.00000000000E+00  0.00000000000E+00  0.16787392153E+03  0.16787392155E+03  0.25500000920E-02 0. -1.
        2   -1    0    0  501    0  0.00000000000E+00  0.00000000000E+00 -0.25165343191E+04  0.25165343191E+04  0.25500000920E-02 0.  1.
    10030    2    1    2    0    0  0.00000000000E+00  0.00000000000E+00 -0.23486603976E+04  0.26844082407E+04  0.12999392060E+04 0.  0.
        4    1    3    3  502    0  0.21669163849E+03 -0.51293209333E+01  0.91039300224E+02  0.23509858190E+03  0.12699999809E+01 0. -1.
       -4    1    3    3    0  502 -0.21669163849E+03  0.51293209333E+01 -0.24396996978E+04  0.24493096588E+04  0.12699999809E+01 0.  1.
</event>
<event>
 5   0  0.5766027E-04  0.1298789E+04  0.7818609E-02  0.9030526E-01
        1   -1    0    0  501    0  0.00000000000E+00  0.00000000000E+00  0.80045556878E+03  0.80045556879E+03  0.50400001928E-02 0.  1.
       -1   -1    0    0    0  501  0.00000000000E+00  0.00000000000E+00 -0.52684190854E+03  0.52684190857E+03  0.50400001928E-02 0. -1.
    10030    2    1    2    0    0  0.00000000000E+00  0.00000000000E+00  0.27361366024E+03  0.13272974774E+04  0.12987894973E+04 0.  0.
        3    1    3    3  502    0  0.31262444248E+01  0.52607722051E+03 -0.25226822573E+03  0.58344347049E+03  0.10100000352E+00 0. -1.
       -3    1    3    3    0  502 -0.31262444248E+01 -0.52607722051E+03  0.52588188596E+03  0.74385400687E+03  0.10100000352E+00 0.  1.
</event>
<event>
 5   0  0.5563545E-04  0.1302899E+04  0.7818609E-02  0.9027269E-01
        1   -1    0    0  501    0  0.00000000000E+00  0.00000000000E+00  0.87847291498E+03  0.87847291499E+03  0.50400001928E-02 0. -1.
       -1   -1    0    0    0  501  0.00000000000E+00  0.00000000000E+00 -0.48309564138E+03  0.48309564141E+03  0.50400001928E-02 0.  1.
    10030    2    1    2    0    0  0.00000000000E+00  0.00000000000E+00  0.39537727359E+03  0.13615685564E+04  0.13028989774E+04 0.  0.
        2    1    3    3  502    0 -0.46977139090E+03 -0.32507743386E+03 -0.12950080053E+03  0.58577380879E+03  0.25500000920E-02 0.  1.
       -2    1    3    3    0  502  0.46977139090E+03  0.32507743386E+03  0.52487807412E+03  0.77579474761E+03  0.25500000920E-02 0. -1.
</event>
<event>
 5   0  0.1046253E-03  0.1276994E+04  0.7818609E-02  0.9048011E-01
       -2   -1    0    0    0  501  0.00000000000E+00  0.00000000000E+00  0.27203778479E+03  0.27203778480E+03  0.25500000920E-02 0.  1.
        2   -1    0    0  501    0  0.00000000000E+00  0.00000000000E+00 -0.14986097372E+04  0.14986097373E+04  0.25500000920E-02 0. -1.
    10030    2    1    2    0    0  0.00000000000E+00  0.00000000000E+00 -0.12265719525E+04  0.17706475220E+04  0.12769940849E+04 0.  0.
        3    1    3    3  502    0 -0.38221609114E+03  0.34519779017E+03 -0.11365737961E+04  0.12478183597E+04  0.10100000352E+00 0. -1.
       -3    1    3    3    0  502  0.38221609114E+03 -0.34519779017E+03 -0.89998156394E+02  0.52282916236E+03  0.10100000352E+00 0.  1.
</event>
<event>
 5   0  0.1046253E-03  0.1300258E+04  0.7818609E-02  0.9029361E-01
        2   -1    0    0  501    0  0.00000000000E+00  0.00000000000E+00  0.12805498675E+04  0.12805498675E+04  0.25500000920E-02 0.  1.
       -2   -1    0    0    0  501  0.00000000000E+00  0.00000000000E+00 -0.33006731526E+03  0.33006731527E+03  0.25500000920E-02 0. -1.
    10030    2    1    2    0    0  0.00000000000E+00  0.00000000000E+00  0.95048255222E+03  0.16106171828E+04  0.13002579080E+04 0.  0.
        3    1    3    3  502    0 -0.57938271793E+03 -0.14499354865E+03  0.15711191572E+03  0.61756912750E+03  0.10100000352E+00 0. -1.
       -3    1    3    3    0  502  0.57938271793E+03  0.14499354865E+03  0.79337063650E+03  0.99304805525E+03  0.10100000352E+00 0.  1.
</event>
<event>
 5   0  0.1031295E-03  0.1294828E+04  0.7818609E-02  0.9033676E-01
       -2   -1    0    0    0  501  0.00000000000E+00  0.00000000000E+00  0.29126431155E+03  0.29126431156E+03  0.25500000920E-02 0. -1.
        2   -1    0    0  501    0  0.00000000000E+00  0.00000000000E+00 -0.14390543516E+04  0.14390543516E+04  0.25500000920E-02 0.  1.
    10030    2    1    2    0    0  0.00000000000E+00  0.00000000000E+00 -0.11477900401E+04  0.17303186632E+04  0.12948284443E+04 0.  0.
        2    1    3    3  502    0 -0.62553588951E+03 -0.11545881432E+03 -0.41287253571E+03  0.75834663422E+03  0.25500000920E-02 0. -1.
       -2    1    3    3    0  502  0.62553588951E+03  0.11545881432E+03 -0.73491750436E+03  0.97197202897E+03  0.25500000920E-02 0.  1.
</event>
<event>
 5   0  0.5710383E-04  0.1300309E+04  0.7818609E-02  0.9029320E-01
       -1   -1    0    0    0  501  0.00000000000E+00  0.00000000000E+00  0.22117527126E+03  0.22117527132E+03  0.50400001928E-02 0. -1.
        1   -1    0    0  501    0  0.00000000000E+00  0.00000000000E+00 -0.19111591711E+04  0.19111591711E+04  0.50400001928E-02 0.  1.
    10030    2    1    2    0    0  0.00000000000E+00  0.00000000000E+00 -0.16899838998E+04  0.21323344424E+04  0.13003094219E+04 0.  0.
        1    1    3    3  502    0 -0.38389380610E+03 -0.22961546073E+03 -0.16186954157E+04  0.16793667149E+04  0.50400001928E-02 0.  1.
       -1    1    3    3    0  502  0.38389380610E+03  0.22961546073E+03 -0.71288484074E+02  0.45296772750E+03  0.50400001928E-02 0. -1.
</event>
<event>
 5   0  0.1103241E-03  0.1307360E+04  0.7818609E-02  0.9023749E-01
        2   -1    0    0  501    0  0.00000000000E+00  0.00000000000E+00  0.13308267126E+04  0.13308267126E+04  0.25500000920E-02 0. -1.
       -2   -1    0    0    0  501  0.00000000000E+00  0.00000000000E+00 -0.32107698230E+03  0.32107698231E+03  0.25500000920E-02 0.  1.
    10030    2    1    2    0    0  0.00000000000E+00  0.00000000000E+00  0.10097497303E+04  0.16519036949E+04  0.13073604321E+04 0.  0.
        4    1    3    3  502    0  0.54126707851E+03 -0.35949801266E+03  0.59499768962E+03  0.88104071128E+03  0.12699999809E+01 0.  1.
       -4    1    3    3    0  502 -0.54126707851E+03  0.35949801266E+03  0.41475204067E+03  0.77086298362E+03  0.12699999809E+01 0. -1.
</event>
<event>
 5   0  0.5766027E-04  0.1303283E+04  0.7818609E-02  0.9026966E-01
       -1   -1    0    0    0  501  0.00000000000E+00  0.00000000000E+00  0.37684362975E+03  0.37684362978E+03  0.50400001928E-02 0.  1.
        1   -1    0    0  501    0  0.00000000000E+00  0.00000000000E+00 -0.11268245992E+04  0.11268245992E+04  0.50400001928E-02 0. -1.
    10030    2    1    2    0    0  0.00000000000E+00  0.00000000000E+00 -0.74998096943E+03  0.15036682290E+04  0.13032830423E+04 0.  0.
        3    1    3    3  502    0  0.57454017983E+03  0.53394392082E+01 -0.20294603976E+02  0.57492330706E+03  0.10100000352E+00 0.  1.
       -3    1    3    3    0  502 -0.57454017983E+03 -0.53394392082E+01 -0.72968636546E+03  0.92874492191E+03  0.10100000352E+00 0. -1.
</event>
<event>
 5   0  0.1046253E-03  0.1263699E+04  0.7818609E-02  0.9058858E-01
       -2   -1    0    0    0  501  0.00000000000E+00  0.00000000000E+00  0.89424250753E+03  0.89424250753E+03  0.25500000920E-02 0.  1.
        2   -1    0    0  501    0  0.00000000000E+00  0.00000000000E+00 -0.44644922254E+03  0.44644922255E+03  0.25500000920E-02 0. -1.
    10030    2    1    2    0    0  0.00000000000E+00  0.00000000000E+00  0.44779328499E+03  0.13406917301E+04  0.12636991292E+04 0.  0.
        3    1    3    3  502    0 -0.57894415091E+03  0.25306847514E+03  0.22784908471E+03  0.67166598737E+03  0.10100000352E+00 0. -1.
       -3    1    3    3    0  502  0.57894415091E+03 -0.25306847514E+03  0.21994420028E+03  0.66902574272E+03  0.10100000352E+00 0.  1.
</event>
<event>
 5   0  0.1081574E-03  0.1287652E+04  0.7818609E-02  0.9039415E-01
        2   -1    0    0  501    0  0.00000000000E+00  0.00000000000E+00  0.24667198601E+04  0.24667198601E+04  0.25500000920E-02 0.  1.
       -2   -1    0    0    0  501  0.00000000000E+00  0.00000000000E+00 -0.16804168076E+03  0.16804168078E+03  0.25500000920E-02 0. -1.
    10030    2    1    2    0    0  0.00000000000E+00  0.00000000000E+00  0.22986781794E+04  0.26347615409E+04  0.12876517406E+04 0.  0.
        5    1    3    3  502    0  0.11627128040E+03  0.13702133422E+03 -0.11564730330E+03  0.21375276708E+03  0.46999998093E+01 0. -1.
       -5    1    3    3    0  502 -0.11627128040E+03 -0.13702133422E+03  0.24143254827E+04  0.24210087738E+04  0.46999998093E+01 0.  1.
</event>
<event>
 5   0  0.6006119E-04  0.1302983E+04  0.7818609E-02  0.9027203E-01
        1   -1    0    0  501    0  0.00000000000E+00  0.00000000000E+00  0.14642434171E+04  0.14642434171E+04  0.50400001928E-02 0. -1.
       -1   -1    0    0    0  501  0.00000000000E+00  0.00000000000E+00 -0.28987058229E+03  0.28987058234E+03  0.50400001928E-02 0.  1.
    10030    2    1    2    0    0  0.00000000000E+00  0.00000000000E+00  0.11743728348E+04  0.17541139994E+04  0.13029828732E+04 0.  0.
        4    1    3    3  502    0 -0.74247225480E+01  0.44016261675E+03  0.12337147683E+04  0.13099053394E+04  0.12699999809E+01 0. -1.
       -4    1    3    3    0  502  0.74247225480E+01 -0.44016261675E+03 -0.59341933525E+02  0.44420866005E+03  0.12699999809E+01 0.  1.
</event>
<event>
 5   0  0.5710383E-04  0.1365598E+04  0.7818609E-02  0.8979104E-01
        1   -1    0    0  501    0  0.00000000000E+00  0.00000000000E+00  0.79777671694E+03  0.79777671695E+03  0.50400001928E-02 0. -1.
       -1   -1    0    0    0  501  0.00000000000E+00  0.00000000000E+00 -0.58439216830E+03  0.58439216832E+03  0.50400001928E-02 0.  1.
    10030    2    1    2    0    0  0.00000000000E+00  0.00000000000E+00  0.21338454864E+03  0.13821688853E+04  0.13655979869E+04 0.  0.
        1    1    3    3  502    0  0.27156183877E+03 -0.56816373759E+03  0.37382409027E+03  0.73232527983E+03  0.50400001928E-02 0. -1.
       -1    1    3    3    0  502 -0.27156183877E+03  0.56816373759E+03 -0.16043954163E+03  0.64984360544E+03  0.50400001928E-02 0.  1.
</event>
<event>
 5   0  0.1101619E-03  0.1295286E+04  0.7818609E-02  0.9033312E-01
       -2   -1    0    0    0  501  0.00000000000E+00  0.00000000000E+00  0.94371101818E+03  0.94371101819E+03  0.25500000920E-02 0.  1.
        2   -1    0    0  501    0  0.00000000000E+00  0.00000000000E+00 -0.44445967832E+03  0.44445967833E+03  0.25500000920E-02 0. -1.
    10030    2    1    2    0    0  0.00000000000E+00  0.00000000000E+00  0.49925133987E+03  0.13881706965E+04  0.12952860620E+04 0.  0.
        1    1    3    3  502    0 -0.30340921602E+03 -0.45171737920E+03  0.62600145476E+03  0.82944774666E+03  0.50400001928E-02 0.  1.
       -1    1    3    3    0  502  0.30340921602E+03  0.45171737920E+03 -0.12675011490E+03  0.55872294985E+03  0.50400001928E-02 0. -1.
</event>
<event>
 5   0  0.6006119E-04  0.1297537E+04  0.7818609E-02  0.9031521E-01
       -1   -1    0    0    0  501  0.00000000000E+00  0.00000000000E+00  0.72424147481E+03  0.72424147482E+03  0.50400001928E-02 0. -1.
        1   -1    0    0  501    0  0.00000000000E+00  0.00000000000E+00 -0.58116049839E+03  0.58116049841E+03  0.50400001928E-02 0.  1.
    10030    2    1    2    0    0  0.00000000000E+00  0.00000000000E+00  0.14308097642E+03  0.13054019732E+04  0.12975369536E+04 0.  0.
        4    1    3    3  502    0 -0.70904681275E+02  0.55740003293E+02  0.71790231502E+03  0.72354665959E+03  0.12699999809E+01 0. -1.
       -4    1    3    3    0  502  0.70904681275E+02 -0.55740003293E+02 -0.57482133860E+03  0.58185531364E+03  0.12699999809E+01 0.  1.
</event>
<event>
 5   0  0.1081574E-03  0.1296005E+04  0.7818609E-02  0.9032739E-01
       -2   -1    0    0    0  501  0.00000000000E+00  0.00000000000E+00  0.38801348021E+03  0.38801348022E+03  0.25500000920E-02 0. -1.
        2   -1    0    0  501    0  0.00000000000E+00  0.00000000000E+00 -0.10821977333E+04  0.10821977333E+04  0.25500000920E-02 0.  1.
    10030    2    1    2    0    0  0.00000000000E+00  0.00000000000E+00 -0.69418425306E+03  0.14702112135E+04  0.12960051061E+04 0.  0.
        5    1    3    3  502    0  0.27651603543E+03  0.57854207806E+03 -0.24120065509E+03  0.68510721786E+03  0.46999998093E+01 0. -1.
       -5    1    3    3    0  502 -0.27651603543E+03 -0.57854207806E+03 -0.45298359797E+03  0.78510399564E+03  0.46999998093E+01 0.  1.
</event>
<event>
 5   0  0.5563545E-04  0.1342905E+04  0.7818609E-02  0.8996216E-01
        1   -1    0    0  501    0  0.00000000000E+00  0.00000000000E+00  0.11801848040E+04  0.11801848040E+04  0.50400001928E-02 0.  1.
       -1   -1    0    0    0  501  0.00000000000E+00  0.00000000000E+00 -0.38201522424E+03  0.38201522427E+03  0.50400001928E-02 0. -1.
    10030    2    1    2    0    0  0.00000000000E+00  0.00000000000E+00  0.79816957977E+03  0.15622000283E+04  0.13429051531E+04 0.  0.
        2    1    3    3  502    0 -0.40759119014E+03  0.35286368448E+03  0.86470262930E+03  0.10189965629E+04  0.25500000920E-02 0.  1.
       -2    1    3    3    0  502  0.40759119014E+03 -0.35286368448E+03 -0.66533049533E+02  0.54320346537E+03  0.25500000920E-02 0. -1.
</event>
<event>
 5   0  0.5812938E-04  0.1302329E+04  0.7818609E-02  0.9027720E-01
       -1   -1    0    0    0  501  0.00000000000E+00  0.00000000000E+00  0.10935815573E+04  0.10935815573E+04  0.50400001928E-02 0. -1.
        1   -1    0    0  501    0  0.00000000000E+00  0.00000000000E+00 -0.38773065272E+03  0.38773065276E+03  0.50400001928E-02 0.  1.
    10030    2    1    2    0    0  0.00000000000E+00  0.00000000000E+00  0.70585090460E+03  0.14813122101E+04  0.13023288234E+04 0.  0.
        5    1    3    3  502    0 -0.12376484772E+03  0.16073056668E+03  0.10567025693E+04  0.10760085792E+04  0.46999998093E+01 0. -1.
       -5    1    3    3    0  502  0.12376484772E+03 -0.16073056668E+03 -0.35085166469E+03  0.40530363088E+03  0.46999998093E+01 0.  1.
</event>
<event>
 5   0  0.5710383E-04  0.1300189E+04  0.7818609E-02  0.9029416E-01
        1   -1    0    0  501    0  0.00000000000E+00  0.00000000000E+00  0.30022353040E+03  0.30022353044E+03  0.50400001928E-02 0.  1.
       -1   -1    0    0    0  501  0.00000000000E+00  0.00000000000E+00 -0.14076929685E+04  0.14076929685E+04  0.50400001928E-02 0. -1.
    10030    2    1    2    0    0  0.00000000000E+00  0.00000000000E+00 -0.11074694381E+04  0.17079164990E+04  0.13001885291E+04 0.  0.
        1    1    3    3  502    0 -0.24095153103E+03  0.32367723190E+03  0.11580781822E+03  0.41980476598E+03  0.50400001928E-02 0.  1.
       -1    1    3    3    0  502  0.24095153103E+03 -0.32367723190E+03 -0.12232772563E+04  0.12881117330E+04  0.50400001928E-02 0. -1.
</event>
<event>
 5   0  0.1081574E-03  0.1301038E+04  0.7818609E-02  0.9028742E-01
        2   -1    0    0  501    0  0.00000000000E+00  0.00000000000E+00  0.75139893643E+03  0.75139893643E+03  0.25500000920E-02 0. -1.
       -2   -1    0    0    0  501  0.00000000000E+00  0.00000000000E+00 -0.56318312419E+03  0.56318312419E+03  0.25500000920E-02 0.  1.
    10030    2    1    2    0    0  0.00000000000E+00  0.00000000000E+00  0.18821581224E+03  0.13145820606E+04  0.13010383554E+04 0.  0.
        5    1    3    3  502    0 -0.60232701276E+03 -0.17244185076E+03  0.27091257504E+03  0.68260510949E+03  0.46999998093E+01 0. -1.
       -5    1    3    3    0  502  0.60232701276E+03  0.17244185076E+03 -0.82696762799E+02  0.63197695114E+03  0.46999998093E+01 0.  1.
</event>
<event>
 5   0  0.5563545E-04  0.1310498E+04  0.7818609E-02  0.9021281E-01
        1   -1    0    0  501    0  0.00000000000E+00  0.00000000000E+00  0.20512245510E+04  0.20512245510E+04  0.50400001928E-02 0.  1.
       -1   -1    0    0    0  501  0.00000000000E+00  0.00000000000E+00 -0.20931461308E+03  0.20931461314E+03  0.50400001928E-02 0. -1.
    10030    2    1    2    0    0  0.00000000000E+00  0.00000000000E+00  0.18419099379E+04  0.22605391642E+04  0.13104980325E+04 0.  0.
        2    1    3    3  502    0  0.55234590192E+03  0.35249432014E+03  0.92718205240E+03  0.11353434720E+04  0.25500000920E-02 0.  1.
       -2    1    3    3    0  502 -0.55234590192E+03 -0.35249432014E+03  0.91472788553E+03  0.11251956922E+04  0.25500000920E-02 0. -1.
</event>
<event>
 5   0  0.5766027E-04  0.1295957E+04  0.7818609E-02  0.9032778E-01
        1   -1    0    0  501    0  0.00000000000E+00  0.00000000000E+00  0.16621016339E+04  0.16621016339E+04  0.50400001928E-02 0. -1.
       -1   -1    0    0    0  501  0.00000000000E+00  0.00000000000E+00 -0.25261753067E+03  0.25261753072E+03  0.50400001928E-02 0.  1.
    10030    2    1    2    0    0  0.00000000000E+00  0.00000000000E+00  0.14094841032E+04  0.19147191646E+04  0.12959568057E+04 0.  0.
        3    1    3    3  502    0  0.17611046713E+03  0.15758440113E+02 -0.21628650180E+03  0.27936192677E+03  0.10100000352E+00 0.  1.
       -3    1    3    3    0  502 -0.17611046713E+03 -0.15758440113E+02  0.16257706050E+04  0.16353572379E+04  0.10100000352E+00 0. -1.
</event>
<event>
 5   0  0.1046253E-03  0.1301315E+04  0.7818609E-02  0.9028523E-01
       -2   -1    0    0    0  501  0.00000000000E+00  0.00000000000E+00  0.37826204158E+03  0.37826204159E+03  0.25500000920E-02 0.  1.
        2   -1    0    0  501    0  0.00000000000E+00  0.00000000000E+00 -0.11192108998E+04  0.11192108998E+04  0.25500000920E-02 0. -1.
    10030    2    1    2    0    0  0.00000000000E+00  0.00000000000E+00 -0.74094885819E+03  0.14974729414E+04  0.13013147197E+04 0.  0.
        3    1    3    3  502    0  0.49053595157E+03 -0.28567576385E+03 -0.45489460843E+01  0.56767672574E+03  0.10100000352E+00 0.  1.
       -3    1    3    3    0  502 -0.49053595157E+03  0.28567576385E+03 -0.73639991210E+03  0.92979621562E+03  0.10100000352E+00 0. -1.
</event>
<event>
 5   0  0.1081574E-03  0.1301217E+04  0.7818609E-02  0.9028601E-01
        2   -1    0    0  501    0  0.00000000000E+00  0.00000000000E+00  0.71184568663E+03  0.71184568664E+03  0.25500000920E-02 0. -1.
       -2   -1    0    0    0  501  0.00000000000E+00  0.00000000000E+00 -0.59463928993E+03  0.59463928993E+03  0.25500000920E-02 0.  1.
    10030    2    1    2    0    0  0.00000000000E+00  0.00000000000E+00  0.11720639671E+03  0.13064849766E+04  0.13012169898E+04 0.  0.
        5    1    3    3  502    0 -0.34232953371E+03  0.28301593684E+03  0.53590318306E+03  0.69606166520E+03  0.46999998093E+01 0. -1.
       -5    1    3    3    0  502  0.34232953371E+03 -0.28301593684E+03 -0.41869678635E+03  0.61042331136E+03  0.46999998093E+01 0.  1.
</event>
<event>
 5   0  0.1101619E-03  0.1308905E+04  0.7818609E-02  0.9022533E-01
       -2   -1    0    0    0  501  0.00000000000E+00  0.00000000000E+00  0.88948711789E+03  0.88948711789E+03  0.25500000920E-02 0. -1.
        2   -1    0    0  501    0  0.00000000000E+00  0.00000000000E+00 -0.48152265356E+03  0.48152265356E+03  0.25500000920E-02 0.  1.
    10030    2    1    2    0    0  0.00000000000E+00  0.00000000000E+00  0.40796446433E+03  0.13710097715E+04  0.13089051873E+04 0.  0.
        1    1    3    3  502    0  0.37778454384E+03 -0.47447567369E+03 -0.53570385744E+02  0.60886625193E+03  0.50400001928E-02 0.  1.
       -1    1    3    3    0  502 -0.37778454384E+03  0.47447567369E+03  0.46153485008E+03  0.76214351952E+03  0.50400001928E-02 0. -1.
</event>
<event>
 5   0  0.6006119E-04  0.1298241E+04  0.7818609E-02  0.9030961E-01
        1   -1    0    0  501    0  0.00000000000E+00  0.00000000000E+00  0.11296872253E+04  0.11296872253E+04  0.50400001928E-02 0.  1.
       -1   -1    0    0    0  501  0.00000000000E+00  0.00000000000E+00 -0.37298594051E+03  0.37298594054E+03  0.50400001928E-02 0. -1.
    10030    2    1    2    0    0  0.00000000000E+00  0.00000000000E+00  0.75670128475E+03  0.15026731658E+04  0.12982410442E+04 0.  0.
        4    1    3    3  502    0 -0.14622281510E+03 -0.23046475138E+03  0.10600403863E+04  0.10946151592E+04  0.12699999809E+01 0.  1.
       -4    1    3    3    0  502  0.14622281510E+03  0.23046475138E+03 -0.30333910158E+03  0.40805800658E+03  0.12699999809E+01 0. -1.
</event>
<event>
 5   0  0.5766027E-04  0.1315654E+04  0.7818609E-02  0.9017242E-01
       -1   -1    0    0    0  501  0.00000000000E+00  0.00000000000E+00  0.63676958959E+03  0.63676958961E+03  0.50400001928E-02 0.  1.
        1   -1    0    0  501    0  0.00000000000E+00  0.00000000000E+00 -0.67958121832E+03  0.67958121834E+03  0.50400001928E-02 0. -1.
    10030    2    1    2    0    0  0.00000000000E+00  0.00000000000E+00 -0.42811628737E+02  0.13163508079E+04  0.13156544432E+04 0.  0.
        3    1    3    3  502    0 -0.24104530640E+02  0.14834678741E+03  0.61936180113E+03  0.63733574247E+03  0.10100000352E+00 0.  1.
       -3    1    3    3    0  502  0.24104530640E+02 -0.14834678741E+03 -0.66217342986E+03  0.67901506548E+03  0.10100000352E+00 0. -1.
</event>
<event>
 5   0  0.5710383E-04  0.1316208E+04  0.7818609E-02  0.9016810E-01
       -1   -1    0    0    0  501  0.00000000000E+00  0.00000000000E+00  0.10277680787E+04  0.10277680787E+04  0.50400001928E-02 0. -1.
        1   -1    0    0  501    0  0.00000000000E+00  0.00000000000E+00 -0.42139967951E+03  0.42139967954E+03  0.50400001928E-02 0.  1.
    10030    2    1    2    0    0  0.00000000000E+00  0.00000000000E+00  0.60636839915E+03  0.14491677582E+04  0.13162084014E+04 0.  0.
        1    1    3    3  502    0  0.27157098845E+03 -0.41377878695E+03  0.78074825798E+03  0.92440874545E+03  0.50400001928E-02 0. -1.
       -1    1    3    3    0  502 -0.27157098845E+03  0.41377878695E+03 -0.17437985883E+03  0.52475901277E+03  0.50400001928E-02 0.  1.
</event>
<event>
 5   0  0.1031295E-03  0.1260671E+04  0.7818609E-02  0.9061349E-01
       -2   -1    0    0    0  501  0.00000000000E+00  0.00000000000E+00  0.84945251843E+03  0.84945251844E+03  0.25500000920E-02 0. -1.
        2   -1    0    0  501    0  0.00000000000E+00  0.00000000000E+00 -0.46773965550E+03  0.46773965551E+03  0.25500000920E-02 0.  1.
    10030    2    1    2    0    0  0.00000000000E+00  0.00000000000E+00  0.38171286293E+03  0.13171921739E+04  0.12606706602E+04 0.  0.
        2    1    3    3  502    0 -0.16215241487E+03 -0.42289500270E+03 -0.26719242600E+03  0.52585680701E+03  0.25500000920E-02 0.  1.
       -2    1    3    3    0  502  0.16215241487E+03  0.42289500270E+03  0.64890528893E+03  0.79133536694E+03  0.25500000920E-02 0. -1.
</event>
<event>
 5   0  0.5710383E-04  0.1295435E+04  0.7818609E-02  0.9033193E-01
       -1   -1    0    0    0  501  0.00000000000E+00  0.00000000000E+00  0.73735018849E+03  0.73735018851E+03  0.50400001928E-02 0.  1.
        1   -1    0    0  501    0  0.00000000000E+00  0.00000000000E+00 -0.56898078237E+03  0.56898078240E+03  0.50400001928E-02 0. -1.
    10030    2    1    2    0    0  0.00000000000E+00  0.00000000000E+00  0.16836940612E+03  0.13063309709E+04  0.12954351966E+04 0.  0.
        1    1    3    3  502    0 -0.44223330012E+03 -0.52262818542E+02  0.55849856326E+03  0.71429849442E+03  0.50400001928E-02 0.  1.
       -1    1    3    3    0  502  0.44223330012E+03  0.52262818542E+02 -0.39012915714E+03  0.59203247649E+03  0.50400001928E-02 0. -1.
</event>
<event>
 5   0  0.4012375E-04  0.1314778E+04  0.7818609E-02  0.9017928E-01
        4   -1    0    0  501    0  0.00000000000E+00  0.00000000000E+00  0.76709501197E+03  0.76709606327E+03  0.12699999809E+01 0.  1.
       -4   -1    0    0    0  501  0.00000000000E+00  0.00000000000E+00 -0.56337012936E+03  0.56337156083E+03  0.12699999809E+01 0. -1.
    10030    2    1    2    0    0  0.00000000000E+00  0.00000000000E+00  0.20372488261E+03  0.13304676241E+04  0.13147776508E+04 0.  0.
        5    1    3    3  502    0 -0.18114464515E+03 -0.28540143469E+01 -0.53759345807E+03  0.56731855604E+03  0.46999998093E+01 0. -1.
       -5    1    3    3    0  502  0.18114464515E+03  0.28540143469E+01  0.74131834068E+03  0.76314906807E+03  0.46999998093E+01 0.  1.
</event>
<event>
 5   0  0.6006119E-04  0.1300938E+04  0.7818609E-02  0.9028822E-01
       -1   -1    0    0    0  501  0.00000000000E+00  0.00000000000E+00  0.43129909618E+03  0.43129909621E+03  0.50400001928E-02 0.  1.
        1   -1    0    0  501    0  0.00000000000E+00  0.00000000000E+00 -0.98101232132E+03  0.98101232133E+03  0.50400001928E-02 0. -1.
    10030    2    1    2    0    0  0.00000000000E+00  0.00000000000E+00 -0.54971322514E+03  0.14123114175E+04  0.13009377042E+04 0.  0.
        4    1    3    3  502    0 -0.45322142811E+03  0.27840706144E+01  0.23166024984E+03  0.50900441864E+03  0.12699999809E+01 0.  1.
       -4    1    3    3    0  502  0.45322142811E+03 -0.27840706144E+01 -0.78137347498E+03  0.90330699889E+03  0.12699999809E+01 0. -1.
</event>
<event>
 5   0  0.1046253E-03  0.1291841E+04  0.7818609E-02  0.9036060E-01
        2   -1    0    0  501    0  0.00000000000E+00  0.00000000000E+00  0.15903170335E+04  0.15903170335E+04  0.25500000920E-02 0. -1.
       -2   -1    0    0    0  501  0.00000000000E+00  0.00000000000E+00 -0.26234612111E+03  0.26234612113E+03  0.25500000920E-02 0.  1.
    10030    2    1    2    0    0  0.00000000000E+00  0.00000000000E+00  0.13279709123E+04  0.18526631546E+04  0.12918413294E+04 0.  0.
        3    1    3    3  502    0 -0.63771540515E+03  0.40063374868E+02  0.52848155349E+03  0.82920369906E+03  0.10100000352E+00 0.  1.
       -3    1    3    3    0  502  0.63771540515E+03 -0.40063374868E+02  0.79948935886E+03  0.10234594555E+04  0.10100000352E+00 0. -1.
</event>
<event>
 5   0  0.1046253E-03  0.1302456E+04  0.7818609E-02  0.9027620E-01
        2   -1    0    0  501    0  0.00000000000E+00  0.00000000000E+00  0.13096915796E+04  0.13096915796E+04  0.25500000920E-02 0.  1.
       -2   -1    0    0    0  501  0.00000000000E+00  0.00000000000E+00 -0.32381489119E+03  0.32381489120E+03  0.25500000920E-02 0. -1.
    10030    2    1    2    0    0  0.00000000000E+00  0.00000000000E+00  0.98587668845E+03  0.16335064708E+04  0.13024555829E+04 0.  0.
        3    1    3    3  502    0 -0.66705274299E+02 -0.63556121725E+03  0.65013584549E+03  0.91162727158E+03  0.10100000352E+00 0.  1.
       -3    1    3    3    0  502  0.66705274299E+02  0.63556121725E+03  0.33574084296E+03  0.72187919926E+03  0.10100000352E+00 0. -1.
</event>
<event>
 5   0  0.5563545E-04  0.1286811E+04  0.7818609E-02  0.9040090E-01
       -1   -1    0    0    0  501  0.00000000000E+00  0.00000000000E+00  0.57219615623E+03  0.57219615625E+03  0.50400001928E-02 0.  1.
        1   -1    0    0  501    0  0.00000000000E+00  0.00000000000E+00 -0.72347642869E+03  0.72347642871E+03  0.50400001928E-02 0. -1.
    10030    2    1    2    0    0  0.00000000000E+00  0.00000000000E+00 -0.15128027246E+03  0.12956725850E+04  0.12868106802E+04 0.  0.
        2    1    3    3  502    0 -0.30103883151E+03  0.12347368622E+03 -0.63453056881E+03  0.71309127888E+03  0.25500000920E-02 0. -1.
       -2    1    3    3    0  502  0.30103883151E+03 -0.12347368622E+03  0.48325029635E+03  0.58258130608E+03  0.25500000920E-02 0.  1.
</event>
<event>
 5   0  0.4012375E-04  0.1297681E+04  0.7818609E-02  0.9031406E-01
        3   -1    0    0  501    0  0.00000000000E+00  0.00000000000E+00  0.16087728833E+04  0.16087728864E+04  0.10100000352E+00 0. -1.
       -3   -1    0    0    0  501  0.00000000000E+00  0.00000000000E+00 -0.26168638334E+03  0.26168640283E+03  0.10100000352E+00 0.  1.
    10030    2    1    2    0    0  0.00000000000E+00  0.00000000000E+00  0.13470864999E+04  0.18704592892E+04  0.12976809756E+04 0.  0.
        1    1    3    3  502    0  0.71212539122E+02  0.38718644240E+02 -0.25435973559E+03  0.26696298293E+03  0.50400001928E-02 0.  1.
       -1    1    3    3    0  502 -0.71212539122E+02 -0.38718644240E+02  0.16014462355E+04  0.16034963063E+04  0.50400001928E-02 0. -1.
</event>
<event>
 5   0  0.5812938E-04  0.1307942E+04  0.7818609E-02  0.9023291E-01
       -1   -1    0    0    0  501  0.00000000000E+00  0.00000000000E+00  0.27564407031E+03  0.27564407035E+03  0.50400001928E-02 0. -1.
        1   -1    0    0  501    0  0.00000000000E+00  0.00000000000E+00 -0.15515589608E+04  0.15515589609E+04  0.50400001928E-02 0.  1.
    10030    2    1    2    0    0  0.00000000000E+00  0.00000000000E+00 -0.12759148905E+04  0.18272030312E+04  0.13079419365E+04 0.  0.
        5    1    3    3  502    0 -0.37189257455E+03  0.15237862552E+02 -0.13891255738E+04  0.14381335923E+04  0.46999998093E+01 0.  1.
       -5    1    3    3    0  502  0.37189257455E+03 -0.15237862552E+02  0.11321068331E+03  0.38906943888E+03  0.46999998093E+01 0. -1.
</event>
<event>
 5   0  0.1081574E-03  0.1274570E+04  0.7818609E-02  0.9049978E-01
        2   -1    0    0  501    0  0.00000000000E+00  0.00000000000E+00  0.12030848679E+04  0.12030848679E+04  0.25500000920E-02 0. -1.
       -2   -1    0    0    0  501  0.00000000000E+00  0.00000000000E+00 -0.33757543253E+03  0.33757543254E+03  0.25500000920E-02 0.  1.
    10030    2    1    2    0    0  0.00000000000E+00  0.00000000000E+00  0.86550943539E+03  0.15406603005E+04  0.12745695660E+04 0.  0.
        5    1    3    3  502    0 -0.58255471607E+03 -0.25180753251E+03  0.36297225668E+03  0.73112788195E+03  0.46999998093E+01 0.  1.
       -5    1    3    3    0  502  0.58255471607E+03  0.25180753251E+03  0.50253717871E+03  0.80953241852E+03  0.46999998093E+01 0. -1.
</event>
<event>
 5   0  0.1101619E-03  0.1293347E+04  0.7818609E-02  0.9034858E-01
       -2   -1    0    0    0  501  0.00000000000E+00  0.00000000000E+00  0.44557306773E+03  0.44557306774E+03  0.25500000920E-02 0.  1.
        2   -1    0    0  501    0  0.00000000000E+00  0.00000000000E+00 -0.93853606260E+03  0.93853606261E+03  0.25500000920E-02 0. -1.
    10030    2    1    2    0    0  0.00000000000E+00  0.00000000000E+00 -0.49296299487E+03  0.13841091303E+04  0.12933466552E+04 0.  0.
        1    1    3    3  502    0  0.22277510361E+03 -0.28112057368E+03 -0.82232083016E+03  0.89714495567E+03  0.50400001928E-02 0. -1.
       -1    1    3    3    0  502 -0.22277510361E+03  0.28112057368E+03  0.32935783529E+03  0.48696417468E+03  0.50400001928E-02 0.  1.
</event>
<event>
 5   0  0.5812938E-04  0.1304197E+04  0.7818609E-02  0.9026244E-01
        1   -1    0    0  501    0  0.00000000000E+00  0.00000000000E+00  0.62987588453E+03  0.62987588455E+03  0.50400001928E-02 0. -1.
       -1   -1    0    0    0  501  0.00000000000E+00  0.00000000000E+00 -0.67510494950E+03  0.67510494952E+03  0.50400001928E-02 0.  1.
    10030    2    1    2    0    0  0.00000000000E+00  0.00000000000E+00 -0.45229064977E+02  0.13049808341E+04  0.13041968061E+04 0.  0.
        5    1    3    3  502    0 -0.54172363848E+03  0.33451687401E+03 -0.16356865239E+03  0.65737571717E+03  0.46999998093E+01 0.  1.
       -5    1    3    3    0  502  0.54172363848E+03 -0.33451687401E+03  0.11833958741E+03  0.64760511690E+03  0.46999998093E+01 0. -1.
</event>
<event>
 5   0  0.6006119E-04  0.1304820E+04  0.7818609E-02  0.9025751E-01
        1   -1    0    0  501    0  0.00000000000E+00  0.00000000000E+00  0.10285351865E+04  0.10285351866E+04  0.50400001928E-02 0.  1.
       -1   -1    0    0    0  501  0.00000000000E+00  0.00000000000E+00 -0.41383018651E+03  0.41383018654E+03  0.50400001928E-02 0. -1.
    10030    2    1    2    0    0  0.00000000000E+00  0.00000000000E+00  0.61470500003E+03  0.14423653731E+04  0.13048201533E+04 0.  0.
        4    1    3    3  502    0 -0.19761330579E+03 -0.21884856393E+03  0.95067217457E+03  0.99535165090E+03  0.12699999809E+01 0.  1.
       -4    1    3    3    0  502  0.19761330579E+03  0.21884856393E+03 -0.33596717454E+03  0.44701372219E+03  0.12699999809E+01 0. -1.
</event>
<event>
 5   0  0.1103241E-03  0.1299390E+04  0.7818609E-02  0.9030049E-01
       -2   -1    0    0    0  501  0.00000000000E+00  0.00000000000E+00  0.44798484618E+03  0.44798484618E+03  0.25500000920E-02 0.  1.
        2   -1    0    0  501    0  0.00000000000E+00  0.00000000000E+00 -0.94222724279E+03  0.94222724279E+03  0.25500000920E-02 0. -1.
    10030    2    1    2    0    0  0.00000000000E+00  0.00000000000E+00 -0.49424239661E+03  0.13902120890E+04  0.12993898975E+04 0.  0.
        4    1    3    3  502    0 -0.38038793691E+03 -0.41839576496E+03  0.95165136374E+02  0.57341783610E+03  0.12699999809E+01 0.  1.
       -4    1    3    3    0  502  0.38038793691E+03  0.41839576496E+03 -0.58940753299E+03  0.81679425287E+03  0.12699999809E+01 0. -1.
</event>
<event>
 5   0  0.1046253E-03  0.1301200E+04  0.7818609E-02  0.9028614E-01
       -2   -1    0    0    0  501  0.00000000000E+00  0.00000000000E+00  0.28255427247E+03  0.28255427248E+03  0.25500000920E-02 0.  1.
        2   -1    0    0  501    0  0.00000000000E+00  0.00000000000E+00 -0.14980501866E+04  0.14980501866E+04  0.25500000920E-02 0. -1.
    10030    2    1    2    0    0  0.00000000000E+00  0.00000000000E+00 -0.12154959141E+04  0.17806044591E+04  0.13012001854E+04 0.  0.
        3    1    3    3  502    0 -0.49175806444E+03  0.42018749959E+03 -0.51198758945E+03  0.82493322803E+03  0.10100000352E+00 0. -1.
       -3    1    3    3    0  502  0.49175806444E+03 -0.42018749959E+03 -0.70350832466E+03  0.95567123103E+03  0.10100000352E+00 0.  1.
</event>
<event>
 5   0  0.1081574E-03  0.1305636E+04  0.7818609E-02  0.9025108E-01
        2   -1    0    0  501    0  0.00000000000E+00  0.00000000000E+00  0.15437301157E+04  0.15437301157E+04  0.25500000920E-02 0.  1.
       -2   -1    0    0    0  501  0.00000000000E+00  0.00000000000E+00 -0.27606584027E+03  0.27606584028E+03  0.25500000920E-02 0. -1.
    10030    2    1    2    0    0  0.00000000000E+00  0.00000000000E+00  0.12676642755E+04  0.18197959560E+04  0.13056357096E+04 0.  0.
        5    1    3    3  502    0 -0.21296507374E+03 -0.48277371819E+03  0.98125651296E+02  0.53672648439E+03  0.46999998093E+01 0. -1.
       -5    1    3    3    0  502  0.21296507374E+03  0.48277371819E+03  0.11695386242E+04  0.12830694716E+04  0.46999998093E+01 0.  1.
</event>
<event>
 5   0  0.1081574E-03  0.1322979E+04  0.7818609E-02  0.9011539E-01
       -2   -1    0    0    0  501  0.00000000000E+00  0.00000000000E+00  0.96237048775E+03  0.96237048776E+03  0.25500000920E-02 0.  1.
        2   -1    0    0  501    0  0.00000000000E+00  0.00000000000E+00 -0.45467762331E+03  0.45467762331E+03  0.25500000920E-02 0. -1.
    10030    2    1    2    0    0  0.00000000000E+00  0.00000000000E+00  0.50769286445E+03  0.14170481111E+04  0.13229789509E+04 0.  0.
        5    1    3    3  502    0 -0.46917437080E+03 -0.23431186801E+03 -0.17795544490E+03  0.55382025250E+03  0.46999998093E+01 0. -1.
       -5    1    3    3    0  502  0.46917437080E+03  0.23431186801E+03  0.68564830934E+03  0.86322785857E+03  0.46999998093E+01 0.  1.
</event>
<event>
 5   0  0.1081574E-03  0.1322550E+04  0.7818609E-02  0.9011872E-01
       -2   -1    0    0    0  501  0.00000000000E+00  0.00000000000E+00  0.35343572899E+03  0.35343572900E+03  0.25500000920E-02 0.  1.
        2   -1    0    0  501    0  0.00000000000E+00  0.00000000000E+00 -0.12372394090E+04  0.12372394090E+04  0.25500000920E-02 0. -1.
    10030    2    1    2    0    0  0.00000000000E+00  0.00000000000E+00 -0.88380368004E+03  0.15906751380E+04  0.13225499801E+04 0.  0.
        5    1    3    3  502    0 -0.53191886904E+03  0.98966182339E+02  0.15343410928E+02  0.54128504390E+03  0.46999998093E+01 0.  1.
       -5    1    3    3    0  502  0.53191886904E+03 -0.98966182339E+02 -0.89914709097E+03  0.10493900941E+04  0.46999998093E+01 0. -1.
</event>
<event>
 5   0  0.5812938E-04  0.1288614E+04  0.7818609E-02  0.9038643E-01
       -1   -1    0    0    0  501  0.00000000000E+00  0.00000000000E+00  0.42252370340E+03  0.42252370343E+03  0.50400001928E-02 0.  1.
        1   -1    0    0  501    0  0.00000000000E+00  0.00000000000E+00 -0.98250506955E+03  0.98250506957E+03  0.50400001928E-02 0. -1.
    10030    2    1    2    0    0  0.00000000000E+00  0.00000000000E+00 -0.55998136616E+03  0.14050287730E+04  0.12886142644E+04 0.  0.
        5    1    3    3  502    0 -0.13268072161E+03 -0.57593658734E+03 -0.29654652000E+00  0.59104086531E+03  0.46999998093E+01 0.  1.
       -5    1    3    3    0  502  0.13268072161E+03  0.57593658734E+03 -0.55968481964E+03  0.81398790768E+03  0.46999998093E+01 0. -1.
</event>
<event>
 5   0  0.1101619E-03  0.1298765E+04  0.7818609E-02  0.9030545E-01
       -2   -1    0    0    0  501  0.00000000000E+00  0.00000000000E+00  0.41030373411E+03  0.41030373412E+03  0.25500000920E-02 0.  1.
        2   -1    0    0  501    0  0.00000000000E+00  0.00000000000E+00 -0.10277687838E+04  0.10277687838E+04  0.25500000920E-02 0. -1.
    10030    2    1    2    0    0  0.00000000000E+00  0.00000000000E+00 -0.61746504973E+03  0.14380725180E+04  0.12987645973E+04 0.  0.
        1    1    3    3  502    0 -0.38150067890E+03  0.21976419794E+02  0.27262913752E+03  0.46941706155E+03  0.50400001928E-02 0.  1.
       -1    1    3    3    0  502  0.38150067890E+03 -0.21976419794E+02 -0.89009418725E+03  0.96865545641E+03  0.50400001928E-02 0. -1.
</event>
<event>
 5   0  0.5563545E-04  0.1295389E+04  0.7818609E-02  0.9033230E-01
       -1   -1    0    0    0  501  0.00000000000E+00  0.00000000000E+00  0.63272026138E+03  0.63272026140E+03  0.50400001928E-02 0.  1.
        1   -1    0    0  501    0  0.00000000000E+00  0.00000000000E+00 -0.66302333620E+03  0.66302333622E+03  0.50400001928E-02 0. -1.
    10030    2    1    2    0    0  0.00000000000E+00  0.00000000000E+00 -0.30303074829E+02  0.12957435976E+04  0.12953892058E+04 0.  0.
        2    1    3    3  502    0 -0.52171452713E+03  0.33771907506E+03 -0.19759682384E+03  0.65213857904E+03  0.25500000920E-02 0. -1.
       -2    1    3    3    0  502  0.52171452713E+03 -0.33771907506E+03  0.16729374901E+03  0.64360501858E+03  0.25500000920E-02 0.  1.
</event>
<event>
 5   0  0.5563545E-04  0.1275376E+04  0.7818609E-02  0.9049323E-01
        1   -1    0    0  501    0  0.00000000000E+00  0.00000000000E+00  0.47859135199E+03  0.47859135202E+03  0.50400001928E-02 0. -1.
       -1   -1    0    0    0  501  0.00000000000E+00  0.00000000000E+00 -0.84967318660E+03  0.84967318661E+03  0.50400001928E-02 0.  1.
    10030    2    1    2    0    0  0.00000000000E+00  0.00000000000E+00 -0.37108183461E+03  0.13282645386E+04  0.12753763980E+04 0.  0.
        2    1    3    3  502    0 -0.18372105066E+03  0.55296213224E+03 -0.45537114519E+03  0.73951566855E+03  0.25500000920E-02 0.  1.
       -2    1    3    3    0  502  0.18372105066E+03 -0.55296213224E+03  0.84289310586E+02  0.58874887009E+03  0.25500000920E-02 0. -1.
</event>
<event>
 5   0  0.5766027E-04  0.1299298E+04  0.7818609E-02  0.9030122E-01
       -1   -1    0    0    0  501  0.00000000000E+00  0.00000000000E+00  0.68080066416E+03  0.68080066418E+03  0.50400001928E-02 0. -1.
        1   -1    0    0  501    0  0.00000000000E+00  0.00000000000E+00 -0.61992296929E+03  0.61992296931E+03  0.50400001928E-02 0.  1.
    10030    2    1    2    0    0  0.00000000000E+00  0.00000000000E+00  0.60877694871E+02  0.13007236335E+04  0.12992982248E+04 0.  0.
        3    1    3    3  502    0  0.24804345879E+03  0.56126038344E+03 -0.18311461709E+03  0.64036688599E+03  0.10100000352E+00 0. -1.
       -3    1    3    3    0  502 -0.24804345879E+03 -0.56126038344E+03  0.24399231197E+03  0.66035674750E+03  0.10100000352E+00 0.  1.
</event>
<event>
 5   0  0.1101619E-03  0.1318827E+04  0.7818609E-02  0.9014767E-01
       -2   -1    0    0    0  501  0.00000000000E+00  0.00000000000E+00  0.20775960281E+03  0.20775960283E+03  0.25500000920E-02 0. -1.
        2   -1    0    0  501    0  0.00000000000E+00  0.00000000000E+00 -0.20929293642E+04  0.20929293642E+04  0.25500000920E-02 0.  1.
    10030    2    1    2    0    0  0.00000000000E+00  0.00000000000E+00 -0.18851697614E+04  0.23006889671E+04  0.13188270144E+04 0.  0.
        1    1    3    3  502    0  0.89114971067E+02 -0.57881018082E+03 -0.14713240669E+04  0.15835899764E+04  0.50400001928E-02 0.  1.
       -1    1    3    3    0  502 -0.89114971067E+02  0.57881018082E+03 -0.41384569447E+03  0.71709899062E+03  0.50400001928E-02 0. -1.
</event>
<event>
 5   0  0.6006119E-04  0.1325319E+04  0.7818609E-02  0.9009725E-01
        1   -1    0    0  501    0  0.00000000000E+00  0.00000000000E+00  0.44829552200E+03  0.44829552203E+03  0.50400001928E-02 0.  1.
       -1   -1    0    0    0  501  0.00000000000E+00  0.00000000000E+00 -0.97952684749E+03  0.97952684750E+03  0.50400001928E-02 0. -1.
    10030    2    1    2    0    0  0.00000000000E+00  0.00000000000E+00 -0.53123132549E+03  0.14278223695E+04  0.13253188287E+04 0.  0.
        4    1    3    3  502    0 -0.27060200571E+03 -0.32317673193E+03 -0.81648150695E+03  0.91886468517E+03  0.12699999809E+01 0. -1.
       -4    1    3    3    0  502  0.27060200571E+03  0.32317673193E+03  0.28525018146E+03  0.50895768437E+03  0.12699999809E+01 0.  1.
</event>
<event>
 5   0  0.6006119E-04  0.1236287E+04  0.7818609E-02  0.9081675E-01
        1   -1    0    0  501    0  0.00000000000E+00  0.00000000000E+00  0.65658214217E+03  0.65658214219E+03  0.50400001928E-02 0. -1.
       -1   -1    0    0    0  501  0.00000000000E+00  0.00000000000E+00 -0.58195486348E+03  0.58195486350E+03  0.50400001928E-02 0.  1.
    10030    2    1    2    0    0  0.00000000000E+00  0.00000000000E+00  0.74627278697E+02  0.12385370057E+04  0.12362866511E+04 0.  0.
        4    1    3    3  502    0  0.45235144988E+03 -0.17960350943E+03  0.41908511522E+03  0.64227190621E+03  0.12699999809E+01 0. -1.
       -4    1    3    3    0  502 -0.45235144988E+03  0.17960350943E+03 -0.34445783653E+03  0.59626509948E+03  0.12699999809E+01 0.  1.
</event>
<event>
 5   0  0.5812938E-04  0.1299683E+04  0.7818609E-02  0.9029817E-01
        1   -1    0    0  501    0  0.00000000000E+00  0.00000000000E+00  0.61479923701E+03  0.61479923704E+03  0.50400001928E-02 0. -1.
       -1   -1    0    0    0  501  0.00000000000E+00  0.00000000000E+00 -0.68688102920E+03  0.68688102922E+03  0.50400001928E-02 0.  1.
    10030    2    1    2    0    0  0.00000000000E+00  0.00000000000E+00 -0.72081792186E+02  0.13016802663E+04  0.12996829347E+04 0.  0.
        5    1    3    3  502    0 -0.33455130289E+03 -0.31598704801E+03  0.42346637840E+03  0.62539447744E+03  0.46999998093E+01 0. -1.
       -5    1    3    3    0  502  0.33455130289E+03  0.31598704801E+03 -0.49554817059E+03  0.67628578881E+03  0.46999998093E+01 0.  1.
</event>
<event>
 5   0  0.1031295E-03  0.1315224E+04  0.7818609E-02  0.9017579E-01
        2   -1    0    0  501    0  0.00000000000E+00  0.00000000000E+00  0.37311181221E+03  0.37311181221E+03  0.25500000920E-02 0. -1.
       -2   -1    0    0    0  501  0.00000000000E+00  0.00000000000E+00 -0.11590445570E+04  0.11590445570E+04  0.25500000920E-02 0.  1.
    10030    2    1    2    0    0  0.00000000000E+00  0.00000000000E+00 -0.78593274483E+03  0.15321563692E+04  0.13152235021E+04 0.  0.
        2    1    3    3  502    0 -0.17374952835E+03  0.68993831470E+02  0.34150415517E+03  0.38932523086E+03  0.25500000920E-02 0. -1.
       -2    1    3    3    0  502  0.17374952835E+03 -0.68993831470E+02 -0.11274369000E+04  0.11428311384E+04  0.25500000920E-02 0.  1.
</event>
<event>
 5   0  0.1103241E-03  0.1303739E+04  0.7818609E-02  0.9026606E-01
        2   -1    0    0  501    0  0.00000000000E+00  0.00000000000E+00  0.55119582973E+03  0.55119582973E+03  0.25500000920E-02 0. -1.
       -2   -1    0    0    0  501  0.00000000000E+00  0.00000000000E+00 -0.77093025852E+03  0.77093025852E+03  0.25500000920E-02 0.  1.
    10030    2    1    2    0    0  0.00000000000E+00  0.00000000000E+00 -0.21973442879E+03  0.13221260883E+04  0.13037385375E+04 0.  0.
        4    1    3    3  502    0  0.50604454402E+03  0.69396751147E+02 -0.52059166287E+03  0.72932453815E+03  0.12699999809E+01 0.  1.
       -4    1    3    3    0  502 -0.50604454402E+03 -0.69396751147E+02  0.30085723408E+03  0.59280155010E+03  0.12699999809E+01 0. -1.
</event>
<event>
 5   0  0.1081574E-03  0.1290153E+04  0.7818609E-02  0.9037410E-01
       -2   -1    0    0    0  501  0.00000000000E+00  0.00000000000E+00  0.37408161847E+03  0.37408161848E+03  0.25500000920E-02 0.  1.
        2   -1    0    0  501    0  0.00000000000E+00  0.00000000000E+00 -0.11123882434E+04  0.11123882434E+04  0.25500000920E-02 0. -1.
    10030    2    1    2    0    0  0.00000000000E+00  0.00000000000E+00 -0.73830662496E+03  0.14864698619E+04  0.12901534707E+04 0.  0.
        5    1    3    3  502    0 -0.27647986526E+03 -0.49637563618E+03 -0.17276688850E+02  0.56846324601E+03  0.46999998093E+01 0.  1.
       -5    1    3    3    0  502  0.27647986526E+03  0.49637563618E+03 -0.72102993611E+03  0.91800661591E+03  0.46999998093E+01 0. -1.
</event>
<event>
 5   0  0.1046253E-03  0.1302892E+04  0.7818609E-02  0.9027275E-01
        2   -1    0    0  501    0  0.00000000000E+00  0.00000000000E+00  0.11424422320E+04  0.11424422320E+04  0.25500000920E-02 0. -1.
       -2   -1    0    0    0  501  0.00000000000E+00  0.00000000000E+00 -0.37146885043E+03  0.37146885044E+03  0.25500000920E-02 0.  1.
    10030    2    1    2    0    0  0.00000000000E+00  0.00000000000E+00  0.77097338156E+03  0.15139110824E+04  0.13028917109E+04 0.  0.
        3    1    3    3  502    0  0.18496993630E+03  0.81823153374E+02  0.11050339476E+04  0.11233917132E+04  0.10100000352E+00 0. -1.
       -3    1    3    3    0  502 -0.18496993630E+03 -0.81823153374E+02 -0.33406056603E+03  0.39051936922E+03  0.10100000352E+00 0.  1.
</event>
<event>
 5   0  0.1081574E-03  0.1307013E+04  0.7818609E-02  0.9024022E-01
        2   -1    0    0  501    0  0.00000000000E+00  0.00000000000E+00  0.11636891227E+04  0.11636891227E+04  0.25500000920E-02 0. -1.
       -2   -1    0    0    0  501  0.00000000000E+00  0.00000000000E+00 -0.36699735434E+03  0.36699735435E+03  0.25500000920E-02 0.  1.
    10030    2    1    2    0    0  0.00000000000E+00  0.00000000000E+00  0.79669176836E+03  0.15306864771E+04  0.13070131282E+04 0.  0.
        5    1    3    3  502    0  0.19474407259E+03 -0.40978850998E+03  0.94914822460E+03  0.10520248661E+04  0.46999998093E+01 0. -1.
       -5    1    3    3    0  502 -0.19474407259E+03  0.40978850998E+03 -0.15245645624E+03  0.47866161092E+03  0.46999998093E+01 0.  1.
</event>
<event>
 5   0  0.1031295E-03  0.1300494E+04  0.7818609E-02  0.9029174E-01
        2   -1    0    0  501    0  0.00000000000E+00  0.00000000000E+00  0.11387422914E+04  0.11387422914E+04  0.25500000920E-02 0.  1.
       -2   -1    0    0    0  501  0.00000000000E+00  0.00000000000E+00 -0.37130530228E+03  0.37130530229E+03  0.25500000920E-02 0. -1.
    10030    2    1    2    0    0  0.00000000000E+00  0.00000000000E+00  0.76743698916E+03  0.15100475937E+04  0.13004938304E+04 0.  0.
        2    1    3    3  502    0 -0.97850452714E+01 -0.51488093948E+03  0.84470904825E+03  0.98930859955E+03  0.25500000920E-02 0.  1.
       -2    1    3    3    0  502  0.97850452714E+01  0.51488093948E+03 -0.77272059083E+02  0.52073899419E+03  0.25500000920E-02 0. -1.
</event>
<event>
 5   0  0.5710383E-04  0.1298062E+04  0.7818609E-02  0.9031104E-01
       -1   -1    0    0    0  501  0.00000000000E+00  0.00000000000E+00  0.44733458343E+03  0.44733458346E+03  0.50400001928E-02 0.  1.
        1   -1    0    0  501    0  0.00000000000E+00  0.00000000000E+00 -0.94166888594E+03  0.94166888595E+03  0.50400001928E-02 0. -1.
    10030    2    1    2    0    0  0.00000000000E+00  0.00000000000E+00 -0.49433430251E+03  0.13890034694E+04  0.12980617225E+04 0.  0.
        1    1    3    3  502    0 -0.79017172793E+01  0.29743554334E+03  0.37005482894E+03  0.47483777865E+03  0.50400001928E-02 0.  1.
       -1    1    3    3    0  502  0.79017172793E+01 -0.29743554334E+03 -0.86438913145E+03  0.91416569077E+03  0.50400001928E-02 0. -1.
</event>
<event>
 5   0  0.6006119E-04  0.1289050E+04  0.7818609E-02  0.9038294E-01
        1   -1    0    0  501    0  0.00000000000E+00  0.00000000000E+00  0.91558712079E+03  0.91558712080E+03  0.50400001928E-02 0. -1.
       -1   -1    0    0    0  501  0.00000000000E+00  0.00000000000E+00 -0.45371149526E+03  0.45371149529E+03  0.50400001928E-02 0.  1.
    10030    2    1    2    0    0  0.00000000000E+00  0.00000000000E+00  0.46187562553E+03  0.13692986161E+04  0.12890498852E+04 0.  0.
        4    1    3    3  502    0  0.56527968858E+03 -0.12830016815E+03 -0.68400680220E+02  0.58367998546E+03  0.12699999809E+01 0.  1.
       -4    1    3    3    0  502 -0.56527968858E+03  0.12830016815E+03  0.53027630574E+03  0.78561863064E+03  0.12699999809E+01 0. -1.
</event>
<event>
 5   0  0.1103241E-03  0.1303700E+04  0.7818609E-02  0.9026637E-01
       -2   -1    0    0    0  501  0.00000000000E+00  0.00000000000E+00  0.15845473955E+03  0.15845473957E+03  0.25500000920E-02 0. -1.
        2   -1    0    0  501    0  0.00000000000E+00  0.00000000000E+00 -0.26815741420E+04  0.26815741420E+04  0.25500000920E-02 0.  1.
    10030    2    1    2    0    0  0.00000000000E+00  0.00000000000E+00 -0.25231194025E+04  0.28400288816E+04  0.13036995548E+04 0.  0.
        4    1    3    3  502    0  0.18984289107E+03 -0.87056894800E+02 -0.26067118369E+04  0.26150654752E+04  0.12699999809E+01 0.  1.
       -4    1    3    3    0  502 -0.18984289107E+03  0.87056894800E+02  0.83592434407E+02  0.22496340638E+03  0.12699999809E+01 0. -1.
</event>
<event>
 5   0  0.1103241E-03  0.1307231E+04  0.7818609E-02  0.9023851E-01
       -2   -1    0    0    0  501  0.00000000000E+00  0.00000000000E+00  0.24120197727E+03  0.24120197728E+03  0.25500000920E-02 0.  1.
        2   -1    0    0  501    0  0.00000000000E+00  0.00000000000E+00 -0.17711841885E+04  0.17711841885E+04  0.25500000920E-02 0. -1.
    10030    2    1    2    0    0  0.00000000000E+00  0.00000000000E+00 -0.15299822112E+04  0.20123861658E+04  0.13072308570E+04 0.  0.
        4    1    3    3  502    0  0.11237751232E+03  0.39581012797E+02  0.22434202122E+03  0.25402030871E+03  0.12699999809E+01 0.  1.
       -4    1    3    3    0  502 -0.11237751232E+03 -0.39581012797E+02 -0.17543242324E+04  0.17583658571E+04  0.12699999809E+01 0. -1.
</event>
<event>
 5   0  0.5563545E-04  0.1296406E+04  0.7818609E-02  0.9032420E-01
        1   -1    0    0  501    0  0.00000000000E+00  0.00000000000E+00  0.15598089698E+04  0.15598089698E+04  0.50400001928E-02 0.  1.
       -1   -1    0    0    0  501  0.00000000000E+00  0.00000000000E+00 -0.26937094366E+03  0.26937094370E+03  0.50400001928E-02 0. -1.
    10030    2    1    2    0    0  0.00000000000E+00  0.00000000000E+00  0.12904380262E+04  0.18291799135E+04  0.12964061311E+04 0.  0.
        2    1    3    3  502    0 -0.14825075178E+03  0.53611864400E+03  0.11148081602E+04  0.12458726740E+04  0.25500000920E-02 0.  1.
       -2    1    3    3    0  502  0.14825075178E+03 -0.53611864400E+03  0.17562986600E+03  0.58330723953E+03  0.25500000920E-02 0. -1.
</event>
<event>
 5   0  0.5563545E-04  0.1299395E+04  0.7818609E-02  0.9030045E-01
        1   -1    0    0  501    0  0.00000000000E+00  0.00000000000E+00  0.89430715902E+03  0.89430715903E+03  0.50400001928E-02 0. -1.
       -1   -1    0    0    0  501  0.00000000000E+00  0.00000000000E+00 -0.47199306439E+03  0.47199306441E+03  0.50400001928E-02 0.  1.
    10030    2    1    2    0    0  0.00000000000E+00  0.00000000000E+00  0.42231409463E+03  0.13663002234E+04  0.12993949000E+04 0.  0.
        2    1    3    3  502    0 -0.20877051533E+03  0.23338955606E+03 -0.38740839567E+03  0.49813760949E+03  0.25500000920E-02 0.  1.
       -2    1    3    3    0  502  0.20877051533E+03 -0.23338955606E+03  0.80972249030E+03  0.86816261395E+03  0.25500000920E-02 0. -1.
</event>
<event>
 5   0  0.1031295E-03  0.1301464E+04  0.7818609E-02  0.9028405E-01
        2   -1    0    0  501    0  0.00000000000E+00  0.00000000000E+00  0.15102772366E+04  0.15102772366E+04  0.25500000920E-02 0. -1.
       -2   -1    0    0    0  501  0.00000000000E+00  0.00000000000E+00 -0.28038032109E+03  0.28038032110E+03  0.25500000920E-02 0.  1.
    10030    2    1    2    0    0  0.00000000000E+00  0.00000000000E+00  0.12298969155E+04  0.17906575577E+04  0.13014638167E+04 0.  0.
        2    1    3    3  502    0  0.13408066661E+03 -0.24403103267E+03  0.14241753667E+04  0.14511389475E+04  0.25500000920E-02 0. -1.
       -2    1    3    3    0  502 -0.13408066661E+03  0.24403103267E+03 -0.19427845114E+03  0.33951861017E+03  0.25500000920E-02 0.  1.
</event>
<event>
 5   0  0.1046253E-03  0.1301458E+04  0.7818609E-02  0.9028410E-01
        2   -1    0    0  501    0  0.00000000000E+00  0.00000000000E+00  0.69977535345E+03  0.69977535345E+03  0.25500000920E-02 0.  1.
       -2   -1    0    0    0  501  0.00000000000E+00  0.00000000000E+00 -0.60512052310E+03  0.60512052311E+03  0.25500000920E-02 0. -1.
    10030    2    1    2    0    0  0.00000000000E+00  0.00000000000E+00  0.94654830346E+02  0.13048958766E+04  0.13014583020E+04 0.  0.
        3    1    3    3  502    0 -0.31716476959E+03  0.32139704514E+03  0.51713615343E+03  0.68652703012E+03  0.10100000352E+00 0.  1.
       -3    1    3    3    0  502  0.31716476959E+03 -0.32139704514E+03 -0.42248132308E+03  0.61836884644E+03  0.10100000352E+00 0. -1.
</event>
<event>
 5   0  0.1031295E-03  0.1299952E+04  0.7818609E-02  0.9029603E-01
       -2   -1    0    0    0  501  0.00000000000E+00  0.00000000000E+00  0.36926977786E+03  0.36926977787E+03  0.25500000920E-02 0.  1.
        2   -1    0    0  501    0  0.00000000000E+00  0.00000000000E+00 -0.11440652479E+04  0.11440652479E+04  0.25500000920E-02 0. -1.
    10030    2    1    2    0    0  0.00000000000E+00  0.00000000000E+00 -0.77479547004E+03  0.15133350258E+04  0.12999518760E+04 0.  0.
        2    1    3    3  502    0 -0.10578225677E+03  0.11683267122E+03 -0.11214835176E+04  0.11325038804E+04  0.25500000920E-02 0. -1.
       -2    1    3    3    0  502  0.10578225677E+03 -0.11683267122E+03  0.34668804758E+03  0.38083114533E+03  0.25500000920E-02 0.  1.
</event>
<event>
 5   0  0.1101619E-03  0.1279748E+04  0.7818609E-02  0.9045781E-01
       -2   -1    0    0    0  501  0.00000000000E+00  0.00000000000E+00  0.21479627603E+03  0.21479627605E+03  0.25500000920E-02 0.  1.
        2   -1    0    0  501    0  0.00000000000E+00  0.00000000000E+00 -0.19061723396E+04  0.19061723396E+04  0.25500000920E-02 0. -1.
    10030    2    1    2    0    0  0.00000000000E+00  0.00000000000E+00 -0.16913760635E+04  0.21209686156E+04  0.12797479752E+04 0.  0.
        1    1    3    3  502    0 -0.56484995630E+03 -0.48912661964E+02 -0.13373067614E+04  0.14525278985E+04  0.50400001928E-02 0. -1.
       -1    1    3    3    0  502  0.56484995630E+03  0.48912661964E+02 -0.35406930212E+03  0.66844071717E+03  0.50400001928E-02 0.  1.
</event>
<event>
 5   0  0.5766027E-04  0.1323569E+04  0.7818609E-02  0.9011081E-01
        1   -1    0    0  501    0  0.00000000000E+00  0.00000000000E+00  0.60062242941E+03  0.60062242944E+03  0.50400001928E-02 0.  1.
       -1   -1    0    0    0  501  0.00000000000E+00  0.00000000000E+00 -0.72917497203E+03  0.72917497205E+03  0.50400001928E-02 0. -1.
    10030    2    1    2    0    0  0.00000000000E+00  0.00000000000E+00 -0.12855254262E+03  0.13297974015E+04  0.13235691794E+04 0.  0.
        3    1    3    3  502    0 -0.52580237080E+03 -0.32108296525E+03  0.17851439142E+03  0.64142793972E+03  0.10100000352E+00 0. -1.
       -3    1    3    3    0  502  0.52580237080E+03  0.32108296525E+03 -0.30706693404E+03  0.68836946176E+03  0.10100000352E+00 0.  1.
</event>
<event>
 5   0  0.1081574E-03  0.1291147E+04  0.7818609E-02  0.9036615E-01
        2   -1    0    0  501    0  0.00000000000E+00  0.00000000000E+00  0.14227003597E+04  0.14227003597E+04  0.25500000920E-02 0.  1.
       -2   -1    0    0    0  501  0.00000000000E+00  0.00000000000E+00 -0.29293968091E+03  0.29293968092E+03  0.25500000920E-02 0. -1.
    10030    2    1    2    0    0  0.00000000000E+00  0.00000000000E+00  0.11297606788E+04  0.17156400406E+04  0.12911473803E+04 0.  0.
        5    1    3    3  502    0 -0.64267377961E+03 -0.48538456182E+02  0.51591856254E+03  0.82557835600E+03  0.46999998093E+01 0.  1.
       -5    1    3    3    0  502  0.64267377961E+03  0.48538456182E+02  0.61384211626E+03  0.89006168461E+03  0.46999998093E+01 0. -1.
</event>
<event>
 5   0  0.1103241E-03  0.1288718E+04  0.7818609E-02  0.9038560E-01
        2   -1    0    0  501    0  0.00000000000E+00  0.00000000000E+00  0.44064227284E+03  0.44064227285E+03  0.25500000920E-02 0.  1.
       -2   -1    0    0    0  501  0.00000000000E+00  0.00000000000E+00 -0.94225829069E+03  0.94225829069E+03  0.25500000920E-02 0. -1.
    10030    2    1    2    0    0  0.00000000000E+00  0.00000000000E+00 -0.50161601785E+03  0.13829005635E+04  0.12887184872E+04 0.  0.
        4    1    3    3  502    0 -0.24722662256E+03  0.36095054311E+03 -0.75844601553E+03  0.87558452981E+03  0.12699999809E+01 0. -1.
       -4    1    3    3    0  502  0.24722662256E+03 -0.36095054311E+03  0.25682999768E+03  0.50731603373E+03  0.12699999809E+01 0.  1.
</event>
<event>
 5   0  0.1031295E-03  0.1296774E+04  0.7818609E-02  0.9032127E-01
        2   -1    0    0  501    0  0.00000000000E+00  0.00000000000E+00  0.37946092302E+03  0.37946092302E+03  0.25500000920E-02 0. -1.
       -2   -1    0    0    0  501  0.00000000000E+00  0.00000000000E+00 -0.11079028695E+04  0.11079028695E+04  0.25500000920E-02 0.  1.
    10030    2    1    2    0    0  0.00000000000E+00  0.00000000000E+00 -0.72844194645E+03  0.14873637925E+04  0.12967742216E+04 0.  0.
        2    1    3    3  502    0  0.39122484612E+03 -0.35683073894E+03  0.64968534815E+02  0.53348473923E+03  0.25500000920E-02 0. -1.
       -2    1    3    3    0  502 -0.39122484612E+03  0.35683073894E+03 -0.79341048126E+03  0.95387905326E+03  0.25500000920E-02 0.  1.
</event>
<event>
 5   0  0.5766027E-04  0.1301512E+04  0.7818609E-02  0.9028367E-01
       -1   -1    0    0    0  501  0.00000000000E+00  0.00000000000E+00  0.10402372213E+04  0.10402372213E+04  0.50400001928E-02 0. -1.
        1   -1    0    0  501    0  0.00000000000E+00  0.00000000000E+00 -0.40710246198E+03  0.40710246201E+03  0.50400001928E-02 0.  1.
    10030    2    1    2    0    0  0.00000000000E+00  0.00000000000E+00  0.63313475936E+03  0.14473396834E+04  0.13015116348E+04 0.  0.
        3    1    3    3  502    0  0.45000782185E+03 -0.80803673182E+02  0.83153776078E+03  0.94894221697E+03  0.10100000352E+00 0. -1.
       -3    1    3    3    0  502 -0.45000782185E+03  0.80803673182E+02 -0.19840300143E+03  0.49839746639E+03  0.10100000352E+00 0.  1.
</event>
<event>
 5   0  0.5812938E-04  0.1305731E+04  0.7818609E-02  0.9025033E-01
       -1   -1    0    0    0  501  0.00000000000E+00  0.00000000000E+00  0.97637134784E+03  0.97637134785E+03  0.50400001928E-02 0. -1.
        1   -1    0    0  501    0  0.00000000000E+00  0.00000000000E+00 -0.43654849336E+03  0.43654849339E+03  0.50400001928E-02 0.  1.
    10030    2    1    2    0    0  0.00000000000E+00  0.00000000000E+00  0.53982285448E+03  0.14129198412E+04  0.13057311222E+04 0.  0.
        5    1    3    3  502    0 -0.30795871590E+03 -0.52540471774E+03  0.52442755416E+03  0.80370083842E+03  0.46999998093E+01 0. -1.
       -5    1    3    3    0  502  0.30795871590E+03  0.52540471774E+03  0.15395300320E+02  0.60921900282E+03  0.46999998093E+01 0.  1.
</event>
<event>
 5   0  0.1101619E-03  0.1311026E+04  0.7818609E-02  0.9020867E-01
        2   -1    0    0  501    0  0.00000000000E+00  0.00000000000E+00  0.17259971816E+04  0.17259971816E+04  0.25500000920E-02 0.  1.
       -2   -1    0    0    0  501  0.00000000000E+00  0.00000000000E+00 -0.24895591759E+03  0.24895591760E+03  0.25500000920E-02 0. -1.
    10030    2    1    2    0    0  0.00000000000E+00  0.00000000000E+00  0.14770412640E+04  0.19749530992E+04  0.13110258763E+04 0.  0.
        1    1    3    3  502    0 -0.32736144320E+03  0.48230491973E+03  0.28681202496E+03  0.64964966541E+03  0.50400001928E-02 0. -1.
       -1    1    3    3    0  502  0.32736144320E+03 -0.48230491973E+03  0.11902292390E+04  0.13253034338E+04  0.50400001928E-02 0.  1.
</event>
<event>
 5   0  0.1081574E-03  0.1293277E+04  0.7818609E-02  0.9034913E-01
       -2   -1    0    0    0  501  0.00000000000E+00  0.00000000000E+00  0.22254237601E+03  0.22254237603E+03  0.25500000920E-02 0. -1.
        2   -1    0    0  501    0  0.00000000000E+00  0.00000000000E+00 -0.18789297291E+04  0.18789297291E+04  0.25500000920E-02 0.  1.
    10030    2    1    2    0    0  0.00000000000E+00  0.00000000000E+00 -0.16563873531E+04  0.21014721051E+04  0.12932772113E+04 0.  0.
        5    1    3    3  502    0  0.47930962839E+03 -0.12138945586E+03 -0.15053122740E+04  0.15844431994E+04  0.46999998093E+01 0.  1.
       -5    1    3    3    0  502 -0.47930962839E+03  0.12138945586E+03 -0.15107507912E+03  0.51702890576E+03  0.46999998093E+01 0. -1.
</event>
<event>
 5   0  0.1081574E-03  0.1302868E+04  0.7818609E-02  0.9027294E-01
        2   -1    0    0  501    0  0.00000000000E+00  0.00000000000E+00  0.21135797768E+04  0.21135797768E+04  0.25500000920E-02 0.  1.
       -2   -1    0    0    0  501  0.00000000000E+00  0.00000000000E+00 -0.20078088143E+03  0.20078088145E+03  0.25500000920E-02 0. -1.
    10030    2    1    2    0    0  0.00000000000E+00  0.00000000000E+00  0.19127988954E+04  0.23143606582E+04  0.13028682367E+04 0.  0.
        5    1    3    3  502    0  0.50004277528E+03 -0.41454084289E+03  0.86834092625E+03  0.10844007293E+04  0.46999998093E+01 0. -1.
       -5    1    3    3    0  502 -0.50004277528E+03  0.41454084289E+03  0.10444579691E+04  0.12299599289E+04  0.46999998093E+01 0.  1.
</event>
<event>
 5   0  0.6006119E-04  0.1300498E+04  0.7818609E-02  0.9029170E-01
        1   -1    0    0  501    0  0.00000000000E+00  0.00000000000E+00  0.54506470432E+03  0.54506470435E+03  0.50400001928E-02 0.  1.
       -1   -1    0    0    0  501  0.00000000000E+00  0.00000000000E+00 -0.77573175101E+03  0.77573175102E+03  0.50400001928E-02 0. -1.
    10030    2    1    2    0    0  0.00000000000E+00  0.00000000000E+00 -0.23066704668E+03  0.13207964554E+04  0.13004983622E+04 0.  0.
        4    1    3    3  502    0 -0.10946692017E+03  0.10703033686E+03 -0.75716550520E+03  0.77248929753E+03  0.12699999809E+01 0. -1.
       -4    1    3    3    0  502  0.10946692017E+03 -0.10703033686E+03  0.52649845852E+03  0.54830715785E+03  0.12699999809E+01 0.  1.
</event>
<event>
 5   0  0.6006119E-04  0.1294211E+04  0.7818609E-02  0.9034168E-01
        1   -1    0    0  501    0  0.00000000000E+00  0.00000000000E+00  0.68490370291E+03  0.68490370292E+03  0.50400001928E-02 0.  1.
       -1   -1    0    0    0  501  0.00000000000E+00  0.00000000000E+00 -0.61139374477E+03  0.61139374479E+03  0.50400001928E-02 0. -1.
    10030    2    1    2    0    0  0.00000000000E+00  0.00000000000E+00  0.73509958136E+02  0.12962974477E+04  0.12942114816E+04 0.  0.
        4    1    3    3  502    0  0.33206157275E+03  0.27271537997E+03 -0.44786953080E+03  0.62066681568E+03  0.12699999809E+01 0. -1.
       -4    1    3    3    0  502 -0.33206157275E+03 -0.27271537997E+03  0.52137948893E+03  0.67563063204E+03  0.12699999809E+01 0.  1.
</event>
<event>
 5   0  0.5563545E-04  0.1312103E+04  0.7818609E-02  0.9020022E-01
        1   -1    0    0  501    0  0.00000000000E+00  0.00000000000E+00  0.50357600507E+03  0.50357600510E+03  0.50400001928E-02 0.  1.
       -1   -1    0    0    0  501  0.00000000000E+00  0.00000000000E+00 -0.85469491351E+03  0.85469491352E+03  0.50400001928E-02 0. -1.
    10030    2    1    2    0    0  0.00000000000E+00  0.00000000000E+00 -0.35111890843E+03  0.13582709186E+04  0.13121034260E+04 0.  0.
        2    1    3    3  502    0  0.90680044145E+02  0.42928472894E+03 -0.68046662508E+03  0.80965614724E+03  0.25500000920E-02 0. -1.
       -2    1    3    3    0  502 -0.90680044145E+02 -0.42928472894E+03  0.32934771665E+03  0.54861477138E+03  0.25500000920E-02 0.  1.
</event>
<event>
 5   0  0.1101619E-03  0.1300653E+04  0.7818609E-02  0.9029047E-01
        2   -1    0    0  501    0  0.00000000000E+00  0.00000000000E+00  0.40860461676E+03  0.40860461676E+03  0.25500000920E-02 0.  1.
       -2   -1    0    0    0  501  0.00000000000E+00  0.00000000000E+00 -0.10350462369E+04  0.10350462369E+04  0.25500000920E-02 0. -1.
    10030    2    1    2    0    0  0.00000000000E+00  0.00000000000E+00 -0.62644162012E+03  0.14436508536E+04  0.13006531758E+04 0.  0.
        1    1    3    3  502    0 -0.20451753931E+03  0.22927381908E+03  0.32297189860E+03  0.44576311569E+03  0.50400001928E-02 0.  1.
       -1    1    3    3    0  502  0.20451753931E+03 -0.22927381908E+03 -0.94941351872E+03  0.99788773795E+03  0.50400001928E-02 0. -1.
</event>
<event>
 5   0  0.1081574E-03  0.1300052E+04  0.7818609E-02  0.9029524E-01
        2   -1    0    0  501    0  0.00000000000E+00  0.00000000000E+00  0.63472551605E+03  0.63472551605E+03  0.25500000920E-02 0. -1.
       -2   -1    0    0    0  501  0.00000000000E+00  0.00000000000E+00 -0.66569513578E+03  0.66569513578E+03  0.25500000920E-02 0.  1.
    10030    2    1    2    0    0  0.00000000000E+00  0.00000000000E+00 -0.30969619727E+02  0.13004206518E+04  0.13000518276E+04 0.  0.
        5    1    3    3  502    0 -0.26647256129E+03 -0.38873330693E+03  0.43229203887E+03  0.63954648518E+03  0.46999998093E+01 0. -1.
       -5    1    3    3    0  502  0.26647256129E+03  0.38873330693E+03 -0.46326165859E+03  0.66087416666E+03  0.46999998093E+01 0.  1.
</event>
<event>
 5   0  0.1046253E-03  0.1293386E+04  0.7818609E-02  0.9034826E-01
       -2   -1    0    0    0  501  0.00000000000E+00  0.00000000000E+00  0.24117791805E+03  0.24117791807E+03  0.25500000920E-02 0. -1.
        2   -1    0    0  501    0  0.00000000000E+00  0.00000000000E+00 -0.17340395334E+04  0.17340395334E+04  0.25500000920E-02 0.  1.
    10030    2    1    2    0    0  0.00000000000E+00  0.00000000000E+00 -0.14928616154E+04  0.19752174515E+04  0.12933863220E+04 0.  0.
        3    1    3    3  502    0  0.60321639692E+03  0.11414527840E+03 -0.10568362478E+04  0.12222119419E+04  0.10100000352E+00 0.  1.
       -3    1    3    3    0  502 -0.60321639692E+03 -0.11414527840E+03 -0.43602536759E+03  0.75300550959E+03  0.10100000352E+00 0. -1.
</event>
<event>
 5   0  0.6006119E-04  0.1300325E+04  0.7818609E-02  0.9029307E-01
       -1   -1    0    0    0  501  0.00000000000E+00  0.00000000000E+00  0.94005578087E+03  0.94005578088E+03  0.50400001928E-02 0. -1.
        1   -1    0    0  501    0  0.00000000000E+00  0.00000000000E+00 -0.44966637285E+03  0.44966637288E+03  0.50400001928E-02 0.  1.
    10030    2    1    2    0    0  0.00000000000E+00  0.00000000000E+00  0.49038940802E+03  0.13897221538E+04  0.13003253028E+04 0.  0.
        4    1    3    3  502    0 -0.61460610407E+03  0.17074194984E+03  0.11078532807E+03  0.64743221916E+03  0.12699999809E+01 0.  1.
       -4    1    3    3    0  502  0.61460610407E+03 -0.17074194984E+03  0.37960407995E+03  0.74228993460E+03  0.12699999809E+01 0. -1.
</event>
<event>
 5   0  0.1101619E-03  0.1293015E+04  0.7818609E-02  0.9035123E-01
       -2   -1    0    0    0  501  0.00000000000E+00  0.00000000000E+00  0.34713740828E+03  0.34713740829E+03  0.25500000920E-02 0. -1.
        2   -1    0    0  501    0  0.00000000000E+00  0.00000000000E+00 -0.12040527414E+04  0.12040527414E+04  0.25500000920E-02 0.  1.
    10030    2    1    2    0    0  0.00000000000E+00  0.00000000000E+00 -0.85691533309E+03  0.15511901497E+04  0.12930146914E+04 0.  0.
        1    1    3    3  502    0  0.63330829124E+03  0.10577543457E+03 -0.33785352435E+03  0.72554313329E+03  0.50400001928E-02 0. -1.
       -1    1    3    3    0  502 -0.63330829124E+03 -0.10577543457E+03 -0.51906180874E+03  0.82564701637E+03  0.50400001928E-02 0.  1.
</event>
<event>
 5   0  0.6006119E-04  0.1297762E+04  0.7818609E-02  0.9031342E-01
        1   -1    0    0  501    0  0.00000000000E+00  0.00000000000E+00  0.20027178292E+04  0.20027178292E+04  0.50400001928E-02 0. -1.
       -1   -1    0    0    0  501  0.00000000000E+00  0.00000000000E+00 -0.21023768419E+03  0.21023768425E+03  0.50400001928E-02 0.  1.
    10030    2    1    2    0    0  0.00000000000E+00  0.00000000000E+00  0.17924801451E+04  0.22129555135E+04  0.12977623181E+04 0.  0.
        4    1    3    3  502    0  0.23499224651E+03  0.18325815269E+03  0.18791271814E+04  0.19026101764E+04  0.12699999809E+01 0. -1.
       -4    1    3    3    0  502 -0.23499224651E+03 -0.18325815269E+03 -0.86647036372E+02  0.31034533710E+03  0.12699999809E+01 0.  1.
</event>
<event>
 5   0  0.1046253E-03  0.1296597E+04  0.7818609E-02  0.9032268E-01
       -2   -1    0    0    0  501  0.00000000000E+00  0.00000000000E+00  0.33522388305E+03  0.33522388306E+03  0.25500000920E-02 0. -1.
        2   -1    0    0  501    0  0.00000000000E+00  0.00000000000E+00 -0.12537610932E+04  0.12537610932E+04  0.25500000920E-02 0.  1.
    10030    2    1    2    0    0  0.00000000000E+00  0.00000000000E+00 -0.91853721017E+03  0.15889849763E+04  0.12965965635E+04 0.  0.
        3    1    3    3  502    0 -0.28112196762E+03  0.56168078705E+03 -0.26251582736E+03  0.68075651817E+03  0.10100000352E+00 0. -1.
       -3    1    3    3    0  502  0.28112196762E+03 -0.56168078705E+03 -0.65602138281E+03  0.90822845811E+03  0.10100000352E+00 0.  1.
</event>
<event>
 5   0  0.1103241E-03  0.1305335E+04  0.7818609E-02  0.9025345E-01
       -2   -1    0    0    0  501  0.00000000000E+00  0.00000000000E+00  0.44619553277E+03  0.44619553278E+03  0.25500000920E-02 0. -1.
        2   -1    0    0  501    0  0.00000000000E+00  0.00000000000E+00 -0.95468143291E+03  0.95468143292E+03  0.25500000920E-02 0.  1.
    10030    2    1    2    0    0  0.00000000000E+00  0.00000000000E+00 -0.50848590015E+03  0.14008769657E+04  0.13053345787E+04 0.  0.
        4    1    3    3  502    0 -0.12061534676E+03 -0.56638345984E+03 -0.57733433935E+03  0.81771317572E+03  0.12699999809E+01 0.  1.
       -4    1    3    3    0  502  0.12061534676E+03  0.56638345984E+03  0.68848439203E+02  0.58316378997E+03  0.12699999809E+01 0. -1.
</event>
<event>
 5   0  0.5710383E-04  0.1295658E+04  0.7818609E-02  0.9033016E-01
       -1   -1    0    0    0  501  0.00000000000E+00  0.00000000000E+00  0.32922988244E+03  0.32922988248E+03  0.50400001928E-02 0.  1.
        1   -1    0    0  501    0  0.00000000000E+00  0.00000000000E+00 -0.12747397148E+04  0.12747397149E+04  0.50400001928E-02 0. -1.
    10030    2    1    2    0    0  0.00000000000E+00  0.00000000000E+00 -0.94550983240E+03  0.16039695973E+04  0.12956579896E+04 0.  0.
        1    1    3    3  502    0 -0.40108735576E+03  0.34033112449E+03 -0.46398572847E+01  0.52603979844E+03  0.50400001928E-02 0.  1.
       -1    1    3    3    0  502  0.40108735576E+03 -0.34033112449E+03 -0.94086997512E+03  0.10779297989E+04  0.50400001928E-02 0. -1.
</event>
<event>
 5   0  0.1046253E-03  0.1298789E+04  0.7818609E-02  0.9030526E-01
        2   -1    0    0  501    0  0.00000000000E+00  0.00000000000E+00  0.13417529058E+04  0.13417529058E+04  0.25500000920E-02 0.  1.
       -2   -1    0    0    0  501  0.00000000000E+00  0.00000000000E+00 -0.31430011574E+03  0.31430011575E+03  0.25500000920E-02 0. -1.
    10030    2    1    2    0    0  0.00000000000E+00  0.00000000000E+00  0.10274527900E+04  0.16560530215E+04  0.12987888105E+04 0.  0.
        3    1    3    3  502    0 -0.58699242473E+03 -0.98419237366E+02  0.18253411189E+03  0.62254731963E+03  0.10100000352E+00 0. -1.
       -3    1    3    3    0  502  0.58699242473E+03  0.98419237366E+02  0.84491867814E+03  0.10335057019E+04  0.10100000352E+00 0.  1.
</event>
<event>
 5   0  0.5812938E-04  0.1307320E+04  0.7818609E-02  0.9023780E-01
        1   -1    0    0  501    0  0.00000000000E+00  0.00000000000E+00  0.11620714209E+04  0.11620714209E+04  0.50400001928E-02 0.  1.
       -1   -1    0    0    0  501  0.00000000000E+00  0.00000000000E+00 -0.36768081787E+03  0.36768081790E+03  0.50400001928E-02 0. -1.
    10030    2    1    2    0    0  0.00000000000E+00  0.00000000000E+00  0.79439060306E+03  0.15297522388E+04  0.13073199616E+04 0.  0.
        5    1    3    3  502    0  0.32385132147E+03 -0.35191423773E+03 -0.12417689761E+03  0.49413085416E+03  0.46999998093E+01 0. -1.
       -5    1    3    3    0  502 -0.32385132147E+03  0.35191423773E+03  0.91856750067E+03  0.10356213847E+04  0.46999998093E+01 0.  1.
</event>
<event>
 5   0  0.5812938E-04  0.1301061E+04  0.7818609E-02  0.9028724E-01
        1   -1    0    0  501    0  0.00000000000E+00  0.00000000000E+00  0.54683991228E+03  0.54683991230E+03  0.50400001928E-02 0. -1.
       -1   -1    0    0    0  501  0.00000000000E+00  0.00000000000E+00 -0.77388228348E+03  0.77388228350E+03  0.50400001928E-02 0.  1.
    10030    2    1    2    0    0  0.00000000000E+00  0.00000000000E+00 -0.22704237121E+03  0.13207221958E+04  0.13010606750E+04 0.  0.
        5    1    3    3  502    0 -0.18737303678E+03  0.46396828135E+03 -0.53548601670E+03  0.73290011945E+03  0.46999998093E+01 0.  1.
       -5    1    3    3    0  502  0.18737303678E+03 -0.46396828135E+03  0.30844364549E+03  0.58782207635E+03  0.46999998093E+01 0. -1.
</event>
<event>
 5   0  0.6006119E-04  0.1308586E+04  0.7818609E-02  0.9022784E-01
        1   -1    0    0  501    0  0.00000000000E+00  0.00000000000E+00  0.81384844393E+03  0.81384844395E+03  0.50400001928E-02 0.  1.
       -1   -1    0    0    0  501  0.00000000000E+00  0.00000000000E+00 -0.52601872695E+03  0.52601872697E+03  0.50400001928E-02 0. -1.
    10030    2    1    2    0    0  0.00000000000E+00  0.00000000000E+00  0.28782971699E+03  0.13398671709E+04  0.13085862943E+04 0.  0.
        4    1    3    3  502    0 -0.49165851442E+03 -0.42749728915E+03  0.20548448708E+03  0.68315994786E+03  0.12699999809E+01 0.  1.
       -4    1    3    3    0  502  0.49165851442E+03  0.42749728915E+03  0.82345229905E+02  0.65670722306E+03  0.12699999809E+01 0. -1.
</event>
<event>
 5   0  0.5766027E-04  0.1301215E+04  0.7818609E-02  0.9028602E-01
       -1   -1    0    0    0  501  0.00000000000E+00  0.00000000000E+00  0.26638958917E+03  0.26638958922E+03  0.50400001928E-02 0. -1.
        1   -1    0    0  501    0  0.00000000000E+00  0.00000000000E+00 -0.15889891698E+04  0.15889891698E+04  0.50400001928E-02 0.  1.
    10030    2    1    2    0    0  0.00000000000E+00  0.00000000000E+00 -0.13225995806E+04  0.18553787590E+04  0.13012150817E+04 0.  0.
        3    1    3    3  502    0 -0.10471766853E+03  0.63777278007E+03 -0.76771922512E+03  0.10035500625E+04  0.10100000352E+00 0.  1.
       -3    1    3    3    0  502  0.10471766853E+03 -0.63777278007E+03 -0.55488035548E+03  0.85182869651E+03  0.10100000352E+00 0. -1.
</event>
<event>
 5   0  0.5766027E-04  0.1295342E+04  0.7818609E-02  0.9033267E-01
       -1   -1    0    0    0  501  0.00000000000E+00  0.00000000000E+00  0.53441199206E+03  0.53441199208E+03  0.50400001928E-02 0.  1.
        1   -1    0    0  501    0  0.00000000000E+00  0.00000000000E+00 -0.78493343480E+03  0.78493343482E+03  0.50400001928E-02 0. -1.
    10030    2    1    2    0    0  0.00000000000E+00  0.00000000000E+00 -0.25052144274E+03  0.13193454269E+04  0.12953421796E+04 0.  0.
        3    1    3    3  502    0 -0.44063052296E+03 -0.34624578613E+03 -0.45598749268E+03  0.72247214885E+03  0.10100000352E+00 0. -1.
       -3    1    3    3    0  502  0.44063052296E+03  0.34624578613E+03  0.20546604994E+03  0.59687327806E+03  0.10100000352E+00 0.  1.
</event>
<event>
 5   0  0.6006119E-04  0.1303021E+04  0.7818609E-02  0.9027173E-01
        1   -1    0    0  501    0  0.00000000000E+00  0.00000000000E+00  0.11867103641E+04  0.11867103641E+04  0.50400001928E-02 0. -1.
       -1   -1    0    0    0  501  0.00000000000E+00  0.00000000000E+00 -0.35768280785E+03  0.35768280788E+03  0.50400001928E-02 0.  1.
    10030    2    1    2    0    0  0.00000000000E+00  0.00000000000E+00  0.82902755623E+03  0.15443931720E+04  0.13030209441E+04 0.  0.
        4    1    3    3  502    0  0.62697368854E+03 -0.41279144071E+00  0.62443223402E+03  0.88488044633E+03  0.12699999809E+01 0. -1.
       -4    1    3    3    0  502 -0.62697368854E+03  0.41279144071E+00  0.20459532222E+03  0.65951272564E+03  0.12699999809E+01 0.  1.
</event>
<event>
 5   0  0.5766027E-04  0.1304882E+04  0.7818609E-02  0.9025703E-01
        1   -1    0    0  501    0  0.00000000000E+00  0.00000000000E+00  0.64995601627E+03  0.64995601629E+03  0.50400001928E-02 0.  1.
       -1   -1    0    0    0  501  0.00000000000E+00  0.00000000000E+00 -0.65493507637E+03  0.65493507639E+03  0.50400001928E-02 0. -1.
    10030    2    1    2    0    0  0.00000000000E+00  0.00000000000E+00 -0.49790601003E+01  0.13048910927E+04  0.13048815934E+04 0.  0.
        3    1    3    3  502    0 -0.15745198350E+03  0.24127945227E+03 -0.58787578799E+03  0.65467919892E+03  0.10100000352E+00 0. -1.
       -3    1    3    3    0  502  0.15745198350E+03 -0.24127945227E+03  0.58289672789E+03  0.65021189376E+03  0.10100000352E+00 0.  1.
</event>
<event>
 5   0  0.5710383E-04  0.1320286E+04  0.7818609E-02  0.9013631E-01
       -1   -1    0    0    0  501  0.00000000000E+00  0.00000000000E+00  0.27517023904E+03  0.27517023908E+03  0.50400001928E-02 0. -1.
        1   -1    0    0  501    0  0.00000000000E+00  0.00000000000E+00 -0.15837071380E+04  0.15837071380E+04  0.50400001928E-02 0.  1.
    10030    2    1    2    0    0  0.00000000000E+00  0.00000000000E+00 -0.13085368989E+04  0.18588773771E+04  0.13202864413E+04 0.  0.
        1    1    3    3  502    0 -0.58280509928E+03 -0.30857150081E+03 -0.69676189569E+03  0.95935149668E+03  0.50400001928E-02 0.  1.
       -1    1    3    3    0  502  0.58280509928E+03  0.30857150081E+03 -0.61177500325E+03  0.89952588039E+03  0.50400001928E-02 0. -1.
</event>
<event>
 5   0  0.5812938E-04  0.1294055E+04  0.7818609E-02  0.9034293E-01
       -1   -1    0    0    0  501  0.00000000000E+00  0.00000000000E+00  0.51918458639E+03  0.51918458641E+03  0.50400001928E-02 0. -1.
        1   -1    0    0  501    0  0.00000000000E+00  0.00000000000E+00 -0.80635063919E+03  0.80635063920E+03  0.50400001928E-02 0.  1.
    10030    2    1    2    0    0  0.00000000000E+00  0.00000000000E+00 -0.28716605280E+03  0.13255352256E+04  0.12940553668E+04 0.  0.
        5    1    3    3  502    0  0.51962636097E+03  0.38046790547E+03 -0.20718496851E+03  0.67654643838E+03  0.46999998093E+01 0. -1.
       -5    1    3    3    0  502 -0.51962636097E+03 -0.38046790547E+03 -0.79981084286E+02  0.64898878723E+03  0.46999998093E+01 0.  1.
</event>
<event>
 5   0  0.1046253E-03  0.1292101E+04  0.7818609E-02  0.9035853E-01
       -2   -1    0    0    0  501  0.00000000000E+00  0.00000000000E+00  0.39931248065E+03  0.39931248065E+03  0.25500000920E-02 0. -1.
        2   -1    0    0  501    0  0.00000000000E+00  0.00000000000E+00 -0.10452491174E+04  0.10452491174E+04  0.25500000920E-02 0.  1.
    10030    2    1    2    0    0  0.00000000000E+00  0.00000000000E+00 -0.64593663674E+03  0.14445615980E+04  0.12921006431E+04 0.  0.
        3    1    3    3  502    0  0.20537841088E+03  0.53750570138E+03 -0.65137786450E+03  0.86912933631E+03  0.10100000352E+00 0.  1.
       -3    1    3    3    0  502 -0.20537841088E+03 -0.53750570138E+03  0.54412277629E+01  0.57543226173E+03  0.10100000352E+00 0. -1.
</event>
<event>
 5   0  0.1031295E-03  0.1298534E+04  0.7818609E-02  0.9030728E-01
       -2   -1    0    0    0  501  0.00000000000E+00  0.00000000000E+00  0.79971596981E+03  0.79971596982E+03  0.25500000920E-02 0.  1.
        2   -1    0    0  501    0  0.00000000000E+00  0.00000000000E+00 -0.52712184086E+03  0.52712184086E+03  0.25500000920E-02 0. -1.
    10030    2    1    2    0    0  0.00000000000E+00  0.00000000000E+00  0.27259412896E+03  0.13268378107E+04  0.12985341800E+04 0.  0.
        2    1    3    3  502    0  0.49368827862E+03  0.12842769010E+03  0.54670579492E+03  0.74773592547E+03  0.25500000920E-02 0.  1.
       -2    1    3    3    0  502 -0.49368827862E+03 -0.12842769010E+03 -0.27411166596E+03  0.57910188521E+03  0.25500000920E-02 0. -1.
</event>
<event>
 5   0  0.5812938E-04  0.1189783E+04  0.7818609E-02  0.9121847E-01
        1   -1    0    0  501    0  0.00000000000E+00  0.00000000000E+00  0.10948612051E+04  0.10948612052E+04  0.50400001928E-02 0. -1.
       -1   -1    0    0    0  501  0.00000000000E+00  0.00000000000E+00 -0.32323343336E+03  0.32323343340E+03  0.50400001928E-02 0.  1.
    10030    2    1    2    0    0  0.00000000000E+00  0.00000000000E+00  0.77162777178E+03  0.14180946385E+04  0.11897827473E+04 0.  0.
        5    1    3    3  502    0 -0.50865579398E+03  0.29095778493E+03  0.50786815515E+03  0.77546070331E+03  0.46999998093E+01 0. -1.
       -5    1    3    3    0  502  0.50865579398E+03 -0.29095778493E+03  0.26375961663E+03  0.64263393524E+03  0.46999998093E+01 0.  1.
</event>
<event>
 5   0  0.1046253E-03  0.1284100E+04  0.7818609E-02  0.9042270E-01
        2   -1    0    0  501    0  0.00000000000E+00  0.00000000000E+00  0.26656377031E+03  0.26656377033E+03  0.25500000920E-02 0.  1.
       -2   -1    0    0    0  501  0.00000000000E+00  0.00000000000E+00 -0.15464529228E+04  0.15464529228E+04  0.25500000920E-02 0. -1.
    10030    2    1    2    0    0  0.00000000000E+00  0.00000000000E+00 -0.12798891525E+04  0.18130166932E+04  0.12841001857E+04 0.  0.
        3    1    3    3  502    0  0.57955667458E+02 -0.27071331129E+03  0.17796135731E+03  0.32911215596E+03  0.10100000352E+00 0.  1.
       -3    1    3    3    0  502 -0.57955667458E+02  0.27071331129E+03 -0.14578505098E+04  0.14839045372E+04  0.10100000352E+00 0. -1.
</event>
<event>
 5   0  0.1101619E-03  0.1301299E+04  0.7818609E-02  0.9028536E-01
       -2   -1    0    0    0  501  0.00000000000E+00  0.00000000000E+00  0.48003310914E+03  0.48003310914E+03  0.25500000920E-02 0. -1.
        2   -1    0    0  501    0  0.00000000000E+00  0.00000000000E+00 -0.88190748947E+03  0.88190748947E+03  0.25500000920E-02 0.  1.
    10030    2    1    2    0    0  0.00000000000E+00  0.00000000000E+00 -0.40187438033E+03  0.13619405986E+04  0.13012990343E+04 0.  0.
        1    1    3    3  502    0  0.16966343933E+02 -0.87203911909E+02  0.47365561135E+03  0.48191494817E+03  0.50400001928E-02 0. -1.
       -1    1    3    3    0  502 -0.16966343933E+02  0.87203911909E+02 -0.87552999168E+03  0.88002565044E+03  0.50400001928E-02 0.  1.
</event>
<event>
 5   0  0.1103241E-03  0.1315397E+04  0.7818609E-02  0.9017443E-01
       -2   -1    0    0    0  501  0.00000000000E+00  0.00000000000E+00  0.34014404091E+03  0.34014404092E+03  0.25500000920E-02 0.  1.
        2   -1    0    0  501    0  0.00000000000E+00  0.00000000000E+00 -0.12717189253E+04  0.12717189253E+04  0.25500000920E-02 0. -1.
    10030    2    1    2    0    0  0.00000000000E+00  0.00000000000E+00 -0.93157488441E+03  0.16118629662E+04  0.13153974520E+04 0.  0.
        4    1    3    3  502    0  0.51801955278E+03 -0.31600116465E+03 -0.77666977001E+03  0.98560567048E+03  0.12699999809E+01 0. -1.
       -4    1    3    3    0  502 -0.51801955278E+03  0.31600116465E+03 -0.15490511440E+03  0.62625729576E+03  0.12699999809E+01 0.  1.
</event>
<event>
 5   0  0.1031295E-03  0.1297942E+04  0.7818609E-02  0.9031199E-01
        2   -1    0    0  501    0  0.00000000000E+00  0.00000000000E+00  0.16052010423E+04  0.16052010423E+04  0.25500000920E-02 0.  1.
       -2   -1    0    0    0  501  0.00000000000E+00  0.00000000000E+00 -0.26237427277E+03  0.26237427278E+03  0.25500000920E-02 0. -1.
    10030    2    1    2    0    0  0.00000000000E+00  0.00000000000E+00  0.13428267695E+04  0.18675753150E+04  0.12979421499E+04 0.  0.
        2    1    3    3  502    0 -0.27982938616E+02  0.49324977820E+03  0.65913925572E+02  0.49842053945E+03  0.25500000920E-02 0. -1.
       -2    1    3    3    0  502  0.27982938616E+02 -0.49324977820E+03  0.12769128439E+04  0.13691547756E+04  0.25500000920E-02 0.  1.
</event>
<event>
 5   0  0.5812938E-04  0.1356476E+04  0.7818609E-02  0.8985940E-01
       -1   -1    0    0    0  501  0.00000000000E+00  0.00000000000E+00  0.16191493068E+04  0.16191493068E+04  0.50400001928E-02 0.  1.
        1   -1    0    0  501    0  0.00000000000E+00  0.00000000000E+00 -0.28410414602E+03  0.28410414607E+03  0.50400001928E-02 0. -1.
    10030    2    1    2    0    0  0.00000000000E+00  0.00000000000E+00  0.13350451608E+04  0.19032534529E+04  0.13564763634E+04 0.  0.
        5    1    3    3  502    0 -0.64547406908E+03  0.20355932388E+03  0.72887081889E+03  0.99465970705E+03  0.46999998093E+01 0.  1.
       -5    1    3    3    0  502  0.64547406908E+03 -0.20355932388E+03  0.60617434187E+03  0.90859374581E+03  0.46999998093E+01 0. -1.
</event>
<event>
 5   0  0.1031295E-03  0.1325902E+04  0.7818609E-02  0.9009273E-01
        2   -1    0    0  501    0  0.00000000000E+00  0.00000000000E+00  0.13951050697E+04  0.13951050697E+04  0.25500000920E-02 0. -1.
       -2   -1    0    0    0  501  0.00000000000E+00  0.00000000000E+00 -0.31503284888E+03  0.31503284889E+03  0.25500000920E-02 0.  1.
    10030    2    1    2    0    0  0.00000000000E+00  0.00000000000E+00  0.10800722209E+04  0.17101379186E+04  0.13259018435E+04 0.  0.
        2    1    3    3  502    0 -0.26976583344E+03  0.12968116778E+03  0.13029927769E+04  0.13369296866E+04  0.25500000920E-02 0. -1.
       -2    1    3    3    0  502  0.26976583344E+03 -0.12968116778E+03 -0.22292055604E+03  0.37320823206E+03  0.25500000920E-02 0.  1.
</event>
<event>
 5   0  0.5812938E-04  0.1307527E+04  0.7818609E-02  0.9023617E-01
        1   -1    0    0  501    0  0.00000000000E+00  0.00000000000E+00  0.11140545591E+04  0.11140545591E+04  0.50400001928E-02 0. -1.
       -1   -1    0    0    0  501  0.00000000000E+00  0.00000000000E+00 -0.38364973925E+03  0.38364973928E+03  0.50400001928E-02 0.  1.
    10030    2    1    2    0    0  0.00000000000E+00  0.00000000000E+00  0.73040481981E+03  0.14977042984E+04  0.13075270416E+04 0.  0.
        5    1    3    3  502    0 -0.35102342793E+03  0.50536848084E+03  0.61816211220E+03  0.87221627785E+03  0.46999998093E+01 0. -1.
       -5    1    3    3    0  502  0.35102342793E+03 -0.50536848084E+03  0.11224270761E+03  0.62548802050E+03  0.46999998093E+01 0.  1.
</event>
<event>
 5   0  0.5563545E-04  0.1297494E+04  0.7818609E-02  0.9031555E-01
       -1   -1    0    0    0  501  0.00000000000E+00  0.00000000000E+00  0.49300524410E+03  0.49300524413E+03  0.50400001928E-02 0.  1.
        1   -1    0    0  501    0  0.00000000000E+00  0.00000000000E+00 -0.85368776226E+03  0.85368776228E+03  0.50400001928E-02 0. -1.
    10030    2    1    2    0    0  0.00000000000E+00  0.00000000000E+00 -0.36068251816E+03  0.13466930064E+04  0.12974938052E+04 0.  0.
        2    1    3    3  502    0  0.47296875576E+03  0.34189030951E+03 -0.47442981618E+03  0.75211174579E+03  0.25500000920E-02 0. -1.
       -2    1    3    3    0  502 -0.47296875576E+03 -0.34189030951E+03  0.11374729802E+03  0.59458126062E+03  0.25500000920E-02 0.  1.
</event>
<event>
 5   0  0.5563545E-04  0.1320741E+04  0.7818609E-02  0.9013277E-01
        1   -1    0    0  501    0  0.00000000000E+00  0.00000000000E+00  0.68478252873E+03  0.68478252875E+03  0.50400001928E-02 0.  1.
       -1   -1    0    0    0  501  0.00000000000E+00  0.00000000000E+00 -0.63682848452E+03  0.63682848454E+03  0.50400001928E-02 0. -1.
    10030    2    1    2    0    0  0.00000000000E+00  0.00000000000E+00  0.47954044210E+02  0.13216110133E+04  0.13207407316E+04 0.  0.
        2    1    3    3  502    0  0.33637771792E+03  0.28512268603E+03  0.51587402864E+03  0.67865376197E+03  0.25500000920E-02 0.  1.
       -2    1    3    3    0  502 -0.33637771792E+03 -0.28512268603E+03 -0.46791998443E+03  0.64295725133E+03  0.25500000920E-02 0. -1.
</event>
<event>
 5   0  0.6006119E-04  0.1301054E+04  0.7818609E-02  0.9028730E-01
        1   -1    0    0  501    0  0.00000000000E+00  0.00000000000E+00  0.14309386090E+04  0.14309386090E+04  0.50400001928E-02 0. -1.
       -1   -1    0    0    0  501  0.00000000000E+00  0.00000000000E+00 -0.29573978695E+03  0.29573978699E+03  0.50400001928E-02 0.  1.
    10030    2    1    2    0    0  0.00000000000E+00  0.00000000000E+00  0.11351988221E+04  0.17266783960E+04  0.13010541563E+04 0.  0.
        4    1    3    3  502    0  0.26399074294E+03  0.14922657166E+03  0.13313949201E+04  0.13654939503E+04  0.12699999809E+01 0. -1.
       -4    1    3    3    0  502 -0.26399074294E+03 -0.14922657166E+03 -0.19619609805E+03  0.36118444573E+03  0.12699999809E+01 0.  1.
</event>
<event>
 5   0  0.1101619E-03  0.1300691E+04  0.7818609E-02  0.9029018E-01
       -2   -1    0    0    0  501  0.00000000000E+00  0.00000000000E+00  0.35155679702E+03  0.35155679703E+03  0.25500000920E-02 0. -1.
        2   -1    0    0  501    0  0.00000000000E+00  0.00000000000E+00 -0.12030748990E+04  0.12030748990E+04  0.25500000920E-02 0.  1.
    10030    2    1    2    0    0  0.00000000000E+00  0.00000000000E+00 -0.85151810199E+03  0.15546316960E+04  0.13006908289E+04 0.  0.
        1    1    3    3  502    0  0.11251871945E+03 -0.63696079043E+03 -0.50655596619E+03  0.82157072591E+03  0.50400001928E-02 0. -1.
       -1    1    3    3    0  502 -0.11251871945E+03  0.63696079043E+03 -0.34496213580E+03  0.73306097013E+03  0.50400001928E-02 0.  1.
</event>
<event>
 5   0  0.1103241E-03  0.1305170E+04  0.7818609E-02  0.9025476E-01
        2   -1    0    0  501    0  0.00000000000E+00  0.00000000000E+00  0.16215863323E+04  0.16215863323E+04  0.25500000920E-02 0. -1.
       -2   -1    0    0    0  501  0.00000000000E+00  0.00000000000E+00 -0.26262367499E+03  0.26262367500E+03  0.25500000920E-02 0.  1.
    10030    2    1    2    0    0  0.00000000000E+00  0.00000000000E+00  0.13589626573E+04  0.18842100073E+04  0.13051696624E+04 0.  0.
        4    1    3    3  502    0  0.10060894260E+03  0.63989212265E+03  0.79389706431E+03  0.10246259071E+04  0.12699999809E+01 0. -1.
       -4    1    3    3    0  502 -0.10060894260E+03 -0.63989212265E+03  0.56506559299E+03  0.85958410016E+03  0.12699999809E+01 0.  1.
</event>
<event>
 5   0  0.5766027E-04  0.1294065E+04  0.7818609E-02  0.9034285E-01
       -1   -1    0    0    0  501  0.00000000000E+00  0.00000000000E+00  0.49825055325E+03  0.49825055327E+03  0.50400001928E-02 0.  1.
        1   -1    0    0  501    0  0.00000000000E+00  0.00000000000E+00 -0.84024262654E+03  0.84024262655E+03  0.50400001928E-02 0. -1.
    10030    2    1    2    0    0  0.00000000000E+00  0.00000000000E+00 -0.34199207329E+03  0.13384931798E+04  0.12940654598E+04 0.  0.
        3    1    3    3  502    0  0.62136592552E+03 -0.18020697049E+03 -0.18031523237E+03  0.67162769362E+03  0.10100000352E+00 0. -1.
       -3    1    3    3    0  502 -0.62136592552E+03  0.18020697049E+03 -0.16167684092E+03  0.66686548621E+03  0.10100000352E+00 0.  1.
</event>
<event>
 5   0  0.1046253E-03  0.1299161E+04  0.7818609E-02  0.9030231E-01
        2   -1    0    0  501    0  0.00000000000E+00  0.00000000000E+00  0.12565574268E+04  0.12565574268E+04  0.25500000920E-02 0.  1.
       -2   -1    0    0    0  501  0.00000000000E+00  0.00000000000E+00 -0.33580204813E+03  0.33580204814E+03  0.25500000920E-02 0. -1.
    10030    2    1    2    0    0  0.00000000000E+00  0.00000000000E+00  0.92075537865E+03  0.15923594749E+04  0.12991605867E+04 0.  0.
        3    1    3    3  502    0  0.36864247344E+03  0.49442415014E+03  0.21038024947E+03  0.65162287639E+03  0.10100000352E+00 0. -1.
       -3    1    3    3    0  502 -0.36864247344E+03 -0.49442415014E+03  0.71037512918E+03  0.94073659853E+03  0.10100000352E+00 0.  1.
</event>
<event>
 5   0  0.5766027E-04  0.1299267E+04  0.7818609E-02  0.9030147E-01
       -1   -1    0    0    0  501  0.00000000000E+00  0.00000000000E+00  0.42953710063E+03  0.42953710066E+03  0.50400001928E-02 0.  1.
        1   -1    0    0  501    0  0.00000000000E+00  0.00000000000E+00 -0.98250737926E+03  0.98250737927E+03  0.50400001928E-02 0. -1.
    10030    2    1    2    0    0  0.00000000000E+00  0.00000000000E+00 -0.55297027863E+03  0.14120444799E+04  0.12992665178E+04 0.  0.
        3    1    3    3  502    0  0.17623527752E+03 -0.15287144997E+03 -0.93540836330E+03  0.96406294898E+03  0.10100000352E+00 0. -1.
       -3    1    3    3    0  502 -0.17623527752E+03  0.15287144997E+03  0.38243808468E+03  0.44798153095E+03  0.10100000352E+00 0.  1.
</event>
<event>
 5   0  0.5563545E-04  0.1305681E+04  0.7818609E-02  0.9025072E-01
       -1   -1    0    0    0  501  0.00000000000E+00  0.00000000000E+00  0.28717023031E+03  0.28717023035E+03  0.50400001928E-02 0. -1.
        1   -1    0    0  501    0  0.00000000000E+00  0.00000000000E+00 -0.14841389134E+04  0.14841389134E+04  0.50400001928E-02 0.  1.
    10030    2    1    2    0    0  0.00000000000E+00  0.00000000000E+00 -0.11969686830E+04  0.17713091437E+04  0.13056806862E+04 0.  0.
        2    1    3    3  502    0 -0.29858790066E+03 -0.33319063989E+03 -0.12434553782E+04  0.13214961273E+04  0.25500000920E-02 0.  1.
       -2    1    3    3    0  502  0.29858790066E+03  0.33319063989E+03  0.46486695112E+02  0.44981301644E+03  0.25500000920E-02 0. -1.
</event>
<event>
 5   0  0.1031295E-03  0.1299877E+04  0.7818609E-02  0.9029663E-01
        2   -1    0    0  501    0  0.00000000000E+00  0.00000000000E+00  0.10640272396E+04  0.10640272396E+04  0.25500000920E-02 0.  1.
       -2   -1    0    0    0  501  0.00000000000E+00  0.00000000000E+00 -0.39700115996E+03  0.39700115996E+03  0.25500000920E-02 0. -1.
    10030    2    1    2    0    0  0.00000000000E+00  0.00000000000E+00  0.66702607965E+03  0.14610283996E+04  0.12998769917E+04 0.  0.
        2    1    3    3  502    0 -0.64285150986E+03 -0.58205475338E+02  0.41892109352E+03  0.76950687046E+03  0.25500000920E-02 0.  1.
       -2    1    3    3    0  502  0.64285150986E+03  0.58205475338E+02  0.24810498614E+03  0.69152152912E+03  0.25500000920E-02 0. -1.
</event>
<event>
 5   0  0.5812938E-04  0.1294440E+04  0.7818609E-02  0.9033986E-01
       -1   -1    0    0    0  501  0.00000000000E+00  0.00000000000E+00  0.14614533460E+04  0.14614533460E+04  0.50400001928E-02 0.  1.
        1   -1    0    0  501    0  0.00000000000E+00  0.00000000000E+00 -0.28662812159E+03  0.28662812164E+03  0.50400001928E-02 0. -1.
    10030    2    1    2    0    0  0.00000000000E+00  0.00000000000E+00  0.11748252244E+04  0.17480814676E+04  0.12944398440E+04 0.  0.
        5    1    3    3  502    0 -0.50589904311E+03 -0.36740927936E+03  0.36164789397E+03  0.72231205831E+03  0.46999998093E+01 0. -1.
       -5    1    3    3    0  502  0.50589904311E+03  0.36740927936E+03  0.81317733045E+03  0.10257694093E+04  0.46999998093E+01 0.  1.
</event>
<event>
 5   0  0.5710383E-04  0.1279878E+04  0.7818609E-02  0.9045676E-01
        1   -1    0    0  501    0  0.00000000000E+00  0.00000000000E+00  0.70354801150E+03  0.70354801152E+03  0.50400001928E-02 0.  1.
       -1   -1    0    0    0  501  0.00000000000E+00  0.00000000000E+00 -0.58208074681E+03  0.58208074683E+03  0.50400001928E-02 0. -1.
    10030    2    1    2    0    0  0.00000000000E+00  0.00000000000E+00  0.12146726470E+03  0.12856287584E+04  0.12798777316E+04 0.  0.
        1    1    3    3  502    0 -0.21732800419E+03 -0.12599517910E+03  0.65194905817E+03  0.69867289988E+03  0.50400001928E-02 0.  1.
       -1    1    3    3    0  502  0.21732800419E+03  0.12599517910E+03 -0.53048179347E+03  0.58695585847E+03  0.50400001928E-02 0. -1.
</event>
<event>
 5   0  0.1103241E-03  0.1329244E+04  0.7818609E-02  0.9006691E-01
       -2   -1    0    0    0  501  0.00000000000E+00  0.00000000000E+00  0.30439739506E+03  0.30439739507E+03  0.25500000920E-02 0.  1.
        2   -1    0    0  501    0  0.00000000000E+00  0.00000000000E+00 -0.14511365845E+04  0.14511365845E+04  0.25500000920E-02 0. -1.
    10030    2    1    2    0    0  0.00000000000E+00  0.00000000000E+00 -0.11467391895E+04  0.17555339796E+04  0.13292436890E+04 0.  0.
        4    1    3    3  502    0  0.25409714674E+03  0.40736253037E+03 -0.11803335362E+04  0.12742442704E+04  0.12699999809E+01 0. -1.
       -4    1    3    3    0  502 -0.25409714674E+03 -0.40736253037E+03  0.33594346720E+02  0.48128970918E+03  0.12699999809E+01 0.  1.
</event>
<event>
 5   0  0.5710383E-04  0.1308558E+04  0.7818609E-02  0.9022806E-01
        1   -1    0    0  501    0  0.00000000000E+00  0.00000000000E+00  0.37346873037E+03  0.37346873041E+03  0.50400001928E-02 0.  1.
       -1   -1    0    0    0  501  0.00000000000E+00  0.00000000000E+00 -0.11462306889E+04  0.11462306889E+04  0.50400001928E-02 0. -1.
    10030    2    1    2    0    0  0.00000000000E+00  0.00000000000E+00 -0.77276195853E+03  0.15196994193E+04  0.13085584743E+04 0.  0.
        1    1    3    3  502    0  0.37879012718E+03 -0.25617133194E+03 -0.92983453424E+03  0.10361939842E+04  0.50400001928E-02 0. -1.
       -1    1    3    3    0  502 -0.37879012718E+03  0.25617133194E+03  0.15707257571E+03  0.48350543515E+03  0.50400001928E-02 0.  1.
</event>
<event>
 5   0  0.1103241E-03  0.1287724E+04  0.7818609E-02  0.9039357E-01
       -2   -1    0    0    0  501  0.00000000000E+00  0.00000000000E+00  0.18692678124E+03  0.18692678126E+03  0.25500000920E-02 0.  1.
        2   -1    0    0  501    0  0.00000000000E+00  0.00000000000E+00 -0.22177565001E+04  0.22177565001E+04  0.25500000920E-02 0. -1.
    10030    2    1    2    0    0  0.00000000000E+00  0.00000000000E+00 -0.20308297188E+04  0.24046832813E+04  0.12877237035E+04 0.  0.
        4    1    3    3  502    0 -0.23832665275E+03  0.57924109010E+03 -0.73695041464E+03  0.96716976815E+03  0.12699999809E+01 0.  1.
       -4    1    3    3    0  502  0.23832665275E+03 -0.57924109010E+03 -0.12938793042E+04  0.14375135132E+04  0.12699999809E+01 0. -1.
</event>
<event>
 5   0  0.1081574E-03  0.1265243E+04  0.7818609E-02  0.9057591E-01
       -2   -1    0    0    0  501  0.00000000000E+00  0.00000000000E+00  0.41983328649E+03  0.41983328650E+03  0.25500000920E-02 0. -1.
        2   -1    0    0  501    0  0.00000000000E+00  0.00000000000E+00 -0.95325935209E+03  0.95325935209E+03  0.25500000920E-02 0.  1.
    10030    2    1    2    0    0  0.00000000000E+00  0.00000000000E+00 -0.53342606560E+03  0.13730926386E+04  0.12652430702E+04 0.  0.
        5    1    3    3  502    0 -0.11534879334E+03 -0.54800847188E+03 -0.58601955717E+03  0.81059215439E+03  0.46999998093E+01 0.  1.
       -5    1    3    3    0  502  0.11534879334E+03  0.54800847188E+03  0.52593491569E+02  0.56250048420E+03  0.46999998093E+01 0. -1.
</event>
<event>
 5   0  0.6006119E-04  0.1293370E+04  0.7818609E-02  0.9034839E-01
       -1   -1    0    0    0  501  0.00000000000E+00  0.00000000000E+00  0.48403755236E+03  0.48403755239E+03  0.50400001928E-02 0. -1.
        1   -1    0    0  501    0  0.00000000000E+00  0.00000000000E+00 -0.86398626978E+03  0.86398626980E+03  0.50400001928E-02 0.  1.
    10030    2    1    2    0    0  0.00000000000E+00  0.00000000000E+00 -0.37994871742E+03  0.13480238222E+04  0.12933704795E+04 0.  0.
        4    1    3    3  502    0  0.69498911808E+02  0.44792753034E+03  0.29074324847E+03  0.53851872819E+03  0.12699999809E+01 0. -1.
       -4    1    3    3    0  502 -0.69498911808E+02 -0.44792753034E+03 -0.67069196590E+03  0.80950509399E+03  0.12699999809E+01 0.  1.
</event>
<event>
 5   0  0.1081574E-03  0.1298595E+04  0.7818609E-02  0.9030680E-01
        2   -1    0    0  501    0  0.00000000000E+00  0.00000000000E+00  0.28758995098E+04  0.28758995098E+04  0.25500000920E-02 0.  1.
       -2   -1    0    0    0  501  0.00000000000E+00  0.00000000000E+00 -0.14659323457E+03  0.14659323459E+03  0.25500000920E-02 0. -1.
    10030    2    1    2    0    0  0.00000000000E+00  0.00000000000E+00  0.27293062752E+04  0.30224927444E+04  0.12985952587E+04 0.  0.
        5    1    3    3  502    0  0.57528161091E+03 -0.15033835991E+03  0.75764702853E+03  0.96312079416E+03  0.46999998093E+01 0. -1.
       -5    1    3    3    0  502 -0.57528161091E+03  0.15033835991E+03  0.19716592467E+04  0.20593719502E+04  0.46999998093E+01 0.  1.
</event>
<event>
 5   0  0.5563545E-04  0.1295357E+04  0.7818609E-02  0.9033255E-01
        1   -1    0    0  501    0  0.00000000000E+00  0.00000000000E+00  0.43142796327E+03  0.43142796330E+03  0.50400001928E-02 0. -1.
       -1   -1    0    0    0  501  0.00000000000E+00  0.00000000000E+00 -0.97232355883E+03  0.97232355884E+03  0.50400001928E-02 0.  1.
    10030    2    1    2    0    0  0.00000000000E+00  0.00000000000E+00 -0.54089559556E+03  0.14037515221E+04  0.12953572058E+04 0.  0.
        2    1    3    3  502    0 -0.61327608125E+02  0.46566468961E+03  0.21283285604E+03  0.51565735065E+03  0.25500000920E-02 0. -1.
       -2    1    3    3    0  502  0.61327608125E+02 -0.46566468961E+03 -0.75372845160E+03  0.88809417148E+03  0.25500000920E-02 0.  1.
</event>
<event>
 5   0  0.1031295E-03  0.1299313E+04  0.7818609E-02  0.9030111E-01
        2   -1    0    0  501    0  0.00000000000E+00  0.00000000000E+00  0.43087905469E+03  0.43087905470E+03  0.25500000920E-02 0. -1.
       -2   -1    0    0    0  501  0.00000000000E+00  0.00000000000E+00 -0.97951677425E+03  0.97951677425E+03  0.25500000920E-02 0.  1.
    10030    2    1    2    0    0  0.00000000000E+00  0.00000000000E+00 -0.54863771956E+03  0.14103958290E+04  0.12993125286E+04 0.  0.
        2    1    3    3  502    0 -0.60122150905E+03 -0.24418639852E+03 -0.30793346311E+03  0.71827384603E+03  0.25500000920E-02 0.  1.
       -2    1    3    3    0  502  0.60122150905E+03  0.24418639852E+03 -0.24070425644E+03  0.69212198293E+03  0.25500000920E-02 0. -1.
</event>
<event>
 5   0  0.5766027E-04  0.1303198E+04  0.7818609E-02  0.9027033E-01
        1   -1    0    0  501    0  0.00000000000E+00  0.00000000000E+00  0.10920765606E+04  0.10920765606E+04  0.50400001928E-02 0.  1.
       -1   -1    0    0    0  501  0.00000000000E+00  0.00000000000E+00 -0.38878316722E+03  0.38878316725E+03  0.50400001928E-02 0. -1.
    10030    2    1    2    0    0  0.00000000000E+00  0.00000000000E+00  0.70329339336E+03  0.14808597278E+04  0.13031975815E+04 0.  0.
        3    1    3    3  502    0 -0.57330628400E+03 -0.28320216207E+03  0.20927694950E+03  0.67281528792E+03  0.10100000352E+00 0. -1.
       -3    1    3    3    0  502  0.57330628400E+03  0.28320216207E+03  0.49401644386E+03  0.80804443991E+03  0.10100000352E+00 0.  1.
</event>
</LesHouchesEvents>
