<LesHouchesEvents version="3.0">
<header>
<!--
#*********************************************************************
#                                                                    *
#                        MadGraph5_aMC@NLO                           *
#                                                                    *
#                           Going Beyond                             *
#                                                                    *
#                   http://madgraph.hep.uiuc.edu                     *
#                   http://madgraph.phys.ucl.ac.be                   *
#                   http://amcatnlo.cern.ch                          *
#                                                                    *
#                     The MadGraph5_aMC@NLO team                     *
#                                                                    *
#....................................................................*
#                                                                    *
# This file contains all the information necessary to reproduce      *
# the events generated:                                              *
#                                                                    *
# 1. software version                                                *
# 2. proc_card          : code generation info including model       *
# 3. param_card         : model primary parameters in the LH format  *
# 4. run_card           : running parameters (collider and cuts)     *
# 5. pythia_card        : present only if pythia has been run        *
# 6. pgs_card           : present only if pgs has been run           *
# 7. delphes_cards      : present only if delphes has been run       *
#                                                                    *
#                                                                    *
#*********************************************************************
-->
<MGVersion>
#5.2.2.3
</MGVersion>
<MG5ProcCard>
#************************************************************
#*                     MadGraph5_aMC@NLO                    *
#*                                                          *
#*                *                       *                 *
#*                  *        * *        *                   *
#*                    * * * * 5 * * * *                     *
#*                  *        * *        *                   *
#*                *                       *                 *
#*                                                          *
#*                                                          *
#*         VERSION 2.2.3                 2015-02-10         *
#*                                                          *
#*    The MadGraph5_aMC@NLO Development Team - Find us at   *
#*    https://server06.fynu.ucl.ac.be/projects/madgraph     *
#*                                                          *
#************************************************************
#*                                                          *
#*               Command File for MadGraph5_aMC@NLO         *
#*                                                          *
#*     run as ./bin/mg5_aMC  filename                       *
#*                                                          *
#************************************************************
set group_subprocesses Auto
set ignore_six_quark_processes False
set loop_optimized_output True
set gauge unitary
set complex_mass_scheme False
import model sm
define p = g u c d s u~ c~ d~ s~
define j = g u c d s u~ c~ d~ s~
define l+ = e+ mu+
define l- = e- mu-
define vl = ve vm vt
define vl~ = ve~ vm~ vt~
import model Zprime_UFO
generate p p > zph, zph > j j
add process p p > zph, zph > b b~
output Dijet_signal
</MG5ProcCard>
<MGProcCard>
#*********************************************************************
#                        MadGraph/MadEvent                           *
#                   http://madgraph.hep.uiuc.edu                     *
#                                                                    *
#                          proc_card.dat                             *
#*********************************************************************
#                                                                    *
#            This Files is generated by MADGRAPH 5                   *
#                                                                    *
# WARNING: This Files is generated for MADEVENT (compatibility issue)*
#          This files is NOT a valid MG4 proc_card.dat               *
#          Running this in MG4 will NEVER reproduce the result of MG5*
#                                                                    *
#*********************************************************************
#*********************************************************************
# Process(es) requested : mg2 input                                  *
#*********************************************************************
# Begin PROCESS # This is TAG. Do not modify this line
p p > zph , zph > j j           #Process
# Be carefull the coupling are here in MG5 convention
          
end_coup           # End the couplings input

done               # this tells MG there are no more procs
# End PROCESS  # This is TAG. Do not modify this line
#*********************************************************************
# Model information                                                  *
#*********************************************************************
# Begin MODEL  # This is TAG. Do not modify this line
Zprime_UFO
# End   MODEL  # This is TAG. Do not modify this line
#*********************************************************************
# Start multiparticle definitions                                    *
#*********************************************************************
# Begin MULTIPARTICLES # This is TAG. Do not modify this line

# End  MULTIPARTICLES # This is TAG. Do not modify this line
</MGProcCard>
<MGRunCard>
#*********************************************************************
#                       MadGraph5_aMC@NLO                            *
#                                                                    *
#                     run_card.dat MadEvent                          *
#                                                                    *
#  This file is used to set the parameters of the run.               *
#                                                                    *
#  Some notation/conventions:                                        *
#                                                                    *
#   Lines starting with a '# ' are info or comments                  *
#                                                                    *
#   mind the format:   value    = variable     ! comment             *
#*********************************************************************
#
#*******************                                                 
# Running parameters
#*******************                                                 
#                                                                    
#*********************************************************************
# Tag name for the run (one word)                                    *
#*********************************************************************
  tag_1     = run_tag ! name of the run 
#*********************************************************************
# Run to generate the grid pack                                      *
#*********************************************************************
  .false.     = gridpack  !True = setting up the grid pack
#*********************************************************************
# Number of events and rnd seed                                      *
# Warning: Do not generate more than 1M events in a single run       *
# If you want to run Pythia, avoid more than 50k events in a run.    *
#*********************************************************************
  2000 = nevents ! Number of unweighted events requested 
 2127 = iseed   ! rnd seed (0=assigned automatically=default))
#*********************************************************************
# Collider type and energy                                           *
# lpp: 0=No PDF, 1=proton, -1=antiproton, 2=photon from proton,      *
#                                         3=photon from electron     *
#*********************************************************************
        1     = lpp1    ! beam 1 type 
        1     = lpp2    ! beam 2 type
     4000     = ebeam1  ! beam 1 total energy in GeV
     4000     = ebeam2  ! beam 2 total energy in GeV
#*********************************************************************
# Beam polarization from -100 (left-handed) to 100 (right-handed)    *
#*********************************************************************
        0     = polbeam1 ! beam polarization for beam 1
        0     = polbeam2 ! beam polarization for beam 2
#*********************************************************************
# PDF CHOICE: this automatically fixes also alpha_s and its evol.    *
#*********************************************************************
 'nn23lo1'    = pdlabel     ! PDF set                                     
 230000    = lhaid     ! if pdlabel=lhapdf, this is the lhapdf number
#*********************************************************************
# Renormalization and factorization scales                           *
#*********************************************************************
 F        = fixed_ren_scale  ! if .true. use fixed ren scale
 F        = fixed_fac_scale  ! if .true. use fixed fac scale
 91.1880  = scale            ! fixed ren scale
 91.1880  = dsqrt_q2fact1    ! fixed fact scale for pdf1
 91.1880  = dsqrt_q2fact2    ! fixed fact scale for pdf2
 1        = scalefact        ! scale factor for event-by-event scales
#*********************************************************************
# Matching - Warning! ickkw > 1 is still beta
#*********************************************************************
 0        = ickkw            ! 0 no matching, 1 MLM, 2 CKKW matching
 1        = highestmult      ! for ickkw=2, highest mult group
 1        = ktscheme         ! for ickkw=1, 1 Durham kT, 2 Pythia pTE
 1        = alpsfact         ! scale factor for QCD emission vx
 F        = chcluster        ! cluster only according to channel diag
 T        = pdfwgt           ! for ickkw=1, perform pdf reweighting
 5        = asrwgtflavor     ! highest quark flavor for a_s reweight
 T        = clusinfo         ! include clustering tag in output
 3.0      = lhe_version       ! Change the way clustering information pass to shower.        
#*********************************************************************
#**********************************************************
#
#**********************************************************
# Automatic ptj and mjj cuts if xqcut > 0
# (turn off for VBF and single top processes)
#**********************************************************
   T  = auto_ptj_mjj  ! Automatic setting of ptj and mjj
#**********************************************************
#                                                                    
#**********************************
# BW cutoff (M+/-bwcutoff*Gamma)
#**********************************
  15  = bwcutoff      ! (M+/-bwcutoff*Gamma)
#**********************************************************
# Apply pt/E/eta/dr/mij cuts on decay products or not
# (note that etmiss/ptll/ptheavy/ht/sorted cuts always apply)
#**********************************************************
   T  = cut_decays    ! Cut decay products 
#*************************************************************
# Number of helicities to sum per event (0 = all helicities)
# 0 gives more stable result, but longer run time (needed for
# long decay chains e.g.).
# Use >=2 if most helicities contribute, e.g. pure QCD.
#*************************************************************
   0  = nhel          ! Number of helicities used per event
#*******************                                                 
# Standard Cuts
#*******************                                                 
#                                                                    
#*********************************************************************
# Minimum and maximum pt's (for max, -1 means no cut)                *
#*********************************************************************
 20  = ptj       ! minimum pt for the jets 
  0  = ptb       ! minimum pt for the b 
 10  = pta       ! minimum pt for the photons 
 10  = ptl       ! minimum pt for the charged leptons 
  0  = misset    ! minimum missing Et (sum of neutrino's momenta)
  0  = ptheavy   ! minimum pt for one heavy final state
 1.0 = ptonium   ! minimum pt for the quarkonium states
 -1  = ptjmax    ! maximum pt for the jets
 -1  = ptbmax    ! maximum pt for the b
 -1  = ptamax    ! maximum pt for the photons
 -1  = ptlmax    ! maximum pt for the charged leptons
 -1  = missetmax ! maximum missing Et (sum of neutrino's momenta)
#*********************************************************************
# Minimum and maximum E's (in the center of mass frame)              *
#*********************************************************************
  0  = ej     ! minimum E for the jets 
  0  = eb     ! minimum E for the b 
  0  = ea     ! minimum E for the photons 
  0  = el     ! minimum E for the charged leptons 
 -1   = ejmax ! maximum E for the jets
 -1   = ebmax ! maximum E for the b
 -1   = eamax ! maximum E for the photons
 -1   = elmax ! maximum E for the charged leptons
#*********************************************************************
# Maximum and minimum absolute rapidity (for max, -1 means no cut)   *
#*********************************************************************
   5  = etaj    ! max rap for the jets 
  -1  = etab    ! max rap for the b
 2.5  = etaa    ! max rap for the photons 
 2.5  = etal    ! max rap for the charged leptons 
 0.6  = etaonium ! max rap for the quarkonium states
   0  = etajmin ! min rap for the jets
   0  = etabmin ! min rap for the b
   0  = etaamin ! min rap for the photons
   0  = etalmin ! main rap for the charged leptons
#*********************************************************************
# Minimum and maximum DeltaR distance                                *
#*********************************************************************
 0.4 = drjj    ! min distance between jets 
 0   = drbb    ! min distance between b's 
 0.4 = drll    ! min distance between leptons 
 0.4 = draa    ! min distance between gammas 
 0   = drbj    ! min distance between b and jet 
 0.4 = draj    ! min distance between gamma and jet 
 0.4 = drjl    ! min distance between jet and lepton 
 0   = drab    ! min distance between gamma and b 
 0   = drbl    ! min distance between b and lepton 
 0.4 = dral    ! min distance between gamma and lepton 
 -1  = drjjmax ! max distance between jets
 -1  = drbbmax ! max distance between b's
 -1  = drllmax ! max distance between leptons
 -1  = draamax ! max distance between gammas
 -1  = drbjmax ! max distance between b and jet
 -1  = drajmax ! max distance between gamma and jet
 -1  = drjlmax ! max distance between jet and lepton
 -1  = drabmax ! max distance between gamma and b
 -1  = drblmax ! max distance between b and lepton
 -1  = dralmax ! maxdistance between gamma and lepton
#*********************************************************************
# Minimum and maximum invariant mass for pairs                       *
# WARNING: for four lepton final state mmll cut require to have      *
#          different lepton masses for each flavor!                  *           
#*********************************************************************
 0   = mmjj    ! min invariant mass of a jet pair 
 0   = mmbb    ! min invariant mass of a b pair 
 0   = mmaa    ! min invariant mass of gamma gamma pair
 0   = mmll    ! min invariant mass of l+l- (same flavour) lepton pair
 -1  = mmjjmax ! max invariant mass of a jet pair
 -1  = mmbbmax ! max invariant mass of a b pair
 -1  = mmaamax ! max invariant mass of gamma gamma pair
 -1  = mmllmax ! max invariant mass of l+l- (same flavour) lepton pair
#*********************************************************************
# Minimum and maximum invariant mass for all letpons                 *
#*********************************************************************
 0   = mmnl    ! min invariant mass for all letpons (l+- and vl) 
 -1  = mmnlmax ! max invariant mass for all letpons (l+- and vl) 
#*********************************************************************
# Minimum and maximum pt for 4-momenta sum of leptons                *
#*********************************************************************
 0   = ptllmin  ! Minimum pt for 4-momenta sum of leptons(l and vl)
 -1  = ptllmax  ! Maximum pt for 4-momenta sum of leptons(l and vl)
#*********************************************************************
# Inclusive cuts                                                     *
#*********************************************************************
 0  = xptj ! minimum pt for at least one jet  
 0  = xptb ! minimum pt for at least one b 
 0  = xpta ! minimum pt for at least one photon 
 0  = xptl ! minimum pt for at least one charged lepton 
#*********************************************************************
# Control the pt's of the jets sorted by pt                          *
#*********************************************************************
 0   = ptj1min ! minimum pt for the leading jet in pt
 0   = ptj2min ! minimum pt for the second jet in pt
 0   = ptj3min ! minimum pt for the third jet in pt
 0   = ptj4min ! minimum pt for the fourth jet in pt
 -1  = ptj1max ! maximum pt for the leading jet in pt 
 -1  = ptj2max ! maximum pt for the second jet in pt
 -1  = ptj3max ! maximum pt for the third jet in pt
 -1  = ptj4max ! maximum pt for the fourth jet in pt
 0   = cutuse  ! reject event if fails any (0) / all (1) jet pt cuts
#*********************************************************************
# Control the pt's of leptons sorted by pt                           *
#*********************************************************************
 0   = ptl1min ! minimum pt for the leading lepton in pt
 0   = ptl2min ! minimum pt for the second lepton in pt
 0   = ptl3min ! minimum pt for the third lepton in pt
 0   = ptl4min ! minimum pt for the fourth lepton in pt
 -1  = ptl1max ! maximum pt for the leading lepton in pt 
 -1  = ptl2max ! maximum pt for the second lepton in pt
 -1  = ptl3max ! maximum pt for the third lepton in pt
 -1  = ptl4max ! maximum pt for the fourth lepton in pt
#*********************************************************************
# Control the Ht(k)=Sum of k leading jets                            *
#*********************************************************************
 0   = htjmin ! minimum jet HT=Sum(jet pt)
 -1  = htjmax ! maximum jet HT=Sum(jet pt)
 0   = ihtmin  !inclusive Ht for all partons (including b)
 -1  = ihtmax  !inclusive Ht for all partons (including b)
 0   = ht2min ! minimum Ht for the two leading jets
 0   = ht3min ! minimum Ht for the three leading jets
 0   = ht4min ! minimum Ht for the four leading jets
 -1  = ht2max ! maximum Ht for the two leading jets
 -1  = ht3max ! maximum Ht for the three leading jets
 -1  = ht4max ! maximum Ht for the four leading jets
#***********************************************************************
# Photon-isolation cuts, according to hep-ph/9801442                   *
# When ptgmin=0, all the other parameters are ignored                  *
# When ptgmin>0, pta and draj are not going to be used                 *
#***********************************************************************
   0 = ptgmin ! Min photon transverse momentum
 0.4 = R0gamma ! Radius of isolation code
 1.0 = xn ! n parameter of eq.(3.4) in hep-ph/9801442
 1.0 = epsgamma ! epsilon_gamma parameter of eq.(3.4) in hep-ph/9801442
 .true. = isoEM ! isolate photons from EM energy (photons and leptons)
#*********************************************************************
# WBF cuts                                                           *
#*********************************************************************
 0   = xetamin ! minimum rapidity for two jets in the WBF case  
 0   = deltaeta ! minimum rapidity for two jets in the WBF case 
#*********************************************************************
# KT DURHAM CUT                                                      *
#*********************************************************************
 -1    =  ktdurham        
 0.4  =  dparameter 
#*********************************************************************
# maximal pdg code for quark to be considered as a light jet         *
# (otherwise b cuts are applied)                                     *
#*********************************************************************
 4 = maxjetflavor    ! Maximum jet pdg code
#*********************************************************************
# Jet measure cuts                                                   *
#*********************************************************************
 0   = xqcut   ! minimum kt jet measure between partons
#*********************************************************************
#
#*********************************************************************
# Store info for systematics studies                                 *
# WARNING: If use_syst is T, matched Pythia output is                *
#          meaningful ONLY if plotted taking matchscale              *
#          reweighting into account!                                 *
#*********************************************************************
   F  = use_syst      ! Enable systematics studies
#
#**************************************
# Parameter of the systematics study
#  will be used by SysCalc (if installed)
#**************************************                                  
#
0.5 1 2 = sys_scalefact  # factorization/renormalization scale factor
0.5 1 2 = sys_alpsfact  # \alpha_s emission scale factors
30 50 = sys_matchscale # variation of merging scale
# PDF sets and number of members (0 or none for all members).
CT10nlo.LHgrid = sys_pdf # matching scales
# MSTW2008nlo68cl.LHgrid 1  = sys_pdf
</MGRunCard>
<slha>
######################################################################
## PARAM_CARD AUTOMATICALY GENERATED BY MG5 FOLLOWING UFO MODEL   ####
######################################################################
##                                                                  ##
##  Width set on Auto will be computed following the information    ##
##        present in the decay.py files of the model.               ##
##        See  arXiv:1402.1178 for more details.                    ##
##                                                                  ##
######################################################################

###################################
## INFORMATION FOR CKMBLOCK
###################################
Block ckmblock 
    1 2.277360e-01 # cabi 

###################################
## INFORMATION FOR FRBLOCK
###################################
Block frblock 
    1 1.200000e+00 # gz 

###################################
## INFORMATION FOR MASS
###################################
Block mass 
    1 5.040000e-03 # MD 
    2 2.550000e-03 # MU 
    3 1.010000e-01 # MS 
    4 1.270000e+00 # MC 
    5 4.700000e+00 # MB 
    6 1.720000e+02 # MT 
   11 5.110000e-04 # Me 
   13 1.056600e-01 # MM 
   15 1.777000e+00 # MTA 
   23 9.118760e+01 # MZ 
   25 1.200000e+02 # MH 
  10030 6.000000e+02 # MZph 
  10031 3.000000e+02 # MZpl 
## Dependent parameters, given by model restrictions.
## Those values should be edited following the 
## analytical expression. MG5 ignores those values 
## but they are important for interfacing the output of MG5
## to external program such as Pythia.
  12 0.000000 # ve : 0.0 
  14 0.000000 # vm : 0.0 
  16 0.000000 # vt : 0.0 
  21 0.000000 # g : 0.0 
  22 0.000000 # a : 0.0 
  24 79.824360 # w+ : cmath.sqrt(MZ__exp__2/2. + cmath.sqrt(MZ__exp__4/4. - (aEW*cmath.pi*MZ__exp__2)/(Gf*sqrt__2))) 

###################################
## INFORMATION FOR SMINPUTS
###################################
Block sminputs 
    1 1.279000e+02 # aEWM1 
    2 1.166370e-05 # Gf 
    3 1.184000e-01 # aS 

###################################
## INFORMATION FOR YUKAWA
###################################
Block yukawa 
    1 5.040000e-03 # ymdo 
    2 2.550000e-03 # ymup 
    3 1.010000e-01 # yms 
    4 1.270000e+00 # ymc 
    5 4.700000e+00 # ymb 
    6 1.720000e+02 # ymt 
   11 5.110000e-04 # yme 
   13 1.056600e-01 # ymm 
   15 1.777000e+00 # ymtau 

###################################
## INFORMATION FOR DECAY
###################################
DECAY   6 1.508336e+00 # WT 
DECAY  23 2.495200e+00 # WZ 
DECAY  24 2.085000e+00 # WW 
DECAY  25 5.753088e-03 # WH 
## Dependent parameters, given by model restrictions.
## Those values should be edited following the 
## analytical expression. MG5 ignores those values 
## but they are important for interfacing the output of MG5
## to external program such as Pythia.
DECAY  1 0.000000 # d : 0.0 
DECAY  2 0.000000 # u : 0.0 
DECAY  3 0.000000 # s : 0.0 
DECAY  4 0.000000 # c : 0.0 
DECAY  5 0.000000 # b : 0.0 
DECAY  11 0.000000 # e- : 0.0 
DECAY  12 0.000000 # ve : 0.0 
DECAY  13 0.000000 # mu- : 0.0 
DECAY  14 0.000000 # vm : 0.0 
DECAY  15 0.000000 # ta- : 0.0 
DECAY  16 0.000000 # vt : 0.0 
DECAY  21 0.000000 # g : 0.0 
DECAY  22 0.000000 # a : 0.0 
DECAY  10030 0.308725 # zph : (gz__exp__2*MZph*(5 + cmath.sqrt(1 - (4*MT__exp__2)/MZph__exp__2)))/(144.*cmath.pi) 
DECAY  10031 0.132629 # zpl : (5*gz__exp__2*MZpl)/(144.*cmath.pi) 
#===========================================================
# QUANTUM NUMBERS OF NEW STATE(S) (NON SM PDG CODE)
#===========================================================

Block QNUMBERS 10030  # zph 
        1 0  # 3 times electric charge
        2 3  # number of spin states (2S+1)
        3 1  # colour rep (1: singlet, 3: triplet, 8: octet)
        4 0  # Particle/Antiparticle distinction (0=own anti)
Block QNUMBERS 10031  # zpl 
        1 0  # 3 times electric charge
        2 3  # number of spin states (2S+1)
        3 1  # colour rep (1: singlet, 3: triplet, 8: octet)
        4 0  # Particle/Antiparticle distinction (0=own anti)
</slha>
## END BANNER##
<MGGenerationInfo>
#  Number of Events        :         4230
#  Integrated weight (pb)  :  0.27499E+02
#  Max wgt                 :  0.88175E-02
#  Average wgt             :  0.65009E-02
</MGGenerationInfo>
</header>
<init>
     2212     2212  0.40000000000E+04  0.40000000000E+04 0 0  247000  247000 2   1
  0.27476818375E+02  0.46904134993E-01  0.88175440000E-02   0
</init>
<event>
 5   0  0.8207443E-02  0.6108279E+03  0.7818609E-02  0.9883193E-01
        2   -1    0    0  501    0  0.00000000000E+00  0.00000000000E+00  0.87691564034E+03  0.87691564035E+03  0.25500000920E-02 0. -1.
       -2   -1    0    0    0  501  0.00000000000E+00  0.00000000000E+00 -0.10637019345E+03  0.10637019348E+03  0.25500000920E-02 0.  1.
    10030    2    1    2    0    0  0.00000000000E+00  0.00000000000E+00  0.77054544689E+03  0.98328583382E+03  0.61082791789E+03 0.  0.
        1    1    3    3  502    0 -0.81745525491E+02 -0.55429870867E+02 -0.79952921913E+02  0.12707191377E+03  0.50400001928E-02 0.  1.
       -1    1    3    3    0  502  0.81745525491E+02  0.55429870867E+02  0.85049836881E+03  0.85621392005E+03  0.50400001928E-02 0. -1.
</event>
<event>
 5   0  0.3437375E-02  0.6501448E+03  0.7818609E-02  0.9806508E-01
       -3   -1    0    0    0  501  0.00000000000E+00  0.00000000000E+00  0.52508388393E+03  0.52508389365E+03  0.10100000352E+00 0. -1.
        3   -1    0    0  501    0  0.00000000000E+00  0.00000000000E+00 -0.20124791737E+03  0.20124794271E+03  0.10100000352E+00 0.  1.
    10030    2    1    2    0    0  0.00000000000E+00  0.00000000000E+00  0.32383596656E+03  0.72633183636E+03  0.65014475563E+03 0.  0.
        4    1    3    3  502    0  0.12145178509E+03 -0.32643566419E+02 -0.17296605486E+03  0.21385744683E+03  0.12699999809E+01 0.  1.
       -4    1    3    3    0  502 -0.12145178509E+03  0.32643566419E+02  0.49680202143E+03  0.51247438953E+03  0.12699999809E+01 0. -1.
</event>
<event>
 5   0  0.8207443E-02  0.6250465E+03  0.7818609E-02  0.9854763E-01
        2   -1    0    0  501    0  0.00000000000E+00  0.00000000000E+00  0.74426482967E+03  0.74426482967E+03  0.25500000920E-02 0.  1.
       -2   -1    0    0    0  501  0.00000000000E+00  0.00000000000E+00 -0.13123122436E+03  0.13123122439E+03  0.25500000920E-02 0. -1.
    10030    2    1    2    0    0  0.00000000000E+00  0.00000000000E+00  0.61303360530E+03  0.87549605406E+03  0.62504650982E+03 0.  0.
        1    1    3    3  502    0  0.19158700074E+03 -0.17926101795E+03  0.68685287553E+02  0.27121533910E+03  0.50400001928E-02 0. -1.
       -1    1    3    3    0  502 -0.19158700074E+03  0.17926101795E+03  0.54434831775E+03  0.60428071496E+03  0.50400001928E-02 0.  1.
</event>
<event>
 5   0  0.8699746E-02  0.5388745E+03  0.7818609E-02  0.1004102E+00
       -2   -1    0    0    0  501  0.00000000000E+00  0.00000000000E+00  0.92399914341E+02  0.92399914376E+02  0.25500000920E-02 0.  1.
        2   -1    0    0  501    0  0.00000000000E+00  0.00000000000E+00 -0.78567640386E+03  0.78567640386E+03  0.25500000920E-02 0. -1.
    10030    2    1    2    0    0  0.00000000000E+00  0.00000000000E+00 -0.69327648952E+03  0.87807631824E+03  0.53887450277E+03 0.  0.
        3    1    3    3  502    0  0.49942253721E+02  0.28285569026E+02 -0.77559932438E+03  0.77772014523E+03  0.10100000352E+00 0. -1.
       -3    1    3    3    0  502 -0.49942253721E+02 -0.28285569026E+02  0.82322834856E+02  0.10035617301E+03  0.10100000352E+00 0.  1.
</event>
<event>
 5   0  0.8207443E-02  0.5943852E+03  0.7818609E-02  0.9917124E-01
       -2   -1    0    0    0  501  0.00000000000E+00  0.00000000000E+00  0.15893373764E+03  0.15893373766E+03  0.25500000920E-02 0. -1.
        2   -1    0    0  501    0  0.00000000000E+00  0.00000000000E+00 -0.55572484698E+03  0.55572484698E+03  0.25500000920E-02 0.  1.
    10030    2    1    2    0    0  0.00000000000E+00  0.00000000000E+00 -0.39679110934E+03  0.71465858465E+03  0.59438515137E+03 0.  0.
        1    1    3    3  502    0 -0.17813008676E+03 -0.62164323466E+02 -0.47448778136E+03  0.51062058870E+03  0.50400001928E-02 0.  1.
       -1    1    3    3    0  502  0.17813008676E+03  0.62164323466E+02  0.77696672025E+02  0.20403799595E+03  0.50400001928E-02 0. -1.
</event>
<event>
 5   0  0.8699746E-02  0.5747852E+03  0.7818609E-02  0.9959145E-01
       -2   -1    0    0    0  501  0.00000000000E+00  0.00000000000E+00  0.56699850535E+02  0.56699850592E+02  0.25500000920E-02 0.  1.
        2   -1    0    0  501    0  0.00000000000E+00  0.00000000000E+00 -0.14566972928E+04  0.14566972928E+04  0.25500000920E-02 0. -1.
    10030    2    1    2    0    0  0.00000000000E+00  0.00000000000E+00 -0.13999974423E+04  0.15133971434E+04  0.57478524275E+03 0.  0.
        3    1    3    3  502    0  0.39187573060E+02  0.27456087245E+03 -0.89835079260E+03  0.94018801063E+03  0.10100000352E+00 0.  1.
       -3    1    3    3    0  502 -0.39187573060E+02 -0.27456087245E+03 -0.50164664966E+03  0.57320913276E+03  0.10100000352E+00 0. -1.
</event>
<event>
 5   0  0.4987389E-02  0.5882451E+03  0.7818609E-02  0.9930098E-01
        1   -1    0    0  501    0  0.00000000000E+00  0.00000000000E+00  0.16603789916E+04  0.16603789916E+04  0.50400001928E-02 0. -1.
       -1   -1    0    0    0  501  0.00000000000E+00  0.00000000000E+00 -0.52101410632E+02  0.52101410876E+02  0.50400001928E-02 0.  1.
    10030    2    1    2    0    0  0.00000000000E+00  0.00000000000E+00  0.16082775809E+04  0.17124804025E+04  0.58824514570E+03 0.  0.
        1    1    3    3  502    0  0.25765527665E+03 -0.37775764118E+02  0.12021800667E+04  0.12300610402E+04  0.50400001928E-02 0. -1.
       -1    1    3    3    0  502 -0.25765527665E+03  0.37775764118E+02  0.40609751426E+03  0.48241936222E+03  0.50400001928E-02 0.  1.
</event>
<event>
 5   0  0.4881209E-02  0.5971597E+03  0.7818609E-02  0.9911316E-01
       -1   -1    0    0    0  501  0.00000000000E+00  0.00000000000E+00  0.20731524484E+03  0.20731524490E+03  0.50400001928E-02 0.  1.
        1   -1    0    0  501    0  0.00000000000E+00  0.00000000000E+00 -0.43002102321E+03  0.43002102324E+03  0.50400001928E-02 0. -1.
    10030    2    1    2    0    0  0.00000000000E+00  0.00000000000E+00 -0.22270577837E+03  0.63733626814E+03  0.59715965618E+03 0.  0.
        3    1    3    3  502    0 -0.18244294266E+03  0.13406840216E+03  0.96397227945E+02  0.24607356531E+03  0.10100000352E+00 0.  1.
       -3    1    3    3    0  502  0.18244294266E+03 -0.13406840216E+03 -0.31910300631E+03  0.39126270283E+03  0.10100000352E+00 0. -1.
</event>
<event>
 5   0  0.8207443E-02  0.6348293E+03  0.7818609E-02  0.9835670E-01
       -2   -1    0    0    0  501  0.00000000000E+00  0.00000000000E+00  0.10705592189E+03  0.10705592192E+03  0.25500000920E-02 0.  1.
        2   -1    0    0  501    0  0.00000000000E+00  0.00000000000E+00 -0.94111631755E+03  0.94111631756E+03  0.25500000920E-02 0. -1.
    10030    2    1    2    0    0  0.00000000000E+00  0.00000000000E+00 -0.83406039566E+03  0.10481722395E+04  0.63482934716E+03 0.  0.
        1    1    3    3  502    0  0.78428510459E+01  0.58527289087E+02  0.97906950952E+02  0.11433601773E+03  0.50400001928E-02 0.  1.
       -1    1    3    3    0  502 -0.78428510459E+01 -0.58527289087E+02 -0.93196734661E+03  0.93383622175E+03  0.50400001928E-02 0. -1.
</event>
<event>
 5   0  0.3437375E-02  0.5997985E+03  0.7818609E-02  0.9905824E-01
       -4   -1    0    0    0  501  0.00000000000E+00  0.00000000000E+00  0.10189247238E+03  0.10190038678E+03  0.12699999809E+01 0. -1.
        4   -1    0    0  501    0  0.00000000000E+00  0.00000000000E+00 -0.88264820501E+03  0.88264911868E+03  0.12699999809E+01 0.  1.
    10030    2    1    2    0    0  0.00000000000E+00  0.00000000000E+00 -0.78075573263E+03  0.98454950546E+03  0.59979847838E+03 0.  0.
        1    1    3    3  502    0  0.20289758792E+03  0.10684269212E+03 -0.73116778406E+02  0.24068414022E+03  0.50400001928E-02 0. -1.
       -1    1    3    3    0  502 -0.20289758792E+03 -0.10684269212E+03 -0.70763895423E+03  0.74386536524E+03  0.50400001928E-02 0.  1.
</event>
<event>
 5   0  0.8207443E-02  0.5974260E+03  0.7818609E-02  0.9910761E-01
        2   -1    0    0  501    0  0.00000000000E+00  0.00000000000E+00  0.14723666677E+04  0.14723666677E+04  0.25500000920E-02 0. -1.
       -2   -1    0    0    0  501  0.00000000000E+00  0.00000000000E+00 -0.60602742548E+02  0.60602742602E+02  0.25500000920E-02 0.  1.
    10030    2    1    2    0    0  0.00000000000E+00  0.00000000000E+00  0.14117639251E+04  0.15329694103E+04  0.59742600593E+03 0.  0.
        1    1    3    3  502    0  0.24131728791E+02  0.24514749928E+03  0.11394438148E+04  0.11657666335E+04  0.50400001928E-02 0. -1.
       -1    1    3    3    0  502 -0.24131728791E+02 -0.24514749928E+03  0.27232011032E+03  0.36720277675E+03  0.50400001928E-02 0.  1.
</event>
<event>
 5   0  0.3437375E-02  0.6009936E+03  0.7818609E-02  0.9903347E-01
        4   -1    0    0  501    0  0.00000000000E+00  0.00000000000E+00  0.14028434755E+03  0.14029009612E+03  0.12699999809E+01 0.  1.
       -4   -1    0    0    0  501  0.00000000000E+00  0.00000000000E+00 -0.64366105247E+03  0.64366230538E+03  0.12699999809E+01 0. -1.
    10030    2    1    2    0    0  0.00000000000E+00  0.00000000000E+00 -0.50337670491E+03  0.78395240150E+03  0.60099356133E+03 0.  0.
        2    1    3    3  502    0 -0.19482070533E+03 -0.12924788705E+03 -0.54375212690E+01  0.23385826942E+03  0.25500000920E-02 0.  1.
       -2    1    3    3    0  502  0.19482070533E+03  0.12924788705E+03 -0.49793918365E+03  0.55009413208E+03  0.25500000920E-02 0. -1.
</event>
<event>
 5   0  0.8817544E-02  0.5946011E+03  0.7818609E-02  0.9916671E-01
       -2   -1    0    0    0  501  0.00000000000E+00  0.00000000000E+00  0.54560877882E+02  0.54560877942E+02  0.25500000920E-02 0.  1.
        2   -1    0    0  501    0  0.00000000000E+00  0.00000000000E+00 -0.16199818097E+04  0.16199818097E+04  0.25500000920E-02 0. -1.
    10030    2    1    2    0    0  0.00000000000E+00  0.00000000000E+00 -0.15654209318E+04  0.16745426876E+04  0.59460114275E+03 0.  0.
        5    1    3    3  502    0  0.17345692611E+03  0.23625787948E+03 -0.92240443577E+03  0.96786214099E+03  0.46999998093E+01 0. -1.
       -5    1    3    3    0  502 -0.17345692611E+03 -0.23625787948E+03 -0.64301649603E+03  0.70668054663E+03  0.46999998093E+01 0.  1.
</event>
<event>
 5   0  0.5190380E-02  0.6003488E+03  0.7818609E-02  0.9904683E-01
        1   -1    0    0  501    0  0.00000000000E+00  0.00000000000E+00  0.58877676005E+03  0.58877676007E+03  0.50400001928E-02 0.  1.
       -1   -1    0    0    0  501  0.00000000000E+00  0.00000000000E+00 -0.15303708396E+03  0.15303708404E+03  0.50400001928E-02 0. -1.
    10030    2    1    2    0    0  0.00000000000E+00  0.00000000000E+00  0.43573967608E+03  0.74181384411E+03  0.60034882694E+03 0.  0.
        5    1    3    3  502    0 -0.16875490273E+03 -0.18851839717E+02  0.52367210183E+03  0.55053443970E+03  0.46999998093E+01 0.  1.
       -5    1    3    3    0  502  0.16875490273E+03  0.18851839717E+02 -0.87932425751E+02  0.19127940441E+03  0.46999998093E+01 0. -1.
</event>
<event>
 5   0  0.5190380E-02  0.5839421E+03  0.7818609E-02  0.9939293E-01
       -1   -1    0    0    0  501  0.00000000000E+00  0.00000000000E+00  0.16508770979E+03  0.16508770986E+03  0.50400001928E-02 0. -1.
        1   -1    0    0  501    0  0.00000000000E+00  0.00000000000E+00 -0.51637454027E+03  0.51637454030E+03  0.50400001928E-02 0.  1.
    10030    2    1    2    0    0  0.00000000000E+00  0.00000000000E+00 -0.35128683048E+03  0.68146225016E+03  0.58394208713E+03 0.  0.
        5    1    3    3  502    0 -0.12609812970E+02  0.14513490837E+03  0.11959189178E+03  0.18854033942E+03  0.46999998093E+01 0. -1.
       -5    1    3    3    0  502  0.12609812970E+02 -0.14513490837E+03 -0.47087872226E+03  0.49292191074E+03  0.46999998093E+01 0.  1.
</event>
<event>
 5   0  0.3437375E-02  0.6039684E+03  0.7818609E-02  0.9897207E-01
        3   -1    0    0  501    0  0.00000000000E+00  0.00000000000E+00  0.33029410050E+03  0.33029411594E+03  0.10100000352E+00 0. -1.
       -3   -1    0    0    0  501  0.00000000000E+00  0.00000000000E+00 -0.27610073038E+03  0.27610074886E+03  0.10100000352E+00 0.  1.
    10030    2    1    2    0    0  0.00000000000E+00  0.00000000000E+00  0.54193370120E+02  0.60639486480E+03  0.60396838551E+03 0.  0.
        3    1    3    3  502    0 -0.12678437291E+03  0.17637272314E+03  0.23773188286E+03  0.32202185176E+03  0.10100000352E+00 0.  1.
       -3    1    3    3    0  502  0.12678437291E+03 -0.17637272314E+03 -0.18353851274E+03  0.28437301304E+03  0.10100000352E+00 0. -1.
</event>
<event>
 5   0  0.4987389E-02  0.6052007E+03  0.7818609E-02  0.9894675E-01
        1   -1    0    0  501    0  0.00000000000E+00  0.00000000000E+00  0.24951937369E+03  0.24951937374E+03  0.50400001928E-02 0.  1.
       -1   -1    0    0    0  501  0.00000000000E+00  0.00000000000E+00 -0.36697339930E+03  0.36697339933E+03  0.50400001928E-02 0. -1.
    10030    2    1    2    0    0  0.00000000000E+00  0.00000000000E+00 -0.11745402561E+03  0.61649277307E+03  0.60520070317E+03 0.  0.
        1    1    3    3  502    0 -0.17880389736E+03 -0.39151652359E+02 -0.30418624731E+03  0.35501120922E+03  0.50400001928E-02 0. -1.
       -1    1    3    3    0  502  0.17880389736E+03  0.39151652359E+02  0.18673222170E+03  0.26148156386E+03  0.50400001928E-02 0.  1.
</event>
<event>
 5   0  0.4881209E-02  0.5998653E+03  0.7818609E-02  0.9905685E-01
        1   -1    0    0  501    0  0.00000000000E+00  0.00000000000E+00  0.44508571101E+03  0.44508571104E+03  0.50400001928E-02 0. -1.
       -1   -1    0    0    0  501  0.00000000000E+00  0.00000000000E+00 -0.20211748947E+03  0.20211748954E+03  0.50400001928E-02 0.  1.
    10030    2    1    2    0    0  0.00000000000E+00  0.00000000000E+00  0.24296822153E+03  0.64720320057E+03  0.59986534002E+03 0.  0.
        3    1    3    3  502    0 -0.14825661577E+03 -0.67186425737E+02  0.39328816662E+03  0.42564026140E+03  0.10100000352E+00 0. -1.
       -3    1    3    3    0  502  0.14825661577E+03  0.67186425737E+02 -0.15031994508E+03  0.22156293917E+03  0.10100000352E+00 0.  1.
</event>
<event>
 5   0  0.4881209E-02  0.6184237E+03  0.7818609E-02  0.9867903E-01
       -1   -1    0    0    0  501  0.00000000000E+00  0.00000000000E+00  0.12967592008E+03  0.12967592017E+03  0.50400001928E-02 0.  1.
        1   -1    0    0  501    0  0.00000000000E+00  0.00000000000E+00 -0.73731471367E+03  0.73731471369E+03  0.50400001928E-02 0. -1.
    10030    2    1    2    0    0  0.00000000000E+00  0.00000000000E+00 -0.60763879359E+03  0.86699063386E+03  0.61842368626E+03 0.  0.
        3    1    3    3  502    0 -0.21469825450E+03  0.16726412787E+03 -0.98067270049E+02  0.28929194357E+03  0.10100000352E+00 0.  1.
       -3    1    3    3    0  502  0.21469825450E+03 -0.16726412787E+03 -0.50957152354E+03  0.57769869029E+03  0.10100000352E+00 0. -1.
</event>
<event>
 5   0  0.8207443E-02  0.6032909E+03  0.7818609E-02  0.9898602E-01
       -2   -1    0    0    0  501  0.00000000000E+00  0.00000000000E+00  0.64521574764E+02  0.64521574814E+02  0.25500000920E-02 0. -1.
        2   -1    0    0  501    0  0.00000000000E+00  0.00000000000E+00 -0.14102258439E+04  0.14102258439E+04  0.25500000920E-02 0.  1.
    10030    2    1    2    0    0  0.00000000000E+00  0.00000000000E+00 -0.13457042692E+04  0.14747474187E+04  0.60329094892E+03 0.  0.
        1    1    3    3  502    0  0.26360393399E+03  0.13875224885E+03 -0.55687922473E+03  0.63154864542E+03  0.50400001928E-02 0. -1.
       -1    1    3    3    0  502 -0.26360393399E+03 -0.13875224885E+03 -0.78882504443E+03  0.84319877332E+03  0.50400001928E-02 0.  1.
</event>
<event>
 5   0  0.5125031E-02  0.6033322E+03  0.7818609E-02  0.9898517E-01
       -1   -1    0    0    0  501  0.00000000000E+00  0.00000000000E+00  0.26637253490E+03  0.26637253495E+03  0.50400001928E-02 0. -1.
        1   -1    0    0  501    0  0.00000000000E+00  0.00000000000E+00 -0.34163592157E+03  0.34163592160E+03  0.50400001928E-02 0.  1.
    10030    2    1    2    0    0  0.00000000000E+00  0.00000000000E+00 -0.75263386666E+02  0.60800845655E+03  0.60333216877E+03 0.  0.
        4    1    3    3  502    0  0.36064051514E+02 -0.19121386949E+03 -0.26993399260E+03  0.33276017334E+03  0.12699999809E+01 0.  1.
       -4    1    3    3    0  502 -0.36064051514E+02  0.19121386949E+03  0.19467060593E+03  0.27524828322E+03  0.12699999809E+01 0. -1.
</event>
<event>
 5   0  0.4987389E-02  0.6011136E+03  0.7818609E-02  0.9903098E-01
        1   -1    0    0  501    0  0.00000000000E+00  0.00000000000E+00  0.13498233602E+04  0.13498233602E+04  0.50400001928E-02 0.  1.
       -1   -1    0    0    0  501  0.00000000000E+00  0.00000000000E+00 -0.66923113467E+02  0.66923113657E+02  0.50400001928E-02 0. -1.
    10030    2    1    2    0    0  0.00000000000E+00  0.00000000000E+00  0.12829002468E+04  0.14167464739E+04  0.60111357342E+03 0.  0.
        1    1    3    3  502    0  0.23964130206E+03 -0.18133895024E+03  0.63024234947E+03  0.69822431039E+03  0.50400001928E-02 0. -1.
       -1    1    3    3    0  502 -0.23964130206E+03  0.18133895024E+03  0.65265789729E+03  0.71852216350E+03  0.50400001928E-02 0.  1.
</event>
<event>
 5   0  0.8420604E-02  0.5952501E+03  0.7818609E-02  0.9915310E-01
        2   -1    0    0  501    0  0.00000000000E+00  0.00000000000E+00  0.24429361699E+03  0.24429361700E+03  0.25500000920E-02 0.  1.
       -2   -1    0    0    0  501  0.00000000000E+00  0.00000000000E+00 -0.36259914126E+03  0.36259914127E+03  0.25500000920E-02 0. -1.
    10030    2    1    2    0    0  0.00000000000E+00  0.00000000000E+00 -0.11830552427E+03  0.60689275827E+03  0.59525005080E+03 0.  0.
        2    1    3    3  502    0 -0.14183257497E+03 -0.91168211348E+02 -0.30921002701E+03  0.35219165648E+03  0.25500000920E-02 0. -1.
       -2    1    3    3    0  502  0.14183257497E+03  0.91168211348E+02  0.19090450274E+03  0.25470110180E+03  0.25500000920E-02 0.  1.
</event>
<event>
 5   0  0.4881209E-02  0.5891768E+03  0.7818609E-02  0.9928119E-01
        1   -1    0    0  501    0  0.00000000000E+00  0.00000000000E+00  0.69591386832E+03  0.69591386834E+03  0.50400001928E-02 0.  1.
       -1   -1    0    0    0  501  0.00000000000E+00  0.00000000000E+00 -0.12470269844E+03  0.12470269854E+03  0.50400001928E-02 0. -1.
    10030    2    1    2    0    0  0.00000000000E+00  0.00000000000E+00  0.57121116988E+03  0.82061656688E+03  0.58917684037E+03 0.  0.
        3    1    3    3  502    0  0.82910877843E+02  0.78176197881E+02  0.66397217130E+03  0.67368003240E+03  0.10100000352E+00 0.  1.
       -3    1    3    3    0  502 -0.82910877843E+02 -0.78176197881E+02 -0.92761001420E+02  0.14693653448E+03  0.10100000352E+00 0. -1.
</event>
<event>
 5   0  0.5190380E-02  0.5975008E+03  0.7818609E-02  0.9910605E-01
       -1   -1    0    0    0  501  0.00000000000E+00  0.00000000000E+00  0.86018626207E+02  0.86018626354E+02  0.50400001928E-02 0.  1.
        1   -1    0    0  501    0  0.00000000000E+00  0.00000000000E+00 -0.10375869525E+04  0.10375869526E+04  0.50400001928E-02 0. -1.
    10030    2    1    2    0    0  0.00000000000E+00  0.00000000000E+00 -0.95156832633E+03  0.11236055789E+04  0.59750080943E+03 0.  0.
        5    1    3    3  502    0  0.57370637452E+02  0.27798322722E+03 -0.30074878792E+03  0.41356739245E+03  0.46999998093E+01 0.  1.
       -5    1    3    3    0  502 -0.57370637452E+02 -0.27798322722E+03 -0.65081953841E+03  0.71003818646E+03  0.46999998093E+01 0. -1.
</event>
<event>
 5   0  0.8699746E-02  0.5914370E+03  0.7818609E-02  0.9923332E-01
        2   -1    0    0  501    0  0.00000000000E+00  0.00000000000E+00  0.51197995441E+03  0.51197995442E+03  0.25500000920E-02 0. -1.
       -2   -1    0    0    0  501  0.00000000000E+00  0.00000000000E+00 -0.17080638646E+03  0.17080638648E+03  0.25500000920E-02 0.  1.
    10030    2    1    2    0    0  0.00000000000E+00  0.00000000000E+00  0.34117356795E+03  0.68278634090E+03  0.59143704978E+03 0.  0.
        3    1    3    3  502    0 -0.11771547923E+03 -0.84216371261E+02 -0.12711912969E+03  0.19263596386E+03  0.10100000352E+00 0.  1.
       -3    1    3    3    0  502  0.11771547923E+03  0.84216371261E+02  0.46829269765E+03  0.49015037703E+03  0.10100000352E+00 0. -1.
</event>
<event>
 5   0  0.5125031E-02  0.5986836E+03  0.7818609E-02  0.9908141E-01
       -1   -1    0    0    0  501  0.00000000000E+00  0.00000000000E+00  0.81090203676E+02  0.81090203833E+02  0.50400001928E-02 0. -1.
        1   -1    0    0  501    0  0.00000000000E+00  0.00000000000E+00 -0.11050105077E+04  0.11050105078E+04  0.50400001928E-02 0.  1.
    10030    2    1    2    0    0  0.00000000000E+00  0.00000000000E+00 -0.10239203041E+04  0.11861007116E+04  0.59868364680E+03 0.  0.
        4    1    3    3  502    0  0.25034115319E+03 -0.16228835454E+03 -0.56031523173E+03  0.63479364743E+03  0.12699999809E+01 0. -1.
       -4    1    3    3    0  502 -0.25034115319E+03  0.16228835454E+03 -0.46360507233E+03  0.55130706416E+03  0.12699999809E+01 0.  1.
</event>
<event>
 5   0  0.8420604E-02  0.5948691E+03  0.7818609E-02  0.9916109E-01
        2   -1    0    0  501    0  0.00000000000E+00  0.00000000000E+00  0.83748214170E+03  0.83748214171E+03  0.25500000920E-02 0.  1.
       -2   -1    0    0    0  501  0.00000000000E+00  0.00000000000E+00 -0.10563485360E+03  0.10563485363E+03  0.25500000920E-02 0. -1.
    10030    2    1    2    0    0  0.00000000000E+00  0.00000000000E+00  0.73184728810E+03  0.94311699534E+03  0.59486907282E+03 0.  0.
        2    1    3    3  502    0 -0.18770646480E+03  0.21079852183E+03  0.51462863293E+03  0.58695175574E+03  0.25500000920E-02 0. -1.
       -2    1    3    3    0  502  0.18770646480E+03 -0.21079852183E+03  0.21721865518E+03  0.35616523960E+03  0.25500000920E-02 0.  1.
</event>
<event>
 5   0  0.5166903E-02  0.6054579E+03  0.7818609E-02  0.9894147E-01
       -1   -1    0    0    0  501  0.00000000000E+00  0.00000000000E+00  0.72138628894E+02  0.72138629070E+02  0.50400001928E-02 0. -1.
        1   -1    0    0  501    0  0.00000000000E+00  0.00000000000E+00 -0.12703986088E+04  0.12703986088E+04  0.50400001928E-02 0.  1.
    10030    2    1    2    0    0  0.00000000000E+00  0.00000000000E+00 -0.11982599799E+04  0.13425372379E+04  0.60545788925E+03 0.  0.
        2    1    3    3  502    0  0.14048360295E+02 -0.93090398491E+02  0.38853438934E+02  0.10184678906E+03  0.25500000920E-02 0. -1.
       -2    1    3    3    0  502 -0.14048360295E+02  0.93090398491E+02 -0.12371134189E+04  0.12406904488E+04  0.25500000920E-02 0.  1.
</event>
<event>
 5   0  0.8699746E-02  0.5801766E+03  0.7818609E-02  0.9947409E-01
        2   -1    0    0  501    0  0.00000000000E+00  0.00000000000E+00  0.18686000619E+04  0.18686000619E+04  0.25500000920E-02 0. -1.
       -2   -1    0    0    0  501  0.00000000000E+00  0.00000000000E+00 -0.45034370478E+02  0.45034370550E+02  0.25500000920E-02 0.  1.
    10030    2    1    2    0    0  0.00000000000E+00  0.00000000000E+00  0.18235656914E+04  0.19136344325E+04  0.58017661978E+03 0.  0.
        3    1    3    3  502    0  0.11245835528E+03  0.26739699778E+03  0.90589987206E+03  0.95121113560E+03  0.10100000352E+00 0. -1.
       -3    1    3    3    0  502 -0.11245835528E+03 -0.26739699778E+03  0.91766581939E+03  0.96242329687E+03  0.10100000352E+00 0.  1.
</event>
<event>
 5   0  0.8817544E-02  0.6037436E+03  0.7818609E-02  0.9897669E-01
        2   -1    0    0  501    0  0.00000000000E+00  0.00000000000E+00  0.12826429895E+04  0.12826429895E+04  0.25500000920E-02 0.  1.
       -2   -1    0    0    0  501  0.00000000000E+00  0.00000000000E+00 -0.71045955243E+02  0.71045955289E+02  0.25500000920E-02 0. -1.
    10030    2    1    2    0    0  0.00000000000E+00  0.00000000000E+00  0.12115970342E+04  0.13536889448E+04  0.60374364247E+03 0.  0.
        5    1    3    3  502    0  0.18496394289E+03 -0.23838573328E+03  0.62388767293E+03  0.69303487389E+03  0.46999998093E+01 0. -1.
       -5    1    3    3    0  502 -0.18496394289E+03  0.23838573328E+03  0.58770936129E+03  0.66065407087E+03  0.46999998093E+01 0.  1.
</event>
<event>
 5   0  0.5166903E-02  0.6030505E+03  0.7818609E-02  0.9899097E-01
        1   -1    0    0  501    0  0.00000000000E+00  0.00000000000E+00  0.89685448514E+03  0.89685448515E+03  0.50400001928E-02 0. -1.
       -1   -1    0    0    0  501  0.00000000000E+00  0.00000000000E+00 -0.10137371282E+03  0.10137371294E+03  0.50400001928E-02 0.  1.
    10030    2    1    2    0    0  0.00000000000E+00  0.00000000000E+00  0.79548077232E+03  0.99822819809E+03  0.60305047578E+03 0.  0.
        2    1    3    3  502    0 -0.71680398550E+02 -0.44843457058E+02  0.87682962855E+03  0.88089682295E+03  0.25500000920E-02 0. -1.
       -2    1    3    3    0  502  0.71680398550E+02  0.44843457058E+02 -0.81348856226E+02  0.11733137514E+03  0.25500000920E-02 0.  1.
</event>
<event>
 5   0  0.8699746E-02  0.6130989E+03  0.7818609E-02  0.9878597E-01
       -2   -1    0    0    0  501  0.00000000000E+00  0.00000000000E+00  0.63522326657E+02  0.63522326708E+02  0.25500000920E-02 0. -1.
        2   -1    0    0  501    0  0.00000000000E+00  0.00000000000E+00 -0.14793626513E+04  0.14793626513E+04  0.25500000920E-02 0.  1.
    10030    2    1    2    0    0  0.00000000000E+00  0.00000000000E+00 -0.14158403246E+04  0.15428849780E+04  0.61309887496E+03 0.  0.
        3    1    3    3  502    0  0.82160757311E+02  0.28345486476E+03 -0.91658779094E+03  0.96292795115E+03  0.10100000352E+00 0.  1.
       -3    1    3    3    0  502 -0.82160757311E+02 -0.28345486476E+03 -0.49925253369E+03  0.57995702685E+03  0.10100000352E+00 0. -1.
</event>
<event>
 5   0  0.8207443E-02  0.6022718E+03  0.7818609E-02  0.9900704E-01
       -2   -1    0    0    0  501  0.00000000000E+00  0.00000000000E+00  0.25849970386E+03  0.25849970387E+03  0.25500000920E-02 0. -1.
        2   -1    0    0  501    0  0.00000000000E+00  0.00000000000E+00 -0.35080434149E+03  0.35080434150E+03  0.25500000920E-02 0.  1.
    10030    2    1    2    0    0  0.00000000000E+00  0.00000000000E+00 -0.92304637631E+02  0.60930404537E+03  0.60227176057E+03 0.  0.
        1    1    3    3  502    0  0.13435616219E+03 -0.14958207715E+03  0.18064474700E+03  0.27029410050E+03  0.50400001928E-02 0. -1.
       -1    1    3    3    0  502 -0.13435616219E+03  0.14958207715E+03 -0.27294938463E+03  0.33900994487E+03  0.50400001928E-02 0.  1.
</event>
<event>
 5   0  0.4881209E-02  0.6106263E+03  0.7818609E-02  0.9883602E-01
       -1   -1    0    0    0  501  0.00000000000E+00  0.00000000000E+00  0.99898672444E+03  0.99898672445E+03  0.50400001928E-02 0. -1.
        1   -1    0    0  501    0  0.00000000000E+00  0.00000000000E+00 -0.93310658854E+02  0.93310658990E+02  0.50400001928E-02 0.  1.
    10030    2    1    2    0    0  0.00000000000E+00  0.00000000000E+00  0.90567606559E+03  0.10922973834E+04  0.61062626712E+03 0.  0.
        3    1    3    3  502    0  0.23633043380E+03  0.19310106708E+03  0.46843289626E+03  0.55907913978E+03  0.10100000352E+00 0.  1.
       -3    1    3    3    0  502 -0.23633043380E+03 -0.19310106708E+03  0.43724316933E+03  0.53321824366E+03  0.10100000352E+00 0. -1.
</event>
<event>
 5   0  0.8699746E-02  0.6134826E+03  0.7818609E-02  0.9877822E-01
       -2   -1    0    0    0  501  0.00000000000E+00  0.00000000000E+00  0.98417374958E+02  0.98417374991E+02  0.25500000920E-02 0.  1.
        2   -1    0    0  501    0  0.00000000000E+00  0.00000000000E+00 -0.95603270188E+03  0.95603270188E+03  0.25500000920E-02 0. -1.
    10030    2    1    2    0    0  0.00000000000E+00  0.00000000000E+00 -0.85761532692E+03  0.10544500769E+04  0.61348261234E+03 0.  0.
        3    1    3    3  502    0  0.44810731538E+02 -0.26065484699E+03 -0.16175076472E+03  0.31001979132E+03  0.10100000352E+00 0. -1.
       -3    1    3    3    0  502 -0.44810731538E+02  0.26065484699E+03 -0.69586456220E+03  0.74443028556E+03  0.10100000352E+00 0.  1.
</event>
<event>
 5   0  0.5125031E-02  0.6093227E+03  0.7818609E-02  0.9886251E-01
        1   -1    0    0  501    0  0.00000000000E+00  0.00000000000E+00  0.12684417672E+04  0.12684417673E+04  0.50400001928E-02 0. -1.
       -1   -1    0    0    0  501  0.00000000000E+00  0.00000000000E+00 -0.73175244207E+02  0.73175244381E+02  0.50400001928E-02 0.  1.
    10030    2    1    2    0    0  0.00000000000E+00  0.00000000000E+00  0.11952665230E+04  0.13416170116E+04  0.60932269350E+03 0.  0.
        4    1    3    3  502    0  0.11812122657E+03  0.10774889411E+02  0.12155095420E+04  0.12212836616E+04  0.12699999809E+01 0. -1.
       -4    1    3    3    0  502 -0.11812122657E+03 -0.10774889411E+02 -0.20243019012E+02  0.12033335002E+03  0.12699999809E+01 0.  1.
</event>
<event>
 5   0  0.5125031E-02  0.4533211E+03  0.7818609E-02  0.1026736E+00
       -1   -1    0    0    0  501  0.00000000000E+00  0.00000000000E+00  0.26537857183E+02  0.26537857662E+02  0.50400001928E-02 0.  1.
        1   -1    0    0  501    0  0.00000000000E+00  0.00000000000E+00 -0.19359141134E+04  0.19359141134E+04  0.50400001928E-02 0. -1.
    10030    2    1    2    0    0  0.00000000000E+00  0.00000000000E+00 -0.19093762562E+04  0.19624519710E+04  0.45332113446E+03 0.  0.
        4    1    3    3  502    0 -0.20661673295E+02  0.16871455953E+03 -0.16037849804E+04  0.16127676161E+04  0.12699999809E+01 0. -1.
       -4    1    3    3    0  502  0.20661673295E+02 -0.16871455953E+03 -0.30559127579E+03  0.34968435492E+03  0.12699999809E+01 0.  1.
</event>
<event>
 5   0  0.4881209E-02  0.6035792E+03  0.7818609E-02  0.9898008E-01
        1   -1    0    0  501    0  0.00000000000E+00  0.00000000000E+00  0.10344039424E+04  0.10344039424E+04  0.50400001928E-02 0. -1.
       -1   -1    0    0    0  501  0.00000000000E+00  0.00000000000E+00 -0.88047759107E+02  0.88047759251E+02  0.50400001928E-02 0.  1.
    10030    2    1    2    0    0  0.00000000000E+00  0.00000000000E+00  0.94635618325E+03  0.11224517016E+04  0.60357915545E+03 0.  0.
        3    1    3    3  502    0  0.16154740796E+03  0.18240292852E+03  0.14203050728E+03  0.28203026176E+03  0.10100000352E+00 0.  1.
       -3    1    3    3    0  502 -0.16154740796E+03 -0.18240292852E+03  0.80432567598E+03  0.84042143986E+03  0.10100000352E+00 0. -1.
</event>
<event>
 5   0  0.8575590E-02  0.5066911E+03  0.7818609E-02  0.1012047E+00
       -2   -1    0    0    0  501  0.00000000000E+00  0.00000000000E+00  0.66577771367E+02  0.66577771415E+02  0.25500000920E-02 0.  1.
        2   -1    0    0  501    0  0.00000000000E+00  0.00000000000E+00 -0.96404482244E+03  0.96404482245E+03  0.25500000920E-02 0. -1.
    10030    2    1    2    0    0  0.00000000000E+00  0.00000000000E+00 -0.89746705108E+03  0.10306225939E+04  0.50669105302E+03 0.  0.
        4    1    3    3  502    0  0.15172469093E+03 -0.95782257149E+02 -0.81252127335E+03  0.83209798411E+03  0.12699999809E+01 0. -1.
       -4    1    3    3    0  502 -0.15172469093E+03  0.95782257149E+02 -0.84945777731E+02  0.19852460975E+03  0.12699999809E+01 0.  1.
</event>
<event>
 5   0  0.8575590E-02  0.6063044E+03  0.7818609E-02  0.9892412E-01
       -2   -1    0    0    0  501  0.00000000000E+00  0.00000000000E+00  0.64076589498E+02  0.64076589549E+02  0.25500000920E-02 0.  1.
        2   -1    0    0  501    0  0.00000000000E+00  0.00000000000E+00 -0.14342406178E+04  0.14342406178E+04  0.25500000920E-02 0. -1.
    10030    2    1    2    0    0  0.00000000000E+00  0.00000000000E+00 -0.13701640283E+04  0.14983172073E+04  0.60630437025E+03 0.  0.
        4    1    3    3  502    0  0.28276008039E+03  0.45119516934E+02 -0.43906618286E+03  0.52418485260E+03  0.12699999809E+01 0.  1.
       -4    1    3    3    0  502 -0.28276008039E+03 -0.45119516934E+02 -0.93109784543E+03  0.97413235473E+03  0.12699999809E+01 0. -1.
</event>
<event>
 5   0  0.3437375E-02  0.5783334E+03  0.7818609E-02  0.9951406E-01
        4   -1    0    0  501    0  0.00000000000E+00  0.00000000000E+00  0.35352338466E+03  0.35352566583E+03  0.12699999809E+01 0. -1.
       -4   -1    0    0    0  501  0.00000000000E+00  0.00000000000E+00 -0.23652096302E+03  0.23652437263E+03  0.12699999809E+01 0.  1.
    10030    2    1    2    0    0  0.00000000000E+00  0.00000000000E+00  0.11700242164E+03  0.59005003847E+03  0.57833336513E+03 0.  0.
        4    1    3    3  502    0  0.12902419031E+03  0.80039630441E+02 -0.19257832695E+03  0.24523786216E+03  0.12699999809E+01 0.  1.
       -4    1    3    3    0  502 -0.12902419031E+03 -0.80039630441E+02  0.30958074860E+03  0.34481217630E+03  0.12699999809E+01 0. -1.
</event>
<event>
 5   0  0.4881209E-02  0.6000457E+03  0.7818609E-02  0.9905311E-01
        1   -1    0    0  501    0  0.00000000000E+00  0.00000000000E+00  0.20887461524E+03  0.20887461530E+03  0.50400001928E-02 0.  1.
       -1   -1    0    0    0  501  0.00000000000E+00  0.00000000000E+00 -0.43094616302E+03  0.43094616305E+03  0.50400001928E-02 0. -1.
    10030    2    1    2    0    0  0.00000000000E+00  0.00000000000E+00 -0.22207154777E+03  0.63982077835E+03  0.60004571166E+03 0.  0.
        3    1    3    3  502    0 -0.19873402826E+03 -0.15120952132E+03 -0.28835438523E+03  0.38145484006E+03  0.10100000352E+00 0. -1.
       -3    1    3    3    0  502  0.19873402826E+03  0.15120952132E+03  0.66282837459E+02  0.25836593829E+03  0.10100000352E+00 0.  1.
</event>
<event>
 5   0  0.4881209E-02  0.5995446E+03  0.7818609E-02  0.9906351E-01
       -1   -1    0    0    0  501  0.00000000000E+00  0.00000000000E+00  0.10349568953E+03  0.10349568965E+03  0.50400001928E-02 0.  1.
        1   -1    0    0  501    0  0.00000000000E+00  0.00000000000E+00 -0.86828182719E+03  0.86828182720E+03  0.50400001928E-02 0. -1.
    10030    2    1    2    0    0  0.00000000000E+00  0.00000000000E+00 -0.76478613766E+03  0.97177751685E+03  0.59954458208E+03 0.  0.
        3    1    3    3  502    0 -0.18408477423E+03  0.18172928192E+03 -0.13684125554E+03  0.29264018082E+03  0.10100000352E+00 0.  1.
       -3    1    3    3    0  502  0.18408477423E+03 -0.18172928192E+03 -0.62794488213E+03  0.67913733604E+03  0.10100000352E+00 0. -1.
</event>
<event>
 5   0  0.8420604E-02  0.6049426E+03  0.7818609E-02  0.9895205E-01
        2   -1    0    0  501    0  0.00000000000E+00  0.00000000000E+00  0.70816739544E+03  0.70816739545E+03  0.25500000920E-02 0. -1.
       -2   -1    0    0    0  501  0.00000000000E+00  0.00000000000E+00 -0.12919102911E+03  0.12919102913E+03  0.25500000920E-02 0.  1.
    10030    2    1    2    0    0  0.00000000000E+00  0.00000000000E+00  0.57897636633E+03  0.83735842458E+03  0.60494255797E+03 0.  0.
        2    1    3    3  502    0 -0.27875044421E+02  0.62662416644E+02  0.69726289105E+03  0.70062767274E+03  0.25500000920E-02 0. -1.
       -2    1    3    3    0  502  0.27875044421E+02 -0.62662416644E+02 -0.11828652472E+03  0.13673075184E+03  0.25500000920E-02 0.  1.
</event>
<event>
 5   0  0.8699746E-02  0.6054027E+03  0.7818609E-02  0.9894260E-01
       -2   -1    0    0    0  501  0.00000000000E+00  0.00000000000E+00  0.89266502273E+02  0.89266502310E+02  0.25500000920E-02 0. -1.
        2   -1    0    0  501    0  0.00000000000E+00  0.00000000000E+00 -0.10264557336E+04  0.10264557336E+04  0.25500000920E-02 0.  1.
    10030    2    1    2    0    0  0.00000000000E+00  0.00000000000E+00 -0.93718923136E+03  0.11157222359E+04  0.60540271919E+03 0.  0.
        3    1    3    3  502    0 -0.28388566876E+03  0.10487601460E+03 -0.45722625618E+03  0.54831187377E+03  0.10100000352E+00 0. -1.
       -3    1    3    3    0  502  0.28388566876E+03 -0.10487601460E+03 -0.47996297517E+03  0.56741036218E+03  0.10100000352E+00 0.  1.
</event>
<event>
 5   0  0.8207443E-02  0.6002690E+03  0.7818609E-02  0.9904848E-01
        2   -1    0    0  501    0  0.00000000000E+00  0.00000000000E+00  0.47417773981E+03  0.47417773981E+03  0.25500000920E-02 0. -1.
       -2   -1    0    0    0  501  0.00000000000E+00  0.00000000000E+00 -0.18997245877E+03  0.18997245879E+03  0.25500000920E-02 0.  1.
    10030    2    1    2    0    0  0.00000000000E+00  0.00000000000E+00  0.28420528103E+03  0.66415019861E+03  0.60026897683E+03 0.  0.
        1    1    3    3  502    0 -0.28457057965E+03 -0.92048188318E+02  0.16981682646E+03  0.34393464255E+03  0.50400001928E-02 0.  1.
       -1    1    3    3    0  502  0.28457057965E+03  0.92048188318E+02  0.11438845457E+03  0.32021555605E+03  0.50400001928E-02 0. -1.
</event>
<event>
 5   0  0.8420604E-02  0.6237048E+03  0.7818609E-02  0.9857411E-01
       -2   -1    0    0    0  501  0.00000000000E+00  0.00000000000E+00  0.62531431324E+02  0.62531431376E+02  0.25500000920E-02 0.  1.
        2   -1    0    0  501    0  0.00000000000E+00  0.00000000000E+00 -0.15552484327E+04  0.15552484327E+04  0.25500000920E-02 0. -1.
    10030    2    1    2    0    0  0.00000000000E+00  0.00000000000E+00 -0.14927170014E+04  0.16177798641E+04  0.62370477184E+03 0.  0.
        2    1    3    3  502    0  0.85605055179E+02  0.23683440092E+03 -0.26925611672E+03  0.36867006297E+03  0.25500000920E-02 0.  1.
       -2    1    3    3    0  502 -0.85605055179E+02 -0.23683440092E+03 -0.12234608846E+04  0.12491098011E+04  0.25500000920E-02 0. -1.
</event>
<event>
 5   0  0.8699746E-02  0.5966158E+03  0.7818609E-02  0.9912452E-01
       -2   -1    0    0    0  501  0.00000000000E+00  0.00000000000E+00  0.37032911501E+02  0.37032911588E+02  0.25500000920E-02 0.  1.
        2   -1    0    0  501    0  0.00000000000E+00  0.00000000000E+00 -0.24029327328E+04  0.24029327328E+04  0.25500000920E-02 0. -1.
    10030    2    1    2    0    0  0.00000000000E+00  0.00000000000E+00 -0.23658998213E+04  0.24399656444E+04  0.59661577366E+03 0.  0.
        3    1    3    3  502    0  0.16071514297E+03  0.86826227803E+02 -0.21844984156E+03  0.28476041595E+03  0.10100000352E+00 0.  1.
       -3    1    3    3    0  502 -0.16071514297E+03 -0.86826227803E+02 -0.21474499797E+04  0.21552052284E+04  0.10100000352E+00 0. -1.
</event>
<event>
 5   0  0.4881209E-02  0.6081891E+03  0.7818609E-02  0.9888560E-01
       -1   -1    0    0    0  501  0.00000000000E+00  0.00000000000E+00  0.23573410304E+03  0.23573410310E+03  0.50400001928E-02 0.  1.
        1   -1    0    0  501    0  0.00000000000E+00  0.00000000000E+00 -0.39227880893E+03  0.39227880896E+03  0.50400001928E-02 0. -1.
    10030    2    1    2    0    0  0.00000000000E+00  0.00000000000E+00 -0.15654470589E+03  0.62801291206E+03  0.60818909294E+03 0.  0.
        3    1    3    3  502    0 -0.18613918699E+03 -0.24390090001E+02 -0.32529961809E+03  0.37558291382E+03  0.10100000352E+00 0. -1.
       -3    1    3    3    0  502  0.18613918699E+03  0.24390090001E+02  0.16875491220E+03  0.25242999824E+03  0.10100000352E+00 0.  1.
</event>
<event>
 5   0  0.8817544E-02  0.5983972E+03  0.7818609E-02  0.9908737E-01
       -2   -1    0    0    0  501  0.00000000000E+00  0.00000000000E+00  0.61234700553E+02  0.61234700606E+02  0.25500000920E-02 0.  1.
        2   -1    0    0  501    0  0.00000000000E+00  0.00000000000E+00 -0.14619127601E+04  0.14619127601E+04  0.25500000920E-02 0. -1.
    10030    2    1    2    0    0  0.00000000000E+00  0.00000000000E+00 -0.14006780595E+04  0.15231474607E+04  0.59839715955E+03 0.  0.
        5    1    3    3  502    0 -0.73950810223E+02 -0.28950125755E+03 -0.73792107033E+03  0.79613396893E+03  0.46999998093E+01 0. -1.
       -5    1    3    3    0  502  0.73950810223E+02  0.28950125755E+03 -0.66275698917E+03  0.72701349173E+03  0.46999998093E+01 0.  1.
</event>
<event>
 5   0  0.5190380E-02  0.5964988E+03  0.7818609E-02  0.9912697E-01
       -1   -1    0    0    0  501  0.00000000000E+00  0.00000000000E+00  0.79484337305E+02  0.79484337465E+02  0.50400001928E-02 0.  1.
        1   -1    0    0  501    0  0.00000000000E+00  0.00000000000E+00 -0.11191224400E+04  0.11191224400E+04  0.50400001928E-02 0. -1.
    10030    2    1    2    0    0  0.00000000000E+00  0.00000000000E+00 -0.10396381027E+04  0.11986067775E+04  0.59649880338E+03 0.  0.
        5    1    3    3  502    0  0.45121005573E+02  0.15516861615E+03 -0.16194180589E+02  0.16247321645E+03  0.46999998093E+01 0.  1.
       -5    1    3    3    0  502 -0.45121005573E+02 -0.15516861615E+03 -0.10234439221E+04  0.10361335610E+04  0.46999998093E+01 0. -1.
</event>
<event>
 5   0  0.4881209E-02  0.5956047E+03  0.7818609E-02  0.9914567E-01
        1   -1    0    0  501    0  0.00000000000E+00  0.00000000000E+00  0.32751618032E+03  0.32751618036E+03  0.50400001928E-02 0. -1.
       -1   -1    0    0    0  501  0.00000000000E+00  0.00000000000E+00 -0.27078427505E+03  0.27078427510E+03  0.50400001928E-02 0.  1.
    10030    2    1    2    0    0  0.00000000000E+00  0.00000000000E+00  0.56731905271E+02  0.59830045546E+03  0.59560467252E+03 0.  0.
        3    1    3    3  502    0  0.13236416035E+03 -0.21844199117E+03  0.18218985837E+03  0.31373608199E+03  0.10100000352E+00 0. -1.
       -3    1    3    3    0  502 -0.13236416035E+03  0.21844199117E+03 -0.12545795309E+03  0.28456437347E+03  0.10100000352E+00 0.  1.
</event>
<event>
 5   0  0.3437375E-02  0.6030415E+03  0.7818609E-02  0.9899116E-01
       -3   -1    0    0    0  501  0.00000000000E+00  0.00000000000E+00  0.17618267073E+03  0.17618269968E+03  0.10100000352E+00 0. -1.
        3   -1    0    0  501    0  0.00000000000E+00  0.00000000000E+00 -0.51602553363E+03  0.51602554352E+03  0.10100000352E+00 0.  1.
    10030    2    1    2    0    0  0.00000000000E+00  0.00000000000E+00 -0.33984286290E+03  0.69220824320E+03  0.60304152468E+03 0.  0.
        1    1    3    3  502    0 -0.26316654711E+03 -0.10172482586E+03 -0.29199584876E+03  0.40603712568E+03  0.50400001928E-02 0.  1.
       -1    1    3    3    0  502  0.26316654711E+03  0.10172482586E+03 -0.47847014143E+02  0.28617111752E+03  0.50400001928E-02 0. -1.
</event>
<event>
 5   0  0.8699746E-02  0.5969405E+03  0.7818609E-02  0.9911774E-01
       -2   -1    0    0    0  501  0.00000000000E+00  0.00000000000E+00  0.18282509097E+03  0.18282509099E+03  0.25500000920E-02 0. -1.
        2   -1    0    0  501    0  0.00000000000E+00  0.00000000000E+00 -0.48726615740E+03  0.48726615741E+03  0.25500000920E-02 0.  1.
    10030    2    1    2    0    0  0.00000000000E+00  0.00000000000E+00 -0.30444106643E+03  0.67009124840E+03  0.59694046457E+03 0.  0.
        3    1    3    3  502    0 -0.21379017452E+03 -0.91354963586E+02 -0.36232655507E+03  0.43050262578E+03  0.10100000352E+00 0.  1.
       -3    1    3    3    0  502  0.21379017452E+03  0.91354963586E+02  0.57885488636E+02  0.23958862262E+03  0.10100000352E+00 0. -1.
</event>
<event>
 5   0  0.4987389E-02  0.6004201E+03  0.7818609E-02  0.9904535E-01
        1   -1    0    0  501    0  0.00000000000E+00  0.00000000000E+00  0.44043876186E+02  0.44043876475E+02  0.50400001928E-02 0.  1.
       -1   -1    0    0    0  501  0.00000000000E+00  0.00000000000E+00 -0.20462795609E+04  0.20462795609E+04  0.50400001928E-02 0. -1.
    10030    2    1    2    0    0  0.00000000000E+00  0.00000000000E+00 -0.20022356847E+04  0.20903234374E+04  0.60042013268E+03 0.  0.
        1    1    3    3  502    0 -0.15051878369E+03  0.76967621051E+02 -0.13742615008E+03  0.21786662361E+03  0.50400001928E-02 0.  1.
       -1    1    3    3    0  502  0.15051878369E+03 -0.76967621051E+02 -0.18648095346E+04  0.18724568138E+04  0.50400001928E-02 0. -1.
</event>
<event>
 5   0  0.4881209E-02  0.5801286E+03  0.7818609E-02  0.9947513E-01
       -1   -1    0    0    0  501  0.00000000000E+00  0.00000000000E+00  0.24939256460E+03  0.24939256465E+03  0.50400001928E-02 0.  1.
        1   -1    0    0  501    0  0.00000000000E+00  0.00000000000E+00 -0.33736895347E+03  0.33736895350E+03  0.50400001928E-02 0. -1.
    10030    2    1    2    0    0  0.00000000000E+00  0.00000000000E+00 -0.87976388865E+02  0.58676151816E+03  0.58012863590E+03 0.  0.
        3    1    3    3  502    0  0.12055017960E+03 -0.21766078915E+03  0.10680949214E+03  0.27077083068E+03  0.10100000352E+00 0.  1.
       -3    1    3    3    0  502 -0.12055017960E+03  0.21766078915E+03 -0.19478588100E+03  0.31599068748E+03  0.10100000352E+00 0. -1.
</event>
<event>
 5   0  0.5166903E-02  0.5977635E+03  0.7818609E-02  0.9910057E-01
        1   -1    0    0  501    0  0.00000000000E+00  0.00000000000E+00  0.92386933221E+03  0.92386933223E+03  0.50400001928E-02 0.  1.
       -1   -1    0    0    0  501  0.00000000000E+00  0.00000000000E+00 -0.96691479878E+02  0.96691480010E+02  0.50400001928E-02 0. -1.
    10030    2    1    2    0    0  0.00000000000E+00  0.00000000000E+00  0.82717785233E+03  0.10205608122E+04  0.59776347503E+03 0.  0.
        2    1    3    3  502    0 -0.20711505804E+03  0.21428078891E+03  0.45242347066E+03  0.54175631105E+03  0.25500000920E-02 0. -1.
       -2    1    3    3    0  502  0.20711505804E+03 -0.21428078891E+03  0.37475438168E+03  0.47880450118E+03  0.25500000920E-02 0.  1.
</event>
<event>
 5   0  0.4881209E-02  0.6008204E+03  0.7818609E-02  0.9903705E-01
        1   -1    0    0  501    0  0.00000000000E+00  0.00000000000E+00  0.64363513060E+03  0.64363513062E+03  0.50400001928E-02 0. -1.
       -1   -1    0    0    0  501  0.00000000000E+00  0.00000000000E+00 -0.14021342482E+03  0.14021342491E+03  0.50400001928E-02 0.  1.
    10030    2    1    2    0    0  0.00000000000E+00  0.00000000000E+00  0.50342170578E+03  0.78384855553E+03  0.60082039259E+03 0.  0.
        3    1    3    3  502    0  0.65348780037E+02  0.51843849773E+02 -0.12480111681E+03  0.15011188084E+03  0.10100000352E+00 0.  1.
       -3    1    3    3    0  502 -0.65348780037E+02 -0.51843849773E+02  0.62822282259E+03  0.63373667469E+03  0.10100000352E+00 0. -1.
</event>
<event>
 5   0  0.8575590E-02  0.6007707E+03  0.7818609E-02  0.9903808E-01
        2   -1    0    0  501    0  0.00000000000E+00  0.00000000000E+00  0.36724121985E+03  0.36724121986E+03  0.25500000920E-02 0.  1.
       -2   -1    0    0    0  501  0.00000000000E+00  0.00000000000E+00 -0.24570055543E+03  0.24570055545E+03  0.25500000920E-02 0. -1.
    10030    2    1    2    0    0  0.00000000000E+00  0.00000000000E+00  0.12154066442E+03  0.61294177531E+03  0.60077074397E+03 0.  0.
        4    1    3    3  502    0 -0.24257359332E+03  0.83296767442E+02  0.22030132753E+03  0.33810440318E+03  0.12699999809E+01 0.  1.
       -4    1    3    3    0  502  0.24257359332E+03 -0.83296767442E+02 -0.98760663104E+02  0.27483737213E+03  0.12699999809E+01 0. -1.
</event>
<event>
 5   0  0.8207443E-02  0.6009364E+03  0.7818609E-02  0.9903465E-01
        2   -1    0    0  501    0  0.00000000000E+00  0.00000000000E+00  0.62560122070E+03  0.62560122070E+03  0.25500000920E-02 0. -1.
       -2   -1    0    0    0  501  0.00000000000E+00  0.00000000000E+00 -0.14431099729E+03  0.14431099732E+03  0.25500000920E-02 0.  1.
    10030    2    1    2    0    0  0.00000000000E+00  0.00000000000E+00  0.48129022340E+03  0.76991221802E+03  0.60093638957E+03 0.  0.
        1    1    3    3  502    0  0.19886796229E+03  0.86147114392E+02 -0.25987667868E+02  0.21827769160E+03  0.50400001928E-02 0.  1.
       -1    1    3    3    0  502 -0.19886796229E+03 -0.86147114392E+02  0.50727789127E+03  0.55163452642E+03  0.50400001928E-02 0. -1.
</event>
<event>
 5   0  0.5125031E-02  0.6060660E+03  0.7818609E-02  0.9892900E-01
       -1   -1    0    0    0  501  0.00000000000E+00  0.00000000000E+00  0.50362245470E+03  0.50362245472E+03  0.50400001928E-02 0. -1.
        1   -1    0    0  501    0  0.00000000000E+00  0.00000000000E+00 -0.18233697346E+03  0.18233697353E+03  0.50400001928E-02 0.  1.
    10030    2    1    2    0    0  0.00000000000E+00  0.00000000000E+00  0.32128548124E+03  0.68595942825E+03  0.60606598383E+03 0.  0.
        4    1    3    3  502    0  0.21008772981E+02  0.23013619341E+02  0.50180128237E+03  0.50276946516E+03  0.12699999809E+01 0. -1.
       -4    1    3    3    0  502 -0.21008772981E+02 -0.23013619341E+02 -0.18051580113E+03  0.18318996308E+03  0.12699999809E+01 0.  1.
</event>
<event>
 5   0  0.8420604E-02  0.5993728E+03  0.7818609E-02  0.9906708E-01
       -2   -1    0    0    0  501  0.00000000000E+00  0.00000000000E+00  0.16631260270E+03  0.16631260272E+03  0.25500000920E-02 0.  1.
        2   -1    0    0  501    0  0.00000000000E+00  0.00000000000E+00 -0.54001880507E+03  0.54001880507E+03  0.25500000920E-02 0. -1.
    10030    2    1    2    0    0  0.00000000000E+00  0.00000000000E+00 -0.37370620236E+03  0.70633140779E+03  0.59937278212E+03 0.  0.
        2    1    3    3  502    0  0.99467616988E+00  0.28242403343E+03 -0.30497838430E+03  0.41566349243E+03  0.25500000920E-02 0.  1.
       -2    1    3    3    0  502 -0.99467616988E+00 -0.28242403343E+03 -0.68727818061E+02  0.29066791536E+03  0.25500000920E-02 0. -1.
</event>
<event>
 5   0  0.4881209E-02  0.5873324E+03  0.7818609E-02  0.9932042E-01
       -1   -1    0    0    0  501  0.00000000000E+00  0.00000000000E+00  0.14740723756E+03  0.14740723765E+03  0.50400001928E-02 0. -1.
        1   -1    0    0  501    0  0.00000000000E+00  0.00000000000E+00 -0.58504469724E+03  0.58504469726E+03  0.50400001928E-02 0.  1.
    10030    2    1    2    0    0  0.00000000000E+00  0.00000000000E+00 -0.43763745968E+03  0.73245193491E+03  0.58733235126E+03 0.  0.
        3    1    3    3  502    0 -0.18133418570E+03 -0.84652128088E+02 -0.48684501167E+03  0.52637072989E+03  0.10100000352E+00 0.  1.
       -3    1    3    3    0  502  0.18133418570E+03  0.84652128088E+02  0.49207551990E+02  0.20608120503E+03  0.10100000352E+00 0. -1.
</event>
<event>
 5   0  0.8420604E-02  0.6017434E+03  0.7818609E-02  0.9901796E-01
        2   -1    0    0  501    0  0.00000000000E+00  0.00000000000E+00  0.28508072443E+04  0.28508072443E+04  0.25500000920E-02 0.  1.
       -2   -1    0    0    0  501  0.00000000000E+00  0.00000000000E+00 -0.31753731485E+02  0.31753731587E+02  0.25500000920E-02 0. -1.
    10030    2    1    2    0    0  0.00000000000E+00  0.00000000000E+00  0.28190535128E+04  0.28825609759E+04  0.60174336024E+03 0.  0.
        2    1    3    3  502    0  0.22771367237E+03 -0.67937220838E+02  0.52551860531E+03  0.57674846085E+03  0.25500000920E-02 0. -1.
       -2    1    3    3    0  502 -0.22771367237E+03  0.67937220838E+02  0.22935349075E+04  0.23058125150E+04  0.25500000920E-02 0.  1.
</event>
<event>
 5   0  0.5166903E-02  0.5937109E+03  0.7818609E-02  0.9918540E-01
       -1   -1    0    0    0  501  0.00000000000E+00  0.00000000000E+00  0.63065631545E+02  0.63065631746E+02  0.50400001928E-02 0.  1.
        1   -1    0    0  501    0  0.00000000000E+00  0.00000000000E+00 -0.13973247883E+04  0.13973247883E+04  0.50400001928E-02 0. -1.
    10030    2    1    2    0    0  0.00000000000E+00  0.00000000000E+00 -0.13342591567E+04  0.14603904200E+04  0.59371094111E+03 0.  0.
        2    1    3    3  502    0 -0.14319213352E+03  0.11163987005E+03 -0.89447076566E+02  0.20240609476E+03  0.25500000920E-02 0.  1.
       -2    1    3    3    0  502  0.14319213352E+03 -0.11163987005E+03 -0.12448120802E+04  0.12579843253E+04  0.25500000920E-02 0. -1.
</event>
<event>
 5   0  0.5166903E-02  0.6005147E+03  0.7818609E-02  0.9904339E-01
        1   -1    0    0  501    0  0.00000000000E+00  0.00000000000E+00  0.35953932711E+03  0.35953932714E+03  0.50400001928E-02 0. -1.
       -1   -1    0    0    0  501  0.00000000000E+00  0.00000000000E+00 -0.25074995726E+03  0.25074995731E+03  0.50400001928E-02 0.  1.
    10030    2    1    2    0    0  0.00000000000E+00  0.00000000000E+00  0.10878936985E+03  0.61028928445E+03  0.60051468235E+03 0.  0.
        2    1    3    3  502    0 -0.30895008054E+02 -0.13219620802E+03 -0.21777814252E+03  0.25662746989E+03  0.25500000920E-02 0.  1.
       -2    1    3    3    0  502  0.30895008054E+02  0.13219620802E+03  0.32656751237E+03  0.35366181456E+03  0.25500000920E-02 0. -1.
</event>
<event>
 5   0  0.5166903E-02  0.6072376E+03  0.7818609E-02  0.9890503E-01
       -1   -1    0    0    0  501  0.00000000000E+00  0.00000000000E+00  0.24518605156E+03  0.24518605161E+03  0.50400001928E-02 0.  1.
        1   -1    0    0  501    0  0.00000000000E+00  0.00000000000E+00 -0.37597726741E+03  0.37597726744E+03  0.50400001928E-02 0. -1.
    10030    2    1    2    0    0  0.00000000000E+00  0.00000000000E+00 -0.13079121585E+03  0.62116331906E+03  0.60723761971E+03 0.  0.
        2    1    3    3  502    0  0.38091523871E+02  0.23175406770E+03  0.13143185316E+03  0.26913796484E+03  0.25500000920E-02 0.  1.
       -2    1    3    3    0  502 -0.38091523871E+02 -0.23175406770E+03 -0.26222306901E+03  0.35202535422E+03  0.25500000920E-02 0. -1.
</event>
<event>
 5   0  0.8420604E-02  0.5943857E+03  0.7818609E-02  0.9917123E-01
        2   -1    0    0  501    0  0.00000000000E+00  0.00000000000E+00  0.86730974787E+03  0.86730974788E+03  0.25500000920E-02 0. -1.
       -2   -1    0    0    0  501  0.00000000000E+00  0.00000000000E+00 -0.10183626389E+03  0.10183626392E+03  0.25500000920E-02 0.  1.
    10030    2    1    2    0    0  0.00000000000E+00  0.00000000000E+00  0.76547348399E+03  0.96914601180E+03  0.59438568077E+03 0.  0.
        2    1    3    3  502    0  0.10208775224E+03  0.21463628230E+03  0.67364715058E+03  0.71434664298E+03  0.25500000920E-02 0. -1.
       -2    1    3    3    0  502 -0.10208775224E+03 -0.21463628230E+03  0.91826333401E+02  0.25479936882E+03  0.25500000920E-02 0.  1.
</event>
<event>
 5   0  0.5190380E-02  0.6005007E+03  0.7818609E-02  0.9904368E-01
       -1   -1    0    0    0  501  0.00000000000E+00  0.00000000000E+00  0.13973083178E+03  0.13973083187E+03  0.50400001928E-02 0. -1.
        1   -1    0    0  501    0  0.00000000000E+00  0.00000000000E+00 -0.64517087380E+03  0.64517087382E+03  0.50400001928E-02 0.  1.
    10030    2    1    2    0    0  0.00000000000E+00  0.00000000000E+00 -0.50544004202E+03  0.78490170568E+03  0.60050066737E+03 0.  0.
        5    1    3    3  502    0 -0.20596694980E+03  0.10560870738E+03 -0.28231303657E+01  0.23152892594E+03  0.46999998093E+01 0. -1.
       -5    1    3    3    0  502  0.20596694980E+03 -0.10560870738E+03 -0.50261691166E+03  0.55337277975E+03  0.46999998093E+01 0.  1.
</event>
<event>
 5   0  0.8817544E-02  0.6103879E+03  0.7818609E-02  0.9884086E-01
       -2   -1    0    0    0  501  0.00000000000E+00  0.00000000000E+00  0.67815864331E+03  0.67815864332E+03  0.25500000920E-02 0. -1.
        2   -1    0    0  501    0  0.00000000000E+00  0.00000000000E+00 -0.13734742527E+03  0.13734742530E+03  0.25500000920E-02 0.  1.
    10030    2    1    2    0    0  0.00000000000E+00  0.00000000000E+00  0.54081121804E+03  0.81550606861E+03  0.61038788847E+03 0.  0.
        5    1    3    3  502    0 -0.10606379981E+03 -0.28415769800E+03  0.31524037481E+03  0.43748566933E+03  0.46999998093E+01 0. -1.
       -5    1    3    3    0  502  0.10606379981E+03  0.28415769800E+03  0.22557084324E+03  0.37802039929E+03  0.46999998093E+01 0.  1.
</event>
<event>
 5   0  0.8817544E-02  0.5807996E+03  0.7818609E-02  0.9946061E-01
       -2   -1    0    0    0  501  0.00000000000E+00  0.00000000000E+00  0.19009668364E+03  0.19009668366E+03  0.25500000920E-02 0. -1.
        2   -1    0    0  501    0  0.00000000000E+00  0.00000000000E+00 -0.44362711079E+03  0.44362711080E+03  0.25500000920E-02 0.  1.
    10030    2    1    2    0    0  0.00000000000E+00  0.00000000000E+00 -0.25353042715E+03  0.63372379445E+03  0.58079959553E+03 0.  0.
        5    1    3    3  502    0  0.14804284897E+03 -0.24200991059E+03 -0.59287653362E+02  0.28986651720E+03  0.46999998093E+01 0. -1.
       -5    1    3    3    0  502 -0.14804284897E+03  0.24200991059E+03 -0.19424277379E+03  0.34385727725E+03  0.46999998093E+01 0.  1.
</event>
<event>
 5   0  0.8575590E-02  0.5984990E+03  0.7818609E-02  0.9908525E-01
        2   -1    0    0  501    0  0.00000000000E+00  0.00000000000E+00  0.29054455686E+03  0.29054455688E+03  0.25500000920E-02 0. -1.
       -2   -1    0    0    0  501  0.00000000000E+00  0.00000000000E+00 -0.30821526092E+03  0.30821526094E+03  0.25500000920E-02 0.  1.
    10030    2    1    2    0    0  0.00000000000E+00  0.00000000000E+00 -0.17670704060E+02  0.59875981781E+03  0.59849901056E+03 0.  0.
        4    1    3    3  502    0 -0.15370184890E+03  0.20690019369E+03  0.14327269009E+03  0.29489086987E+03  0.12699999809E+01 0. -1.
       -4    1    3    3    0  502  0.15370184890E+03 -0.20690019369E+03 -0.16094339415E+03  0.30386894795E+03  0.12699999809E+01 0.  1.
</event>
<event>
 5   0  0.5125031E-02  0.5603810E+03  0.7818609E-02  0.9991193E-01
        1   -1    0    0  501    0  0.00000000000E+00  0.00000000000E+00  0.64559142656E+03  0.64559142658E+03  0.50400001928E-02 0. -1.
       -1   -1    0    0    0  501  0.00000000000E+00  0.00000000000E+00 -0.12160433339E+03  0.12160433350E+03  0.50400001928E-02 0.  1.
    10030    2    1    2    0    0  0.00000000000E+00  0.00000000000E+00  0.52398709317E+03  0.76719576008E+03  0.56038099582E+03 0.  0.
        4    1    3    3  502    0 -0.16253770506E+02 -0.54609853763E+02 -0.11358527653E+03  0.12708126978E+03  0.12699999809E+01 0.  1.
       -4    1    3    3    0  502  0.16253770506E+02  0.54609853763E+02  0.63757236970E+03  0.64011449030E+03  0.12699999809E+01 0. -1.
</event>
<event>
 5   0  0.3437375E-02  0.6127232E+03  0.7818609E-02  0.9879355E-01
        4   -1    0    0  501    0  0.00000000000E+00  0.00000000000E+00  0.84429224553E+03  0.84429320071E+03  0.12699999809E+01 0. -1.
       -4   -1    0    0    0  501  0.00000000000E+00  0.00000000000E+00 -0.11116235481E+03  0.11116960928E+03  0.12699999809E+01 0.  1.
    10030    2    1    2    0    0  0.00000000000E+00  0.00000000000E+00  0.73312989072E+03  0.95546280998E+03  0.61272322022E+03 0.  0.
        5    1    3    3  502    0  0.27099486471E+02  0.29879971391E+03  0.46293981174E+03  0.55168017047E+03  0.46999998093E+01 0. -1.
       -5    1    3    3    0  502 -0.27099486471E+02 -0.29879971391E+03  0.27019007898E+03  0.40378263951E+03  0.46999998093E+01 0.  1.
</event>
<event>
 5   0  0.3437375E-02  0.5996457E+03  0.7818609E-02  0.9906141E-01
        3   -1    0    0  501    0  0.00000000000E+00  0.00000000000E+00  0.10785721512E+04  0.10785721559E+04  0.10100000352E+00 0. -1.
       -3   -1    0    0    0  501  0.00000000000E+00  0.00000000000E+00 -0.83345111981E+02  0.83345173178E+02  0.10100000352E+00 0.  1.
    10030    2    1    2    0    0  0.00000000000E+00  0.00000000000E+00  0.99522703922E+03  0.11619173291E+04  0.59964574549E+03 0.  0.
        2    1    3    3  502    0 -0.15371809640E+03 -0.25118380590E+03  0.60673044440E+03  0.67442152226E+03  0.25500000920E-02 0. -1.
       -2    1    3    3    0  502  0.15371809640E+03  0.25118380590E+03  0.38849659481E+03  0.48749580685E+03  0.25500000920E-02 0.  1.
</event>
<event>
 5   0  0.8420604E-02  0.6018915E+03  0.7818609E-02  0.9901490E-01
       -2   -1    0    0    0  501  0.00000000000E+00  0.00000000000E+00  0.16415519919E+03  0.16415519921E+03  0.25500000920E-02 0.  1.
        2   -1    0    0  501    0  0.00000000000E+00  0.00000000000E+00 -0.55172388897E+03  0.55172388898E+03  0.25500000920E-02 0. -1.
    10030    2    1    2    0    0  0.00000000000E+00  0.00000000000E+00 -0.38756868979E+03  0.71587908818E+03  0.60189150152E+03 0.  0.
        2    1    3    3  502    0 -0.26673293184E+03  0.11169290771E+03 -0.94653899219E+02  0.30427146301E+03  0.25500000920E-02 0.  1.
       -2    1    3    3    0  502  0.26673293184E+03 -0.11169290771E+03 -0.29291479057E+03  0.41160762517E+03  0.25500000920E-02 0. -1.
</event>
<event>
 5   0  0.5166903E-02  0.5882199E+03  0.7818609E-02  0.9930152E-01
       -1   -1    0    0    0  501  0.00000000000E+00  0.00000000000E+00  0.82929602437E+02  0.82929602590E+02  0.50400001928E-02 0. -1.
        1   -1    0    0  501    0  0.00000000000E+00  0.00000000000E+00 -0.10430614656E+04  0.10430614656E+04  0.50400001928E-02 0.  1.
    10030    2    1    2    0    0  0.00000000000E+00  0.00000000000E+00 -0.96013186312E+03  0.11259910682E+04  0.58821993420E+03 0.  0.
        2    1    3    3  502    0 -0.98076301560E+02 -0.69752114805E+02 -0.99376736001E+03  0.10010284133E+04  0.25500000920E-02 0.  1.
       -2    1    3    3    0  502  0.98076301560E+02  0.69752114805E+02  0.33635496887E+02  0.12496265484E+03  0.25500000920E-02 0. -1.
</event>
<event>
 5   0  0.8699746E-02  0.6068737E+03  0.7818609E-02  0.9891247E-01
       -2   -1    0    0    0  501  0.00000000000E+00  0.00000000000E+00  0.24907823044E+03  0.24907823046E+03  0.25500000920E-02 0.  1.
        2   -1    0    0  501    0  0.00000000000E+00  0.00000000000E+00 -0.36965860373E+03  0.36965860374E+03  0.25500000920E-02 0. -1.
    10030    2    1    2    0    0  0.00000000000E+00  0.00000000000E+00 -0.12058037328E+03  0.61873683419E+03  0.60687366359E+03 0.  0.
        3    1    3    3  502    0 -0.23653303596E+03  0.14583021031E+03 -0.18457293543E+03  0.33358882780E+03  0.10100000352E+00 0. -1.
       -3    1    3    3    0  502  0.23653303596E+03 -0.14583021031E+03  0.63992562146E+02  0.28514800639E+03  0.10100000352E+00 0.  1.
</event>
<event>
 5   0  0.8817544E-02  0.6012404E+03  0.7818609E-02  0.9902836E-01
       -2   -1    0    0    0  501  0.00000000000E+00  0.00000000000E+00  0.27752117799E+03  0.27752117800E+03  0.25500000920E-02 0. -1.
        2   -1    0    0  501    0  0.00000000000E+00  0.00000000000E+00 -0.32564186786E+03  0.32564186787E+03  0.25500000920E-02 0.  1.
    10030    2    1    2    0    0  0.00000000000E+00  0.00000000000E+00 -0.48120689872E+02  0.60316304586E+03  0.60124043369E+03 0.  0.
        5    1    3    3  502    0 -0.13287243083E+03  0.21570279524E+03  0.13822110317E+03  0.28863461697E+03  0.46999998093E+01 0. -1.
       -5    1    3    3    0  502  0.13287243083E+03 -0.21570279524E+03 -0.18634179304E+03  0.31452842890E+03  0.46999998093E+01 0.  1.
</event>
<event>
 5   0  0.5190380E-02  0.5981689E+03  0.7818609E-02  0.9909212E-01
       -1   -1    0    0    0  501  0.00000000000E+00  0.00000000000E+00  0.70409225154E+03  0.70409225156E+03  0.50400001928E-02 0.  1.
        1   -1    0    0  501    0  0.00000000000E+00  0.00000000000E+00 -0.12704515704E+03  0.12704515714E+03  0.50400001928E-02 0. -1.
    10030    2    1    2    0    0  0.00000000000E+00  0.00000000000E+00  0.57704709451E+03  0.83113740869E+03  0.59816890830E+03 0.  0.
        5    1    3    3  502    0  0.26969858809E+03  0.19736383624E+02  0.11111399597E+03  0.29239573074E+03  0.46999998093E+01 0.  1.
       -5    1    3    3    0  502 -0.26969858809E+03 -0.19736383624E+02  0.46593309853E+03  0.53874167795E+03  0.46999998093E+01 0. -1.
</event>
<event>
 5   0  0.4881209E-02  0.4970645E+03  0.7818609E-02  0.1014548E+00
        1   -1    0    0  501    0  0.00000000000E+00  0.00000000000E+00  0.63681185335E+03  0.63681185337E+03  0.50400001928E-02 0. -1.
       -1   -1    0    0    0  501  0.00000000000E+00  0.00000000000E+00 -0.96996135636E+02  0.96996135767E+02  0.50400001928E-02 0.  1.
    10030    2    1    2    0    0  0.00000000000E+00  0.00000000000E+00  0.53981571772E+03  0.73380798914E+03  0.49706453890E+03 0.  0.
        3    1    3    3  502    0  0.63598916702E+02 -0.35052286431E+02 -0.80984465501E+02  0.10877489988E+03  0.10100000352E+00 0.  1.
       -3    1    3    3    0  502 -0.63598916702E+02  0.35052286431E+02  0.62080018322E+03  0.62503308926E+03  0.10100000352E+00 0. -1.
</event>
<event>
 5   0  0.8699746E-02  0.5969671E+03  0.7818609E-02  0.9911718E-01
        2   -1    0    0  501    0  0.00000000000E+00  0.00000000000E+00  0.11557498941E+04  0.11557498941E+04  0.25500000920E-02 0. -1.
       -2   -1    0    0    0  501  0.00000000000E+00  0.00000000000E+00 -0.77086245620E+02  0.77086245663E+02  0.25500000920E-02 0.  1.
    10030    2    1    2    0    0  0.00000000000E+00  0.00000000000E+00  0.10786636485E+04  0.12328361398E+04  0.59696706858E+03 0.  0.
        3    1    3    3  502    0 -0.26276232175E+03 -0.10784559466E+03  0.72880673246E+03  0.78219816766E+03  0.10100000352E+00 0. -1.
       -3    1    3    3    0  502  0.26276232175E+03  0.10784559466E+03  0.34985691607E+03  0.45063797215E+03  0.10100000352E+00 0.  1.
</event>
<event>
 5   0  0.8207443E-02  0.5907951E+03  0.7818609E-02  0.9924690E-01
       -2   -1    0    0    0  501  0.00000000000E+00  0.00000000000E+00  0.42593234962E+03  0.42593234963E+03  0.25500000920E-02 0. -1.
        2   -1    0    0  501    0  0.00000000000E+00  0.00000000000E+00 -0.20486750819E+03  0.20486750820E+03  0.25500000920E-02 0.  1.
    10030    2    1    2    0    0  0.00000000000E+00  0.00000000000E+00  0.22106484144E+03  0.63079985783E+03  0.59079505458E+03 0.  0.
        1    1    3    3  502    0 -0.83632456841E+02 -0.43145512396E+02  0.40949940122E+03  0.42017339600E+03  0.50400001928E-02 0. -1.
       -1    1    3    3    0  502  0.83632456841E+02  0.43145512396E+02 -0.18843455979E+03  0.21062646183E+03  0.50400001928E-02 0.  1.
</event>
<event>
 5   0  0.8207443E-02  0.6030250E+03  0.7818609E-02  0.9899150E-01
       -2   -1    0    0    0  501  0.00000000000E+00  0.00000000000E+00  0.42900257851E+03  0.42900257851E+03  0.25500000920E-02 0. -1.
        2   -1    0    0  501    0  0.00000000000E+00  0.00000000000E+00 -0.21190966667E+03  0.21190966669E+03  0.25500000920E-02 0.  1.
    10030    2    1    2    0    0  0.00000000000E+00  0.00000000000E+00  0.21709291183E+03  0.64091224520E+03  0.60302501912E+03 0.  0.
        1    1    3    3  502    0 -0.10874616439E+03  0.25732850485E+03  0.22910189133E+03  0.36129124583E+03  0.50400001928E-02 0. -1.
       -1    1    3    3    0  502  0.10874616439E+03 -0.25732850485E+03 -0.12008979491E+02  0.27962099937E+03  0.50400001928E-02 0.  1.
</event>
<event>
 5   0  0.8420604E-02  0.5931921E+03  0.7818609E-02  0.9919632E-01
        2   -1    0    0  501    0  0.00000000000E+00  0.00000000000E+00  0.12601041358E+04  0.12601041358E+04  0.25500000920E-02 0. -1.
       -2   -1    0    0    0  501  0.00000000000E+00  0.00000000000E+00 -0.69811071524E+02  0.69811071571E+02  0.25500000920E-02 0.  1.
    10030    2    1    2    0    0  0.00000000000E+00  0.00000000000E+00  0.11902930642E+04  0.13299152073E+04  0.59319211047E+03 0.  0.
        2    1    3    3  502    0 -0.21701235075E+03  0.18013397076E+03  0.80095113761E+03  0.84915565867E+03  0.25500000920E-02 0. -1.
       -2    1    3    3    0  502  0.21701235075E+03 -0.18013397076E+03  0.38934192663E+03  0.48075954867E+03  0.25500000920E-02 0.  1.
</event>
<event>
 5   0  0.4987389E-02  0.6115333E+03  0.7818609E-02  0.9881763E-01
        1   -1    0    0  501    0  0.00000000000E+00  0.00000000000E+00  0.45626010059E+03  0.45626010061E+03  0.50400001928E-02 0.  1.
       -1   -1    0    0    0  501  0.00000000000E+00  0.00000000000E+00 -0.20491216741E+03  0.20491216747E+03  0.50400001928E-02 0. -1.
    10030    2    1    2    0    0  0.00000000000E+00  0.00000000000E+00  0.25134793318E+03  0.66117226809E+03  0.61153330619E+03 0.  0.
        1    1    3    3  502    0 -0.15623833025E+03  0.70910816297E+02  0.39930748264E+03  0.43460927903E+03  0.50400001928E-02 0.  1.
       -1    1    3    3    0  502  0.15623833025E+03 -0.70910816297E+02 -0.14795954946E+03  0.22656298905E+03  0.50400001928E-02 0. -1.
</event>
<event>
 5   0  0.8207443E-02  0.6246638E+03  0.7818609E-02  0.9855518E-01
       -2   -1    0    0    0  501  0.00000000000E+00  0.00000000000E+00  0.15418266126E+03  0.15418266128E+03  0.25500000920E-02 0.  1.
        2   -1    0    0  501    0  0.00000000000E+00  0.00000000000E+00 -0.63269893830E+03  0.63269893830E+03  0.25500000920E-02 0. -1.
    10030    2    1    2    0    0  0.00000000000E+00  0.00000000000E+00 -0.47851627704E+03  0.78688159958E+03  0.62466376905E+03 0.  0.
        1    1    3    3  502    0  0.20413820213E+02 -0.43264262503E+02 -0.62805655102E+03  0.62987582250E+03  0.50400001928E-02 0. -1.
       -1    1    3    3    0  502 -0.20413820213E+02  0.43264262503E+02  0.14954027398E+03  0.15700577707E+03  0.50400001928E-02 0.  1.
</event>
<event>
 5   0  0.8575590E-02  0.6364118E+03  0.7818609E-02  0.9832616E-01
        2   -1    0    0  501    0  0.00000000000E+00  0.00000000000E+00  0.60939694809E+03  0.60939694810E+03  0.25500000920E-02 0. -1.
       -2   -1    0    0    0  501  0.00000000000E+00  0.00000000000E+00 -0.16615608371E+03  0.16615608372E+03  0.25500000920E-02 0.  1.
    10030    2    1    2    0    0  0.00000000000E+00  0.00000000000E+00  0.44324086439E+03  0.77555303182E+03  0.63641184881E+03 0.  0.
        4    1    3    3  502    0  0.12979343127E+03  0.17441947903E+03  0.50476577699E+03  0.54959857350E+03  0.12699999809E+01 0. -1.
       -4    1    3    3    0  502 -0.12979343127E+03 -0.17441947903E+03 -0.61524912608E+02  0.22595445832E+03  0.12699999809E+01 0.  1.
</event>
<event>
 5   0  0.8699746E-02  0.5942242E+03  0.7818609E-02  0.9917462E-01
       -2   -1    0    0    0  501  0.00000000000E+00  0.00000000000E+00  0.34753932916E+03  0.34753932916E+03  0.25500000920E-02 0. -1.
        2   -1    0    0  501    0  0.00000000000E+00  0.00000000000E+00 -0.25400176278E+03  0.25400176279E+03  0.25500000920E-02 0.  1.
    10030    2    1    2    0    0  0.00000000000E+00  0.00000000000E+00  0.93537566375E+02  0.60154109196E+03  0.59422420768E+03 0.  0.
        3    1    3    3  502    0 -0.17099464477E+03  0.19940980379E+03  0.18730235500E+03  0.32262303200E+03  0.10100000352E+00 0. -1.
       -3    1    3    3    0  502  0.17099464477E+03 -0.19940980379E+03 -0.93764788621E+02  0.27891805996E+03  0.10100000352E+00 0.  1.
</event>
<event>
 5   0  0.4881209E-02  0.5992641E+03  0.7818609E-02  0.9906934E-01
       -1   -1    0    0    0  501  0.00000000000E+00  0.00000000000E+00  0.14148234565E+03  0.14148234574E+03  0.50400001928E-02 0.  1.
        1   -1    0    0  501    0  0.00000000000E+00  0.00000000000E+00 -0.63456231296E+03  0.63456231298E+03  0.50400001928E-02 0. -1.
    10030    2    1    2    0    0  0.00000000000E+00  0.00000000000E+00 -0.49307996731E+03  0.77604465872E+03  0.59926409718E+03 0.  0.
        3    1    3    3  502    0 -0.11685728340E+02 -0.11529677187E+03  0.11128562479E+03  0.16066861030E+03  0.10100000352E+00 0.  1.
       -3    1    3    3    0  502  0.11685728340E+02  0.11529677187E+03 -0.60436559210E+03  0.61537604842E+03  0.10100000352E+00 0. -1.
</event>
<event>
 5   0  0.3437375E-02  0.5997104E+03  0.7818609E-02  0.9906007E-01
       -4   -1    0    0    0  501  0.00000000000E+00  0.00000000000E+00  0.11595300041E+03  0.11595995517E+03  0.12699999809E+01 0. -1.
        4   -1    0    0  501    0  0.00000000000E+00  0.00000000000E+00 -0.77539679556E+03  0.77539783561E+03  0.12699999809E+01 0.  1.
    10030    2    1    2    0    0  0.00000000000E+00  0.00000000000E+00 -0.65944379516E+03  0.89135779078E+03  0.59971042363E+03 0.  0.
        1    1    3    3  502    0 -0.13320225840E+03  0.20662218340E+03 -0.58490762380E+03  0.63447024888E+03  0.50400001928E-02 0.  1.
       -1    1    3    3    0  502  0.13320225840E+03 -0.20662218340E+03 -0.74536171358E+02  0.25688754190E+03  0.50400001928E-02 0. -1.
</event>
<event>
 5   0  0.8207443E-02  0.6041084E+03  0.7818609E-02  0.9896919E-01
       -2   -1    0    0    0  501  0.00000000000E+00  0.00000000000E+00  0.53209270713E+03  0.53209270713E+03  0.25500000920E-02 0. -1.
        2   -1    0    0  501    0  0.00000000000E+00  0.00000000000E+00 -0.17146776069E+03  0.17146776071E+03  0.25500000920E-02 0.  1.
    10030    2    1    2    0    0  0.00000000000E+00  0.00000000000E+00  0.36062494644E+03  0.70356046784E+03  0.60410841735E+03 0.  0.
        1    1    3    3  502    0  0.10821745117E+03  0.27588688169E+03  0.11228238606E+03  0.31690995957E+03  0.50400001928E-02 0. -1.
       -1    1    3    3    0  502 -0.10821745117E+03 -0.27588688169E+03  0.24834256038E+03  0.38665050827E+03  0.50400001928E-02 0.  1.
</event>
<event>
 5   0  0.3437375E-02  0.5986105E+03  0.7818609E-02  0.9908293E-01
       -3   -1    0    0    0  501  0.00000000000E+00  0.00000000000E+00  0.28905572094E+03  0.28905573859E+03  0.10100000352E+00 0.  1.
        3   -1    0    0  501    0  0.00000000000E+00  0.00000000000E+00 -0.30991822568E+03  0.30991824214E+03  0.10100000352E+00 0. -1.
    10030    2    1    2    0    0  0.00000000000E+00  0.00000000000E+00 -0.20862504737E+02  0.59897398072E+03  0.59861054575E+03 0.  0.
        5    1    3    3  502    0  0.41128364594E+02  0.27791471829E+03  0.92749845886E+02  0.29589315120E+03  0.46999998093E+01 0. -1.
       -5    1    3    3    0  502 -0.41128364594E+02 -0.27791471829E+03 -0.11361235062E+03  0.30308082953E+03  0.46999998093E+01 0.  1.
</event>
<event>
 5   0  0.8575590E-02  0.6013641E+03  0.7818609E-02  0.9902580E-01
        2   -1    0    0  501    0  0.00000000000E+00  0.00000000000E+00  0.16208545856E+04  0.16208545856E+04  0.25500000920E-02 0. -1.
       -2   -1    0    0    0  501  0.00000000000E+00  0.00000000000E+00 -0.55779021237E+02  0.55779021296E+02  0.25500000920E-02 0.  1.
    10030    2    1    2    0    0  0.00000000000E+00  0.00000000000E+00  0.15650755644E+04  0.16766336069E+04  0.60136405747E+03 0.  0.
        4    1    3    3  502    0  0.14792701470E+03 -0.23053864890E+03  0.11282740727E+04  0.11610488647E+04  0.12699999809E+01 0. -1.
       -4    1    3    3    0  502 -0.14792701470E+03  0.23053864890E+03  0.43680149168E+03  0.51558474216E+03  0.12699999809E+01 0.  1.
</event>
<event>
 5   0  0.8699746E-02  0.6023299E+03  0.7818609E-02  0.9900584E-01
        2   -1    0    0  501    0  0.00000000000E+00  0.00000000000E+00  0.15014273170E+04  0.15014273170E+04  0.25500000920E-02 0. -1.
       -2   -1    0    0    0  501  0.00000000000E+00  0.00000000000E+00 -0.60409402293E+02  0.60409402347E+02  0.25500000920E-02 0.  1.
    10030    2    1    2    0    0  0.00000000000E+00  0.00000000000E+00  0.14410179147E+04  0.15618367194E+04  0.60232989915E+03 0.  0.
        3    1    3    3  502    0 -0.72487330699E+02 -0.24047338531E+03  0.28958474807E+03  0.38332909970E+03  0.10100000352E+00 0.  1.
       -3    1    3    3    0  502  0.72487330699E+02  0.24047338531E+03  0.11514331666E+04  0.11785076197E+04  0.10100000352E+00 0. -1.
</event>
<event>
 5   0  0.4987389E-02  0.6105696E+03  0.7818609E-02  0.9883717E-01
        1   -1    0    0  501    0  0.00000000000E+00  0.00000000000E+00  0.76309748342E+03  0.76309748344E+03  0.50400001928E-02 0. -1.
       -1   -1    0    0    0  501  0.00000000000E+00  0.00000000000E+00 -0.12213226125E+03  0.12213226136E+03  0.50400001928E-02 0.  1.
    10030    2    1    2    0    0  0.00000000000E+00  0.00000000000E+00  0.64096522217E+03  0.88522974480E+03  0.61056963980E+03 0.  0.
        1    1    3    3  502    0 -0.16077444007E+03 -0.40312838143E+01  0.69669966827E+03  0.71502104837E+03  0.50400001928E-02 0. -1.
       -1    1    3    3    0  502  0.16077444007E+03  0.40312838143E+01 -0.55734446098E+02  0.17020869642E+03  0.50400001928E-02 0.  1.
</event>
<event>
 5   0  0.8420604E-02  0.6065249E+03  0.7818609E-02  0.9891961E-01
        2   -1    0    0  501    0  0.00000000000E+00  0.00000000000E+00  0.29452794385E+03  0.29452794386E+03  0.25500000920E-02 0. -1.
       -2   -1    0    0    0  501  0.00000000000E+00  0.00000000000E+00 -0.31225603024E+03  0.31225603025E+03  0.25500000920E-02 0.  1.
    10030    2    1    2    0    0  0.00000000000E+00  0.00000000000E+00 -0.17728086392E+02  0.60678397412E+03  0.60652494276E+03 0.  0.
        2    1    3    3  502    0  0.26735763034E+03  0.60903605999E+02 -0.13845227358E+03  0.30717809783E+03  0.25500000920E-02 0. -1.
       -2    1    3    3    0  502 -0.26735763034E+03 -0.60903605999E+02  0.12072418719E+03  0.29960587628E+03  0.25500000920E-02 0.  1.
</event>
<event>
 5   0  0.5125031E-02  0.5863565E+03  0.7818609E-02  0.9934123E-01
       -1   -1    0    0    0  501  0.00000000000E+00  0.00000000000E+00  0.71863274590E+03  0.71863274592E+03  0.50400001928E-02 0.  1.
        1   -1    0    0  501    0  0.00000000000E+00  0.00000000000E+00 -0.11960698485E+03  0.11960698496E+03  0.50400001928E-02 0. -1.
    10030    2    1    2    0    0  0.00000000000E+00  0.00000000000E+00  0.59902576105E+03  0.83823973088E+03  0.58635653320E+03 0.  0.
        4    1    3    3  502    0 -0.11061083130E+03 -0.13901335367E+03 -0.33894832500E+02  0.18085889823E+03  0.12699999809E+01 0. -1.
       -4    1    3    3    0  502  0.11061083130E+03  0.13901335367E+03  0.63292059355E+03  0.65738083265E+03  0.12699999809E+01 0.  1.
</event>
<event>
 5   0  0.5166903E-02  0.6023540E+03  0.7818609E-02  0.9900534E-01
        1   -1    0    0  501    0  0.00000000000E+00  0.00000000000E+00  0.46893032330E+03  0.46893032332E+03  0.50400001928E-02 0.  1.
       -1   -1    0    0    0  501  0.00000000000E+00  0.00000000000E+00 -0.19343507808E+03  0.19343507815E+03  0.50400001928E-02 0. -1.
    10030    2    1    2    0    0  0.00000000000E+00  0.00000000000E+00  0.27549524522E+03  0.66236540147E+03  0.60235396150E+03 0.  0.
        2    1    3    3  502    0 -0.10476348505E+03  0.23886427360E+03  0.30333587422E+03  0.40005522319E+03  0.25500000920E-02 0.  1.
       -2    1    3    3    0  502  0.10476348505E+03 -0.23886427360E+03 -0.27840629003E+02  0.26231017829E+03  0.25500000920E-02 0. -1.
</event>
<event>
 5   0  0.8817544E-02  0.5916966E+03  0.7818609E-02  0.9922784E-01
        2   -1    0    0  501    0  0.00000000000E+00  0.00000000000E+00  0.83687662326E+03  0.83687662327E+03  0.25500000920E-02 0. -1.
       -2   -1    0    0    0  501  0.00000000000E+00  0.00000000000E+00 -0.10458676382E+03  0.10458676385E+03  0.25500000920E-02 0.  1.
    10030    2    1    2    0    0  0.00000000000E+00  0.00000000000E+00  0.73228985944E+03  0.94146338712E+03  0.59169660388E+03 0.  0.
        5    1    3    3  502    0 -0.12345778129E+03 -0.22000400495E+03  0.61192378049E+03  0.66190361012E+03  0.46999998093E+01 0. -1.
       -5    1    3    3    0  502  0.12345778129E+03  0.22000400495E+03  0.12036607895E+03  0.27955977700E+03  0.46999998093E+01 0.  1.
</event>
<event>
 5   0  0.4987389E-02  0.5946716E+03  0.7818609E-02  0.9916523E-01
       -1   -1    0    0    0  501  0.00000000000E+00  0.00000000000E+00  0.41392981320E+03  0.41392981323E+03  0.50400001928E-02 0. -1.
        1   -1    0    0  501    0  0.00000000000E+00  0.00000000000E+00 -0.21358346889E+03  0.21358346894E+03  0.50400001928E-02 0.  1.
    10030    2    1    2    0    0  0.00000000000E+00  0.00000000000E+00  0.20034634432E+03  0.62751328218E+03  0.59467155777E+03 0.  0.
        1    1    3    3  502    0 -0.77019904422E+02 -0.13069774033E+03 -0.16967327249E+03  0.22760268985E+03  0.50400001928E-02 0.  1.
       -1    1    3    3    0  502  0.77019904422E+02  0.13069774033E+03  0.37001961681E+03  0.39991059232E+03  0.50400001928E-02 0. -1.
</event>
<event>
 5   0  0.8575590E-02  0.5982611E+03  0.7818609E-02  0.9909020E-01
       -2   -1    0    0    0  501  0.00000000000E+00  0.00000000000E+00  0.19175131257E+03  0.19175131259E+03  0.25500000920E-02 0. -1.
        2   -1    0    0  501    0  0.00000000000E+00  0.00000000000E+00 -0.46664126595E+03  0.46664126596E+03  0.25500000920E-02 0.  1.
    10030    2    1    2    0    0  0.00000000000E+00  0.00000000000E+00 -0.27488995338E+03  0.65839257854E+03  0.59826106426E+03 0.  0.
        4    1    3    3  502    0  0.12750984811E+03 -0.13935030559E+03  0.11781698691E+03  0.22262013462E+03  0.12699999809E+01 0. -1.
       -4    1    3    3    0  502 -0.12750984811E+03  0.13935030559E+03 -0.39270694029E+03  0.43577244393E+03  0.12699999809E+01 0.  1.
</event>
<event>
 5   0  0.5190380E-02  0.6041369E+03  0.7818609E-02  0.9896860E-01
       -1   -1    0    0    0  501  0.00000000000E+00  0.00000000000E+00  0.80946866564E+02  0.80946866721E+02  0.50400001928E-02 0.  1.
        1   -1    0    0  501    0  0.00000000000E+00  0.00000000000E+00 -0.11272250456E+04  0.11272250456E+04  0.50400001928E-02 0. -1.
    10030    2    1    2    0    0  0.00000000000E+00  0.00000000000E+00 -0.10462781790E+04  0.12081719123E+04  0.60413685686E+03 0.  0.
        5    1    3    3  502    0  0.89246411970E+02 -0.23855006764E+03 -0.19849929966E+03  0.32294754804E+03  0.46999998093E+01 0.  1.
       -5    1    3    3    0  502 -0.89246411970E+02  0.23855006764E+03 -0.84777887937E+03  0.88522436429E+03  0.46999998093E+01 0. -1.
</event>
<event>
 5   0  0.8699746E-02  0.5976427E+03  0.7818609E-02  0.9910309E-01
        2   -1    0    0  501    0  0.00000000000E+00  0.00000000000E+00  0.15272558341E+04  0.15272558341E+04  0.25500000920E-02 0. -1.
       -2   -1    0    0    0  501  0.00000000000E+00  0.00000000000E+00 -0.58467078232E+02  0.58467078288E+02  0.25500000920E-02 0.  1.
    10030    2    1    2    0    0  0.00000000000E+00  0.00000000000E+00  0.14687887559E+04  0.15857229124E+04  0.59764265705E+03 0.  0.
        3    1    3    3  502    0  0.26018449513E+03  0.10536773879E+03  0.10062225115E+04  0.10446444777E+04  0.10100000352E+00 0.  1.
       -3    1    3    3    0  502 -0.26018449513E+03 -0.10536773879E+03  0.46256624438E+03  0.54107843473E+03  0.10100000352E+00 0. -1.
</event>
<event>
 5   0  0.8699746E-02  0.5990421E+03  0.7818609E-02  0.9907395E-01
       -2   -1    0    0    0  501  0.00000000000E+00  0.00000000000E+00  0.15461516601E+03  0.15461516604E+03  0.25500000920E-02 0. -1.
        2   -1    0    0  501    0  0.00000000000E+00  0.00000000000E+00 -0.58023326054E+03  0.58023326055E+03  0.25500000920E-02 0.  1.
    10030    2    1    2    0    0  0.00000000000E+00  0.00000000000E+00 -0.42561809453E+03  0.73484842658E+03  0.59904210842E+03 0.  0.
        3    1    3    3  502    0 -0.28097589706E+03  0.30871333579E+02 -0.91294827045E+02  0.29704418797E+03  0.10100000352E+00 0. -1.
       -3    1    3    3    0  502  0.28097589706E+03 -0.30871333579E+02 -0.33432326748E+03  0.43780423861E+03  0.10100000352E+00 0.  1.
</event>
<event>
 5   0  0.4881209E-02  0.6016562E+03  0.7818609E-02  0.9901976E-01
        1   -1    0    0  501    0  0.00000000000E+00  0.00000000000E+00  0.30199423064E+03  0.30199423069E+03  0.50400001928E-02 0.  1.
       -1   -1    0    0    0  501  0.00000000000E+00  0.00000000000E+00 -0.29966649054E+03  0.29966649058E+03  0.50400001928E-02 0. -1.
    10030    2    1    2    0    0  0.00000000000E+00  0.00000000000E+00  0.23277401005E+01  0.60166072127E+03  0.60165621840E+03 0.  0.
        3    1    3    3  502    0  0.27055489480E+03 -0.12886379709E+03  0.27464481012E+02  0.30093211397E+03  0.10100000352E+00 0.  1.
       -3    1    3    3    0  502 -0.27055489480E+03  0.12886379709E+03 -0.25136740912E+02  0.30072860730E+03  0.10100000352E+00 0. -1.
</event>
<event>
 5   0  0.8420604E-02  0.5887661E+03  0.7818609E-02  0.9928991E-01
       -2   -1    0    0    0  501  0.00000000000E+00  0.00000000000E+00  0.12726854370E+03  0.12726854372E+03  0.25500000920E-02 0. -1.
        2   -1    0    0  501    0  0.00000000000E+00  0.00000000000E+00 -0.68093317055E+03  0.68093317055E+03  0.25500000920E-02 0.  1.
    10030    2    1    2    0    0  0.00000000000E+00  0.00000000000E+00 -0.55366462685E+03  0.80820171427E+03  0.58876607573E+03 0.  0.
        2    1    3    3  502    0  0.20854218215E+03  0.20501413204E+03 -0.23046950505E+03  0.37233966863E+03  0.25500000920E-02 0. -1.
       -2    1    3    3    0  502 -0.20854218215E+03 -0.20501413204E+03 -0.32319512180E+03  0.43586204564E+03  0.25500000920E-02 0.  1.
</event>
<event>
 5   0  0.8575590E-02  0.5996532E+03  0.7818609E-02  0.9906126E-01
       -2   -1    0    0    0  501  0.00000000000E+00  0.00000000000E+00  0.12301134406E+03  0.12301134409E+03  0.25500000920E-02 0. -1.
        2   -1    0    0  501    0  0.00000000000E+00  0.00000000000E+00 -0.73079424806E+03  0.73079424807E+03  0.25500000920E-02 0.  1.
    10030    2    1    2    0    0  0.00000000000E+00  0.00000000000E+00 -0.60778290400E+03  0.85380559216E+03  0.59965317543E+03 0.  0.
        4    1    3    3  502    0  0.16304491994E+03  0.44277227266E+01  0.54312394211E+02  0.17191480364E+03  0.12699999809E+01 0. -1.
       -4    1    3    3    0  502 -0.16304491994E+03 -0.44277227266E+01 -0.66209529821E+03  0.68189078851E+03  0.12699999809E+01 0.  1.
</event>
<event>
 5   0  0.8575590E-02  0.6209433E+03  0.7818609E-02  0.9862883E-01
       -2   -1    0    0    0  501  0.00000000000E+00  0.00000000000E+00  0.82488995697E+02  0.82488995736E+02  0.25500000920E-02 0.  1.
        2   -1    0    0  501    0  0.00000000000E+00  0.00000000000E+00 -0.11685514980E+04  0.11685514980E+04  0.25500000920E-02 0. -1.
    10030    2    1    2    0    0  0.00000000000E+00  0.00000000000E+00 -0.10860625023E+04  0.12510404937E+04  0.62094328087E+03 0.  0.
        4    1    3    3  502    0 -0.44933800674E+01 -0.31031311136E+03 -0.56066560366E+03  0.64082911105E+03  0.12699999809E+01 0.  1.
       -4    1    3    3    0  502  0.44933800674E+01  0.31031311136E+03 -0.52539689861E+03  0.61021138265E+03  0.12699999809E+01 0. -1.
</event>
<event>
 5   0  0.5166903E-02  0.6018491E+03  0.7818609E-02  0.9901577E-01
       -1   -1    0    0    0  501  0.00000000000E+00  0.00000000000E+00  0.36557764466E+03  0.36557764470E+03  0.50400001928E-02 0. -1.
        1   -1    0    0  501    0  0.00000000000E+00  0.00000000000E+00 -0.24770551787E+03  0.24770551792E+03  0.50400001928E-02 0.  1.
    10030    2    1    2    0    0  0.00000000000E+00  0.00000000000E+00  0.11787212680E+03  0.61328316261E+03  0.60184914993E+03 0.  0.
        2    1    3    3  502    0 -0.34662791308E+02 -0.12494099209E+03 -0.21778120504E+03  0.25345692707E+03  0.25500000920E-02 0.  1.
       -2    1    3    3    0  502  0.34662791308E+02  0.12494099209E+03  0.33565333184E+03  0.35982623554E+03  0.25500000920E-02 0. -1.
</event>
<event>
 5   0  0.4881209E-02  0.5960027E+03  0.7818609E-02  0.9913734E-01
        1   -1    0    0  501    0  0.00000000000E+00  0.00000000000E+00  0.11467097115E+04  0.11467097115E+04  0.50400001928E-02 0.  1.
       -1   -1    0    0    0  501  0.00000000000E+00  0.00000000000E+00 -0.77443153029E+02  0.77443153193E+02  0.50400001928E-02 0. -1.
    10030    2    1    2    0    0  0.00000000000E+00  0.00000000000E+00  0.10692665585E+04  0.12241528647E+04  0.59600273750E+03 0.  0.
        3    1    3    3  502    0 -0.20837449970E+03  0.89194176955E+01  0.97451566082E+02  0.23020926582E+03  0.10100000352E+00 0. -1.
       -3    1    3    3    0  502  0.20837449970E+03 -0.89194176955E+01  0.97181499240E+03  0.99394359890E+03  0.10100000352E+00 0.  1.
</event>
<event>
 5   0  0.4987389E-02  0.6004123E+03  0.7818609E-02  0.9904551E-01
        1   -1    0    0  501    0  0.00000000000E+00  0.00000000000E+00  0.44500816720E+03  0.44500816722E+03  0.50400001928E-02 0. -1.
       -1   -1    0    0    0  501  0.00000000000E+00  0.00000000000E+00 -0.20252155350E+03  0.20252155356E+03  0.50400001928E-02 0.  1.
    10030    2    1    2    0    0  0.00000000000E+00  0.00000000000E+00  0.24248661370E+03  0.64752972079E+03  0.60041234288E+03 0.  0.
        1    1    3    3  502    0 -0.91146681574E+02  0.22589559278E+03  0.31047560108E+03  0.39462847755E+03  0.50400001928E-02 0. -1.
       -1    1    3    3    0  502  0.91146681574E+02 -0.22589559278E+03 -0.67988987383E+02  0.25290124324E+03  0.50400001928E-02 0.  1.
</event>
<event>
 5   0  0.5166903E-02  0.5970400E+03  0.7818609E-02  0.9911566E-01
       -1   -1    0    0    0  501  0.00000000000E+00  0.00000000000E+00  0.16274955890E+03  0.16274955898E+03  0.50400001928E-02 0. -1.
        1   -1    0    0  501    0  0.00000000000E+00  0.00000000000E+00 -0.54755409303E+03  0.54755409305E+03  0.50400001928E-02 0.  1.
    10030    2    1    2    0    0  0.00000000000E+00  0.00000000000E+00 -0.38480453413E+03  0.71030365202E+03  0.59703998911E+03 0.  0.
        2    1    3    3  502    0  0.10747215262E+03 -0.79466902862E+02  0.12516067378E+03  0.18311320681E+03  0.25500000920E-02 0. -1.
       -2    1    3    3    0  502 -0.10747215262E+03  0.79466902862E+02 -0.50996520791E+03  0.52719044522E+03  0.25500000920E-02 0.  1.
</event>
<event>
 5   0  0.4987389E-02  0.5957492E+03  0.7818609E-02  0.9914265E-01
        1   -1    0    0  501    0  0.00000000000E+00  0.00000000000E+00  0.41358891516E+03  0.41358891519E+03  0.50400001928E-02 0. -1.
       -1   -1    0    0    0  501  0.00000000000E+00  0.00000000000E+00 -0.21453493172E+03  0.21453493178E+03  0.50400001928E-02 0.  1.
    10030    2    1    2    0    0  0.00000000000E+00  0.00000000000E+00  0.19905398344E+03  0.62812384697E+03  0.59574917441E+03 0.  0.
        1    1    3    3  502    0  0.24792375801E+03  0.41513728544E+02  0.26802301112E+03  0.36745872416E+03  0.50400001928E-02 0. -1.
       -1    1    3    3    0  502 -0.24792375801E+03 -0.41513728544E+02 -0.68969027680E+02  0.26066512281E+03  0.50400001928E-02 0.  1.
</event>
<event>
 5   0  0.8420604E-02  0.5994434E+03  0.7818609E-02  0.9906561E-01
        2   -1    0    0  501    0  0.00000000000E+00  0.00000000000E+00  0.60474602588E+03  0.60474602589E+03  0.25500000920E-02 0. -1.
       -2   -1    0    0    0  501  0.00000000000E+00  0.00000000000E+00 -0.14854681877E+03  0.14854681880E+03  0.25500000920E-02 0.  1.
    10030    2    1    2    0    0  0.00000000000E+00  0.00000000000E+00  0.45619920711E+03  0.75329284468E+03  0.59944340291E+03 0.  0.
        2    1    3    3  502    0  0.20173759645E+03 -0.12816855928E+03  0.45536940279E+03  0.51428253948E+03  0.25500000920E-02 0. -1.
       -2    1    3    3    0  502 -0.20173759645E+03  0.12816855928E+03  0.82980431842E+00  0.23901030520E+03  0.25500000920E-02 0.  1.
</event>
<event>
 5   0  0.5166903E-02  0.5741573E+03  0.7818609E-02  0.9960521E-01
        1   -1    0    0  501    0  0.00000000000E+00  0.00000000000E+00  0.32991226104E+03  0.32991226108E+03  0.50400001928E-02 0. -1.
       -1   -1    0    0    0  501  0.00000000000E+00  0.00000000000E+00 -0.24980627094E+03  0.24980627099E+03  0.50400001928E-02 0.  1.
    10030    2    1    2    0    0  0.00000000000E+00  0.00000000000E+00  0.80105990108E+02  0.57971853207E+03  0.57415730142E+03 0.  0.
        2    1    3    3  502    0  0.12096844430E+03  0.25047620561E+03  0.11175105742E+03  0.29976656407E+03  0.25500000920E-02 0. -1.
       -2    1    3    3    0  502 -0.12096844430E+03 -0.25047620561E+03 -0.31645067313E+02  0.27995196800E+03  0.25500000920E-02 0.  1.
</event>
<event>
 5   0  0.8420604E-02  0.5818202E+03  0.7818609E-02  0.9943858E-01
       -2   -1    0    0    0  501  0.00000000000E+00  0.00000000000E+00  0.18577205044E+03  0.18577205046E+03  0.25500000920E-02 0.  1.
        2   -1    0    0  501    0  0.00000000000E+00  0.00000000000E+00 -0.45555123619E+03  0.45555123620E+03  0.25500000920E-02 0. -1.
    10030    2    1    2    0    0  0.00000000000E+00  0.00000000000E+00 -0.26977918575E+03  0.64132328666E+03  0.58182020328E+03 0.  0.
        2    1    3    3  502    0 -0.84327187771E+02 -0.27158054235E+03 -0.67285067563E+02  0.29222310980E+03  0.25500000920E-02 0.  1.
       -2    1    3    3    0  502  0.84327187771E+02  0.27158054235E+03 -0.20249411818E+03  0.34910017686E+03  0.25500000920E-02 0. -1.
</event>
<event>
 5   0  0.5125031E-02  0.6263261E+03  0.7818609E-02  0.9852245E-01
        1   -1    0    0  501    0  0.00000000000E+00  0.00000000000E+00  0.72796389457E+03  0.72796389458E+03  0.50400001928E-02 0.  1.
       -1   -1    0    0    0  501  0.00000000000E+00  0.00000000000E+00 -0.13471971703E+03  0.13471971713E+03  0.50400001928E-02 0. -1.
    10030    2    1    2    0    0  0.00000000000E+00  0.00000000000E+00  0.59324417753E+03  0.86268361171E+03  0.62632608100E+03 0.  0.
        4    1    3    3  502    0  0.18625526144E+03  0.49107689699E+02  0.63671538394E+03  0.66521476280E+03  0.12699999809E+01 0.  1.
       -4    1    3    3    0  502 -0.18625526144E+03 -0.49107689699E+02 -0.43471206410E+02  0.19746884891E+03  0.12699999809E+01 0. -1.
</event>
<event>
 5   0  0.4881209E-02  0.5960851E+03  0.7818609E-02  0.9913562E-01
        1   -1    0    0  501    0  0.00000000000E+00  0.00000000000E+00  0.13863810996E+03  0.13863811005E+03  0.50400001928E-02 0.  1.
       -1   -1    0    0    0  501  0.00000000000E+00  0.00000000000E+00 -0.64072832798E+03  0.64072832800E+03  0.50400001928E-02 0. -1.
    10030    2    1    2    0    0  0.00000000000E+00  0.00000000000E+00 -0.50209021802E+03  0.77936643805E+03  0.59608510947E+03 0.  0.
        3    1    3    3  502    0 -0.66922668966E+02  0.35303058844E+02  0.12587164994E+03  0.14686262984E+03  0.10100000352E+00 0.  1.
       -3    1    3    3    0  502  0.66922668966E+02 -0.35303058844E+02 -0.62796186796E+03  0.63250380821E+03  0.10100000352E+00 0. -1.
</event>
<event>
 5   0  0.8420604E-02  0.6166312E+03  0.7818609E-02  0.9871490E-01
       -2   -1    0    0    0  501  0.00000000000E+00  0.00000000000E+00  0.87792544039E+02  0.87792544076E+02  0.25500000920E-02 0. -1.
        2   -1    0    0  501    0  0.00000000000E+00  0.00000000000E+00 -0.10827629000E+04  0.10827629000E+04  0.25500000920E-02 0.  1.
    10030    2    1    2    0    0  0.00000000000E+00  0.00000000000E+00 -0.99497035593E+03  0.11705554440E+04  0.61663120129E+03 0.  0.
        2    1    3    3  502    0 -0.22557199243E+03 -0.20563079823E+03 -0.58005086259E+03  0.65545842900E+03  0.25500000920E-02 0.  1.
       -2    1    3    3    0  502  0.22557199243E+03  0.20563079823E+03 -0.41491949333E+03  0.51509701504E+03  0.25500000920E-02 0. -1.
</event>
<event>
 5   0  0.8207443E-02  0.5935230E+03  0.7818609E-02  0.9918936E-01
        2   -1    0    0  501    0  0.00000000000E+00  0.00000000000E+00  0.67606147476E+03  0.67606147476E+03  0.25500000920E-02 0.  1.
       -2   -1    0    0    0  501  0.00000000000E+00  0.00000000000E+00 -0.13026535479E+03  0.13026535482E+03  0.25500000920E-02 0. -1.
    10030    2    1    2    0    0  0.00000000000E+00  0.00000000000E+00  0.54579611996E+03  0.80632682958E+03  0.59352300001E+03 0.  0.
        1    1    3    3  502    0  0.11717118182E+03  0.18022793028E+03  0.55083958177E+03  0.59129978655E+03  0.50400001928E-02 0.  1.
       -1    1    3    3    0  502 -0.11717118182E+03 -0.18022793028E+03 -0.50434618095E+01  0.21502704303E+03  0.50400001928E-02 0. -1.
</event>
<event>
 5   0  0.8817544E-02  0.5959468E+03  0.7818609E-02  0.9913851E-01
        2   -1    0    0  501    0  0.00000000000E+00  0.00000000000E+00  0.61762843084E+03  0.61762843085E+03  0.25500000920E-02 0.  1.
       -2   -1    0    0    0  501  0.00000000000E+00  0.00000000000E+00 -0.14375656254E+03  0.14375656257E+03  0.25500000920E-02 0. -1.
    10030    2    1    2    0    0  0.00000000000E+00  0.00000000000E+00  0.47387186830E+03  0.76138499341E+03  0.59594677667E+03 0.  0.
        5    1    3    3  502    0 -0.89365324421E+02 -0.96452879592E+02  0.57850550844E+03  0.59327905111E+03  0.46999998093E+01 0.  1.
       -5    1    3    3    0  502  0.89365324421E+02  0.96452879592E+02 -0.10463364014E+03  0.16810594230E+03  0.46999998093E+01 0. -1.
</event>
<event>
 5   0  0.5125031E-02  0.6027075E+03  0.7818609E-02  0.9899805E-01
       -1   -1    0    0    0  501  0.00000000000E+00  0.00000000000E+00  0.41122056198E+02  0.41122056507E+02  0.50400001928E-02 0.  1.
        1   -1    0    0  501    0  0.00000000000E+00  0.00000000000E+00 -0.22084031580E+04  0.22084031580E+04  0.50400001928E-02 0. -1.
    10030    2    1    2    0    0  0.00000000000E+00  0.00000000000E+00 -0.21672811018E+04  0.22495252145E+04  0.60270748834E+03 0.  0.
        4    1    3    3  502    0 -0.25098065204E+03 -0.30989058502E+01 -0.46120115497E+03  0.52508000263E+03  0.12699999809E+01 0.  1.
       -4    1    3    3    0  502  0.25098065204E+03  0.30989058502E+01 -0.17060799468E+04  0.17244452119E+04  0.12699999809E+01 0. -1.
</event>
<event>
 5   0  0.4987389E-02  0.5980826E+03  0.7818609E-02  0.9909392E-01
        1   -1    0    0  501    0  0.00000000000E+00  0.00000000000E+00  0.37630398429E+03  0.37630398432E+03  0.50400001928E-02 0.  1.
       -1   -1    0    0    0  501  0.00000000000E+00  0.00000000000E+00 -0.23764214500E+03  0.23764214505E+03  0.50400001928E-02 0. -1.
    10030    2    1    2    0    0  0.00000000000E+00  0.00000000000E+00  0.13866183929E+03  0.61394612937E+03  0.59808255625E+03 0.  0.
        1    1    3    3  502    0 -0.60000117611E+02  0.14284463932E+03 -0.19322873198E+03  0.24767306673E+03  0.50400001928E-02 0. -1.
       -1    1    3    3    0  502  0.60000117611E+02 -0.14284463932E+03  0.33189057127E+03  0.36627306264E+03  0.50400001928E-02 0.  1.
</event>
<event>
 5   0  0.4881209E-02  0.5903701E+03  0.7818609E-02  0.9925589E-01
        1   -1    0    0  501    0  0.00000000000E+00  0.00000000000E+00  0.26555271801E+03  0.26555271806E+03  0.50400001928E-02 0.  1.
       -1   -1    0    0    0  501  0.00000000000E+00  0.00000000000E+00 -0.32812401122E+03  0.32812401125E+03  0.50400001928E-02 0. -1.
    10030    2    1    2    0    0  0.00000000000E+00  0.00000000000E+00 -0.62571293201E+02  0.59367672932E+03  0.59037013153E+03 0.  0.
        3    1    3    3  502    0  0.27174614127E+03  0.10046123954E+03  0.25562270289E+02  0.29084680814E+03  0.10100000352E+00 0.  1.
       -3    1    3    3    0  502 -0.27174614127E+03 -0.10046123954E+03 -0.88133563490E+02  0.30282992117E+03  0.10100000352E+00 0. -1.
</event>
<event>
 5   0  0.8699746E-02  0.6269846E+03  0.7818609E-02  0.9850951E-01
        2   -1    0    0  501    0  0.00000000000E+00  0.00000000000E+00  0.84097445576E+03  0.84097445577E+03  0.25500000920E-02 0. -1.
       -2   -1    0    0    0  501  0.00000000000E+00  0.00000000000E+00 -0.11686135197E+03  0.11686135200E+03  0.25500000920E-02 0.  1.
    10030    2    1    2    0    0  0.00000000000E+00  0.00000000000E+00  0.72411310379E+03  0.95783580777E+03  0.62698456724E+03 0.  0.
        3    1    3    3  502    0  0.13058586171E+03 -0.18677737401E+03  0.69091370876E+03  0.72753021784E+03  0.10100000352E+00 0.  1.
       -3    1    3    3    0  502 -0.13058586171E+03  0.18677737401E+03  0.33199395033E+02  0.23030558993E+03  0.10100000352E+00 0. -1.
</event>
<event>
 5   0  0.8420604E-02  0.6048410E+03  0.7818609E-02  0.9895413E-01
        2   -1    0    0  501    0  0.00000000000E+00  0.00000000000E+00  0.74686460529E+03  0.74686460529E+03  0.25500000920E-02 0.  1.
       -2   -1    0    0    0  501  0.00000000000E+00  0.00000000000E+00 -0.12245613317E+03  0.12245613320E+03  0.25500000920E-02 0. -1.
    10030    2    1    2    0    0  0.00000000000E+00  0.00000000000E+00  0.62440847212E+03  0.86932073849E+03  0.60484097606E+03 0.  0.
        2    1    3    3  502    0 -0.61318698956E+02  0.17664743462E+03 -0.29412729600E+02  0.18928657551E+03  0.25500000920E-02 0. -1.
       -2    1    3    3    0  502  0.61318698956E+02 -0.17664743462E+03  0.65382120172E+03  0.68003416298E+03  0.25500000920E-02 0.  1.
</event>
<event>
 5   0  0.3437375E-02  0.5982170E+03  0.7818609E-02  0.9909112E-01
       -4   -1    0    0    0  501  0.00000000000E+00  0.00000000000E+00  0.23005874461E+03  0.23006224999E+03  0.12699999809E+01 0.  1.
        4   -1    0    0  501    0  0.00000000000E+00  0.00000000000E+00 -0.38887525871E+03  0.38887733250E+03  0.12699999809E+01 0. -1.
    10030    2    1    2    0    0  0.00000000000E+00  0.00000000000E+00 -0.15881651410E+03  0.61893958249E+03  0.59821695197E+03 0.  0.
        4    1    3    3  502    0  0.11487113116E+03  0.27341235325E+03 -0.39142575787E+02  0.29913783750E+03  0.12699999809E+01 0.  1.
       -4    1    3    3    0  502 -0.11487113116E+03 -0.27341235325E+03 -0.11967393832E+03  0.31980174499E+03  0.12699999809E+01 0. -1.
</event>
<event>
 5   0  0.3437375E-02  0.6551589E+03  0.7818609E-02  0.9797147E-01
       -4   -1    0    0    0  501  0.00000000000E+00  0.00000000000E+00  0.30203558360E+03  0.30203825364E+03  0.12699999809E+01 0. -1.
        4   -1    0    0  501    0  0.00000000000E+00  0.00000000000E+00 -0.35527823309E+03  0.35528050299E+03  0.12699999809E+01 0.  1.
    10030    2    1    2    0    0  0.00000000000E+00  0.00000000000E+00 -0.53242649486E+02  0.65731875663E+03  0.65515888767E+03 0.  0.
        5    1    3    3  502    0 -0.91050086283E+02 -0.25100597949E+03  0.16371990614E+03  0.31324178779E+03  0.46999998093E+01 0. -1.
       -5    1    3    3    0  502  0.91050086283E+02  0.25100597949E+03 -0.21696255563E+03  0.34407696885E+03  0.46999998093E+01 0.  1.
</event>
<event>
 5   0  0.8575590E-02  0.5963922E+03  0.7818609E-02  0.9912919E-01
        2   -1    0    0  501    0  0.00000000000E+00  0.00000000000E+00  0.62230995530E+03  0.62230995531E+03  0.25500000920E-02 0.  1.
       -2   -1    0    0    0  501  0.00000000000E+00  0.00000000000E+00 -0.14288847295E+03  0.14288847298E+03  0.25500000920E-02 0. -1.
    10030    2    1    2    0    0  0.00000000000E+00  0.00000000000E+00  0.47942148235E+03  0.76519842828E+03  0.59639221734E+03 0.  0.
        4    1    3    3  502    0 -0.33830445897E+02 -0.20344516642E+03 -0.36620686506E+02  0.20946866685E+03  0.12699999809E+01 0. -1.
       -4    1    3    3    0  502  0.33830445897E+02  0.20344516642E+03  0.51604216885E+03  0.55572976143E+03  0.12699999809E+01 0.  1.
</event>
<event>
 5   0  0.4987389E-02  0.5972422E+03  0.7818609E-02  0.9911144E-01
        1   -1    0    0  501    0  0.00000000000E+00  0.00000000000E+00  0.33649171543E+03  0.33649171547E+03  0.50400001928E-02 0. -1.
       -1   -1    0    0    0  501  0.00000000000E+00  0.00000000000E+00 -0.26501261243E+03  0.26501261248E+03  0.50400001928E-02 0.  1.
    10030    2    1    2    0    0  0.00000000000E+00  0.00000000000E+00  0.71479102997E+02  0.60150432795E+03  0.59724215724E+03 0.  0.
        1    1    3    3  502    0  0.17305272670E+03 -0.17050057988E+03 -0.13915703052E+03  0.27996852167E+03  0.50400001928E-02 0.  1.
       -1    1    3    3    0  502 -0.17305272670E+03  0.17050057988E+03  0.21063613352E+03  0.32153580629E+03  0.50400001928E-02 0. -1.
</event>
<event>
 5   0  0.8207443E-02  0.5771124E+03  0.7818609E-02  0.9954062E-01
        2   -1    0    0  501    0  0.00000000000E+00  0.00000000000E+00  0.49359757878E+03  0.49359757878E+03  0.25500000920E-02 0. -1.
       -2   -1    0    0    0  501  0.00000000000E+00  0.00000000000E+00 -0.16868940545E+03  0.16868940547E+03  0.25500000920E-02 0.  1.
    10030    2    1    2    0    0  0.00000000000E+00  0.00000000000E+00  0.32490817333E+03  0.66228698425E+03  0.57711240535E+03 0.  0.
        1    1    3    3  502    0  0.79429790341E+02 -0.22719988349E+03  0.34511816532E+03  0.42075578036E+03  0.50400001928E-02 0.  1.
       -1    1    3    3    0  502 -0.79429790341E+02  0.22719988349E+03 -0.20209991990E+02  0.24153120389E+03  0.50400001928E-02 0. -1.
</event>
<event>
 5   0  0.3437375E-02  0.5986653E+03  0.7818609E-02  0.9908179E-01
        4   -1    0    0  501    0  0.00000000000E+00  0.00000000000E+00  0.19347069932E+03  0.19347486760E+03  0.12699999809E+01 0. -1.
       -4   -1    0    0    0  501  0.00000000000E+00  0.00000000000E+00 -0.46310941130E+03  0.46311115267E+03  0.12699999809E+01 0.  1.
    10030    2    1    2    0    0  0.00000000000E+00  0.00000000000E+00 -0.26963871198E+03  0.65658602028E+03  0.59866532138E+03 0.  0.
        1    1    3    3  502    0 -0.12566530353E+03  0.19218751181E+03  0.75780103804E+02  0.24180660116E+03  0.50400001928E-02 0. -1.
       -1    1    3    3    0  502  0.12566530353E+03 -0.19218751181E+03 -0.34541881578E+03  0.41477941912E+03  0.50400001928E-02 0.  1.
</event>
<event>
 5   0  0.5166903E-02  0.4834561E+03  0.7818609E-02  0.1018190E+00
       -1   -1    0    0    0  501  0.00000000000E+00  0.00000000000E+00  0.36525265054E+03  0.36525265057E+03  0.50400001928E-02 0.  1.
        1   -1    0    0  501    0  0.00000000000E+00  0.00000000000E+00 -0.15997818473E+03  0.15997818481E+03  0.50400001928E-02 0. -1.
    10030    2    1    2    0    0  0.00000000000E+00  0.00000000000E+00  0.20527446581E+03  0.52523083538E+03  0.48345612430E+03 0.  0.
        2    1    3    3  502    0  0.24044188830E+02 -0.22036262894E+03 -0.21020381103E+01  0.22168046784E+03  0.25500000920E-02 0. -1.
       -2    1    3    3    0  502 -0.24044188830E+02  0.22036262894E+03  0.20737650392E+03  0.30355036754E+03  0.25500000920E-02 0.  1.
</event>
<event>
 5   0  0.8575590E-02  0.6070498E+03  0.7818609E-02  0.9890887E-01
       -2   -1    0    0    0  501  0.00000000000E+00  0.00000000000E+00  0.40347009327E+03  0.40347009328E+03  0.25500000920E-02 0.  1.
        2   -1    0    0  501    0  0.00000000000E+00  0.00000000000E+00 -0.22833750277E+03  0.22833750279E+03  0.25500000920E-02 0. -1.
    10030    2    1    2    0    0  0.00000000000E+00  0.00000000000E+00  0.17513259050E+03  0.63180759607E+03  0.60704976254E+03 0.  0.
        4    1    3    3  502    0 -0.21233566498E+03  0.54077306540E+02  0.30616795235E+03  0.37649862902E+03  0.12699999809E+01 0.  1.
       -4    1    3    3    0  502  0.21233566498E+03 -0.54077306540E+02 -0.13103536185E+03  0.25530896705E+03  0.12699999809E+01 0. -1.
</event>
<event>
 5   0  0.8420604E-02  0.5960026E+03  0.7818609E-02  0.9913734E-01
        2   -1    0    0  501    0  0.00000000000E+00  0.00000000000E+00  0.43101779023E+03  0.43101779024E+03  0.25500000920E-02 0.  1.
       -2   -1    0    0    0  501  0.00000000000E+00  0.00000000000E+00 -0.20603502314E+03  0.20603502316E+03  0.25500000920E-02 0. -1.
    10030    2    1    2    0    0  0.00000000000E+00  0.00000000000E+00  0.22498276709E+03  0.63705281340E+03  0.59600255165E+03 0.  0.
        2    1    3    3  502    0  0.21263495964E+03  0.13358754374E+03 -0.59014097981E+02  0.25795720899E+03  0.25500000920E-02 0. -1.
       -2    1    3    3    0  502 -0.21263495964E+03 -0.13358754374E+03  0.28399686507E+03  0.37909560440E+03  0.25500000920E-02 0.  1.
</event>
<event>
 5   0  0.4881209E-02  0.5844126E+03  0.7818609E-02  0.9938283E-01
       -1   -1    0    0    0  501  0.00000000000E+00  0.00000000000E+00  0.11762201643E+03  0.11762201654E+03  0.50400001928E-02 0.  1.
        1   -1    0    0  501    0  0.00000000000E+00  0.00000000000E+00 -0.72592298496E+03  0.72592298498E+03  0.50400001928E-02 0. -1.
    10030    2    1    2    0    0  0.00000000000E+00  0.00000000000E+00 -0.60830096853E+03  0.84354500152E+03  0.58441261218E+03 0.  0.
        3    1    3    3  502    0 -0.14350184505E+03 -0.20392420638E+03 -0.84265822073E+02  0.26320828340E+03  0.10100000352E+00 0.  1.
       -3    1    3    3    0  502  0.14350184505E+03  0.20392420638E+03 -0.52403514646E+03  0.58033671812E+03  0.10100000352E+00 0. -1.
</event>
<event>
 5   0  0.8817544E-02  0.5952444E+03  0.7818609E-02  0.9915322E-01
       -2   -1    0    0    0  501  0.00000000000E+00  0.00000000000E+00  0.33920140915E+02  0.33920141011E+02  0.25500000920E-02 0.  1.
        2   -1    0    0  501    0  0.00000000000E+00  0.00000000000E+00 -0.26113975604E+04  0.26113975604E+04  0.25500000920E-02 0. -1.
    10030    2    1    2    0    0  0.00000000000E+00  0.00000000000E+00 -0.25774774194E+04  0.26453177014E+04  0.59524439808E+03 0.  0.
        5    1    3    3  502    0  0.63907999142E+02  0.61825031844E+02 -0.25508148576E+04  0.25523685265E+04  0.46999998093E+01 0. -1.
       -5    1    3    3    0  502 -0.63907999142E+02 -0.61825031844E+02 -0.26662561810E+02  0.92949174915E+02  0.46999998093E+01 0.  1.
</event>
<event>
 5   0  0.8420604E-02  0.6109316E+03  0.7818609E-02  0.9882982E-01
       -2   -1    0    0    0  501  0.00000000000E+00  0.00000000000E+00  0.95282550834E+02  0.95282550868E+02  0.25500000920E-02 0. -1.
        2   -1    0    0  501    0  0.00000000000E+00  0.00000000000E+00 -0.97929124348E+03  0.97929124349E+03  0.25500000920E-02 0.  1.
    10030    2    1    2    0    0  0.00000000000E+00  0.00000000000E+00 -0.88400869265E+03  0.10745737944E+04  0.61093164170E+03 0.  0.
        2    1    3    3  502    0 -0.37487712109E+02 -0.24084030494E+03 -0.76585396493E+03  0.80370496866E+03  0.25500000920E-02 0.  1.
       -2    1    3    3    0  502  0.37487712109E+02  0.24084030494E+03 -0.11815472772E+03  0.27086882570E+03  0.25500000920E-02 0. -1.
</event>
<event>
 5   0  0.3437375E-02  0.5509181E+03  0.7818609E-02  0.1001282E+00
        4   -1    0    0  501    0  0.00000000000E+00  0.00000000000E+00  0.14959970684E+03  0.14960509746E+03  0.12699999809E+01 0. -1.
       -4   -1    0    0    0  501  0.00000000000E+00  0.00000000000E+00 -0.50718955034E+03  0.50719114038E+03  0.12699999809E+01 0.  1.
    10030    2    1    2    0    0  0.00000000000E+00  0.00000000000E+00 -0.35758984351E+03  0.65679623783E+03  0.55091814442E+03 0.  0.
        2    1    3    3  502    0 -0.11674748828E+03 -0.20024630979E+02  0.11768957007E+03  0.16697843207E+03  0.25500000920E-02 0. -1.
       -2    1    3    3    0  502  0.11674748828E+03  0.20024630979E+02 -0.47527941358E+03  0.48981780576E+03  0.25500000920E-02 0.  1.
</event>
<event>
 5   0  0.3437375E-02  0.6612304E+03  0.7818609E-02  0.9785931E-01
       -3   -1    0    0    0  501  0.00000000000E+00  0.00000000000E+00  0.83297605610E+02  0.83297666842E+02  0.10100000352E+00 0. -1.
        3   -1    0    0  501    0  0.00000000000E+00  0.00000000000E+00 -0.13122389113E+04  0.13122389152E+04  0.10100000352E+00 0.  1.
    10030    2    1    2    0    0  0.00000000000E+00  0.00000000000E+00 -0.12289413057E+04  0.13955365820E+04  0.66123038266E+03 0.  0.
        5    1    3    3  502    0  0.75644777251E+01  0.19502962361E+03 -0.11775888559E+04  0.11936630090E+04  0.46999998093E+01 0.  1.
       -5    1    3    3    0  502 -0.75644777251E+01 -0.19502962361E+03 -0.51352449794E+02  0.20187357308E+03  0.46999998093E+01 0. -1.
</event>
<event>
 5   0  0.4881209E-02  0.6011270E+03  0.7818609E-02  0.9903071E-01
        1   -1    0    0  501    0  0.00000000000E+00  0.00000000000E+00  0.12293545811E+04  0.12293545812E+04  0.50400001928E-02 0.  1.
       -1   -1    0    0    0  501  0.00000000000E+00  0.00000000000E+00 -0.73484425779E+02  0.73484425952E+02  0.50400001928E-02 0. -1.
    10030    2    1    2    0    0  0.00000000000E+00  0.00000000000E+00  0.11558701554E+04  0.13028390071E+04  0.60112699355E+03 0.  0.
        3    1    3    3  502    0 -0.26105689518E+03 -0.81895154742E+02  0.84759874461E+03  0.89066332638E+03  0.10100000352E+00 0.  1.
       -3    1    3    3    0  502  0.26105689518E+03  0.81895154742E+02  0.30827141075E+03  0.41217568072E+03  0.10100000352E+00 0. -1.
</event>
<event>
 5   0  0.8207443E-02  0.5999161E+03  0.7818609E-02  0.9905580E-01
        2   -1    0    0  501    0  0.00000000000E+00  0.00000000000E+00  0.31671975341E+03  0.31671975342E+03  0.25500000920E-02 0. -1.
       -2   -1    0    0    0  501  0.00000000000E+00  0.00000000000E+00 -0.28408344299E+03  0.28408344300E+03  0.25500000920E-02 0.  1.
    10030    2    1    2    0    0  0.00000000000E+00  0.00000000000E+00  0.32636310423E+02  0.60080319642E+03  0.59991612087E+03 0.  0.
        1    1    3    3  502    0  0.96189141927E+02  0.22604528409E+03 -0.15605845356E+03  0.29103790550E+03  0.50400001928E-02 0.  1.
       -1    1    3    3    0  502 -0.96189141927E+02 -0.22604528409E+03  0.18869476398E+03  0.30976529093E+03  0.50400001928E-02 0. -1.
</event>
<event>
 5   0  0.4881209E-02  0.6018530E+03  0.7818609E-02  0.9901569E-01
        1   -1    0    0  501    0  0.00000000000E+00  0.00000000000E+00  0.18704396063E+03  0.18704396070E+03  0.50400001928E-02 0.  1.
       -1   -1    0    0    0  501  0.00000000000E+00  0.00000000000E+00 -0.48414687316E+03  0.48414687319E+03  0.50400001928E-02 0. -1.
    10030    2    1    2    0    0  0.00000000000E+00  0.00000000000E+00 -0.29710291253E+03  0.67119083389E+03  0.60185296781E+03 0.  0.
        3    1    3    3  502    0 -0.14603405819E+03 -0.23470845767E+03 -0.15927411054E+02  0.27688932605E+03  0.10100000352E+00 0.  1.
       -3    1    3    3    0  502  0.14603405819E+03  0.23470845767E+03 -0.28117550148E+03  0.39430150784E+03  0.10100000352E+00 0. -1.
</event>
<event>
 5   0  0.8420604E-02  0.5985856E+03  0.7818609E-02  0.9908345E-01
       -2   -1    0    0    0  501  0.00000000000E+00  0.00000000000E+00  0.72256077167E+02  0.72256077212E+02  0.25500000920E-02 0. -1.
        2   -1    0    0  501    0  0.00000000000E+00  0.00000000000E+00 -0.12397045336E+04  0.12397045336E+04  0.25500000920E-02 0.  1.
    10030    2    1    2    0    0  0.00000000000E+00  0.00000000000E+00 -0.11674484565E+04  0.13119606108E+04  0.59858562120E+03 0.  0.
        2    1    3    3  502    0 -0.76387292985E+02  0.17895169658E+03 -0.10821644749E+04  0.10995174755E+04  0.25500000920E-02 0.  1.
       -2    1    3    3    0  502  0.76387292985E+02 -0.17895169658E+03 -0.85283981610E+02  0.21244313537E+03  0.25500000920E-02 0. -1.
</event>
<event>
 5   0  0.8699746E-02  0.5967738E+03  0.7818609E-02  0.9912122E-01
        2   -1    0    0  501    0  0.00000000000E+00  0.00000000000E+00  0.28070766760E+03  0.28070766761E+03  0.25500000920E-02 0.  1.
       -2   -1    0    0    0  501  0.00000000000E+00  0.00000000000E+00 -0.31717963832E+03  0.31717963833E+03  0.25500000920E-02 0. -1.
    10030    2    1    2    0    0  0.00000000000E+00  0.00000000000E+00 -0.36471970722E+02  0.59788730594E+03  0.59677384825E+03 0.  0.
        3    1    3    3  502    0 -0.11851024226E+03 -0.13181324479E+03 -0.25871578629E+03  0.31361326072E+03  0.10100000352E+00 0. -1.
       -3    1    3    3    0  502  0.11851024226E+03  0.13181324479E+03  0.22224381557E+03  0.28427404522E+03  0.10100000352E+00 0.  1.
</event>
<event>
 5   0  0.8207443E-02  0.6086166E+03  0.7818609E-02  0.9887689E-01
       -2   -1    0    0    0  501  0.00000000000E+00  0.00000000000E+00  0.57762646570E+02  0.57762646627E+02  0.25500000920E-02 0. -1.
        2   -1    0    0  501    0  0.00000000000E+00  0.00000000000E+00 -0.16031732338E+04  0.16031732338E+04  0.25500000920E-02 0.  1.
    10030    2    1    2    0    0  0.00000000000E+00  0.00000000000E+00 -0.15454105873E+04  0.16609358805E+04  0.60861655891E+03 0.  0.
        1    1    3    3  502    0  0.16664080418E+03 -0.12149942826E+03 -0.16203372516E+03  0.26227122754E+03  0.50400001928E-02 0. -1.
       -1    1    3    3    0  502 -0.16664080418E+03  0.12149942826E+03 -0.13833768621E+04  0.13986646529E+04  0.50400001928E-02 0.  1.
</event>
<event>
 5   0  0.8817544E-02  0.5642864E+03  0.7818609E-02  0.9982402E-01
       -2   -1    0    0    0  501  0.00000000000E+00  0.00000000000E+00  0.68935390008E+02  0.68935390055E+02  0.25500000920E-02 0. -1.
        2   -1    0    0  501    0  0.00000000000E+00  0.00000000000E+00 -0.11547740097E+04  0.11547740097E+04  0.25500000920E-02 0.  1.
    10030    2    1    2    0    0  0.00000000000E+00  0.00000000000E+00 -0.10858386197E+04  0.12237093998E+04  0.56428644060E+03 0.  0.
        5    1    3    3  502    0 -0.69280581736E+02  0.26026413911E+03 -0.36089300675E+03  0.45033662236E+03  0.46999998093E+01 0. -1.
       -5    1    3    3    0  502  0.69280581736E+02 -0.26026413911E+03 -0.72494561295E+03  0.77337277741E+03  0.46999998093E+01 0.  1.
</event>
<event>
 5   0  0.5125031E-02  0.5971679E+03  0.7818609E-02  0.9911299E-01
        1   -1    0    0  501    0  0.00000000000E+00  0.00000000000E+00  0.68111552427E+02  0.68111552614E+02  0.50400001928E-02 0.  1.
       -1   -1    0    0    0  501  0.00000000000E+00  0.00000000000E+00 -0.13089168850E+04  0.13089168850E+04  0.50400001928E-02 0. -1.
    10030    2    1    2    0    0  0.00000000000E+00  0.00000000000E+00 -0.12408053325E+04  0.13770284376E+04  0.59716785301E+03 0.  0.
        4    1    3    3  502    0 -0.11861460284E+03  0.35914535193E+02 -0.12467995245E+04  0.12529445100E+04  0.12699999809E+01 0. -1.
       -4    1    3    3    0  502  0.11861460284E+03 -0.35914535193E+02  0.59941920114E+01  0.12408392758E+03  0.12699999809E+01 0.  1.
</event>
<event>
 5   0  0.4881209E-02  0.5995070E+03  0.7818609E-02  0.9906429E-01
        1   -1    0    0  501    0  0.00000000000E+00  0.00000000000E+00  0.11465517392E+04  0.11465517392E+04  0.50400001928E-02 0.  1.
       -1   -1    0    0    0  501  0.00000000000E+00  0.00000000000E+00 -0.78367295520E+02  0.78367295682E+02  0.50400001928E-02 0. -1.
    10030    2    1    2    0    0  0.00000000000E+00  0.00000000000E+00  0.10681844437E+04  0.12249190349E+04  0.59950699439E+03 0.  0.
        3    1    3    3  502    0 -0.20244846576E+03 -0.15907567200E+03  0.84772137349E+03  0.88595823152E+03  0.10100000352E+00 0.  1.
       -3    1    3    3    0  502  0.20244846576E+03  0.15907567200E+03  0.22046307019E+03  0.33896080338E+03  0.10100000352E+00 0. -1.
</event>
<event>
 5   0  0.5190380E-02  0.6018611E+03  0.7818609E-02  0.9901552E-01
       -1   -1    0    0    0  501  0.00000000000E+00  0.00000000000E+00  0.25185213747E+03  0.25185213752E+03  0.50400001928E-02 0. -1.
        1   -1    0    0  501    0  0.00000000000E+00  0.00000000000E+00 -0.35957291212E+03  0.35957291216E+03  0.50400001928E-02 0.  1.
    10030    2    1    2    0    0  0.00000000000E+00  0.00000000000E+00 -0.10772077466E+03  0.61142504968E+03  0.60186113522E+03 0.  0.
        5    1    3    3  502    0 -0.22719221815E+03 -0.16543831297E+03 -0.16304370572E+03  0.32494842570E+03  0.46999998093E+01 0.  1.
       -5    1    3    3    0  502  0.22719221815E+03  0.16543831297E+03  0.55322931067E+02  0.28647662398E+03  0.46999998093E+01 0. -1.
</event>
<event>
 5   0  0.8575590E-02  0.5998532E+03  0.7818609E-02  0.9905711E-01
       -2   -1    0    0    0  501  0.00000000000E+00  0.00000000000E+00  0.66173851659E+03  0.66173851659E+03  0.25500000920E-02 0.  1.
        2   -1    0    0  501    0  0.00000000000E+00  0.00000000000E+00 -0.13593882988E+03  0.13593882991E+03  0.25500000920E-02 0. -1.
    10030    2    1    2    0    0  0.00000000000E+00  0.00000000000E+00  0.52579968670E+03  0.79767734650E+03  0.59985318085E+03 0.  0.
        4    1    3    3  502    0 -0.18983168090E+03  0.22837129890E+03  0.20703563218E+03  0.36201503163E+03  0.12699999809E+01 0. -1.
       -4    1    3    3    0  502  0.18983168090E+03 -0.22837129890E+03  0.31876405452E+03  0.43566231486E+03  0.12699999809E+01 0.  1.
</event>
<event>
 5   0  0.5125031E-02  0.5956541E+03  0.7818609E-02  0.9914464E-01
       -1   -1    0    0    0  501  0.00000000000E+00  0.00000000000E+00  0.47918006911E+03  0.47918006914E+03  0.50400001928E-02 0.  1.
        1   -1    0    0  501    0  0.00000000000E+00  0.00000000000E+00 -0.18510984389E+03  0.18510984396E+03  0.50400001928E-02 0. -1.
    10030    2    1    2    0    0  0.00000000000E+00  0.00000000000E+00  0.29407022522E+03  0.66428991310E+03  0.59565408694E+03 0.  0.
        4    1    3    3  502    0  0.18172965321E+01  0.11368747506E+03 -0.15994877883E+03  0.19624823388E+03  0.12699999809E+01 0. -1.
       -4    1    3    3    0  502 -0.18172965321E+01 -0.11368747506E+03  0.45401900405E+03  0.46804167922E+03  0.12699999809E+01 0.  1.
</event>
<event>
 5   0  0.3437375E-02  0.5887951E+03  0.7818609E-02  0.9928929E-01
        3   -1    0    0  501    0  0.00000000000E+00  0.00000000000E+00  0.34487368663E+03  0.34487370142E+03  0.10100000352E+00 0.  1.
       -3   -1    0    0    0  501  0.00000000000E+00  0.00000000000E+00 -0.25130910375E+03  0.25130912405E+03  0.10100000352E+00 0. -1.
    10030    2    1    2    0    0  0.00000000000E+00  0.00000000000E+00  0.93564582875E+02  0.59618282546E+03  0.58879506639E+03 0.  0.
        2    1    3    3  502    0  0.16539097131E+03 -0.13902922065E+03 -0.15569326067E+03  0.26631501837E+03  0.25500000920E-02 0. -1.
       -2    1    3    3    0  502 -0.16539097131E+03  0.13902922065E+03  0.24925784354E+03  0.32986780710E+03  0.25500000920E-02 0.  1.
</event>
<event>
 5   0  0.4987389E-02  0.6040949E+03  0.7818609E-02  0.9896947E-01
        1   -1    0    0  501    0  0.00000000000E+00  0.00000000000E+00  0.85357442411E+03  0.85357442413E+03  0.50400001928E-02 0. -1.
       -1   -1    0    0    0  501  0.00000000000E+00  0.00000000000E+00 -0.10688306299E+03  0.10688306311E+03  0.50400001928E-02 0.  1.
    10030    2    1    2    0    0  0.00000000000E+00  0.00000000000E+00  0.74669136112E+03  0.96045748723E+03  0.60409485680E+03 0.  0.
        1    1    3    3  502    0  0.65790072349E+02 -0.14687169369E+03 -0.33040918493E+02  0.16429038422E+03  0.50400001928E-02 0.  1.
       -1    1    3    3    0  502 -0.65790072349E+02  0.14687169369E+03  0.77973227961E+03  0.79616710301E+03  0.50400001928E-02 0. -1.
</event>
<event>
 5   0  0.8207443E-02  0.5998122E+03  0.7818609E-02  0.9905796E-01
        2   -1    0    0  501    0  0.00000000000E+00  0.00000000000E+00  0.13094083299E+04  0.13094083299E+04  0.25500000920E-02 0.  1.
       -2   -1    0    0    0  501  0.00000000000E+00  0.00000000000E+00 -0.68690313165E+02  0.68690313212E+02  0.25500000920E-02 0. -1.
    10030    2    1    2    0    0  0.00000000000E+00  0.00000000000E+00  0.12407180168E+04  0.13780986431E+04  0.59981219820E+03 0.  0.
        1    1    3    3  502    0 -0.12295862396E+03 -0.24260309578E+03  0.33002480550E+03  0.42765810826E+03  0.50400001928E-02 0.  1.
       -1    1    3    3    0  502  0.12295862396E+03  0.24260309578E+03  0.91069321127E+03  0.95044053489E+03  0.50400001928E-02 0. -1.
</event>
<event>
 5   0  0.4881209E-02  0.6100238E+03  0.7818609E-02  0.9884825E-01
       -1   -1    0    0    0  501  0.00000000000E+00  0.00000000000E+00  0.46099144205E+03  0.46099144208E+03  0.50400001928E-02 0.  1.
        1   -1    0    0  501    0  0.00000000000E+00  0.00000000000E+00 -0.20180907465E+03  0.20180907471E+03  0.50400001928E-02 0. -1.
    10030    2    1    2    0    0  0.00000000000E+00  0.00000000000E+00  0.25918236740E+03  0.66280051680E+03  0.61002379092E+03 0.  0.
        3    1    3    3  502    0  0.12134945652E+03 -0.77389844643E+02  0.42177581585E+03  0.44565651312E+03  0.10100000352E+00 0.  1.
       -3    1    3    3    0  502 -0.12134945652E+03  0.77389844643E+02 -0.16259344845E+03  0.21714400367E+03  0.10100000352E+00 0. -1.
</event>
<event>
 5   0  0.8575590E-02  0.5991046E+03  0.7818609E-02  0.9907266E-01
        2   -1    0    0  501    0  0.00000000000E+00  0.00000000000E+00  0.10744786788E+04  0.10744786788E+04  0.25500000920E-02 0.  1.
       -2   -1    0    0    0  501  0.00000000000E+00  0.00000000000E+00 -0.83511729400E+02  0.83511729439E+02  0.25500000920E-02 0. -1.
    10030    2    1    2    0    0  0.00000000000E+00  0.00000000000E+00  0.99096694938E+03  0.11579904082E+04  0.59910457415E+03 0.  0.
        4    1    3    3  502    0  0.13250615666E+03  0.97283522633E+02  0.97950400407E+03  0.99320273470E+03  0.12699999809E+01 0.  1.
       -4    1    3    3    0  502 -0.13250615666E+03 -0.97283522633E+02  0.11462945307E+02  0.16478767352E+03  0.12699999809E+01 0. -1.
</event>
<event>
 5   0  0.8207443E-02  0.6062432E+03  0.7818609E-02  0.9892537E-01
        2   -1    0    0  501    0  0.00000000000E+00  0.00000000000E+00  0.63217833680E+03  0.63217833680E+03  0.25500000920E-02 0. -1.
       -2   -1    0    0    0  501  0.00000000000E+00  0.00000000000E+00 -0.14534303020E+03  0.14534303022E+03  0.25500000920E-02 0.  1.
    10030    2    1    2    0    0  0.00000000000E+00  0.00000000000E+00  0.48683530660E+03  0.77752136702E+03  0.60624323536E+03 0.  0.
        1    1    3    3  502    0 -0.16785451006E+03 -0.89102937901E+02 -0.59454200540E+02  0.19912124969E+03  0.50400001928E-02 0.  1.
       -1    1    3    3    0  502  0.16785451006E+03  0.89102937901E+02  0.54628950714E+03  0.57840011733E+03  0.50400001928E-02 0. -1.
</event>
<event>
 5   0  0.8699746E-02  0.5768217E+03  0.7818609E-02  0.9954696E-01
        2   -1    0    0  501    0  0.00000000000E+00  0.00000000000E+00  0.22675450063E+03  0.22675450064E+03  0.25500000920E-02 0.  1.
       -2   -1    0    0    0  501  0.00000000000E+00  0.00000000000E+00 -0.36683208049E+03  0.36683208050E+03  0.25500000920E-02 0. -1.
    10030    2    1    2    0    0  0.00000000000E+00  0.00000000000E+00 -0.14007757987E+03  0.59358658114E+03  0.57682172370E+03 0.  0.
        3    1    3    3  502    0  0.45082269534E+02 -0.39230352931E+02 -0.36039063937E+03  0.36531199647E+03  0.10100000352E+00 0. -1.
       -3    1    3    3    0  502 -0.45082269534E+02  0.39230352931E+02  0.22031305951E+03  0.22827458467E+03  0.10100000352E+00 0.  1.
</event>
<event>
 5   0  0.8420604E-02  0.6028500E+03  0.7818609E-02  0.9899511E-01
        2   -1    0    0  501    0  0.00000000000E+00  0.00000000000E+00  0.34306123880E+03  0.34306123881E+03  0.25500000920E-02 0. -1.
       -2   -1    0    0    0  501  0.00000000000E+00  0.00000000000E+00 -0.26484202046E+03  0.26484202047E+03  0.25500000920E-02 0.  1.
    10030    2    1    2    0    0  0.00000000000E+00  0.00000000000E+00  0.78219218337E+02  0.60790325928E+03  0.60285000334E+03 0.  0.
        2    1    3    3  502    0  0.12834247848E+03 -0.14777050156E+03  0.27026707395E+03  0.33369477698E+03  0.25500000920E-02 0. -1.
       -2    1    3    3    0  502 -0.12834247848E+03  0.14777050156E+03 -0.19204785561E+03  0.27420848230E+03  0.25500000920E-02 0.  1.
</event>
<event>
 5   0  0.8207443E-02  0.6244139E+03  0.7818609E-02  0.9856011E-01
        2   -1    0    0  501    0  0.00000000000E+00  0.00000000000E+00  0.74359507655E+03  0.74359507655E+03  0.25500000920E-02 0. -1.
       -2   -1    0    0    0  501  0.00000000000E+00  0.00000000000E+00 -0.13108367786E+03  0.13108367789E+03  0.25500000920E-02 0.  1.
    10030    2    1    2    0    0  0.00000000000E+00  0.00000000000E+00  0.61251139868E+03  0.87467875444E+03  0.62441389314E+03 0.  0.
        1    1    3    3  502    0 -0.42908145489E+02 -0.89601995557E+01 -0.12675180075E+03  0.13411716201E+03  0.50400001928E-02 0.  1.
       -1    1    3    3    0  502  0.42908145489E+02  0.89601995557E+01  0.73926319943E+03  0.74056159243E+03  0.50400001928E-02 0. -1.
</event>
<event>
 5   0  0.8817544E-02  0.6048191E+03  0.7818609E-02  0.9895458E-01
        2   -1    0    0  501    0  0.00000000000E+00  0.00000000000E+00  0.78251419673E+03  0.78251419674E+03  0.25500000920E-02 0. -1.
       -2   -1    0    0    0  501  0.00000000000E+00  0.00000000000E+00 -0.11686885369E+03  0.11686885372E+03  0.25500000920E-02 0.  1.
    10030    2    1    2    0    0  0.00000000000E+00  0.00000000000E+00  0.66564534304E+03  0.89938305045E+03  0.60481910413E+03 0.  0.
        5    1    3    3  502    0  0.28870855140E+03 -0.77975165147E+02  0.39926959264E+03  0.49886977422E+03  0.46999998093E+01 0. -1.
       -5    1    3    3    0  502 -0.28870855140E+03  0.77975165147E+02  0.26637575041E+03  0.40051327623E+03  0.46999998093E+01 0.  1.
</event>
<event>
 5   0  0.3437375E-02  0.6023053E+03  0.7818609E-02  0.9900635E-01
       -3   -1    0    0    0  501  0.00000000000E+00  0.00000000000E+00  0.26421623191E+03  0.26421625122E+03  0.10100000352E+00 0. -1.
        3   -1    0    0  501    0  0.00000000000E+00  0.00000000000E+00 -0.34325260917E+03  0.34325262403E+03  0.10100000352E+00 0.  1.
    10030    2    1    2    0    0  0.00000000000E+00  0.00000000000E+00 -0.79036377258E+02  0.60746887525E+03  0.60230530918E+03 0.  0.
        1    1    3    3  502    0 -0.63083944339E+01  0.26456659172E+03  0.10544166256E+03  0.28487404501E+03  0.50400001928E-02 0.  1.
       -1    1    3    3    0  502  0.63083944339E+01 -0.26456659172E+03 -0.18447803982E+03  0.32259483023E+03  0.50400001928E-02 0. -1.
</event>
<event>
 5   0  0.8420604E-02  0.5577331E+03  0.7818609E-02  0.9997197E-01
        2   -1    0    0  501    0  0.00000000000E+00  0.00000000000E+00  0.66573960236E+03  0.66573960236E+03  0.25500000920E-02 0.  1.
       -2   -1    0    0    0  501  0.00000000000E+00  0.00000000000E+00 -0.11681227657E+03  0.11681227660E+03  0.25500000920E-02 0. -1.
    10030    2    1    2    0    0  0.00000000000E+00  0.00000000000E+00  0.54892732578E+03  0.78255187896E+03  0.55773312101E+03 0.  0.
        2    1    3    3  502    0 -0.19998033785E+03  0.15235673478E+03  0.10514884983E+03  0.27250869855E+03  0.25500000920E-02 0. -1.
       -2    1    3    3    0  502  0.19998033785E+03 -0.15235673478E+03  0.44377847595E+03  0.51004318041E+03  0.25500000920E-02 0.  1.
</event>
<event>
 5   0  0.4881209E-02  0.5932717E+03  0.7818609E-02  0.9919464E-01
       -1   -1    0    0    0  501  0.00000000000E+00  0.00000000000E+00  0.17185795560E+03  0.17185795568E+03  0.50400001928E-02 0.  1.
        1   -1    0    0  501    0  0.00000000000E+00  0.00000000000E+00 -0.51200896579E+03  0.51200896581E+03  0.50400001928E-02 0. -1.
    10030    2    1    2    0    0  0.00000000000E+00  0.00000000000E+00 -0.34015101019E+03  0.68386692149E+03  0.59327165496E+03 0.  0.
        3    1    3    3  502    0  0.15538262982E+03  0.15704281867E+03  0.58109322792E+02  0.22843579435E+03  0.10100000352E+00 0.  1.
       -3    1    3    3    0  502 -0.15538262982E+03 -0.15704281867E+03 -0.39826033298E+03  0.45543112714E+03  0.10100000352E+00 0. -1.
</event>
<event>
 5   0  0.4987389E-02  0.6097288E+03  0.7818609E-02  0.9885425E-01
        1   -1    0    0  501    0  0.00000000000E+00  0.00000000000E+00  0.15609009382E+04  0.15609009382E+04  0.50400001928E-02 0.  1.
       -1   -1    0    0    0  501  0.00000000000E+00  0.00000000000E+00 -0.59544005091E+02  0.59544005304E+02  0.50400001928E-02 0. -1.
    10030    2    1    2    0    0  0.00000000000E+00  0.00000000000E+00  0.15013569331E+04  0.16204449435E+04  0.60972877113E+03 0.  0.
        1    1    3    3  502    0 -0.63632462236E+02  0.22825492296E+03  0.12604546751E+04  0.12825347512E+04  0.50400001928E-02 0. -1.
       -1    1    3    3    0  502  0.63632462236E+02 -0.22825492296E+03  0.24090225801E+03  0.33791019228E+03  0.50400001928E-02 0.  1.
</event>
<event>
 5   0  0.8420604E-02  0.6117244E+03  0.7818609E-02  0.9881376E-01
       -2   -1    0    0    0  501  0.00000000000E+00  0.00000000000E+00  0.44223773180E+03  0.44223773180E+03  0.25500000920E-02 0. -1.
        2   -1    0    0  501    0  0.00000000000E+00  0.00000000000E+00 -0.21154159924E+03  0.21154159926E+03  0.25500000920E-02 0.  1.
    10030    2    1    2    0    0  0.00000000000E+00  0.00000000000E+00  0.23069613255E+03  0.65377933106E+03  0.61172437269E+03 0.  0.
        2    1    3    3  502    0 -0.16766771084E+03  0.87211960067E+02  0.37236654630E+03  0.41758260506E+03  0.25500000920E-02 0. -1.
       -2    1    3    3    0  502  0.16766771084E+03 -0.87211960067E+02 -0.14167041374E+03  0.23619672600E+03  0.25500000920E-02 0.  1.
</event>
<event>
 5   0  0.8817544E-02  0.5948972E+03  0.7818609E-02  0.9916050E-01
       -2   -1    0    0    0  501  0.00000000000E+00  0.00000000000E+00  0.54562349879E+02  0.54562349938E+02  0.25500000920E-02 0.  1.
        2   -1    0    0  501    0  0.00000000000E+00  0.00000000000E+00 -0.16215514864E+04  0.16215514864E+04  0.25500000920E-02 0. -1.
    10030    2    1    2    0    0  0.00000000000E+00  0.00000000000E+00 -0.15669891365E+04  0.16761138363E+04  0.59489716624E+03 0.  0.
        5    1    3    3  502    0 -0.24856059361E+03 -0.16975744292E+02 -0.12411344931E+04  0.12659018384E+04  0.46999998093E+01 0. -1.
       -5    1    3    3    0  502  0.24856059361E+03  0.16975744292E+02 -0.32585464343E+03  0.41021199791E+03  0.46999998093E+01 0.  1.
</event>
<event>
 5   0  0.8817544E-02  0.6171627E+03  0.7818609E-02  0.9870425E-01
        2   -1    0    0  501    0  0.00000000000E+00  0.00000000000E+00  0.14352565290E+04  0.14352565290E+04  0.25500000920E-02 0.  1.
       -2   -1    0    0    0  501  0.00000000000E+00  0.00000000000E+00 -0.66345257182E+02  0.66345257231E+02  0.25500000920E-02 0. -1.
    10030    2    1    2    0    0  0.00000000000E+00  0.00000000000E+00  0.13689112718E+04  0.15016017862E+04  0.61716274540E+03 0.  0.
        5    1    3    3  502    0 -0.26484732899E+03  0.42303243008E+02  0.10555825781E+04  0.10891328391E+04  0.46999998093E+01 0.  1.
       -5    1    3    3    0  502  0.26484732899E+03 -0.42303243008E+02  0.31332869374E+03  0.41246894715E+03  0.46999998093E+01 0. -1.
</event>
<event>
 5   0  0.5125031E-02  0.6171929E+03  0.7818609E-02  0.9870365E-01
        1   -1    0    0  501    0  0.00000000000E+00  0.00000000000E+00  0.90153791335E+03  0.90153791336E+03  0.50400001928E-02 0. -1.
       -1   -1    0    0    0  501  0.00000000000E+00  0.00000000000E+00 -0.10563257057E+03  0.10563257069E+03  0.50400001928E-02 0.  1.
    10030    2    1    2    0    0  0.00000000000E+00  0.00000000000E+00  0.79590534277E+03  0.10071704841E+04  0.61719289472E+03 0.  0.
        4    1    3    3  502    0  0.23995981591E+03 -0.34346400822E+02  0.70958934505E+03  0.74985267887E+03  0.12699999809E+01 0. -1.
       -4    1    3    3    0  502 -0.23995981591E+03  0.34346400822E+02  0.86315997724E+02  0.25731780518E+03  0.12699999809E+01 0.  1.
</event>
<event>
 5   0  0.5190380E-02  0.6090458E+03  0.7818609E-02  0.9886815E-01
        1   -1    0    0  501    0  0.00000000000E+00  0.00000000000E+00  0.89751637371E+03  0.89751637372E+03  0.50400001928E-02 0.  1.
       -1   -1    0    0    0  501  0.00000000000E+00  0.00000000000E+00 -0.10332311808E+03  0.10332311820E+03  0.50400001928E-02 0. -1.
    10030    2    1    2    0    0  0.00000000000E+00  0.00000000000E+00  0.79419325563E+03  0.10008394919E+04  0.60904577932E+03 0.  0.
        5    1    3    3  502    0  0.10793926046E+03 -0.26561324496E+03  0.22862265962E+03  0.36673108722E+03  0.46999998093E+01 0. -1.
       -5    1    3    3    0  502 -0.10793926046E+03  0.26561324496E+03  0.56557059601E+03  0.63410840470E+03  0.46999998093E+01 0.  1.
</event>
<event>
 5   0  0.8207443E-02  0.5925804E+03  0.7818609E-02  0.9920920E-01
        2   -1    0    0  501    0  0.00000000000E+00  0.00000000000E+00  0.26019160663E+03  0.26019160664E+03  0.25500000920E-02 0.  1.
       -2   -1    0    0    0  501  0.00000000000E+00  0.00000000000E+00 -0.33739709368E+03  0.33739709369E+03  0.25500000920E-02 0. -1.
    10030    2    1    2    0    0  0.00000000000E+00  0.00000000000E+00 -0.77205487055E+02  0.59758870033E+03  0.59258043128E+03 0.  0.
        1    1    3    3  502    0 -0.21568114052E+03  0.83828693345E+02 -0.22521340694E+03  0.32290351948E+03  0.50400001928E-02 0. -1.
       -1    1    3    3    0  502  0.21568114052E+03 -0.83828693345E+02  0.14800791988E+03  0.27468518085E+03  0.50400001928E-02 0.  1.
</event>
<event>
 5   0  0.8575590E-02  0.5821046E+03  0.7818609E-02  0.9943245E-01
       -2   -1    0    0    0  501  0.00000000000E+00  0.00000000000E+00  0.48258825293E+03  0.48258825293E+03  0.25500000920E-02 0.  1.
        2   -1    0    0  501    0  0.00000000000E+00  0.00000000000E+00 -0.17553566866E+03  0.17553566868E+03  0.25500000920E-02 0. -1.
    10030    2    1    2    0    0  0.00000000000E+00  0.00000000000E+00  0.30705258427E+03  0.65812392161E+03  0.58210463551E+03 0.  0.
        4    1    3    3  502    0  0.43769231088E+02 -0.25901093389E+03  0.29522280945E+03  0.39517151919E+03  0.12699999809E+01 0.  1.
       -4    1    3    3    0  502 -0.43769231088E+02  0.25901093389E+03  0.11829774819E+02  0.26295240241E+03  0.12699999809E+01 0. -1.
</event>
<event>
 5   0  0.8420604E-02  0.6019649E+03  0.7818609E-02  0.9901338E-01
       -2   -1    0    0    0  501  0.00000000000E+00  0.00000000000E+00  0.67510769158E+02  0.67510769206E+02  0.25500000920E-02 0.  1.
        2   -1    0    0  501    0  0.00000000000E+00  0.00000000000E+00 -0.13418663208E+04  0.13418663208E+04  0.25500000920E-02 0. -1.
    10030    2    1    2    0    0  0.00000000000E+00  0.00000000000E+00 -0.12743555516E+04  0.14093770900E+04  0.60196487426E+03 0.  0.
        2    1    3    3  502    0 -0.21280305872E+03 -0.16363140914E+03 -0.31846877785E+03  0.41651259564E+03  0.25500000920E-02 0. -1.
       -2    1    3    3    0  502  0.21280305872E+03  0.16363140914E+03 -0.95588677380E+03  0.99286449437E+03  0.25500000920E-02 0.  1.
</event>
<event>
 5   0  0.8420604E-02  0.5881760E+03  0.7818609E-02  0.9930245E-01
        2   -1    0    0  501    0  0.00000000000E+00  0.00000000000E+00  0.88234103286E+03  0.88234103287E+03  0.25500000920E-02 0. -1.
       -2   -1    0    0    0  501  0.00000000000E+00  0.00000000000E+00 -0.98020774267E+02  0.98020774300E+02  0.25500000920E-02 0.  1.
    10030    2    1    2    0    0  0.00000000000E+00  0.00000000000E+00  0.78432025860E+03  0.98036180717E+03  0.58817599824E+03 0.  0.
        2    1    3    3  502    0  0.22828909506E+02 -0.38979357033E+02 -0.92203714909E+02  0.10267460462E+03  0.25500000920E-02 0.  1.
       -2    1    3    3    0  502 -0.22828909506E+02  0.38979357033E+02  0.87652397351E+03  0.87768720255E+03  0.25500000920E-02 0. -1.
</event>
<event>
 5   0  0.3437375E-02  0.6016319E+03  0.7818609E-02  0.9902026E-01
       -4   -1    0    0    0  501  0.00000000000E+00  0.00000000000E+00  0.11436753137E+04  0.11436760189E+04  0.12699999809E+01 0.  1.
        4   -1    0    0  501    0  0.00000000000E+00  0.00000000000E+00 -0.79116482515E+02  0.79126675056E+02  0.12699999809E+01 0. -1.
    10030    2    1    2    0    0  0.00000000000E+00  0.00000000000E+00  0.10645588312E+04  0.12228026939E+04  0.60163188342E+03 0.  0.
        4    1    3    3  502    0 -0.30482124035E+02  0.18841430929E+03  0.10048444449E+04  0.10228113624E+04  0.12699999809E+01 0.  1.
       -4    1    3    3    0  502  0.30482124035E+02 -0.18841430929E+03  0.59714386320E+02  0.19999133147E+03  0.12699999809E+01 0. -1.
</event>
<event>
 5   0  0.4987389E-02  0.6062229E+03  0.7818609E-02  0.9892579E-01
       -1   -1    0    0    0  501  0.00000000000E+00  0.00000000000E+00  0.12105406901E+04  0.12105406901E+04  0.50400001928E-02 0. -1.
        1   -1    0    0  501    0  0.00000000000E+00  0.00000000000E+00 -0.75897110405E+02  0.75897110572E+02  0.50400001928E-02 0.  1.
    10030    2    1    2    0    0  0.00000000000E+00  0.00000000000E+00  0.11346435797E+04  0.12864378007E+04  0.60622286503E+03 0.  0.
        1    1    3    3  502    0  0.22038512591E+03  0.20694480289E+03  0.61385168607E+03  0.68425846555E+03  0.50400001928E-02 0. -1.
       -1    1    3    3    0  502 -0.22038512591E+03 -0.20694480289E+03  0.52079189363E+03  0.60217933514E+03  0.50400001928E-02 0.  1.
</event>
<event>
 5   0  0.8817544E-02  0.5991432E+03  0.7818609E-02  0.9907185E-01
       -2   -1    0    0    0  501  0.00000000000E+00  0.00000000000E+00  0.47343883997E+03  0.47343883998E+03  0.25500000920E-02 0.  1.
        2   -1    0    0  501    0  0.00000000000E+00  0.00000000000E+00 -0.18955592084E+03  0.18955592085E+03  0.25500000920E-02 0. -1.
    10030    2    1    2    0    0  0.00000000000E+00  0.00000000000E+00  0.28388291914E+03  0.66299476083E+03  0.59914317247E+03 0.  0.
        5    1    3    3  502    0  0.14067743820E+03  0.16319245805E+03  0.37220174748E+03  0.43009086344E+03  0.46999998093E+01 0.  1.
       -5    1    3    3    0  502 -0.14067743820E+03 -0.16319245805E+03 -0.88318828347E+02  0.23290389740E+03  0.46999998093E+01 0. -1.
</event>
<event>
 5   0  0.8207443E-02  0.5948488E+03  0.7818609E-02  0.9916151E-01
       -2   -1    0    0    0  501  0.00000000000E+00  0.00000000000E+00  0.56217498286E+02  0.56217498343E+02  0.25500000920E-02 0.  1.
        2   -1    0    0  501    0  0.00000000000E+00  0.00000000000E+00 -0.15735542414E+04  0.15735542414E+04  0.25500000920E-02 0. -1.
    10030    2    1    2    0    0  0.00000000000E+00  0.00000000000E+00 -0.15173367431E+04  0.16297717397E+04  0.59484883094E+03 0.  0.
        1    1    3    3  502    0  0.96916854274E+02 -0.25049329095E+03 -0.11086944780E+04  0.11407643101E+04  0.50400001928E-02 0. -1.
       -1    1    3    3    0  502 -0.96916854274E+02  0.25049329095E+03 -0.40864226507E+03  0.48900742967E+03  0.50400001928E-02 0.  1.
</event>
<event>
 5   0  0.5125031E-02  0.5981790E+03  0.7818609E-02  0.9909191E-01
        1   -1    0    0  501    0  0.00000000000E+00  0.00000000000E+00  0.17806476468E+04  0.17806476468E+04  0.50400001928E-02 0.  1.
       -1   -1    0    0    0  501  0.00000000000E+00  0.00000000000E+00 -0.50237071705E+02  0.50237071957E+02  0.50400001928E-02 0. -1.
    10030    2    1    2    0    0  0.00000000000E+00  0.00000000000E+00  0.17304105751E+04  0.18308847187E+04  0.59817898241E+03 0.  0.
        4    1    3    3  502    0  0.26601427717E+03 -0.58088291658E+02  0.12439872419E+04  0.12734377551E+04  0.12699999809E+01 0.  1.
       -4    1    3    3    0  502 -0.26601427717E+03  0.58088291658E+02  0.48642333322E+03  0.55744696366E+03  0.12699999809E+01 0. -1.
</event>
<event>
 5   0  0.4881209E-02  0.5989947E+03  0.7818609E-02  0.9907494E-01
        1   -1    0    0  501    0  0.00000000000E+00  0.00000000000E+00  0.56333255925E+03  0.56333255927E+03  0.50400001928E-02 0. -1.
       -1   -1    0    0    0  501  0.00000000000E+00  0.00000000000E+00 -0.15922859447E+03  0.15922859455E+03  0.50400001928E-02 0.  1.
    10030    2    1    2    0    0  0.00000000000E+00  0.00000000000E+00  0.40410396478E+03  0.72256115382E+03  0.59899466330E+03 0.  0.
        3    1    3    3  502    0 -0.29878561298E+03  0.49580448021E+01  0.17788952094E+03  0.34776733112E+03  0.10100000352E+00 0.  1.
       -3    1    3    3    0  502  0.29878561298E+03 -0.49580448021E+01  0.22621444383E+03  0.37479382270E+03  0.10100000352E+00 0. -1.
</event>
<event>
 5   0  0.8817544E-02  0.5581360E+03  0.7818609E-02  0.9996281E-01
        2   -1    0    0  501    0  0.00000000000E+00  0.00000000000E+00  0.27186435597E+03  0.27186435598E+03  0.25500000920E-02 0.  1.
       -2   -1    0    0    0  501  0.00000000000E+00  0.00000000000E+00 -0.28646256686E+03  0.28646256687E+03  0.25500000920E-02 0. -1.
    10030    2    1    2    0    0  0.00000000000E+00  0.00000000000E+00 -0.14598210887E+02  0.55832692285E+03  0.55813604526E+03 0.  0.
        5    1    3    3  502    0  0.26815095545E+03  0.73830047188E+01 -0.84120079237E+02  0.28117204946E+03  0.46999998093E+01 0. -1.
       -5    1    3    3    0  502 -0.26815095545E+03 -0.73830047188E+01  0.69521868350E+02  0.27715487339E+03  0.46999998093E+01 0.  1.
</event>
<event>
 5   0  0.8817544E-02  0.6204444E+03  0.7818609E-02  0.9863875E-01
        2   -1    0    0  501    0  0.00000000000E+00  0.00000000000E+00  0.25888409956E+03  0.25888409958E+03  0.25500000920E-02 0.  1.
       -2   -1    0    0    0  501  0.00000000000E+00  0.00000000000E+00 -0.37174096234E+03  0.37174096235E+03  0.25500000920E-02 0. -1.
    10030    2    1    2    0    0  0.00000000000E+00  0.00000000000E+00 -0.11285686278E+03  0.63062506192E+03  0.62044443526E+03 0.  0.
        5    1    3    3  502    0  0.50341961052E+02 -0.20541687440E+03  0.17419853082E+03  0.27403945604E+03  0.46999998093E+01 0.  1.
       -5    1    3    3    0  502 -0.50341961052E+02  0.20541687440E+03 -0.28705539359E+03  0.35658560588E+03  0.46999998093E+01 0. -1.
</event>
<event>
 5   0  0.8420604E-02  0.5890759E+03  0.7818609E-02  0.9928333E-01
        2   -1    0    0  501    0  0.00000000000E+00  0.00000000000E+00  0.11651744431E+04  0.11651744431E+04  0.25500000920E-02 0. -1.
       -2   -1    0    0    0  501  0.00000000000E+00  0.00000000000E+00 -0.74454605582E+02  0.74454605626E+02  0.25500000920E-02 0.  1.
    10030    2    1    2    0    0  0.00000000000E+00  0.00000000000E+00  0.10907198375E+04  0.12396290487E+04  0.58907589875E+03 0.  0.
        2    1    3    3  502    0 -0.26736969698E+02  0.56747912723E+02  0.11509535773E+04  0.11526618447E+04  0.25500000920E-02 0. -1.
       -2    1    3    3    0  502  0.26736969698E+02 -0.56747912723E+02 -0.60233739826E+02  0.86967203974E+02  0.25500000920E-02 0.  1.
</event>
<event>
 5   0  0.8575590E-02  0.6252579E+03  0.7818609E-02  0.9854347E-01
       -2   -1    0    0    0  501  0.00000000000E+00  0.00000000000E+00  0.17147497733E+03  0.17147497735E+03  0.25500000920E-02 0. -1.
        2   -1    0    0  501    0  0.00000000000E+00  0.00000000000E+00 -0.56997737837E+03  0.56997737837E+03  0.25500000920E-02 0.  1.
    10030    2    1    2    0    0  0.00000000000E+00  0.00000000000E+00 -0.39850240104E+03  0.74145235572E+03  0.62525789253E+03 0.  0.
        4    1    3    3  502    0  0.14831672554E+03  0.15282489489E+03  0.72151946621E+02  0.22485732337E+03  0.12699999809E+01 0. -1.
       -4    1    3    3    0  502 -0.14831672554E+03 -0.15282489489E+03 -0.47065434766E+03  0.51659503235E+03  0.12699999809E+01 0.  1.
</event>
<event>
 5   0  0.4987389E-02  0.5890801E+03  0.7818609E-02  0.9928324E-01
        1   -1    0    0  501    0  0.00000000000E+00  0.00000000000E+00  0.95735448786E+03  0.95735448788E+03  0.50400001928E-02 0. -1.
       -1   -1    0    0    0  501  0.00000000000E+00  0.00000000000E+00 -0.90618303964E+02  0.90618304104E+02  0.50400001928E-02 0.  1.
    10030    2    1    2    0    0  0.00000000000E+00  0.00000000000E+00  0.86673618390E+03  0.10479727920E+04  0.58908009663E+03 0.  0.
        1    1    3    3  502    0 -0.21855971655E+03 -0.88431769209E+02  0.11930897788E+03  0.26424072308E+03  0.50400001928E-02 0.  1.
       -1    1    3    3    0  502  0.21855971655E+03  0.88431769209E+02  0.74742720602E+03  0.78373206890E+03  0.50400001928E-02 0. -1.
</event>
<event>
 5   0  0.4987389E-02  0.5998349E+03  0.7818609E-02  0.9905749E-01
        1   -1    0    0  501    0  0.00000000000E+00  0.00000000000E+00  0.10396893976E+04  0.10396893976E+04  0.50400001928E-02 0. -1.
       -1   -1    0    0    0  501  0.00000000000E+00  0.00000000000E+00 -0.86516682882E+02  0.86516683029E+02  0.50400001928E-02 0.  1.
    10030    2    1    2    0    0  0.00000000000E+00  0.00000000000E+00  0.95317271475E+03  0.11262060807E+04  0.59983490396E+03 0.  0.
        1    1    3    3  502    0 -0.51611342204E+02 -0.70887069479E+02 -0.61912965133E+02  0.10734021865E+03  0.50400001928E-02 0.  1.
       -1    1    3    3    0  502  0.51611342204E+02  0.70887069479E+02  0.10150856799E+04  0.10188658620E+04  0.50400001928E-02 0. -1.
</event>
<event>
 5   0  0.4881209E-02  0.5994915E+03  0.7818609E-02  0.9906462E-01
        1   -1    0    0  501    0  0.00000000000E+00  0.00000000000E+00  0.87647479457E+03  0.87647479459E+03  0.50400001928E-02 0.  1.
       -1   -1    0    0    0  501  0.00000000000E+00  0.00000000000E+00 -0.10251010140E+03  0.10251010152E+03  0.50400001928E-02 0. -1.
    10030    2    1    2    0    0  0.00000000000E+00  0.00000000000E+00  0.77396469318E+03  0.97898489611E+03  0.59949151831E+03 0.  0.
        3    1    3    3  502    0  0.77547759778E+02  0.15058786366E+03 -0.16864381349E+02  0.17021979112E+03  0.10100000352E+00 0. -1.
       -3    1    3    3    0  502 -0.77547759778E+02 -0.15058786366E+03  0.79082907453E+03  0.80876510499E+03  0.10100000352E+00 0.  1.
</event>
<event>
 5   0  0.8207443E-02  0.5898764E+03  0.7818609E-02  0.9926635E-01
       -2   -1    0    0    0  501  0.00000000000E+00  0.00000000000E+00  0.66698897640E+02  0.66698897689E+02  0.25500000920E-02 0. -1.
        2   -1    0    0  501    0  0.00000000000E+00  0.00000000000E+00 -0.13041975434E+04  0.13041975434E+04  0.25500000920E-02 0.  1.
    10030    2    1    2    0    0  0.00000000000E+00  0.00000000000E+00 -0.12374986458E+04  0.13708964411E+04  0.58987638870E+03 0.  0.
        1    1    3    3  502    0  0.26671248416E+03 -0.12430684138E+03 -0.66527649397E+03  0.72744797304E+03  0.50400001928E-02 0. -1.
       -1    1    3    3    0  502 -0.26671248416E+03  0.12430684138E+03 -0.57222215180E+03  0.64344846807E+03  0.50400001928E-02 0.  1.
</event>
<event>
 5   0  0.5190380E-02  0.5990714E+03  0.7818609E-02  0.9907334E-01
       -1   -1    0    0    0  501  0.00000000000E+00  0.00000000000E+00  0.33559377466E+03  0.33559377470E+03  0.50400001928E-02 0. -1.
        1   -1    0    0  501    0  0.00000000000E+00  0.00000000000E+00 -0.26735190397E+03  0.26735190402E+03  0.50400001928E-02 0.  1.
    10030    2    1    2    0    0  0.00000000000E+00  0.00000000000E+00  0.68241870689E+02  0.60294567872E+03  0.59907139689E+03 0.  0.
        5    1    3    3  502    0 -0.20408042063E+03 -0.15895398212E+03  0.18604200226E+03  0.31866738635E+03  0.46999998093E+01 0. -1.
       -5    1    3    3    0  502  0.20408042063E+03  0.15895398212E+03 -0.11780013157E+03  0.28427829237E+03  0.46999998093E+01 0.  1.
</event>
<event>
 5   0  0.8575590E-02  0.5496731E+03  0.7818609E-02  0.1001570E+00
       -2   -1    0    0    0  501  0.00000000000E+00  0.00000000000E+00  0.12236040812E+03  0.12236040815E+03  0.25500000920E-02 0.  1.
        2   -1    0    0  501    0  0.00000000000E+00  0.00000000000E+00 -0.61731666811E+03  0.61731666811E+03  0.25500000920E-02 0. -1.
    10030    2    1    2    0    0  0.00000000000E+00  0.00000000000E+00 -0.49495625999E+03  0.73967707626E+03  0.54967306451E+03 0.  0.
        4    1    3    3  502    0  0.21224857184E+03 -0.10549065625E+03 -0.43469412471E+03  0.49511446127E+03  0.12699999809E+01 0. -1.
       -4    1    3    3    0  502 -0.21224857184E+03  0.10549065625E+03 -0.60262135277E+02  0.24456261499E+03  0.12699999809E+01 0.  1.
</event>
<event>
 5   0  0.5125031E-02  0.5938481E+03  0.7818609E-02  0.9918252E-01
       -1   -1    0    0    0  501  0.00000000000E+00  0.00000000000E+00  0.50561685399E+02  0.50561685650E+02  0.50400001928E-02 0. -1.
        1   -1    0    0  501    0  0.00000000000E+00  0.00000000000E+00 -0.17436894711E+04  0.17436894711E+04  0.50400001928E-02 0.  1.
    10030    2    1    2    0    0  0.00000000000E+00  0.00000000000E+00 -0.16931277857E+04  0.17942511568E+04  0.59384805701E+03 0.  0.
        4    1    3    3  502    0 -0.19163843268E+02 -0.22828387227E+03 -0.14172921364E+04  0.14356877767E+04  0.12699999809E+01 0.  1.
       -4    1    3    3    0  502  0.19163843268E+02  0.22828387227E+03 -0.27583564929E+03  0.35856338009E+03  0.12699999809E+01 0. -1.
</event>
<event>
 5   0  0.5190380E-02  0.5912923E+03  0.7818609E-02  0.9923638E-01
       -1   -1    0    0    0  501  0.00000000000E+00  0.00000000000E+00  0.13939686663E+03  0.13939686672E+03  0.50400001928E-02 0. -1.
        1   -1    0    0  501    0  0.00000000000E+00  0.00000000000E+00 -0.62703458014E+03  0.62703458016E+03  0.50400001928E-02 0.  1.
    10030    2    1    2    0    0  0.00000000000E+00  0.00000000000E+00 -0.48763771352E+03  0.76643144688E+03  0.59129233305E+03 0.  0.
        5    1    3    3  502    0 -0.60594187659E+02  0.23072766886E+03 -0.47010701521E+03  0.52719029629E+03  0.46999998093E+01 0.  1.
       -5    1    3    3    0  502  0.60594187659E+02 -0.23072766886E+03 -0.17530698306E+02  0.23924115059E+03  0.46999998093E+01 0. -1.
</event>
<event>
 5   0  0.8207443E-02  0.6001344E+03  0.7818609E-02  0.9905127E-01
       -2   -1    0    0    0  501  0.00000000000E+00  0.00000000000E+00  0.26218278126E+03  0.26218278128E+03  0.25500000920E-02 0.  1.
        2   -1    0    0  501    0  0.00000000000E+00  0.00000000000E+00 -0.34342577947E+03  0.34342577948E+03  0.25500000920E-02 0. -1.
    10030    2    1    2    0    0  0.00000000000E+00  0.00000000000E+00 -0.81242998208E+02  0.60560856076E+03  0.60013440503E+03 0.  0.
        1    1    3    3  502    0 -0.27404308114E+03 -0.93784794687E+02 -0.11972741189E+03  0.31341641823E+03  0.50400001928E-02 0.  1.
       -1    1    3    3    0  502  0.27404308114E+03  0.93784794687E+02  0.38484413682E+02  0.29219214253E+03  0.50400001928E-02 0. -1.
</event>
<event>
 5   0  0.4881209E-02  0.5947253E+03  0.7818609E-02  0.9916410E-01
        1   -1    0    0  501    0  0.00000000000E+00  0.00000000000E+00  0.14019796813E+03  0.14019796823E+03  0.50400001928E-02 0. -1.
       -1   -1    0    0    0  501  0.00000000000E+00  0.00000000000E+00 -0.63071209445E+03  0.63071209447E+03  0.50400001928E-02 0.  1.
    10030    2    1    2    0    0  0.00000000000E+00  0.00000000000E+00 -0.49051412631E+03  0.77091006269E+03  0.59472532874E+03 0.  0.
        3    1    3    3  502    0  0.26916768550E+03 -0.73925342864E+02 -0.11237864936E+03  0.30090724529E+03  0.10100000352E+00 0.  1.
       -3    1    3    3    0  502 -0.26916768550E+03  0.73925342864E+02 -0.37813547695E+03  0.47000281740E+03  0.10100000352E+00 0. -1.
</event>
<event>
 5   0  0.8420604E-02  0.5331167E+03  0.7818609E-02  0.1005479E+00
        2   -1    0    0  501    0  0.00000000000E+00  0.00000000000E+00  0.21469902011E+03  0.21469902013E+03  0.25500000920E-02 0.  1.
       -2   -1    0    0    0  501  0.00000000000E+00  0.00000000000E+00 -0.33094404611E+03  0.33094404612E+03  0.25500000920E-02 0. -1.
    10030    2    1    2    0    0  0.00000000000E+00  0.00000000000E+00 -0.11624502600E+03  0.54564306625E+03  0.53311673176E+03 0.  0.
        2    1    3    3  502    0 -0.15833049504E+03  0.19411099909E+03 -0.15139969342E+03  0.29269351342E+03  0.25500000920E-02 0.  1.
       -2    1    3    3    0  502  0.15833049504E+03 -0.19411099909E+03  0.35154667416E+02  0.25294955283E+03  0.25500000920E-02 0. -1.
</event>
<event>
 5   0  0.8420604E-02  0.6215372E+03  0.7818609E-02  0.9861704E-01
        2   -1    0    0  501    0  0.00000000000E+00  0.00000000000E+00  0.16909694540E+04  0.16909694540E+04  0.25500000920E-02 0. -1.
       -2   -1    0    0    0  501  0.00000000000E+00  0.00000000000E+00 -0.57113463910E+02  0.57113463967E+02  0.25500000920E-02 0.  1.
    10030    2    1    2    0    0  0.00000000000E+00  0.00000000000E+00  0.16338559901E+04  0.17480829180E+04  0.62153720061E+03 0.  0.
        2    1    3    3  502    0 -0.21941275419E+03 -0.21674203827E+03  0.92432245188E+03  0.97441832029E+03  0.25500000920E-02 0.  1.
       -2    1    3    3    0  502  0.21941275419E+03  0.21674203827E+03  0.70953353821E+03  0.77366459768E+03  0.25500000920E-02 0. -1.
</event>
<event>
 5   0  0.8575590E-02  0.5991973E+03  0.7818609E-02  0.9907073E-01
       -2   -1    0    0    0  501  0.00000000000E+00  0.00000000000E+00  0.47603899850E+03  0.47603899850E+03  0.25500000920E-02 0. -1.
        2   -1    0    0  501    0  0.00000000000E+00  0.00000000000E+00 -0.18855464192E+03  0.18855464194E+03  0.25500000920E-02 0.  1.
    10030    2    1    2    0    0  0.00000000000E+00  0.00000000000E+00  0.28748435657E+03  0.66459364044E+03  0.59919733949E+03 0.  0.
        4    1    3    3  502    0 -0.14762999664E+03 -0.45871540738E+02 -0.14089633303E+03  0.20917027446E+03  0.12699999809E+01 0.  1.
       -4    1    3    3    0  502  0.14762999664E+03  0.45871540738E+02  0.42838068960E+03  0.45542336598E+03  0.12699999809E+01 0. -1.
</event>
<event>
 5   0  0.8699746E-02  0.6029476E+03  0.7818609E-02  0.9899309E-01
       -2   -1    0    0    0  501  0.00000000000E+00  0.00000000000E+00  0.17042572271E+03  0.17042572273E+03  0.25500000920E-02 0.  1.
        2   -1    0    0  501    0  0.00000000000E+00  0.00000000000E+00 -0.53329072757E+03  0.53329072758E+03  0.25500000920E-02 0. -1.
    10030    2    1    2    0    0  0.00000000000E+00  0.00000000000E+00 -0.36286500486E+03  0.70371645031E+03  0.60294761853E+03 0.  0.
        3    1    3    3  502    0 -0.98375678869E+02  0.28429841795E+03 -0.15858890690E+03  0.34007913231E+03  0.10100000352E+00 0. -1.
       -3    1    3    3    0  502  0.98375678869E+02 -0.28429841795E+03 -0.20427609796E+03  0.36363731800E+03  0.10100000352E+00 0.  1.
</event>
<event>
 5   0  0.8207443E-02  0.5969363E+03  0.7818609E-02  0.9911783E-01
       -2   -1    0    0    0  501  0.00000000000E+00  0.00000000000E+00  0.77331064930E+02  0.77331064972E+02  0.25500000920E-02 0.  1.
        2   -1    0    0  501    0  0.00000000000E+00  0.00000000000E+00 -0.11519720361E+04  0.11519720361E+04  0.25500000920E-02 0. -1.
    10030    2    1    2    0    0  0.00000000000E+00  0.00000000000E+00 -0.10746409711E+04  0.12293031010E+04  0.59693625906E+03 0.  0.
        1    1    3    3  502    0 -0.19389498928E+03  0.21308942486E+03 -0.37673239938E+03  0.47426750955E+03  0.50400001928E-02 0. -1.
       -1    1    3    3    0  502  0.19389498928E+03 -0.21308942486E+03 -0.69790857176E+03  0.75503559149E+03  0.50400001928E-02 0.  1.
</event>
<event>
 5   0  0.8817544E-02  0.5619309E+03  0.7818609E-02  0.9987695E-01
        2   -1    0    0  501    0  0.00000000000E+00  0.00000000000E+00  0.12248853872E+03  0.12248853875E+03  0.25500000920E-02 0. -1.
       -2   -1    0    0    0  501  0.00000000000E+00  0.00000000000E+00 -0.64448145592E+03  0.64448145592E+03  0.25500000920E-02 0.  1.
    10030    2    1    2    0    0  0.00000000000E+00  0.00000000000E+00 -0.52199291720E+03  0.76696999467E+03  0.56193092735E+03 0.  0.
        5    1    3    3  502    0  0.12703563579E+03  0.15043322837E+03  0.12495905501E+02  0.19734854094E+03  0.46999998093E+01 0. -1.
       -5    1    3    3    0  502 -0.12703563579E+03 -0.15043322837E+03 -0.53448882270E+03  0.56962145373E+03  0.46999998093E+01 0.  1.
</event>
<event>
 5   0  0.5125031E-02  0.6045538E+03  0.7818609E-02  0.9896003E-01
        1   -1    0    0  501    0  0.00000000000E+00  0.00000000000E+00  0.24513036389E+03  0.24513036394E+03  0.50400001928E-02 0. -1.
       -1   -1    0    0    0  501  0.00000000000E+00  0.00000000000E+00 -0.37274585229E+03  0.37274585232E+03  0.50400001928E-02 0.  1.
    10030    2    1    2    0    0  0.00000000000E+00  0.00000000000E+00 -0.12761548840E+03  0.61787621627E+03  0.60455380716E+03 0.  0.
        4    1    3    3  502    0 -0.14778042289E+03 -0.25764524852E+03 -0.12116564624E+03  0.32078474746E+03  0.12699999809E+01 0.  1.
       -4    1    3    3    0  502  0.14778042289E+03  0.25764524852E+03 -0.64498421580E+01  0.29709146881E+03  0.12699999809E+01 0. -1.
</event>
<event>
 5   0  0.4881209E-02  0.6160972E+03  0.7818609E-02  0.9872561E-01
       -1   -1    0    0    0  501  0.00000000000E+00  0.00000000000E+00  0.15961928536E+03  0.15961928544E+03  0.50400001928E-02 0. -1.
        1   -1    0    0  501    0  0.00000000000E+00  0.00000000000E+00 -0.59450165332E+03  0.59450165334E+03  0.50400001928E-02 0.  1.
    10030    2    1    2    0    0  0.00000000000E+00  0.00000000000E+00 -0.43488236795E+03  0.75412093878E+03  0.61609716470E+03 0.  0.
        3    1    3    3  502    0 -0.26024926411E+03  0.89646747965E+02 -0.38672801104E+03  0.47468387756E+03  0.10100000352E+00 0.  1.
       -3    1    3    3    0  502  0.26024926411E+03 -0.89646747965E+02 -0.48154356911E+02  0.27943706122E+03  0.10100000352E+00 0. -1.
</event>
<event>
 5   0  0.8575590E-02  0.5965430E+03  0.7818609E-02  0.9912604E-01
       -2   -1    0    0    0  501  0.00000000000E+00  0.00000000000E+00  0.14406408715E+03  0.14406408718E+03  0.25500000920E-02 0. -1.
        2   -1    0    0  501    0  0.00000000000E+00  0.00000000000E+00 -0.61754379247E+03  0.61754379248E+03  0.25500000920E-02 0.  1.
    10030    2    1    2    0    0  0.00000000000E+00  0.00000000000E+00 -0.47347970532E+03  0.76160787965E+03  0.59654298336E+03 0.  0.
        4    1    3    3  502    0  0.11777658959E+03  0.21158677473E+03 -0.45906203594E+03  0.51901816349E+03  0.12699999809E+01 0.  1.
       -4    1    3    3    0  502 -0.11777658959E+03 -0.21158677473E+03 -0.14417669382E+02  0.24258971616E+03  0.12699999809E+01 0. -1.
</event>
<event>
 5   0  0.8420604E-02  0.5936701E+03  0.7818609E-02  0.9918626E-01
        2   -1    0    0  501    0  0.00000000000E+00  0.00000000000E+00  0.74022689870E+03  0.74022689870E+03  0.25500000920E-02 0.  1.
       -2   -1    0    0    0  501  0.00000000000E+00  0.00000000000E+00 -0.11903248203E+03  0.11903248206E+03  0.25500000920E-02 0. -1.
    10030    2    1    2    0    0  0.00000000000E+00  0.00000000000E+00  0.62119441667E+03  0.85925938076E+03  0.59367009367E+03 0.  0.
        2    1    3    3  502    0  0.18721508956E+03  0.21684031283E+03  0.42310005321E+03  0.51096268559E+03  0.25500000920E-02 0.  1.
       -2    1    3    3    0  502 -0.18721508956E+03 -0.21684031283E+03  0.19809436345E+03  0.34829669517E+03  0.25500000920E-02 0. -1.
</event>
<event>
 5   0  0.5190380E-02  0.5656673E+03  0.7818609E-02  0.9979312E-01
       -1   -1    0    0    0  501  0.00000000000E+00  0.00000000000E+00  0.81578258129E+03  0.81578258131E+03  0.50400001928E-02 0. -1.
        1   -1    0    0  501    0  0.00000000000E+00  0.00000000000E+00 -0.98059050767E+02  0.98059050896E+02  0.50400001928E-02 0.  1.
    10030    2    1    2    0    0  0.00000000000E+00  0.00000000000E+00  0.71772353053E+03  0.91384163221E+03  0.56566727188E+03 0.  0.
        5    1    3    3  502    0 -0.15634620678E+02  0.20446735256E+03  0.44266433023E+02  0.20984028860E+03  0.46999998093E+01 0.  1.
       -5    1    3    3    0  502  0.15634620678E+02 -0.20446735256E+03  0.67345709751E+03  0.70400134361E+03  0.46999998093E+01 0. -1.
</event>
<event>
 5   0  0.5166903E-02  0.5882924E+03  0.7818609E-02  0.9929998E-01
       -1   -1    0    0    0  501  0.00000000000E+00  0.00000000000E+00  0.18627576171E+03  0.18627576178E+03  0.50400001928E-02 0.  1.
        1   -1    0    0  501    0  0.00000000000E+00  0.00000000000E+00 -0.46448340913E+03  0.46448340915E+03  0.50400001928E-02 0. -1.
    10030    2    1    2    0    0  0.00000000000E+00  0.00000000000E+00 -0.27820764741E+03  0.65075917094E+03  0.58829244724E+03 0.  0.
        2    1    3    3  502    0  0.21224425742E+03 -0.12524706800E+03 -0.31674025893E+03  0.40132137307E+03  0.25500000920E-02 0. -1.
       -2    1    3    3    0  502 -0.21224425742E+03  0.12524706800E+03  0.38532611513E+02  0.24943779787E+03  0.25500000920E-02 0.  1.
</event>
<event>
 5   0  0.8817544E-02  0.6012593E+03  0.7818609E-02  0.9902797E-01
       -2   -1    0    0    0  501  0.00000000000E+00  0.00000000000E+00  0.10095873748E+03  0.10095873751E+03  0.25500000920E-02 0. -1.
        2   -1    0    0  501    0  0.00000000000E+00  0.00000000000E+00 -0.89519937940E+03  0.89519937940E+03  0.25500000920E-02 0.  1.
    10030    2    1    2    0    0  0.00000000000E+00  0.00000000000E+00 -0.79424064192E+03  0.99615811691E+03  0.60125934222E+03 0.  0.
        5    1    3    3  502    0 -0.18490176343E+03 -0.87351861684E+01 -0.47342450263E+01  0.18522815302E+03  0.46999998093E+01 0. -1.
       -5    1    3    3    0  502  0.18490176343E+03  0.87351861684E+01 -0.78950639690E+03  0.81092996389E+03  0.46999998093E+01 0.  1.
</event>
<event>
 5   0  0.5166903E-02  0.5994776E+03  0.7818609E-02  0.9906490E-01
        1   -1    0    0  501    0  0.00000000000E+00  0.00000000000E+00  0.36881693618E+03  0.36881693621E+03  0.50400001928E-02 0.  1.
       -1   -1    0    0    0  501  0.00000000000E+00  0.00000000000E+00 -0.24359879718E+03  0.24359879723E+03  0.50400001928E-02 0. -1.
    10030    2    1    2    0    0  0.00000000000E+00  0.00000000000E+00  0.12521813900E+03  0.61241573344E+03  0.59947764615E+03 0.  0.
        2    1    3    3  502    0  0.27070692545E+03 -0.12406028723E+03  0.27663075469E+02  0.29906260232E+03  0.25500000920E-02 0. -1.
       -2    1    3    3    0  502 -0.27070692545E+03  0.12406028723E+03  0.97555063530E+02  0.31335313112E+03  0.25500000920E-02 0.  1.
</event>
<event>
 5   0  0.4987389E-02  0.5929713E+03  0.7818609E-02  0.9920097E-01
       -1   -1    0    0    0  501  0.00000000000E+00  0.00000000000E+00  0.23406314843E+03  0.23406314848E+03  0.50400001928E-02 0.  1.
        1   -1    0    0  501    0  0.00000000000E+00  0.00000000000E+00 -0.37555567753E+03  0.37555567757E+03  0.50400001928E-02 0. -1.
    10030    2    1    2    0    0  0.00000000000E+00  0.00000000000E+00 -0.14149252911E+03  0.60961882605E+03  0.59297131236E+03 0.  0.
        1    1    3    3  502    0  0.14017945231E+03  0.39856910020E+02  0.19469795834E+03  0.24319980908E+03  0.50400001928E-02 0.  1.
       -1    1    3    3    0  502 -0.14017945231E+03 -0.39856910020E+02 -0.33619048745E+03  0.36641901698E+03  0.50400001928E-02 0. -1.
</event>
<event>
 5   0  0.4987389E-02  0.6033826E+03  0.7818609E-02  0.9898413E-01
       -1   -1    0    0    0  501  0.00000000000E+00  0.00000000000E+00  0.19944499064E+03  0.19944499070E+03  0.50400001928E-02 0.  1.
        1   -1    0    0  501    0  0.00000000000E+00  0.00000000000E+00 -0.45635466590E+03  0.45635466593E+03  0.50400001928E-02 0. -1.
    10030    2    1    2    0    0  0.00000000000E+00  0.00000000000E+00 -0.25690967527E+03  0.65579965664E+03  0.60338263846E+03 0.  0.
        1    1    3    3  502    0  0.12725248838E+03 -0.22249487355E+03 -0.30140238473E+03  0.39565207203E+03  0.50400001928E-02 0.  1.
       -1    1    3    3    0  502 -0.12725248838E+03  0.22249487355E+03  0.44492709468E+02  0.26014758460E+03  0.50400001928E-02 0. -1.
</event>
<event>
 5   0  0.8207443E-02  0.6232308E+03  0.7818609E-02  0.9858348E-01
       -2   -1    0    0    0  501  0.00000000000E+00  0.00000000000E+00  0.15640928568E+03  0.15640928570E+03  0.25500000920E-02 0.  1.
        2   -1    0    0  501    0  0.00000000000E+00  0.00000000000E+00 -0.62083374848E+03  0.62083374848E+03  0.25500000920E-02 0. -1.
    10030    2    1    2    0    0  0.00000000000E+00  0.00000000000E+00 -0.46442446279E+03  0.77724303419E+03  0.62323081804E+03 0.  0.
        1    1    3    3  502    0  0.22299175529E+03  0.21665603348E+03 -0.25834237712E+03  0.40423501037E+03  0.50400001928E-02 0.  1.
       -1    1    3    3    0  502 -0.22299175529E+03 -0.21665603348E+03 -0.20608208567E+03  0.37300802381E+03  0.50400001928E-02 0. -1.
</event>
<event>
 5   0  0.5190380E-02  0.6098649E+03  0.7818609E-02  0.9885148E-01
       -1   -1    0    0    0  501  0.00000000000E+00  0.00000000000E+00  0.13829200490E+04  0.13829200490E+04  0.50400001928E-02 0.  1.
        1   -1    0    0  501    0  0.00000000000E+00  0.00000000000E+00 -0.67237294408E+02  0.67237294597E+02  0.50400001928E-02 0. -1.
    10030    2    1    2    0    0  0.00000000000E+00  0.00000000000E+00  0.13156827546E+04  0.14501573436E+04  0.60986491166E+03 0.  0.
        5    1    3    3  502    0 -0.52247999481E+02 -0.25525558837E+03  0.10343842682E+04  0.10667043513E+04  0.46999998093E+01 0.  1.
       -5    1    3    3    0  502  0.52247999481E+02  0.25525558837E+03  0.28129848639E+03  0.38345299228E+03  0.46999998093E+01 0. -1.
</event>
<event>
 5   0  0.8699746E-02  0.5991579E+03  0.7818609E-02  0.9907155E-01
        2   -1    0    0  501    0  0.00000000000E+00  0.00000000000E+00  0.90830653280E+03  0.90830653281E+03  0.25500000920E-02 0.  1.
       -2   -1    0    0    0  501  0.00000000000E+00  0.00000000000E+00 -0.98807549480E+02  0.98807549513E+02  0.25500000920E-02 0. -1.
    10030    2    1    2    0    0  0.00000000000E+00  0.00000000000E+00  0.80949898332E+03  0.10071140823E+04  0.59915788471E+03 0.  0.
        3    1    3    3  502    0  0.26482362019E+03  0.13990251969E+03  0.39369295396E+03  0.49467000821E+03  0.10100000352E+00 0.  1.
       -3    1    3    3    0  502 -0.26482362019E+03 -0.13990251969E+03  0.41580602937E+03  0.51244407411E+03  0.10100000352E+00 0. -1.
</event>
<event>
 5   0  0.8817544E-02  0.5984788E+03  0.7818609E-02  0.9908567E-01
        2   -1    0    0  501    0  0.00000000000E+00  0.00000000000E+00  0.19350384258E+03  0.19350384259E+03  0.25500000920E-02 0.  1.
       -2   -1    0    0    0  501  0.00000000000E+00  0.00000000000E+00 -0.46275156800E+03  0.46275156801E+03  0.25500000920E-02 0. -1.
    10030    2    1    2    0    0  0.00000000000E+00  0.00000000000E+00 -0.26924772543E+03  0.65625541061E+03  0.59847876011E+03 0.  0.
        5    1    3    3  502    0  0.17609837796E+03  0.16023623904E+03 -0.33332398067E+03  0.40965016430E+03  0.46999998093E+01 0. -1.
       -5    1    3    3    0  502 -0.17609837796E+03 -0.16023623904E+03  0.64076255246E+02  0.24660524631E+03  0.46999998093E+01 0.  1.
</event>
<event>
 5   0  0.8575590E-02  0.6740489E+03  0.7818609E-02  0.9762671E-01
       -2   -1    0    0    0  501  0.00000000000E+00  0.00000000000E+00  0.14544860436E+03  0.14544860439E+03  0.25500000920E-02 0.  1.
        2   -1    0    0  501    0  0.00000000000E+00  0.00000000000E+00 -0.78093212654E+03  0.78093212655E+03  0.25500000920E-02 0. -1.
    10030    2    1    2    0    0  0.00000000000E+00  0.00000000000E+00 -0.63548352218E+03  0.92638073093E+03  0.67404892380E+03 0.  0.
        4    1    3    3  502    0 -0.12809747516E+03  0.27625051326E+03 -0.51624204633E+03  0.59935863430E+03  0.12699999809E+01 0. -1.
       -4    1    3    3    0  502  0.12809747516E+03 -0.27625051326E+03 -0.11924147585E+03  0.32702209663E+03  0.12699999809E+01 0.  1.
</event>
<event>
 5   0  0.8207443E-02  0.5982069E+03  0.7818609E-02  0.9909133E-01
        2   -1    0    0  501    0  0.00000000000E+00  0.00000000000E+00  0.26059393048E+03  0.26059393049E+03  0.25500000920E-02 0. -1.
       -2   -1    0    0    0  501  0.00000000000E+00  0.00000000000E+00 -0.34330376301E+03  0.34330376302E+03  0.25500000920E-02 0.  1.
    10030    2    1    2    0    0  0.00000000000E+00  0.00000000000E+00 -0.82709832534E+02  0.60389769351E+03  0.59820691055E+03 0.  0.
        1    1    3    3  502    0  0.28378118539E+03 -0.52711016537E+02 -0.12054003306E+03  0.31279404093E+03  0.50400001928E-02 0.  1.
       -1    1    3    3    0  502 -0.28378118539E+03  0.52711016537E+02  0.37830200530E+02  0.29110365258E+03  0.50400001928E-02 0. -1.
</event>
<event>
 5   0  0.5166903E-02  0.6001907E+03  0.7818609E-02  0.9905010E-01
       -1   -1    0    0    0  501  0.00000000000E+00  0.00000000000E+00  0.88715706435E+02  0.88715706578E+02  0.50400001928E-02 0.  1.
        1   -1    0    0  501    0  0.00000000000E+00  0.00000000000E+00 -0.10151214729E+04  0.10151214729E+04  0.50400001928E-02 0. -1.
    10030    2    1    2    0    0  0.00000000000E+00  0.00000000000E+00 -0.92640576650E+03  0.11038371795E+04  0.60019069861E+03 0.  0.
        2    1    3    3  502    0  0.23869836415E+02  0.14127634640E+01 -0.10133666431E+04  0.10136487154E+04  0.25500000920E-02 0. -1.
       -2    1    3    3    0  502 -0.23869836415E+02 -0.14127634640E+01  0.86960876584E+02  0.90188464085E+02  0.25500000920E-02 0.  1.
</event>
<event>
 5   0  0.4881209E-02  0.5965535E+03  0.7818609E-02  0.9912582E-01
       -1   -1    0    0    0  501  0.00000000000E+00  0.00000000000E+00  0.19451042525E+03  0.19451042532E+03  0.50400001928E-02 0. -1.
        1   -1    0    0  501    0  0.00000000000E+00  0.00000000000E+00 -0.45739969794E+03  0.45739969797E+03  0.50400001928E-02 0.  1.
    10030    2    1    2    0    0  0.00000000000E+00  0.00000000000E+00 -0.26288927269E+03  0.65191012328E+03  0.59655346713E+03 0.  0.
        3    1    3    3  502    0  0.24340134525E+03 -0.12214372112E+03  0.15250874089E+01  0.27233369158E+03  0.10100000352E+00 0. -1.
       -3    1    3    3    0  502 -0.24340134525E+03  0.12214372112E+03 -0.26441436010E+03  0.37957643170E+03  0.10100000352E+00 0.  1.
</event>
<event>
 5   0  0.3437375E-02  0.5954873E+03  0.7818609E-02  0.9914813E-01
       -3   -1    0    0    0  501  0.00000000000E+00  0.00000000000E+00  0.12891247940E+04  0.12891247979E+04  0.10100000352E+00 0.  1.
        3   -1    0    0  501    0  0.00000000000E+00  0.00000000000E+00 -0.68768549271E+02  0.68768623440E+02  0.10100000352E+00 0. -1.
    10030    2    1    2    0    0  0.00000000000E+00  0.00000000000E+00  0.12203562447E+04  0.13578934214E+04  0.59548734648E+03 0.  0.
        2    1    3    3  502    0 -0.11605305481E+03 -0.25604328161E+03  0.38646601673E+03  0.47789377029E+03  0.25500000920E-02 0.  1.
       -2    1    3    3    0  502  0.11605305481E+03  0.25604328161E+03  0.83389022799E+03  0.87999965110E+03  0.25500000920E-02 0. -1.
</event>
<event>
 5   0  0.8699746E-02  0.5586876E+03  0.7818609E-02  0.9995029E-01
        2   -1    0    0  501    0  0.00000000000E+00  0.00000000000E+00  0.10476461431E+04  0.10476461431E+04  0.25500000920E-02 0. -1.
       -2   -1    0    0    0  501  0.00000000000E+00  0.00000000000E+00 -0.74484067246E+02  0.74484067289E+02  0.25500000920E-02 0.  1.
    10030    2    1    2    0    0  0.00000000000E+00  0.00000000000E+00  0.97316207584E+03  0.11221302104E+04  0.55868755417E+03 0.  0.
        3    1    3    3  502    0  0.14530034478E+03 -0.55860572989E+02  0.95245321626E+03  0.96509053108E+03  0.10100000352E+00 0. -1.
       -3    1    3    3    0  502 -0.14530034478E+03  0.55860572989E+02  0.20708859572E+02  0.15703967929E+03  0.10100000352E+00 0.  1.
</event>
<event>
 5   0  0.8699746E-02  0.5970032E+03  0.7818609E-02  0.9911643E-01
        2   -1    0    0  501    0  0.00000000000E+00  0.00000000000E+00  0.76834149561E+03  0.76834149561E+03  0.25500000920E-02 0.  1.
       -2   -1    0    0    0  501  0.00000000000E+00  0.00000000000E+00 -0.11596822128E+03  0.11596822131E+03  0.25500000920E-02 0. -1.
    10030    2    1    2    0    0  0.00000000000E+00  0.00000000000E+00  0.65237327433E+03  0.88430971692E+03  0.59700317116E+03 0.  0.
        3    1    3    3  502    0 -0.15931631152E+03  0.21945129631E+03  0.51097270540E+03  0.57847530149E+03  0.10100000352E+00 0.  1.
       -3    1    3    3    0  502  0.15931631152E+03 -0.21945129631E+03  0.14140056893E+03  0.30583441543E+03  0.10100000352E+00 0. -1.
</event>
<event>
 5   0  0.5166903E-02  0.6126193E+03  0.7818609E-02  0.9879566E-01
       -1   -1    0    0    0  501  0.00000000000E+00  0.00000000000E+00  0.12731311093E+03  0.12731311103E+03  0.50400001928E-02 0.  1.
        1   -1    0    0  501    0  0.00000000000E+00  0.00000000000E+00 -0.73696723833E+03  0.73696723835E+03  0.50400001928E-02 0. -1.
    10030    2    1    2    0    0  0.00000000000E+00  0.00000000000E+00 -0.60965412739E+03  0.86428034938E+03  0.61261926780E+03 0.  0.
        2    1    3    3  502    0 -0.37611869627E+02  0.30225933273E+03 -0.35054716678E+03  0.46439064708E+03  0.25500000920E-02 0. -1.
       -2    1    3    3    0  502  0.37611869627E+02 -0.30225933273E+03 -0.25910696061E+03  0.39988970230E+03  0.25500000920E-02 0.  1.
</event>
<event>
 5   0  0.4987389E-02  0.6023522E+03  0.7818609E-02  0.9900538E-01
       -1   -1    0    0    0  501  0.00000000000E+00  0.00000000000E+00  0.63569400987E+02  0.63569401186E+02  0.50400001928E-02 0. -1.
        1   -1    0    0  501    0  0.00000000000E+00  0.00000000000E+00 -0.14268979087E+04  0.14268979087E+04  0.50400001928E-02 0.  1.
    10030    2    1    2    0    0  0.00000000000E+00  0.00000000000E+00 -0.13633285077E+04  0.14904673099E+04  0.60235220753E+03 0.  0.
        1    1    3    3  502    0 -0.21989533507E+03 -0.78461060364E+02 -0.11524333355E+04  0.11758455210E+04  0.50400001928E-02 0.  1.
       -1    1    3    3    0  502  0.21989533507E+03  0.78461060364E+02 -0.21089517219E+03  0.31462178891E+03  0.50400001928E-02 0. -1.
</event>
<event>
 5   0  0.8817544E-02  0.5945026E+03  0.7818609E-02  0.9916877E-01
       -2   -1    0    0    0  501  0.00000000000E+00  0.00000000000E+00  0.76182302633E+02  0.76182302676E+02  0.25500000920E-02 0. -1.
        2   -1    0    0  501    0  0.00000000000E+00  0.00000000000E+00 -0.11598277523E+04  0.11598277523E+04  0.25500000920E-02 0.  1.
    10030    2    1    2    0    0  0.00000000000E+00  0.00000000000E+00 -0.10836454496E+04  0.12360100549E+04  0.59450264542E+03 0.  0.
        5    1    3    3  502    0  0.17172168827E+03  0.50555482871E+01 -0.10460652189E+04  0.10600888779E+04  0.46999998093E+01 0.  1.
       -5    1    3    3    0  502 -0.17172168827E+03 -0.50555482871E+01 -0.37580230690E+02  0.17592117703E+03  0.46999998093E+01 0. -1.
</event>
<event>
 5   0  0.3437375E-02  0.5931507E+03  0.7818609E-02  0.9919719E-01
       -3   -1    0    0    0  501  0.00000000000E+00  0.00000000000E+00  0.88860391187E+03  0.88860391761E+03  0.10100000352E+00 0. -1.
        3   -1    0    0  501    0  0.00000000000E+00  0.00000000000E+00 -0.98983272693E+02  0.98983324221E+02  0.10100000352E+00 0.  1.
    10030    2    1    2    0    0  0.00000000000E+00  0.00000000000E+00  0.78962063918E+03  0.98758724183E+03  0.59315074510E+03 0.  0.
        3    1    3    3  502    0  0.60543904818E+02 -0.89932864434E+02 -0.64808419641E+02  0.12630766395E+03  0.10100000352E+00 0.  1.
       -3    1    3    3    0  502 -0.60543904818E+02  0.89932864434E+02  0.85442905882E+03  0.86127957788E+03  0.10100000352E+00 0. -1.
</event>
<event>
 5   0  0.5125031E-02  0.6155059E+03  0.7818609E-02  0.9873748E-01
        1   -1    0    0  501    0  0.00000000000E+00  0.00000000000E+00  0.49391693550E+03  0.49391693552E+03  0.50400001928E-02 0.  1.
       -1   -1    0    0    0  501  0.00000000000E+00  0.00000000000E+00 -0.19175668628E+03  0.19175668634E+03  0.50400001928E-02 0. -1.
    10030    2    1    2    0    0  0.00000000000E+00  0.00000000000E+00  0.30216024922E+03  0.68567362186E+03  0.61550588910E+03 0.  0.
        4    1    3    3  502    0  0.18256093849E+03  0.79540234174E+02  0.41246717870E+03  0.45802394208E+03  0.12699999809E+01 0.  1.
       -4    1    3    3    0  502 -0.18256093849E+03 -0.79540234174E+02 -0.11030692948E+03  0.22764967978E+03  0.12699999809E+01 0. -1.
</event>
<event>
 5   0  0.5125031E-02  0.6029560E+03  0.7818609E-02  0.9899292E-01
        1   -1    0    0  501    0  0.00000000000E+00  0.00000000000E+00  0.95163875666E+03  0.95163875667E+03  0.50400001928E-02 0.  1.
       -1   -1    0    0    0  501  0.00000000000E+00  0.00000000000E+00 -0.95507850416E+02  0.95507850549E+02  0.50400001928E-02 0. -1.
    10030    2    1    2    0    0  0.00000000000E+00  0.00000000000E+00  0.85613090624E+03  0.10471466072E+04  0.60295595891E+03 0.  0.
        4    1    3    3  502    0  0.10540640403E+03 -0.13098680291E+03 -0.65208411396E+01  0.16826225606E+03  0.12699999809E+01 0. -1.
       -4    1    3    3    0  502 -0.10540640403E+03  0.13098680291E+03  0.86265174738E+03  0.87888435116E+03  0.12699999809E+01 0.  1.
</event>
<event>
 5   0  0.8575590E-02  0.5918541E+03  0.7818609E-02  0.9922452E-01
        2   -1    0    0  501    0  0.00000000000E+00  0.00000000000E+00  0.46382105691E+03  0.46382105692E+03  0.25500000920E-02 0. -1.
       -2   -1    0    0    0  501  0.00000000000E+00  0.00000000000E+00 -0.18880736713E+03  0.18880736715E+03  0.25500000920E-02 0.  1.
    10030    2    1    2    0    0  0.00000000000E+00  0.00000000000E+00  0.27501368978E+03  0.65262842407E+03  0.59185414616E+03 0.  0.
        4    1    3    3  502    0 -0.23120659746E+03 -0.10144638867E+03  0.30770419337E+03  0.39803435028E+03  0.12699999809E+01 0. -1.
       -4    1    3    3    0  502  0.23120659746E+03  0.10144638867E+03 -0.32690503586E+02  0.25459407379E+03  0.12699999809E+01 0.  1.
</event>
<event>
 5   0  0.4987389E-02  0.5998652E+03  0.7818609E-02  0.9905686E-01
       -1   -1    0    0    0  501  0.00000000000E+00  0.00000000000E+00  0.50304291398E+03  0.50304291400E+03  0.50400001928E-02 0.  1.
        1   -1    0    0  501    0  0.00000000000E+00  0.00000000000E+00 -0.17883082083E+03  0.17883082090E+03  0.50400001928E-02 0. -1.
    10030    2    1    2    0    0  0.00000000000E+00  0.00000000000E+00  0.32421209315E+03  0.68187373490E+03  0.59986524237E+03 0.  0.
        1    1    3    3  502    0 -0.67104198119E+02 -0.13417570615E+03  0.45733058729E+03  0.48130796755E+03  0.50400001928E-02 0.  1.
       -1    1    3    3    0  502  0.67104198119E+02  0.13417570615E+03 -0.13311849414E+03  0.20056576735E+03  0.50400001928E-02 0. -1.
</event>
<event>
 5   0  0.4987389E-02  0.6019058E+03  0.7818609E-02  0.9901460E-01
       -1   -1    0    0    0  501  0.00000000000E+00  0.00000000000E+00  0.11175435341E+03  0.11175435352E+03  0.50400001928E-02 0. -1.
        1   -1    0    0  501    0  0.00000000000E+00  0.00000000000E+00 -0.81046189629E+03  0.81046189631E+03  0.50400001928E-02 0.  1.
    10030    2    1    2    0    0  0.00000000000E+00  0.00000000000E+00 -0.69870754289E+03  0.92221624983E+03  0.60190579077E+03 0.  0.
        1    1    3    3  502    0 -0.37158728985E+02  0.28572050607E+03 -0.21617327219E+03  0.36020530585E+03  0.50400001928E-02 0. -1.
       -1    1    3    3    0  502  0.37158728985E+02 -0.28572050607E+03 -0.48253427069E+03  0.56201094397E+03  0.50400001928E-02 0.  1.
</event>
<event>
 5   0  0.4987389E-02  0.6018428E+03  0.7818609E-02  0.9901590E-01
        1   -1    0    0  501    0  0.00000000000E+00  0.00000000000E+00  0.21347080958E+03  0.21347080964E+03  0.50400001928E-02 0. -1.
       -1   -1    0    0    0  501  0.00000000000E+00  0.00000000000E+00 -0.42419698814E+03  0.42419698817E+03  0.50400001928E-02 0.  1.
    10030    2    1    2    0    0  0.00000000000E+00  0.00000000000E+00 -0.21072617856E+03  0.63766779781E+03  0.60184275191E+03 0.  0.
        1    1    3    3  502    0 -0.13248109141E+03  0.14680017654E+03 -0.34569596627E+03  0.39825523541E+03  0.50400001928E-02 0.  1.
       -1    1    3    3    0  502  0.13248109141E+03 -0.14680017654E+03  0.13496978770E+03  0.23941256240E+03  0.50400001928E-02 0. -1.
</event>
<event>
 5   0  0.5190380E-02  0.5799856E+03  0.7818609E-02  0.9947822E-01
        1   -1    0    0  501    0  0.00000000000E+00  0.00000000000E+00  0.51537766967E+03  0.51537766970E+03  0.50400001928E-02 0. -1.
       -1   -1    0    0    0  501  0.00000000000E+00  0.00000000000E+00 -0.16317319272E+03  0.16317319280E+03  0.50400001928E-02 0.  1.
    10030    2    1    2    0    0  0.00000000000E+00  0.00000000000E+00  0.35220447695E+03  0.67855086249E+03  0.57998558552E+03 0.  0.
        5    1    3    3  502    0  0.25377809369E+02 -0.11277084410E+03  0.48721161321E+03  0.50075796802E+03  0.46999998093E+01 0. -1.
       -5    1    3    3    0  502 -0.25377809369E+02  0.11277084410E+03 -0.13500713626E+03  0.17779289448E+03  0.46999998093E+01 0.  1.
</event>
<event>
 5   0  0.4881209E-02  0.6053201E+03  0.7818609E-02  0.9894430E-01
        1   -1    0    0  501    0  0.00000000000E+00  0.00000000000E+00  0.67863368434E+03  0.67863368436E+03  0.50400001928E-02 0. -1.
       -1   -1    0    0    0  501  0.00000000000E+00  0.00000000000E+00 -0.13498164550E+03  0.13498164559E+03  0.50400001928E-02 0.  1.
    10030    2    1    2    0    0  0.00000000000E+00  0.00000000000E+00  0.54365203884E+03  0.81361532995E+03  0.60532005237E+03 0.  0.
        3    1    3    3  502    0  0.40016520873E+02  0.29913812253E+03  0.30242161134E+03  0.42725142423E+03  0.10100000352E+00 0. -1.
       -3    1    3    3    0  502 -0.40016520873E+02 -0.29913812253E+03  0.24123042750E+03  0.38636390573E+03  0.10100000352E+00 0.  1.
</event>
<event>
 5   0  0.5166903E-02  0.5870905E+03  0.7818609E-02  0.9932557E-01
       -1   -1    0    0    0  501  0.00000000000E+00  0.00000000000E+00  0.33029492118E+03  0.33029492122E+03  0.50400001928E-02 0.  1.
        1   -1    0    0  501    0  0.00000000000E+00  0.00000000000E+00 -0.26088445196E+03  0.26088445201E+03  0.50400001928E-02 0. -1.
    10030    2    1    2    0    0  0.00000000000E+00  0.00000000000E+00  0.69410469216E+02  0.59117937323E+03  0.58709048544E+03 0.  0.
        2    1    3    3  502    0 -0.49710473187E+02 -0.78590770115E+02  0.31507061630E+03  0.32850743303E+03  0.25500000920E-02 0.  1.
       -2    1    3    3    0  502  0.49710473187E+02  0.78590770115E+02 -0.24566014709E+03  0.26267194020E+03  0.25500000920E-02 0. -1.
</event>
<event>
 5   0  0.5166903E-02  0.6344482E+03  0.7818609E-02  0.9836407E-01
       -1   -1    0    0    0  501  0.00000000000E+00  0.00000000000E+00  0.31371565463E+03  0.31371565467E+03  0.50400001928E-02 0.  1.
        1   -1    0    0  501    0  0.00000000000E+00  0.00000000000E+00 -0.32077179240E+03  0.32077179244E+03  0.50400001928E-02 0. -1.
    10030    2    1    2    0    0  0.00000000000E+00  0.00000000000E+00 -0.70561377698E+01  0.63448744711E+03  0.63444821023E+03 0.  0.
        2    1    3    3  502    0  0.12045852512E+03 -0.13406616557E+03  0.25753814703E+03  0.31434040499E+03  0.25500000920E-02 0.  1.
       -2    1    3    3    0  502 -0.12045852512E+03  0.13406616557E+03 -0.26459428480E+03  0.32014704213E+03  0.25500000920E-02 0. -1.
</event>
<event>
 5   0  0.5166903E-02  0.6015086E+03  0.7818609E-02  0.9902281E-01
       -1   -1    0    0    0  501  0.00000000000E+00  0.00000000000E+00  0.96346164044E+03  0.96346164046E+03  0.50400001928E-02 0.  1.
        1   -1    0    0  501    0  0.00000000000E+00  0.00000000000E+00 -0.93883483822E+02  0.93883483958E+02  0.50400001928E-02 0. -1.
    10030    2    1    2    0    0  0.00000000000E+00  0.00000000000E+00  0.86957815662E+03  0.10573451244E+04  0.60150855493E+03 0.  0.
        2    1    3    3  502    0  0.29270885888E+03 -0.50352941260E+02  0.51797030927E+03  0.59708218534E+03  0.25500000920E-02 0. -1.
       -2    1    3    3    0  502 -0.29270885888E+03  0.50352941260E+02  0.35160784735E+03  0.46026293907E+03  0.25500000920E-02 0.  1.
</event>
<event>
 5   0  0.8817544E-02  0.5925540E+03  0.7818609E-02  0.9920976E-01
       -2   -1    0    0    0  501  0.00000000000E+00  0.00000000000E+00  0.16215182456E+03  0.16215182458E+03  0.25500000920E-02 0.  1.
        2   -1    0    0  501    0  0.00000000000E+00  0.00000000000E+00 -0.54134488870E+03  0.54134488870E+03  0.25500000920E-02 0. -1.
    10030    2    1    2    0    0  0.00000000000E+00  0.00000000000E+00 -0.37919306414E+03  0.70349671328E+03  0.59255400236E+03 0.  0.
        5    1    3    3  502    0 -0.96693611552E+02 -0.16974927890E+03 -0.45398743808E+03  0.49425818773E+03  0.46999998093E+01 0. -1.
       -5    1    3    3    0  502  0.96693611552E+02  0.16974927890E+03  0.74794373943E+02  0.20923852555E+03  0.46999998093E+01 0.  1.
</event>
<event>
 5   0  0.4987389E-02  0.7508430E+03  0.7818609E-02  0.9634029E-01
        1   -1    0    0  501    0  0.00000000000E+00  0.00000000000E+00  0.26108841786E+03  0.26108841791E+03  0.50400001928E-02 0. -1.
       -1   -1    0    0    0  501  0.00000000000E+00  0.00000000000E+00 -0.53982208853E+03  0.53982208855E+03  0.50400001928E-02 0.  1.
    10030    2    1    2    0    0  0.00000000000E+00  0.00000000000E+00 -0.27873367067E+03  0.80091050646E+03  0.75084297972E+03 0.  0.
        1    1    3    3  502    0 -0.12125810391E+03  0.16352977645E+03  0.19709607385E+03  0.28335909709E+03  0.50400001928E-02 0. -1.
       -1    1    3    3    0  502  0.12125810391E+03 -0.16352977645E+03 -0.47582974452E+03  0.51755140937E+03  0.50400001928E-02 0.  1.
</event>
<event>
 5   0  0.5190380E-02  0.5979716E+03  0.7818609E-02  0.9909623E-01
        1   -1    0    0  501    0  0.00000000000E+00  0.00000000000E+00  0.78981420591E+03  0.78981420592E+03  0.50400001928E-02 0.  1.
       -1   -1    0    0    0  501  0.00000000000E+00  0.00000000000E+00 -0.11318169641E+03  0.11318169652E+03  0.50400001928E-02 0. -1.
    10030    2    1    2    0    0  0.00000000000E+00  0.00000000000E+00  0.67663250950E+03  0.90299590244E+03  0.59797161046E+03 0.  0.
        5    1    3    3  502    0  0.15230846871E+03  0.18876817634E+03  0.60221269246E+03  0.64924071884E+03  0.46999998093E+01 0.  1.
       -5    1    3    3    0  502 -0.15230846871E+03 -0.18876817634E+03  0.74419817047E+02  0.25375518361E+03  0.46999998093E+01 0. -1.
</event>
<event>
 5   0  0.8699746E-02  0.5993194E+03  0.7818609E-02  0.9906819E-01
       -2   -1    0    0    0  501  0.00000000000E+00  0.00000000000E+00  0.21705445755E+03  0.21705445757E+03  0.25500000920E-02 0.  1.
        2   -1    0    0  501    0  0.00000000000E+00  0.00000000000E+00 -0.41370239846E+03  0.41370239847E+03  0.25500000920E-02 0. -1.
    10030    2    1    2    0    0  0.00000000000E+00  0.00000000000E+00 -0.19664794091E+03  0.63075685604E+03  0.59931944635E+03 0.  0.
        3    1    3    3  502    0 -0.20070203361E+03 -0.81892829018E+01 -0.33235642203E+03  0.38834156630E+03  0.10100000352E+00 0. -1.
       -3    1    3    3    0  502  0.20070203361E+03  0.81892829018E+01  0.13570848113E+03  0.24241528974E+03  0.10100000352E+00 0.  1.
</event>
<event>
 5   0  0.5125031E-02  0.6003080E+03  0.7818609E-02  0.9904767E-01
       -1   -1    0    0    0  501  0.00000000000E+00  0.00000000000E+00  0.11475112995E+03  0.11475113007E+03  0.50400001928E-02 0. -1.
        1   -1    0    0  501    0  0.00000000000E+00  0.00000000000E+00 -0.78511140744E+03  0.78511140746E+03  0.50400001928E-02 0.  1.
    10030    2    1    2    0    0  0.00000000000E+00  0.00000000000E+00 -0.67036027749E+03  0.89986253753E+03  0.60030799162E+03 0.  0.
        4    1    3    3  502    0  0.71021141672E+02  0.27634485363E+03 -0.47483951731E+03  0.55397171479E+03  0.12699999809E+01 0.  1.
       -4    1    3    3    0  502 -0.71021141672E+02 -0.27634485363E+03 -0.19552076018E+03  0.34589082273E+03  0.12699999809E+01 0. -1.
</event>
<event>
 5   0  0.8575590E-02  0.5996678E+03  0.7818609E-02  0.9906096E-01
       -2   -1    0    0    0  501  0.00000000000E+00  0.00000000000E+00  0.13071798691E+03  0.13071798693E+03  0.25500000920E-02 0. -1.
        2   -1    0    0  501    0  0.00000000000E+00  0.00000000000E+00 -0.68774289211E+03  0.68774289211E+03  0.25500000920E-02 0.  1.
    10030    2    1    2    0    0  0.00000000000E+00  0.00000000000E+00 -0.55702490520E+03  0.81846087905E+03  0.59966779596E+03 0.  0.
        4    1    3    3  502    0  0.55402661219E+02  0.24128558422E+02  0.12231686396E+03  0.13643559034E+03  0.12699999809E+01 0. -1.
       -4    1    3    3    0  502 -0.55402661219E+02 -0.24128558422E+02 -0.67934176917E+03  0.68202528871E+03  0.12699999809E+01 0.  1.
</event>
<event>
 5   0  0.8207443E-02  0.5957600E+03  0.7818609E-02  0.9914242E-01
        2   -1    0    0  501    0  0.00000000000E+00  0.00000000000E+00  0.21829170966E+03  0.21829170967E+03  0.25500000920E-02 0. -1.
       -2   -1    0    0    0  501  0.00000000000E+00  0.00000000000E+00 -0.40648592514E+03  0.40648592515E+03  0.25500000920E-02 0.  1.
    10030    2    1    2    0    0  0.00000000000E+00  0.00000000000E+00 -0.18819421549E+03  0.62477763482E+03  0.59576004417E+03 0.  0.
        1    1    3    3  502    0  0.17552165323E+03  0.39492057738E+02  0.15487975423E+03  0.23739252657E+03  0.50400001928E-02 0. -1.
       -1    1    3    3    0  502 -0.17552165323E+03 -0.39492057738E+02 -0.34307396971E+03  0.38738510825E+03  0.50400001928E-02 0.  1.
</event>
<event>
 5   0  0.4987389E-02  0.5931393E+03  0.7818609E-02  0.9919743E-01
        1   -1    0    0  501    0  0.00000000000E+00  0.00000000000E+00  0.46929918016E+03  0.46929918019E+03  0.50400001928E-02 0.  1.
       -1   -1    0    0    0  501  0.00000000000E+00  0.00000000000E+00 -0.18741466380E+03  0.18741466387E+03  0.50400001928E-02 0. -1.
    10030    2    1    2    0    0  0.00000000000E+00  0.00000000000E+00  0.28188451636E+03  0.65671384406E+03  0.59313926899E+03 0.  0.
        1    1    3    3  502    0 -0.19705319864E+03  0.19942256940E+03  0.24802595902E+03  0.37432098613E+03  0.50400001928E-02 0.  1.
       -1    1    3    3    0  502  0.19705319864E+03 -0.19942256940E+03  0.33858557339E+02  0.28239285793E+03  0.50400001928E-02 0. -1.
</event>
<event>
 5   0  0.8699746E-02  0.5964559E+03  0.7818609E-02  0.9912786E-01
        2   -1    0    0  501    0  0.00000000000E+00  0.00000000000E+00  0.13703638548E+04  0.13703638548E+04  0.25500000920E-02 0.  1.
       -2   -1    0    0    0  501  0.00000000000E+00  0.00000000000E+00 -0.64902403214E+02  0.64902403264E+02  0.25500000920E-02 0. -1.
    10030    2    1    2    0    0  0.00000000000E+00  0.00000000000E+00  0.13054614516E+04  0.14352662581E+04  0.59645589105E+03 0.  0.
        3    1    3    3  502    0  0.66956842118E+02 -0.27287721452E+03  0.89329942469E+03  0.93644490776E+03  0.10100000352E+00 0.  1.
       -3    1    3    3    0  502 -0.66956842118E+02  0.27287721452E+03  0.41216202691E+03  0.49882135033E+03  0.10100000352E+00 0. -1.
</event>
<event>
 5   0  0.5125031E-02  0.6142559E+03  0.7818609E-02  0.9876263E-01
       -1   -1    0    0    0  501  0.00000000000E+00  0.00000000000E+00  0.28134109470E+03  0.28134109475E+03  0.50400001928E-02 0. -1.
        1   -1    0    0  501    0  0.00000000000E+00  0.00000000000E+00 -0.33527836908E+03  0.33527836911E+03  0.50400001928E-02 0.  1.
    10030    2    1    2    0    0  0.00000000000E+00  0.00000000000E+00 -0.53937274370E+02  0.61661946386E+03  0.61425591869E+03 0.  0.
        4    1    3    3  502    0 -0.10603981094E+03 -0.13058009793E+03  0.23098385915E+03  0.28574597035E+03  0.12699999809E+01 0. -1.
       -4    1    3    3    0  502  0.10603981094E+03  0.13058009793E+03 -0.28492113352E+03  0.33087349351E+03  0.12699999809E+01 0.  1.
</event>
<event>
 5   0  0.8420604E-02  0.6158195E+03  0.7818609E-02  0.9873119E-01
       -2   -1    0    0    0  501  0.00000000000E+00  0.00000000000E+00  0.64366076792E+02  0.64366076843E+02  0.25500000920E-02 0.  1.
        2   -1    0    0  501    0  0.00000000000E+00  0.00000000000E+00 -0.14729560986E+04  0.14729560986E+04  0.25500000920E-02 0. -1.
    10030    2    1    2    0    0  0.00000000000E+00  0.00000000000E+00 -0.14085900218E+04  0.15373221755E+04  0.61581947159E+03 0.  0.
        2    1    3    3  502    0  0.77704035272E+02  0.82018571626E+00 -0.14480743906E+04  0.14501579329E+04  0.25500000920E-02 0. -1.
       -2    1    3    3    0  502 -0.77704035272E+02 -0.82018571626E+00  0.39484368716E+02  0.87164242563E+02  0.25500000920E-02 0.  1.
</event>
<event>
 5   0  0.5125031E-02  0.5616914E+03  0.7818609E-02  0.9988235E-01
       -1   -1    0    0    0  501  0.00000000000E+00  0.00000000000E+00  0.12699416358E+03  0.12699416368E+03  0.50400001928E-02 0.  1.
        1   -1    0    0  501    0  0.00000000000E+00  0.00000000000E+00 -0.62108616435E+03  0.62108616437E+03  0.50400001928E-02 0. -1.
    10030    2    1    2    0    0  0.00000000000E+00  0.00000000000E+00 -0.49409200077E+03  0.74808032805E+03  0.56169143841E+03 0.  0.
        4    1    3    3  502    0 -0.17739498533E+03 -0.14971150749E+03 -0.45758628168E+03  0.51309778247E+03  0.12699999809E+01 0. -1.
       -4    1    3    3    0  502  0.17739498533E+03  0.14971150749E+03 -0.36505719090E+02  0.23498254557E+03  0.12699999809E+01 0.  1.
</event>
<event>
 5   0  0.5125031E-02  0.6279356E+03  0.7818609E-02  0.9849086E-01
       -1   -1    0    0    0  501  0.00000000000E+00  0.00000000000E+00  0.12548183335E+03  0.12548183345E+03  0.50400001928E-02 0. -1.
        1   -1    0    0  501    0  0.00000000000E+00  0.00000000000E+00 -0.78557815929E+03  0.78557815931E+03  0.50400001928E-02 0.  1.
    10030    2    1    2    0    0  0.00000000000E+00  0.00000000000E+00 -0.66009632595E+03  0.91105999276E+03  0.62793562637E+03 0.  0.
        4    1    3    3  502    0 -0.51602452469E+02 -0.17715409466E+03  0.38509327952E+02  0.18849659836E+03  0.12699999809E+01 0. -1.
       -4    1    3    3    0  502  0.51602452469E+02  0.17715409466E+03 -0.69860565390E+03  0.72256339439E+03  0.12699999809E+01 0.  1.
</event>
<event>
 5   0  0.5166903E-02  0.5858720E+03  0.7818609E-02  0.9935159E-01
        1   -1    0    0  501    0  0.00000000000E+00  0.00000000000E+00  0.42619327019E+03  0.42619327022E+03  0.50400001928E-02 0.  1.
       -1   -1    0    0    0  501  0.00000000000E+00  0.00000000000E+00 -0.20134407049E+03  0.20134407055E+03  0.50400001928E-02 0. -1.
    10030    2    1    2    0    0  0.00000000000E+00  0.00000000000E+00  0.22484919971E+03  0.62753734077E+03  0.58587195824E+03 0.  0.
        2    1    3    3  502    0 -0.15516584464E+03 -0.20054995505E+03  0.26953507970E+03  0.37006199887E+03  0.25500000920E-02 0.  1.
       -2    1    3    3    0  502  0.15516584464E+03  0.20054995505E+03 -0.44685879991E+02  0.25747534191E+03  0.25500000920E-02 0. -1.
</event>
<event>
 5   0  0.8420604E-02  0.6022258E+03  0.7818609E-02  0.9900799E-01
        2   -1    0    0  501    0  0.00000000000E+00  0.00000000000E+00  0.13850613155E+04  0.13850613155E+04  0.25500000920E-02 0. -1.
       -2   -1    0    0    0  501  0.00000000000E+00  0.00000000000E+00 -0.65462069885E+02  0.65462069935E+02  0.25500000920E-02 0.  1.
    10030    2    1    2    0    0  0.00000000000E+00  0.00000000000E+00  0.13195992457E+04  0.14505233855E+04  0.60222580706E+03 0.  0.
        2    1    3    3  502    0  0.51256141119E+02  0.14972333196E+03  0.42779852712E+02  0.16393408413E+03  0.25500000920E-02 0.  1.
       -2    1    3    3    0  502 -0.51256141119E+02 -0.14972333196E+03  0.12768193929E+04  0.12865893013E+04  0.25500000920E-02 0. -1.
</event>
<event>
 5   0  0.8207443E-02  0.6022233E+03  0.7818609E-02  0.9900804E-01
        2   -1    0    0  501    0  0.00000000000E+00  0.00000000000E+00  0.66779422582E+03  0.66779422582E+03  0.25500000920E-02 0.  1.
       -2   -1    0    0    0  501  0.00000000000E+00  0.00000000000E+00 -0.13577268019E+03  0.13577268021E+03  0.25500000920E-02 0. -1.
    10030    2    1    2    0    0  0.00000000000E+00  0.00000000000E+00  0.53202154563E+03  0.80356690603E+03  0.60222325383E+03 0.  0.
        1    1    3    3  502    0  0.19939522161E+03 -0.22563011456E+03  0.26721081381E+03  0.40257797014E+03  0.50400001928E-02 0.  1.
       -1    1    3    3    0  502 -0.19939522161E+03  0.22563011456E+03  0.26481073182E+03  0.40098893589E+03  0.50400001928E-02 0. -1.
</event>
<event>
 5   0  0.8817544E-02  0.5999438E+03  0.7818609E-02  0.9905523E-01
       -2   -1    0    0    0  501  0.00000000000E+00  0.00000000000E+00  0.85410722931E+02  0.85410722969E+02  0.25500000920E-02 0. -1.
        2   -1    0    0  501    0  0.00000000000E+00  0.00000000000E+00 -0.10535344495E+04  0.10535344495E+04  0.25500000920E-02 0.  1.
    10030    2    1    2    0    0  0.00000000000E+00  0.00000000000E+00 -0.96812372655E+03  0.11389451724E+04  0.59994379399E+03 0.  0.
        5    1    3    3  502    0 -0.23017722964E+03 -0.14397375546E+03 -0.72607166837E+03  0.77518524038E+03  0.46999998093E+01 0.  1.
       -5    1    3    3    0  502  0.23017722964E+03  0.14397375546E+03 -0.24205205818E+03  0.36375993207E+03  0.46999998093E+01 0. -1.
</event>
<event>
 5   0  0.8207443E-02  0.6135333E+03  0.7818609E-02  0.9877720E-01
       -2   -1    0    0    0  501  0.00000000000E+00  0.00000000000E+00  0.10920017010E+03  0.10920017013E+03  0.25500000920E-02 0.  1.
        2   -1    0    0  501    0  0.00000000000E+00  0.00000000000E+00 -0.86177324402E+03  0.86177324402E+03  0.25500000920E-02 0. -1.
    10030    2    1    2    0    0  0.00000000000E+00  0.00000000000E+00 -0.75257307392E+03  0.97097341415E+03  0.61353332380E+03 0.  0.
        1    1    3    3  502    0  0.17302751933E+03  0.23216058871E+03 -0.53665811814E+03  0.60978602574E+03  0.50400001928E-02 0. -1.
       -1    1    3    3    0  502 -0.17302751933E+03 -0.23216058871E+03 -0.21591495578E+03  0.36118738841E+03  0.50400001928E-02 0.  1.
</event>
<event>
 5   0  0.4987389E-02  0.6013391E+03  0.7818609E-02  0.9902632E-01
        1   -1    0    0  501    0  0.00000000000E+00  0.00000000000E+00  0.56312313935E+03  0.56312313938E+03  0.50400001928E-02 0. -1.
       -1   -1    0    0    0  501  0.00000000000E+00  0.00000000000E+00 -0.16053711593E+03  0.16053711601E+03  0.50400001928E-02 0.  1.
    10030    2    1    2    0    0  0.00000000000E+00  0.00000000000E+00  0.40258602342E+03  0.72366025539E+03  0.60133905492E+03 0.  0.
        1    1    3    3  502    0  0.88792093878E+01 -0.28467252427E+03  0.85334290356E+02  0.29732007596E+03  0.50400001928E-02 0.  1.
       -1    1    3    3    0  502 -0.88792093878E+01  0.28467252427E+03  0.31725173306E+03  0.42634017942E+03  0.50400001928E-02 0. -1.
</event>
<event>
 5   0  0.8817544E-02  0.5970537E+03  0.7818609E-02  0.9911538E-01
       -2   -1    0    0    0  501  0.00000000000E+00  0.00000000000E+00  0.81097015291E+02  0.81097015331E+02  0.25500000920E-02 0.  1.
        2   -1    0    0  501    0  0.00000000000E+00  0.00000000000E+00 -0.10989093586E+04  0.10989093586E+04  0.25500000920E-02 0. -1.
    10030    2    1    2    0    0  0.00000000000E+00  0.00000000000E+00 -0.10178123434E+04  0.11800063740E+04  0.59705366287E+03 0.  0.
        5    1    3    3  502    0 -0.18701687755E+03  0.38096464732E+02 -0.96248282369E+03  0.98123490002E+03  0.46999998093E+01 0. -1.
       -5    1    3    3    0  502  0.18701687755E+03 -0.38096464732E+02 -0.55329519660E+02  0.19877147396E+03  0.46999998093E+01 0.  1.
</event>
<event>
 5   0  0.5190380E-02  0.5987771E+03  0.7818609E-02  0.9907946E-01
        1   -1    0    0  501    0  0.00000000000E+00  0.00000000000E+00  0.74801213122E+03  0.74801213124E+03  0.50400001928E-02 0.  1.
       -1   -1    0    0    0  501  0.00000000000E+00  0.00000000000E+00 -0.11982893891E+03  0.11982893902E+03  0.50400001928E-02 0. -1.
    10030    2    1    2    0    0  0.00000000000E+00  0.00000000000E+00  0.62818319231E+03  0.86784107026E+03  0.59877708717E+03 0.  0.
        5    1    3    3  502    0 -0.92686795499E+02 -0.25574636029E+03  0.49519942310E+03  0.56501469140E+03  0.46999998093E+01 0.  1.
       -5    1    3    3    0  502  0.92686795499E+02  0.25574636029E+03  0.13298376921E+03  0.30282637886E+03  0.46999998093E+01 0. -1.
</event>
<event>
 5   0  0.8575590E-02  0.5868916E+03  0.7818609E-02  0.9932981E-01
        2   -1    0    0  501    0  0.00000000000E+00  0.00000000000E+00  0.20915331714E+04  0.20915331714E+04  0.25500000920E-02 0. -1.
       -2   -1    0    0    0  501  0.00000000000E+00  0.00000000000E+00 -0.41170961979E+02  0.41170962058E+02  0.25500000920E-02 0.  1.
    10030    2    1    2    0    0  0.00000000000E+00  0.00000000000E+00  0.20503622094E+04  0.21327041335E+04  0.58689158373E+03 0.  0.
        4    1    3    3  502    0 -0.28033172574E+03  0.83302597705E+02  0.11129696885E+04  0.11507512067E+04  0.12699999809E+01 0. -1.
       -4    1    3    3    0  502  0.28033172574E+03 -0.83302597705E+02  0.93739252092E+03  0.98195292678E+03  0.12699999809E+01 0.  1.
</event>
<event>
 5   0  0.8575590E-02  0.5777141E+03  0.7818609E-02  0.9952752E-01
        2   -1    0    0  501    0  0.00000000000E+00  0.00000000000E+00  0.19932762324E+04  0.19932762324E+04  0.25500000920E-02 0.  1.
       -2   -1    0    0    0  501  0.00000000000E+00  0.00000000000E+00 -0.41859924528E+02  0.41859924605E+02  0.25500000920E-02 0. -1.
    10030    2    1    2    0    0  0.00000000000E+00  0.00000000000E+00  0.19514163079E+04  0.20351361570E+04  0.57771409099E+03 0.  0.
        4    1    3    3  502    0  0.13081282656E+02  0.62432514652E+02  0.19681448013E+04  0.19691786386E+04  0.12699999809E+01 0.  1.
       -4    1    3    3    0  502 -0.13081282656E+02 -0.62432514652E+02 -0.16728493449E+02  0.65957518409E+02  0.12699999809E+01 0. -1.
</event>
<event>
 5   0  0.3437375E-02  0.6047943E+03  0.7818609E-02  0.9895509E-01
       -4   -1    0    0    0  501  0.00000000000E+00  0.00000000000E+00  0.14531011455E+03  0.14531566430E+03  0.12699999809E+01 0. -1.
        4   -1    0    0  501    0  0.00000000000E+00  0.00000000000E+00 -0.62928442540E+03  0.62928570694E+03  0.12699999809E+01 0.  1.
    10030    2    1    2    0    0  0.00000000000E+00  0.00000000000E+00 -0.48397431085E+03  0.77460137124E+03  0.60479430451E+03 0.  0.
        3    1    3    3  502    0  0.27661130691E+01 -0.22780577204E+03  0.12692280131E+02  0.22817586492E+03  0.10100000352E+00 0. -1.
       -3    1    3    3    0  502 -0.27661130691E+01  0.22780577204E+03 -0.49666659098E+03  0.54642550632E+03  0.10100000352E+00 0.  1.
</event>
<event>
 5   0  0.3437375E-02  0.5995234E+03  0.7818609E-02  0.9906395E-01
        3   -1    0    0  501    0  0.00000000000E+00  0.00000000000E+00  0.19525603096E+03  0.19525605708E+03  0.10100000352E+00 0. -1.
       -3   -1    0    0    0  501  0.00000000000E+00  0.00000000000E+00 -0.46020128738E+03  0.46020129846E+03  0.10100000352E+00 0.  1.
    10030    2    1    2    0    0  0.00000000000E+00  0.00000000000E+00 -0.26494525642E+03  0.65545735554E+03  0.59952344078E+03 0.  0.
        4    1    3    3  502    0 -0.28957708293E+03  0.77447770086E+02 -0.13076762485E+03  0.32703949098E+03  0.12699999809E+01 0.  1.
       -4    1    3    3    0  502  0.28957708293E+03 -0.77447770086E+02 -0.13417763157E+03  0.32841786457E+03  0.12699999809E+01 0. -1.
</event>
<event>
 5   0  0.4987389E-02  0.5765174E+03  0.7818609E-02  0.9955359E-01
       -1   -1    0    0    0  501  0.00000000000E+00  0.00000000000E+00  0.15278578021E+03  0.15278578029E+03  0.50400001928E-02 0.  1.
        1   -1    0    0  501    0  0.00000000000E+00  0.00000000000E+00 -0.54385354070E+03  0.54385354072E+03  0.50400001928E-02 0. -1.
    10030    2    1    2    0    0  0.00000000000E+00  0.00000000000E+00 -0.39106776049E+03  0.69663932102E+03  0.57651743277E+03 0.  0.
        1    1    3    3  502    0  0.19513520457E+03 -0.17015196508E+03 -0.42383657405E+02  0.26234674330E+03  0.50400001928E-02 0.  1.
       -1    1    3    3    0  502 -0.19513520457E+03  0.17015196508E+03 -0.34868410309E+03  0.43429257771E+03  0.50400001928E-02 0. -1.
</event>
<event>
 5   0  0.5190380E-02  0.5906939E+03  0.7818609E-02  0.9924904E-01
       -1   -1    0    0    0  501  0.00000000000E+00  0.00000000000E+00  0.91721841416E+03  0.91721841417E+03  0.50400001928E-02 0.  1.
        1   -1    0    0  501    0  0.00000000000E+00  0.00000000000E+00 -0.95102563554E+02  0.95102563688E+02  0.50400001928E-02 0. -1.
    10030    2    1    2    0    0  0.00000000000E+00  0.00000000000E+00  0.82211585060E+03  0.10123209779E+04  0.59069390584E+03 0.  0.
        5    1    3    3  502    0 -0.24352620748E+03 -0.30651710969E+02  0.12964671479E+03  0.27762366932E+03  0.46999998093E+01 0. -1.
       -5    1    3    3    0  502  0.24352620748E+03  0.30651710969E+02  0.69246913581E+03  0.73469730853E+03  0.46999998093E+01 0.  1.
</event>
<event>
 5   0  0.8575590E-02  0.6033834E+03  0.7818609E-02  0.9898411E-01
       -2   -1    0    0    0  501  0.00000000000E+00  0.00000000000E+00  0.11735581549E+03  0.11735581551E+03  0.25500000920E-02 0.  1.
        2   -1    0    0  501    0  0.00000000000E+00  0.00000000000E+00 -0.77557193962E+03  0.77557193963E+03  0.25500000920E-02 0. -1.
    10030    2    1    2    0    0  0.00000000000E+00  0.00000000000E+00 -0.65821612414E+03  0.89292775514E+03  0.60338338544E+03 0.  0.
        4    1    3    3  502    0 -0.18654562321E+03 -0.61428113920E+02  0.97900488393E+01  0.19664724934E+03  0.12699999809E+01 0.  1.
       -4    1    3    3    0  502  0.18654562321E+03  0.61428113920E+02 -0.66800617297E+03  0.69628050580E+03  0.12699999809E+01 0. -1.
</event>
<event>
 5   0  0.8817544E-02  0.4949535E+03  0.7818609E-02  0.1015105E+00
        2   -1    0    0  501    0  0.00000000000E+00  0.00000000000E+00  0.11113128360E+04  0.11113128360E+04  0.25500000920E-02 0.  1.
       -2   -1    0    0    0  501  0.00000000000E+00  0.00000000000E+00 -0.55110263725E+02  0.55110263784E+02  0.25500000920E-02 0. -1.
    10030    2    1    2    0    0  0.00000000000E+00  0.00000000000E+00  0.10562025723E+04  0.11664230998E+04  0.49495350695E+03 0.  0.
        5    1    3    3  502    0 -0.10371430472E+01 -0.17414628925E+03  0.94232344736E+03  0.95829200935E+03  0.46999998093E+01 0.  1.
       -5    1    3    3    0  502  0.10371430472E+01  0.17414628925E+03  0.11387912493E+03  0.20813109046E+03  0.46999998093E+01 0. -1.
</event>
<event>
 5   0  0.8207443E-02  0.6008605E+03  0.7818609E-02  0.9903622E-01
       -2   -1    0    0    0  501  0.00000000000E+00  0.00000000000E+00  0.40618752034E+03  0.40618752035E+03  0.25500000920E-02 0.  1.
        2   -1    0    0  501    0  0.00000000000E+00  0.00000000000E+00 -0.22220850430E+03  0.22220850431E+03  0.25500000920E-02 0. -1.
    10030    2    1    2    0    0  0.00000000000E+00  0.00000000000E+00  0.18397901604E+03  0.62839602467E+03  0.60086045424E+03 0.  0.
        1    1    3    3  502    0 -0.25615957428E+03 -0.15541314239E+03  0.68901851358E+02  0.30743851006E+03  0.50400001928E-02 0.  1.
       -1    1    3    3    0  502  0.25615957428E+03  0.15541314239E+03  0.11507716469E+03  0.32095751460E+03  0.50400001928E-02 0. -1.
</event>
<event>
 5   0  0.8207443E-02  0.6022237E+03  0.7818609E-02  0.9900803E-01
       -2   -1    0    0    0  501  0.00000000000E+00  0.00000000000E+00  0.94213156821E+02  0.94213156855E+02  0.25500000920E-02 0. -1.
        2   -1    0    0  501    0  0.00000000000E+00  0.00000000000E+00 -0.96237442489E+03  0.96237442489E+03  0.25500000920E-02 0.  1.
    10030    2    1    2    0    0  0.00000000000E+00  0.00000000000E+00 -0.86816126807E+03  0.10565875817E+04  0.60222365491E+03 0.  0.
        1    1    3    3  502    0 -0.37758193759E+02  0.66702920279E+01 -0.95807381617E+03  0.95884076428E+03  0.50400001928E-02 0.  1.
       -1    1    3    3    0  502  0.37758193759E+02 -0.66702920279E+01  0.89912548106E+02  0.97746817462E+02  0.50400001928E-02 0. -1.
</event>
<event>
 5   0  0.5190380E-02  0.5975337E+03  0.7818609E-02  0.9910536E-01
        1   -1    0    0  501    0  0.00000000000E+00  0.00000000000E+00  0.34803094501E+03  0.34803094505E+03  0.50400001928E-02 0.  1.
       -1   -1    0    0    0  501  0.00000000000E+00  0.00000000000E+00 -0.25647610534E+03  0.25647610539E+03  0.50400001928E-02 0. -1.
    10030    2    1    2    0    0  0.00000000000E+00  0.00000000000E+00  0.91554839668E+02  0.60450705044E+03  0.59753366881E+03 0.  0.
        5    1    3    3  502    0  0.18759960074E+03  0.57573778498E+01  0.28089615105E+03  0.33786313097E+03  0.46999998093E+01 0.  1.
       -5    1    3    3    0  502 -0.18759960074E+03 -0.57573778498E+01 -0.18934131138E+03  0.26664391947E+03  0.46999998093E+01 0. -1.
</event>
<event>
 5   0  0.5190380E-02  0.6006640E+03  0.7818609E-02  0.9904029E-01
        1   -1    0    0  501    0  0.00000000000E+00  0.00000000000E+00  0.36847279204E+03  0.36847279207E+03  0.50400001928E-02 0.  1.
       -1   -1    0    0    0  501  0.00000000000E+00  0.00000000000E+00 -0.24479232958E+03  0.24479232964E+03  0.50400001928E-02 0. -1.
    10030    2    1    2    0    0  0.00000000000E+00  0.00000000000E+00  0.12368046245E+03  0.61326512171E+03  0.60066400983E+03 0.  0.
        5    1    3    3  502    0 -0.18180210908E+03 -0.23900671197E+03  0.60815204035E+02  0.30642583813E+03  0.46999998093E+01 0. -1.
       -5    1    3    3    0  502  0.18180210908E+03  0.23900671197E+03  0.62865258417E+02  0.30683928358E+03  0.46999998093E+01 0.  1.
</event>
<event>
 5   0  0.8575590E-02  0.6160576E+03  0.7818609E-02  0.9872641E-01
       -2   -1    0    0    0  501  0.00000000000E+00  0.00000000000E+00  0.63817174233E+02  0.63817174284E+02  0.25500000920E-02 0.  1.
        2   -1    0    0  501    0  0.00000000000E+00  0.00000000000E+00 -0.14867742993E+04  0.14867742993E+04  0.25500000920E-02 0. -1.
    10030    2    1    2    0    0  0.00000000000E+00  0.00000000000E+00 -0.14229571250E+04  0.15505914736E+04  0.61605757700E+03 0.  0.
        4    1    3    3  502    0  0.29887305314E+03 -0.74477997639E+02 -0.71861875328E+03  0.78184819466E+03  0.12699999809E+01 0.  1.
       -4    1    3    3    0  502 -0.29887305314E+03  0.74477997639E+02 -0.70433837177E+03  0.76874327891E+03  0.12699999809E+01 0. -1.
</event>
<event>
 5   0  0.5125031E-02  0.5978294E+03  0.7818609E-02  0.9909920E-01
        1   -1    0    0  501    0  0.00000000000E+00  0.00000000000E+00  0.18933047868E+04  0.18933047869E+04  0.50400001928E-02 0.  1.
       -1   -1    0    0    0  501  0.00000000000E+00  0.00000000000E+00 -0.47192608318E+02  0.47192608588E+02  0.50400001928E-02 0. -1.
    10030    2    1    2    0    0  0.00000000000E+00  0.00000000000E+00  0.18461121785E+04  0.19404973954E+04  0.59782937867E+03 0.  0.
        4    1    3    3  502    0 -0.67227380182E+02 -0.25331218616E+03  0.45648284821E+03  0.52636944052E+03  0.12699999809E+01 0. -1.
       -4    1    3    3    0  502  0.67227380182E+02  0.25331218616E+03  0.13896293303E+04  0.14141279549E+04  0.12699999809E+01 0.  1.
</event>
<event>
 5   0  0.8575590E-02  0.5971878E+03  0.7818609E-02  0.9911258E-01
       -2   -1    0    0    0  501  0.00000000000E+00  0.00000000000E+00  0.12977409270E+03  0.12977409272E+03  0.25500000920E-02 0. -1.
        2   -1    0    0  501    0  0.00000000000E+00  0.00000000000E+00 -0.68702698384E+03  0.68702698385E+03  0.25500000920E-02 0.  1.
    10030    2    1    2    0    0  0.00000000000E+00  0.00000000000E+00 -0.55725289114E+03  0.81680107657E+03  0.59718775440E+03 0.  0.
        4    1    3    3  502    0  0.36355136341E+00 -0.15181129291E+03 -0.63029912008E+03  0.64832506854E+03  0.12699999809E+01 0.  1.
       -4    1    3    3    0  502 -0.36355136341E+00  0.15181129291E+03  0.73046228931E+02  0.16847600804E+03  0.12699999809E+01 0. -1.
</event>
<event>
 5   0  0.4881209E-02  0.5988469E+03  0.7818609E-02  0.9907801E-01
       -1   -1    0    0    0  501  0.00000000000E+00  0.00000000000E+00  0.97699459609E+02  0.97699459739E+02  0.50400001928E-02 0. -1.
        1   -1    0    0  501    0  0.00000000000E+00  0.00000000000E+00 -0.91765510617E+03  0.91765510618E+03  0.50400001928E-02 0.  1.
    10030    2    1    2    0    0  0.00000000000E+00  0.00000000000E+00 -0.81995564656E+03  0.10153545659E+04  0.59884691885E+03 0.  0.
        3    1    3    3  502    0 -0.10290136946E+03  0.16763814378E+03 -0.27214712166E+02  0.19857464553E+03  0.10100000352E+00 0. -1.
       -3    1    3    3    0  502  0.10290136946E+03 -0.16763814378E+03 -0.79274093439E+03  0.81677992039E+03  0.10100000352E+00 0.  1.
</event>
<event>
 5   0  0.5125031E-02  0.5343271E+03  0.7818609E-02  0.1005188E+00
        1   -1    0    0  501    0  0.00000000000E+00  0.00000000000E+00  0.60887539417E+03  0.60887539419E+03  0.50400001928E-02 0. -1.
       -1   -1    0    0    0  501  0.00000000000E+00  0.00000000000E+00 -0.11722655188E+03  0.11722655198E+03  0.50400001928E-02 0.  1.
    10030    2    1    2    0    0  0.00000000000E+00  0.00000000000E+00  0.49164884229E+03  0.72610194617E+03  0.53432710217E+03 0.  0.
        4    1    3    3  502    0  0.80032470131E+02  0.95377169888E+02 -0.75386585772E+02  0.14555669351E+03  0.12699999809E+01 0.  1.
       -4    1    3    3    0  502 -0.80032470131E+02 -0.95377169888E+02  0.56703542806E+03  0.58054525266E+03  0.12699999809E+01 0. -1.
</event>
<event>
 5   0  0.5166903E-02  0.6045962E+03  0.7818609E-02  0.9895916E-01
        1   -1    0    0  501    0  0.00000000000E+00  0.00000000000E+00  0.33048362903E+03  0.33048362907E+03  0.50400001928E-02 0.  1.
       -1   -1    0    0    0  501  0.00000000000E+00  0.00000000000E+00 -0.27651642085E+03  0.27651642090E+03  0.50400001928E-02 0. -1.
    10030    2    1    2    0    0  0.00000000000E+00  0.00000000000E+00  0.53967208179E+02  0.60700004996E+03  0.60459622981E+03 0.  0.
        2    1    3    3  502    0  0.22195525846E+03  0.20318044839E+03 -0.20748462428E+01  0.30091649399E+03  0.25500000920E-02 0. -1.
       -2    1    3    3    0  502 -0.22195525846E+03 -0.20318044839E+03  0.56042054422E+02  0.30608355597E+03  0.25500000920E-02 0.  1.
</event>
<event>
 5   0  0.8207443E-02  0.6000382E+03  0.7818609E-02  0.9905327E-01
        2   -1    0    0  501    0  0.00000000000E+00  0.00000000000E+00  0.75591955393E+03  0.75591955393E+03  0.25500000920E-02 0. -1.
       -2   -1    0    0    0  501  0.00000000000E+00  0.00000000000E+00 -0.11907545131E+03  0.11907545133E+03  0.25500000920E-02 0.  1.
    10030    2    1    2    0    0  0.00000000000E+00  0.00000000000E+00  0.63684410262E+03  0.87499500527E+03  0.60003820562E+03 0.  0.
        1    1    3    3  502    0 -0.97424672782E+02  0.28278823458E+03  0.35264267887E+03  0.46240416464E+03  0.50400001928E-02 0.  1.
       -1    1    3    3    0  502  0.97424672782E+02 -0.28278823458E+03  0.28420142375E+03  0.41259084063E+03  0.50400001928E-02 0. -1.
</event>
<event>
 5   0  0.4987389E-02  0.5914794E+03  0.7818609E-02  0.9923243E-01
       -1   -1    0    0    0  501  0.00000000000E+00  0.00000000000E+00  0.18715883933E+03  0.18715883940E+03  0.50400001928E-02 0.  1.
        1   -1    0    0  501    0  0.00000000000E+00  0.00000000000E+00 -0.46731413065E+03  0.46731413068E+03  0.50400001928E-02 0. -1.
    10030    2    1    2    0    0  0.00000000000E+00  0.00000000000E+00 -0.28015529132E+03  0.65447297008E+03  0.59147940058E+03 0.  0.
        1    1    3    3  502    0 -0.62932210644E+02  0.48704368752E+02 -0.45524498134E+03  0.46214778127E+03  0.50400001928E-02 0. -1.
       -1    1    3    3    0  502  0.62932210644E+02 -0.48704368752E+02  0.17508969002E+03  0.19232518881E+03  0.50400001928E-02 0.  1.
</event>
<event>
 5   0  0.8207443E-02  0.5930145E+03  0.7818609E-02  0.9920006E-01
        2   -1    0    0  501    0  0.00000000000E+00  0.00000000000E+00  0.20926315456E+04  0.20926315456E+04  0.25500000920E-02 0.  1.
       -2   -1    0    0    0  501  0.00000000000E+00  0.00000000000E+00 -0.42012442127E+02  0.42012442205E+02  0.25500000920E-02 0. -1.
    10030    2    1    2    0    0  0.00000000000E+00  0.00000000000E+00  0.20506191035E+04  0.21346439878E+04  0.59301454211E+03 0.  0.
        1    1    3    3  502    0  0.24017740693E+03 -0.59282302288E+02  0.16136840257E+04  0.16325365886E+04  0.50400001928E-02 0.  1.
       -1    1    3    3    0  502 -0.24017740693E+03  0.59282302288E+02  0.43693507775E+03  0.50210739923E+03  0.50400001928E-02 0. -1.
</event>
<event>
 5   0  0.8420604E-02  0.5973761E+03  0.7818609E-02  0.9910865E-01
       -2   -1    0    0    0  501  0.00000000000E+00  0.00000000000E+00  0.13549966773E+03  0.13549966775E+03  0.25500000920E-02 0. -1.
        2   -1    0    0  501    0  0.00000000000E+00  0.00000000000E+00 -0.65841162020E+03  0.65841162020E+03  0.25500000920E-02 0.  1.
    10030    2    1    2    0    0  0.00000000000E+00  0.00000000000E+00 -0.52291195247E+03  0.79391128795E+03  0.59737611528E+03 0.  0.
        2    1    3    3  502    0 -0.16513007979E+03 -0.73856786612E+02 -0.57733208638E+03  0.60500835213E+03  0.25500000920E-02 0.  1.
       -2    1    3    3    0  502  0.16513007979E+03  0.73856786612E+02  0.54420133908E+02  0.18890293582E+03  0.25500000920E-02 0. -1.
</event>
<event>
 5   0  0.8575590E-02  0.5956312E+03  0.7818609E-02  0.9914512E-01
       -2   -1    0    0    0  501  0.00000000000E+00  0.00000000000E+00  0.17925543545E+03  0.17925543546E+03  0.25500000920E-02 0. -1.
        2   -1    0    0  501    0  0.00000000000E+00  0.00000000000E+00 -0.49479185172E+03  0.49479185173E+03  0.25500000920E-02 0.  1.
    10030    2    1    2    0    0  0.00000000000E+00  0.00000000000E+00 -0.31553641628E+03  0.67404728720E+03  0.59563119074E+03 0.  0.
        4    1    3    3  502    0  0.70804913561E+02  0.79066095382E+02  0.15712348522E+03  0.18961588998E+03  0.12699999809E+01 0. -1.
       -4    1    3    3    0  502 -0.70804913561E+02 -0.79066095382E+02 -0.47265990150E+03  0.48443139722E+03  0.12699999809E+01 0.  1.
</event>
<event>
 5   0  0.5166903E-02  0.6414611E+03  0.7818609E-02  0.9822935E-01
        1   -1    0    0  501    0  0.00000000000E+00  0.00000000000E+00  0.41464159438E+03  0.41464159441E+03  0.50400001928E-02 0. -1.
       -1   -1    0    0    0  501  0.00000000000E+00  0.00000000000E+00 -0.24808919723E+03  0.24808919728E+03  0.50400001928E-02 0.  1.
    10030    2    1    2    0    0  0.00000000000E+00  0.00000000000E+00  0.16655239715E+03  0.66273079169E+03  0.64146114556E+03 0.  0.
        2    1    3    3  502    0  0.26374886155E+03 -0.10526803682E+03  0.23729397909E+03  0.37007195795E+03  0.25500000920E-02 0. -1.
       -2    1    3    3    0  502 -0.26374886155E+03  0.10526803682E+03 -0.70741581943E+02  0.29265883374E+03  0.25500000920E-02 0.  1.
</event>
<event>
 5   0  0.4987389E-02  0.5552459E+03  0.7818609E-02  0.1000287E+00
        1   -1    0    0  501    0  0.00000000000E+00  0.00000000000E+00  0.10004306930E+04  0.10004306931E+04  0.50400001928E-02 0. -1.
       -1   -1    0    0    0  501  0.00000000000E+00  0.00000000000E+00 -0.77041324179E+02  0.77041324344E+02  0.50400001928E-02 0.  1.
    10030    2    1    2    0    0  0.00000000000E+00  0.00000000000E+00  0.92338936887E+03  0.10774720174E+04  0.55524591106E+03 0.  0.
        1    1    3    3  502    0 -0.42168252748E+02 -0.45323128416E+01 -0.70717917862E+02  0.82460459202E+02  0.50400001928E-02 0.  1.
       -1    1    3    3    0  502  0.42168252748E+02  0.45323128416E+01  0.99410728673E+03  0.99501155820E+03  0.50400001928E-02 0. -1.
</event>
<event>
 5   0  0.8575590E-02  0.6032942E+03  0.7818609E-02  0.9898595E-01
       -2   -1    0    0    0  501  0.00000000000E+00  0.00000000000E+00  0.17561111356E+03  0.17561111358E+03  0.25500000920E-02 0.  1.
        2   -1    0    0  501    0  0.00000000000E+00  0.00000000000E+00 -0.51813906389E+03  0.51813906390E+03  0.25500000920E-02 0. -1.
    10030    2    1    2    0    0  0.00000000000E+00  0.00000000000E+00 -0.34252795033E+03  0.69375017748E+03  0.60329421677E+03 0.  0.
        4    1    3    3  502    0 -0.17585071370E+03  0.20107482538E+03 -0.10129950571E+02  0.26731776542E+03  0.12699999809E+01 0. -1.
       -4    1    3    3    0  502  0.17585071370E+03 -0.20107482538E+03 -0.33239799976E+03  0.42643241206E+03  0.12699999809E+01 0.  1.
</event>
<event>
 5   0  0.8817544E-02  0.5956968E+03  0.7818609E-02  0.9914374E-01
        2   -1    0    0  501    0  0.00000000000E+00  0.00000000000E+00  0.58526630330E+03  0.58526630330E+03  0.25500000920E-02 0. -1.
       -2   -1    0    0    0  501  0.00000000000E+00  0.00000000000E+00 -0.15157827465E+03  0.15157827467E+03  0.25500000920E-02 0.  1.
    10030    2    1    2    0    0  0.00000000000E+00  0.00000000000E+00  0.43368802865E+03  0.73684457797E+03  0.59569675666E+03 0.  0.
        5    1    3    3  502    0 -0.20587524640E+03  0.19826329000E+03  0.32032409950E+03  0.42932804236E+03  0.46999998093E+01 0. -1.
       -5    1    3    3    0  502  0.20587524640E+03 -0.19826329000E+03  0.11336392915E+03  0.30751653561E+03  0.46999998093E+01 0.  1.
</event>
<event>
 5   0  0.3437375E-02  0.6034267E+03  0.7818609E-02  0.9898322E-01
        4   -1    0    0  501    0  0.00000000000E+00  0.00000000000E+00  0.18274560529E+03  0.18275001820E+03  0.12699999809E+01 0. -1.
       -4   -1    0    0    0  501  0.00000000000E+00  0.00000000000E+00 -0.49811804654E+03  0.49811966553E+03  0.12699999809E+01 0.  1.
    10030    2    1    2    0    0  0.00000000000E+00  0.00000000000E+00 -0.31537244126E+03  0.68086968373E+03  0.60342667286E+03 0.  0.
        3    1    3    3  502    0  0.28971905828E+03 -0.67977520429E+02 -0.21379598992E+03  0.36642435989E+03  0.10100000352E+00 0.  1.
       -3    1    3    3    0  502 -0.28971905828E+03  0.67977520429E+02 -0.10157645134E+03  0.31444532384E+03  0.10100000352E+00 0. -1.
</event>
<event>
 5   0  0.5190380E-02  0.5907781E+03  0.7818609E-02  0.9924725E-01
       -1   -1    0    0    0  501  0.00000000000E+00  0.00000000000E+00  0.12450289589E+03  0.12450289599E+03  0.50400001928E-02 0. -1.
        1   -1    0    0  501    0  0.00000000000E+00  0.00000000000E+00 -0.70082462393E+03  0.70082462395E+03  0.50400001928E-02 0.  1.
    10030    2    1    2    0    0  0.00000000000E+00  0.00000000000E+00 -0.57632172804E+03  0.82532751995E+03  0.59077811484E+03 0.  0.
        5    1    3    3  502    0 -0.16365195731E+03 -0.24572712201E+03 -0.29975052362E+03  0.42075675637E+03  0.46999998093E+01 0. -1.
       -5    1    3    3    0  502  0.16365195731E+03  0.24572712201E+03 -0.27657120442E+03  0.40457076357E+03  0.46999998093E+01 0.  1.
</event>
<event>
 5   0  0.4881209E-02  0.6007350E+03  0.7818609E-02  0.9903882E-01
        1   -1    0    0  501    0  0.00000000000E+00  0.00000000000E+00  0.98087608546E+03  0.98087608547E+03  0.50400001928E-02 0. -1.
       -1   -1    0    0    0  501  0.00000000000E+00  0.00000000000E+00 -0.91979633462E+02  0.91979633601E+02  0.50400001928E-02 0.  1.
    10030    2    1    2    0    0  0.00000000000E+00  0.00000000000E+00  0.88889645199E+03  0.10728557191E+04  0.60073495951E+03 0.  0.
        3    1    3    3  502    0 -0.10969999040E+03  0.13734875262E+03  0.87942467057E+03  0.89682023235E+03  0.10100000352E+00 0. -1.
       -3    1    3    3    0  502  0.10969999040E+03 -0.13734875262E+03  0.94717814200E+01  0.17603548672E+03  0.10100000352E+00 0.  1.
</event>
<event>
 5   0  0.8420604E-02  0.5856656E+03  0.7818609E-02  0.9935600E-01
        2   -1    0    0  501    0  0.00000000000E+00  0.00000000000E+00  0.29547499733E+03  0.29547499734E+03  0.25500000920E-02 0. -1.
       -2   -1    0    0    0  501  0.00000000000E+00  0.00000000000E+00 -0.29021422346E+03  0.29021422347E+03  0.25500000920E-02 0.  1.
    10030    2    1    2    0    0  0.00000000000E+00  0.00000000000E+00  0.52607738697E+01  0.58568922081E+03  0.58566559369E+03 0.  0.
        2    1    3    3  502    0 -0.24953986300E+03 -0.14982231071E+03  0.34790336148E+02  0.29313347729E+03  0.25500000920E-02 0. -1.
       -2    1    3    3    0  502  0.24953986300E+03  0.14982231071E+03 -0.29529562279E+02  0.29255574352E+03  0.25500000920E-02 0.  1.
</event>
<event>
 5   0  0.8575590E-02  0.6082833E+03  0.7818609E-02  0.9888368E-01
       -2   -1    0    0    0  501  0.00000000000E+00  0.00000000000E+00  0.26794073122E+03  0.26794073124E+03  0.25500000920E-02 0. -1.
        2   -1    0    0  501    0  0.00000000000E+00  0.00000000000E+00 -0.34523355854E+03  0.34523355855E+03  0.25500000920E-02 0.  1.
    10030    2    1    2    0    0  0.00000000000E+00  0.00000000000E+00 -0.77292827313E+02  0.61317428978E+03  0.60828326337E+03 0.  0.
        4    1    3    3  502    0  0.52514668884E+02  0.14080713845E+03 -0.30518899557E+03  0.34018579718E+03  0.12699999809E+01 0.  1.
       -4    1    3    3    0  502 -0.52514668884E+02 -0.14080713845E+03  0.22789616826E+03  0.27298849260E+03  0.12699999809E+01 0. -1.
</event>
<event>
 5   0  0.4987389E-02  0.6411447E+03  0.7818609E-02  0.9823539E-01
       -1   -1    0    0    0  501  0.00000000000E+00  0.00000000000E+00  0.19691558685E+03  0.19691558692E+03  0.50400001928E-02 0. -1.
        1   -1    0    0  501    0  0.00000000000E+00  0.00000000000E+00 -0.52188161028E+03  0.52188161030E+03  0.50400001928E-02 0.  1.
    10030    2    1    2    0    0  0.00000000000E+00  0.00000000000E+00 -0.32496602343E+03  0.71879719722E+03  0.64114467506E+03 0.  0.
        1    1    3    3  502    0  0.12205490631E+02  0.57374298830E+02 -0.51581377967E+03  0.51913836257E+03  0.50400001928E-02 0.  1.
       -1    1    3    3    0  502 -0.12205490631E+02 -0.57374298830E+02  0.19084775624E+03  0.19965883465E+03  0.50400001928E-02 0. -1.
</event>
<event>
 5   0  0.4987389E-02  0.5903182E+03  0.7818609E-02  0.9925699E-01
       -1   -1    0    0    0  501  0.00000000000E+00  0.00000000000E+00  0.18882433787E+03  0.18882433794E+03  0.50400001928E-02 0.  1.
        1   -1    0    0  501    0  0.00000000000E+00  0.00000000000E+00 -0.46137535694E+03  0.46137535696E+03  0.50400001928E-02 0. -1.
    10030    2    1    2    0    0  0.00000000000E+00  0.00000000000E+00 -0.27255101907E+03  0.65019969490E+03  0.59031820678E+03 0.  0.
        1    1    3    3  502    0  0.12958165361E+02 -0.99363548423E+02  0.16951600403E+03  0.19691801455E+03  0.50400001928E-02 0.  1.
       -1    1    3    3    0  502 -0.12958165361E+02  0.99363548423E+02 -0.44206702310E+03  0.45328168035E+03  0.50400001928E-02 0. -1.
</event>
<event>
 5   0  0.8699746E-02  0.6001086E+03  0.7818609E-02  0.9905181E-01
       -2   -1    0    0    0  501  0.00000000000E+00  0.00000000000E+00  0.22878275124E+03  0.22878275125E+03  0.25500000920E-02 0.  1.
        2   -1    0    0  501    0  0.00000000000E+00  0.00000000000E+00 -0.39352878153E+03  0.39352878153E+03  0.25500000920E-02 0. -1.
    10030    2    1    2    0    0  0.00000000000E+00  0.00000000000E+00 -0.16474603029E+03  0.62231153279E+03  0.60010864795E+03 0.  0.
        3    1    3    3  502    0 -0.91152955009E+02  0.24586434476E+03  0.68881077224E+02  0.27111390638E+03  0.10100000352E+00 0.  1.
       -3    1    3    3    0  502  0.91152955009E+02 -0.24586434476E+03 -0.23362710751E+03  0.35119762641E+03  0.10100000352E+00 0. -1.
</event>
<event>
 5   0  0.5125031E-02  0.6056819E+03  0.7818609E-02  0.9893687E-01
        1   -1    0    0  501    0  0.00000000000E+00  0.00000000000E+00  0.41507098297E+03  0.41507098300E+03  0.50400001928E-02 0.  1.
       -1   -1    0    0    0  501  0.00000000000E+00  0.00000000000E+00 -0.22095654641E+03  0.22095654646E+03  0.50400001928E-02 0. -1.
    10030    2    1    2    0    0  0.00000000000E+00  0.00000000000E+00  0.19411443656E+03  0.63602752946E+03  0.60568193283E+03 0.  0.
        4    1    3    3  502    0 -0.83092351731E+02 -0.21136961352E+03  0.30741744599E+03  0.38221532077E+03  0.12699999809E+01 0.  1.
       -4    1    3    3    0  502  0.83092351731E+02  0.21136961352E+03 -0.11330300942E+03  0.25381220869E+03  0.12699999809E+01 0. -1.
</event>
<event>
 5   0  0.4987389E-02  0.6145497E+03  0.7818609E-02  0.9875671E-01
        1   -1    0    0  501    0  0.00000000000E+00  0.00000000000E+00  0.76704957814E+03  0.76704957815E+03  0.50400001928E-02 0.  1.
       -1   -1    0    0    0  501  0.00000000000E+00  0.00000000000E+00 -0.12309223532E+03  0.12309223542E+03  0.50400001928E-02 0. -1.
    10030    2    1    2    0    0  0.00000000000E+00  0.00000000000E+00  0.64395734282E+03  0.89014181358E+03  0.61454974486E+03 0.  0.
        1    1    3    3  502    0  0.61374875407E+02 -0.15932372466E+02 -0.11351262913E+03  0.13002243199E+03  0.50400001928E-02 0. -1.
       -1    1    3    3    0  502 -0.61374875407E+02  0.15932372466E+02  0.75746997195E+03  0.76011938158E+03  0.50400001928E-02 0.  1.
</event>
<event>
 5   0  0.5190380E-02  0.5999608E+03  0.7818609E-02  0.9905487E-01
        1   -1    0    0  501    0  0.00000000000E+00  0.00000000000E+00  0.68130651209E+03  0.68130651211E+03  0.50400001928E-02 0.  1.
       -1   -1    0    0    0  501  0.00000000000E+00  0.00000000000E+00 -0.13208188459E+03  0.13208188469E+03  0.50400001928E-02 0. -1.
    10030    2    1    2    0    0  0.00000000000E+00  0.00000000000E+00  0.54922462750E+03  0.81338839680E+03  0.59996082588E+03 0.  0.
        5    1    3    3  502    0  0.12473696182E+02  0.24302191320E+03  0.51235332092E+03  0.56722416983E+03  0.46999998093E+01 0.  1.
       -5    1    3    3    0  502 -0.12473696182E+02 -0.24302191320E+03  0.36871306586E+02  0.24616422696E+03  0.46999998093E+01 0. -1.
</event>
<event>
 5   0  0.4987389E-02  0.5994531E+03  0.7818609E-02  0.9906541E-01
       -1   -1    0    0    0  501  0.00000000000E+00  0.00000000000E+00  0.10441443269E+04  0.10441443269E+04  0.50400001928E-02 0. -1.
        1   -1    0    0  501    0  0.00000000000E+00  0.00000000000E+00 -0.86037908759E+02  0.86037908907E+02  0.50400001928E-02 0.  1.
    10030    2    1    2    0    0  0.00000000000E+00  0.00000000000E+00  0.95810641815E+03  0.11301822358E+04  0.59945306545E+03 0.  0.
        1    1    3    3  502    0  0.12229637780E+03  0.26174820447E+03  0.62949783230E+03  0.69262980550E+03  0.50400001928E-02 0. -1.
       -1    1    3    3    0  502 -0.12229637780E+03 -0.26174820447E+03  0.32860858585E+03  0.43755243033E+03  0.50400001928E-02 0.  1.
</event>
<event>
 5   0  0.4881209E-02  0.6174705E+03  0.7818609E-02  0.9869809E-01
        1   -1    0    0  501    0  0.00000000000E+00  0.00000000000E+00  0.51922829537E+03  0.51922829539E+03  0.50400001928E-02 0. -1.
       -1   -1    0    0    0  501  0.00000000000E+00  0.00000000000E+00 -0.18357520814E+03  0.18357520821E+03  0.50400001928E-02 0.  1.
    10030    2    1    2    0    0  0.00000000000E+00  0.00000000000E+00  0.33565308722E+03  0.70280350360E+03  0.61747046060E+03 0.  0.
        3    1    3    3  502    0  0.27020289016E+03  0.62207056309E+02  0.32237901793E+03  0.42521472353E+03  0.10100000352E+00 0. -1.
       -3    1    3    3    0  502 -0.27020289016E+03 -0.62207056309E+02  0.13274069293E+02  0.27758878007E+03  0.10100000352E+00 0.  1.
</event>
<event>
 5   0  0.8817544E-02  0.5959464E+03  0.7818609E-02  0.9913852E-01
        2   -1    0    0  501    0  0.00000000000E+00  0.00000000000E+00  0.43256517368E+03  0.43256517369E+03  0.25500000920E-02 0.  1.
       -2   -1    0    0    0  501  0.00000000000E+00  0.00000000000E+00 -0.20525931372E+03  0.20525931373E+03  0.25500000920E-02 0. -1.
    10030    2    1    2    0    0  0.00000000000E+00  0.00000000000E+00  0.22730585997E+03  0.63782448742E+03  0.59594640932E+03 0.  0.
        5    1    3    3  502    0  0.27822807046E+02  0.28136955469E+03  0.21418445337E+03  0.35473934792E+03  0.46999998093E+01 0.  1.
       -5    1    3    3    0  502 -0.27822807046E+02 -0.28136955469E+03  0.13121406593E+02  0.28308513950E+03  0.46999998093E+01 0. -1.
</event>
<event>
 5   0  0.5125031E-02  0.6661345E+03  0.7818609E-02  0.9776966E-01
        1   -1    0    0  501    0  0.00000000000E+00  0.00000000000E+00  0.10299214127E+04  0.10299214128E+04  0.50400001928E-02 0.  1.
       -1   -1    0    0    0  501  0.00000000000E+00  0.00000000000E+00 -0.10771093340E+03  0.10771093352E+03  0.50400001928E-02 0. -1.
    10030    2    1    2    0    0  0.00000000000E+00  0.00000000000E+00  0.92221047934E+03  0.11376323463E+04  0.66613451125E+03 0.  0.
        4    1    3    3  502    0  0.29787771277E+02  0.32254974207E+03  0.32874667292E+03  0.46152100200E+03  0.12699999809E+01 0. -1.
       -4    1    3    3    0  502 -0.29787771277E+02 -0.32254974207E+03  0.59346380642E+03  0.67611134428E+03  0.12699999809E+01 0.  1.
</event>
<event>
 5   0  0.4987389E-02  0.4999404E+03  0.7818609E-02  0.1013794E+00
        1   -1    0    0  501    0  0.00000000000E+00  0.00000000000E+00  0.10237234891E+03  0.10237234903E+03  0.50400001928E-02 0. -1.
       -1   -1    0    0    0  501  0.00000000000E+00  0.00000000000E+00 -0.61037079756E+03  0.61037079759E+03  0.50400001928E-02 0.  1.
    10030    2    1    2    0    0  0.00000000000E+00  0.00000000000E+00 -0.50799844866E+03  0.71274314661E+03  0.49994036565E+03 0.  0.
        1    1    3    3  502    0  0.75949811216E+02 -0.15551091837E+03  0.31453637587E+01  0.17309509783E+03  0.50400001928E-02 0. -1.
       -1    1    3    3    0  502 -0.75949811216E+02  0.15551091837E+03 -0.51114381242E+03  0.53964804878E+03  0.50400001928E-02 0.  1.
</event>
<event>
 5   0  0.4987389E-02  0.6142375E+03  0.7818609E-02  0.9876300E-01
        1   -1    0    0  501    0  0.00000000000E+00  0.00000000000E+00  0.34449342863E+03  0.34449342867E+03  0.50400001928E-02 0.  1.
       -1   -1    0    0    0  501  0.00000000000E+00  0.00000000000E+00 -0.27379888763E+03  0.27379888767E+03  0.50400001928E-02 0. -1.
    10030    2    1    2    0    0  0.00000000000E+00  0.00000000000E+00  0.70694541001E+02  0.61829231634E+03  0.61423747062E+03 0.  0.
        1    1    3    3  502    0 -0.38130759697E+01  0.19406490910E+03 -0.20422849905E+03  0.28175345311E+03  0.50400001928E-02 0. -1.
       -1    1    3    3    0  502  0.38130759697E+01 -0.19406490910E+03  0.27492304005E+03  0.33653886323E+03  0.50400001928E-02 0.  1.
</event>
<event>
 5   0  0.8817544E-02  0.5721258E+03  0.7818609E-02  0.9964985E-01
       -2   -1    0    0    0  501  0.00000000000E+00  0.00000000000E+00  0.15447097656E+03  0.15447097658E+03  0.25500000920E-02 0. -1.
        2   -1    0    0  501    0  0.00000000000E+00  0.00000000000E+00 -0.52975639287E+03  0.52975639288E+03  0.25500000920E-02 0.  1.
    10030    2    1    2    0    0  0.00000000000E+00  0.00000000000E+00 -0.37528541631E+03  0.68422736946E+03  0.57212581608E+03 0.  0.
        5    1    3    3  502    0  0.26239883037E+03 -0.46503527572E+02 -0.63390651358E+02  0.27396384603E+03  0.46999998093E+01 0.  1.
       -5    1    3    3    0  502 -0.26239883037E+03  0.46503527572E+02 -0.31189476495E+03  0.41026352343E+03  0.46999998093E+01 0. -1.
</event>
<event>
 5   0  0.3437375E-02  0.6010003E+03  0.7818609E-02  0.9903333E-01
       -3   -1    0    0    0  501  0.00000000000E+00  0.00000000000E+00  0.13793728904E+03  0.13793732602E+03  0.10100000352E+00 0. -1.
        3   -1    0    0  501    0  0.00000000000E+00  0.00000000000E+00 -0.65464766661E+03  0.65464767440E+03  0.10100000352E+00 0.  1.
    10030    2    1    2    0    0  0.00000000000E+00  0.00000000000E+00 -0.51671037757E+03  0.79258500042E+03  0.60100030666E+03 0.  0.
        1    1    3    3  502    0 -0.12099299121E+03 -0.22950504717E+03 -0.58402980996E+02  0.26593754683E+03  0.50400001928E-02 0. -1.
       -1    1    3    3    0  502  0.12099299121E+03  0.22950504717E+03 -0.45830739657E+03  0.52664745359E+03  0.50400001928E-02 0.  1.
</event>
<event>
 5   0  0.8575590E-02  0.5933700E+03  0.7818609E-02  0.9919257E-01
       -2   -1    0    0    0  501  0.00000000000E+00  0.00000000000E+00  0.49075078375E+03  0.49075078375E+03  0.25500000920E-02 0. -1.
        2   -1    0    0  501    0  0.00000000000E+00  0.00000000000E+00 -0.17936189912E+03  0.17936189914E+03  0.25500000920E-02 0.  1.
    10030    2    1    2    0    0  0.00000000000E+00  0.00000000000E+00  0.31138888463E+03  0.67011268289E+03  0.59337001129E+03 0.  0.
        4    1    3    3  502    0 -0.11568503738E+03 -0.25695530672E+03  0.50895436552E+02  0.28635819508E+03  0.12699999809E+01 0.  1.
       -4    1    3    3    0  502  0.11568503738E+03  0.25695530672E+03  0.26049344807E+03  0.38375448781E+03  0.12699999809E+01 0. -1.
</event>
<event>
 5   0  0.5190380E-02  0.6094331E+03  0.7818609E-02  0.9886026E-01
       -1   -1    0    0    0  501  0.00000000000E+00  0.00000000000E+00  0.83250620448E+03  0.83250620450E+03  0.50400001928E-02 0. -1.
        1   -1    0    0  501    0  0.00000000000E+00  0.00000000000E+00 -0.11153330804E+03  0.11153330815E+03  0.50400001928E-02 0.  1.
    10030    2    1    2    0    0  0.00000000000E+00  0.00000000000E+00  0.72097289645E+03  0.94403951265E+03  0.60943308414E+03 0.  0.
        5    1    3    3  502    0  0.16444794594E+03  0.22393523069E+03  0.55420983583E+03  0.61996834322E+03  0.46999998093E+01 0. -1.
       -5    1    3    3    0  502 -0.16444794594E+03 -0.22393523069E+03  0.16676306062E+03  0.32407116943E+03  0.46999998093E+01 0.  1.
</event>
<event>
 5   0  0.8575590E-02  0.5999622E+03  0.7818609E-02  0.9905485E-01
        2   -1    0    0  501    0  0.00000000000E+00  0.00000000000E+00  0.48175961720E+03  0.48175961721E+03  0.25500000920E-02 0.  1.
       -2   -1    0    0    0  501  0.00000000000E+00  0.00000000000E+00 -0.18679161385E+03  0.18679161387E+03  0.25500000920E-02 0. -1.
    10030    2    1    2    0    0  0.00000000000E+00  0.00000000000E+00  0.29496800334E+03  0.66855123108E+03  0.59996218679E+03 0.  0.
        4    1    3    3  502    0  0.83285616286E+02 -0.18284330757E+03 -0.10073456753E+03  0.22476039464E+03  0.12699999809E+01 0. -1.
       -4    1    3    3    0  502 -0.83285616286E+02  0.18284330757E+03  0.39570257088E+03  0.44379083643E+03  0.12699999809E+01 0.  1.
</event>
<event>
 5   0  0.4881209E-02  0.5339415E+03  0.7818609E-02  0.1005281E+00
        1   -1    0    0  501    0  0.00000000000E+00  0.00000000000E+00  0.59548977246E+03  0.59548977248E+03  0.50400001928E-02 0. -1.
       -1   -1    0    0    0  501  0.00000000000E+00  0.00000000000E+00 -0.11968865462E+03  0.11968865473E+03  0.50400001928E-02 0.  1.
    10030    2    1    2    0    0  0.00000000000E+00  0.00000000000E+00  0.47580111784E+03  0.71517842721E+03  0.53394145654E+03 0.  0.
        3    1    3    3  502    0  0.22281097834E+03 -0.67231850938E+02  0.62703503174E+02  0.24103234920E+03  0.10100000352E+00 0.  1.
       -3    1    3    3    0  502 -0.22281097834E+03  0.67231850938E+02  0.41309761466E+03  0.47414607801E+03  0.10100000352E+00 0. -1.
</event>
<event>
 5   0  0.8420604E-02  0.6077151E+03  0.7818609E-02  0.9889528E-01
        2   -1    0    0  501    0  0.00000000000E+00  0.00000000000E+00  0.12387954065E+04  0.12387954065E+04  0.25500000920E-02 0.  1.
       -2   -1    0    0    0  501  0.00000000000E+00  0.00000000000E+00 -0.74531599845E+02  0.74531599889E+02  0.25500000920E-02 0. -1.
    10030    2    1    2    0    0  0.00000000000E+00  0.00000000000E+00  0.11642638066E+04  0.13133270064E+04  0.60771507652E+03 0.  0.
        2    1    3    3  502    0  0.21284345529E+02  0.21610234664E+03  0.12279905822E+03  0.24946514044E+03  0.25500000920E-02 0. -1.
       -2    1    3    3    0  502 -0.21284345529E+02 -0.21610234664E+03  0.10414647484E+04  0.10638618659E+04  0.25500000920E-02 0.  1.
</event>
<event>
 5   0  0.8207443E-02  0.6016026E+03  0.7818609E-02  0.9902087E-01
       -2   -1    0    0    0  501  0.00000000000E+00  0.00000000000E+00  0.94029522890E+02  0.94029522925E+02  0.25500000920E-02 0.  1.
        2   -1    0    0  501    0  0.00000000000E+00  0.00000000000E+00 -0.96226594090E+03  0.96226594091E+03  0.25500000920E-02 0. -1.
    10030    2    1    2    0    0  0.00000000000E+00  0.00000000000E+00 -0.86823641801E+03  0.10562954638E+04  0.60160255098E+03 0.  0.
        1    1    3    3  502    0 -0.12015084499E+03  0.18707034794E+03 -0.78379093338E+02  0.23574312912E+03  0.50400001928E-02 0.  1.
       -1    1    3    3    0  502  0.12015084499E+03 -0.18707034794E+03 -0.78985732468E+03  0.82055233471E+03  0.50400001928E-02 0. -1.
</event>
<event>
 5   0  0.3437375E-02  0.6004112E+03  0.7818609E-02  0.9904553E-01
       -3   -1    0    0    0  501  0.00000000000E+00  0.00000000000E+00  0.22840068493E+03  0.22840070726E+03  0.10100000352E+00 0. -1.
        3   -1    0    0  501    0  0.00000000000E+00  0.00000000000E+00 -0.39458455050E+03  0.39458456343E+03  0.10100000352E+00 0.  1.
    10030    2    1    2    0    0  0.00000000000E+00  0.00000000000E+00 -0.16618386558E+03  0.62298527069E+03  0.60041116771E+03 0.  0.
        4    1    3    3  502    0  0.36208545095E+02  0.18459279340E+03  0.15966208386E+03  0.24673700986E+03  0.12699999809E+01 0. -1.
       -4    1    3    3    0  502 -0.36208545095E+02 -0.18459279340E+03 -0.32584594944E+03  0.37624826083E+03  0.12699999809E+01 0.  1.
</event>
<event>
 5   0  0.5125031E-02  0.5959654E+03  0.7818609E-02  0.9913812E-01
       -1   -1    0    0    0  501  0.00000000000E+00  0.00000000000E+00  0.11723355370E+03  0.11723355381E+03  0.50400001928E-02 0.  1.
        1   -1    0    0  501    0  0.00000000000E+00  0.00000000000E+00 -0.75740841568E+03  0.75740841570E+03  0.50400001928E-02 0. -1.
    10030    2    1    2    0    0  0.00000000000E+00  0.00000000000E+00 -0.64017486198E+03  0.87464196951E+03  0.59596536890E+03 0.  0.
        4    1    3    3  502    0 -0.16040629826E+03  0.25954104749E+02  0.46485814805E+02  0.16901579794E+03  0.12699999809E+01 0.  1.
       -4    1    3    3    0  502  0.16040629826E+03 -0.25954104749E+02 -0.68666067678E+03  0.70562617157E+03  0.12699999809E+01 0. -1.
</event>
<event>
 5   0  0.8207443E-02  0.6289109E+03  0.7818609E-02  0.9847176E-01
       -2   -1    0    0    0  501  0.00000000000E+00  0.00000000000E+00  0.13022604281E+03  0.13022604284E+03  0.25500000920E-02 0. -1.
        2   -1    0    0  501    0  0.00000000000E+00  0.00000000000E+00 -0.75931215855E+03  0.75931215856E+03  0.25500000920E-02 0.  1.
    10030    2    1    2    0    0  0.00000000000E+00  0.00000000000E+00 -0.62908611574E+03  0.88953820139E+03  0.62891086072E+03 0.  0.
        1    1    3    3  502    0 -0.29248795935E+03  0.69676227972E+02 -0.18430790547E+03  0.35266611284E+03  0.50400001928E-02 0. -1.
       -1    1    3    3    0  502  0.29248795935E+03 -0.69676227972E+02 -0.44477821027E+03  0.53687208855E+03  0.50400001928E-02 0.  1.
</event>
<event>
 5   0  0.3437375E-02  0.5934584E+03  0.7818609E-02  0.9919072E-01
        4   -1    0    0  501    0  0.00000000000E+00  0.00000000000E+00  0.72264715337E+03  0.72264826933E+03  0.12699999809E+01 0.  1.
       -4   -1    0    0    0  501  0.00000000000E+00  0.00000000000E+00 -0.12183670135E+03  0.12184332028E+03  0.12699999809E+01 0. -1.
    10030    2    1    2    0    0  0.00000000000E+00  0.00000000000E+00  0.60081045201E+03  0.84449158961E+03  0.59345837737E+03 0.  0.
        1    1    3    3  502    0 -0.50055969699E+02 -0.52293457211E+02 -0.10908281844E+03  0.13091702362E+03  0.50400001928E-02 0. -1.
       -1    1    3    3    0  502  0.50055969699E+02  0.52293457211E+02  0.70989327045E+03  0.71357456599E+03  0.50400001928E-02 0.  1.
</event>
<event>
 5   0  0.8575590E-02  0.5984533E+03  0.7818609E-02  0.9908620E-01
       -2   -1    0    0    0  501  0.00000000000E+00  0.00000000000E+00  0.91763662294E+02  0.91763662330E+02  0.25500000920E-02 0. -1.
        2   -1    0    0  501    0  0.00000000000E+00  0.00000000000E+00 -0.97573040505E+03  0.97573040506E+03  0.25500000920E-02 0.  1.
    10030    2    1    2    0    0  0.00000000000E+00  0.00000000000E+00 -0.88396674276E+03  0.10674940674E+04  0.59845332450E+03 0.  0.
        4    1    3    3  502    0  0.53664629767E+02 -0.10849591661E+02 -0.96671476545E+03  0.96826476584E+03  0.12699999809E+01 0.  1.
       -4    1    3    3    0  502 -0.53664629767E+02  0.10849591661E+02  0.82748022688E+02  0.99229301549E+02  0.12699999809E+01 0. -1.
</event>
<event>
 5   0  0.8699746E-02  0.6125320E+03  0.7818609E-02  0.9879742E-01
        2   -1    0    0  501    0  0.00000000000E+00  0.00000000000E+00  0.71435791009E+03  0.71435791009E+03  0.25500000920E-02 0.  1.
       -2   -1    0    0    0  501  0.00000000000E+00  0.00000000000E+00 -0.13130512824E+03  0.13130512827E+03  0.25500000920E-02 0. -1.
    10030    2    1    2    0    0  0.00000000000E+00  0.00000000000E+00  0.58305278184E+03  0.84566303836E+03  0.61253198123E+03 0.  0.
        3    1    3    3  502    0  0.22124497126E+03  0.94902432445E+02  0.55290556757E+03  0.60304260698E+03  0.10100000352E+00 0.  1.
       -3    1    3    3    0  502 -0.22124497126E+03 -0.94902432445E+02  0.30147214276E+02  0.24262043137E+03  0.10100000352E+00 0. -1.
</event>
<event>
 5   0  0.5166903E-02  0.6217340E+03  0.7818609E-02  0.9861313E-01
       -1   -1    0    0    0  501  0.00000000000E+00  0.00000000000E+00  0.64118241329E+02  0.64118241527E+02  0.50400001928E-02 0.  1.
        1   -1    0    0  501    0  0.00000000000E+00  0.00000000000E+00 -0.15071886097E+04  0.15071886097E+04  0.50400001928E-02 0. -1.
    10030    2    1    2    0    0  0.00000000000E+00  0.00000000000E+00 -0.14430703683E+04  0.15713068512E+04  0.62173397258E+03 0.  0.
        2    1    3    3  502    0  0.18577231425E+03 -0.10738542366E+03 -0.15306001660E+03  0.26357228732E+03  0.25500000920E-02 0.  1.
       -2    1    3    3    0  502 -0.18577231425E+03  0.10738542366E+03 -0.12900103517E+04  0.13077345639E+04  0.25500000920E-02 0. -1.
</event>
<event>
 5   0  0.5125031E-02  0.6093338E+03  0.7818609E-02  0.9886228E-01
        1   -1    0    0  501    0  0.00000000000E+00  0.00000000000E+00  0.11078682834E+04  0.11078682834E+04  0.50400001928E-02 0. -1.
       -1   -1    0    0    0  501  0.00000000000E+00  0.00000000000E+00 -0.83784251141E+02  0.83784251292E+02  0.50400001928E-02 0.  1.
    10030    2    1    2    0    0  0.00000000000E+00  0.00000000000E+00  0.10240840323E+04  0.11916525347E+04  0.60933378237E+03 0.  0.
        4    1    3    3  502    0 -0.79387407379E+02 -0.22169062353E+03  0.13398007795E+03  0.27092686688E+03  0.12699999809E+01 0.  1.
       -4    1    3    3    0  502  0.79387407379E+02  0.22169062353E+03  0.89010395432E+03  0.92072566783E+03  0.12699999809E+01 0. -1.
</event>
<event>
 5   0  0.4881209E-02  0.5822450E+03  0.7818609E-02  0.9942942E-01
       -1   -1    0    0    0  501  0.00000000000E+00  0.00000000000E+00  0.51888821332E+02  0.51888821577E+02  0.50400001928E-02 0. -1.
        1   -1    0    0  501    0  0.00000000000E+00  0.00000000000E+00 -0.16333441187E+04  0.16333441187E+04  0.50400001928E-02 0.  1.
    10030    2    1    2    0    0  0.00000000000E+00  0.00000000000E+00 -0.15814552974E+04  0.16852329403E+04  0.58224497031E+03 0.  0.
        3    1    3    3  502    0 -0.24678059998E+03  0.12147276391E+03 -0.10667722657E+04  0.11016620961E+04  0.10100000352E+00 0.  1.
       -3    1    3    3    0  502  0.24678059998E+03 -0.12147276391E+03 -0.51468303162E+03  0.58357084414E+03  0.10100000352E+00 0. -1.
</event>
<event>
 5   0  0.4881209E-02  0.5943119E+03  0.7818609E-02  0.9917278E-01
        1   -1    0    0  501    0  0.00000000000E+00  0.00000000000E+00  0.42566825051E+03  0.42566825054E+03  0.50400001928E-02 0. -1.
       -1   -1    0    0    0  501  0.00000000000E+00  0.00000000000E+00 -0.20744242256E+03  0.20744242262E+03  0.50400001928E-02 0.  1.
    10030    2    1    2    0    0  0.00000000000E+00  0.00000000000E+00  0.21822582795E+03  0.63311067316E+03  0.59431188149E+03 0.  0.
        3    1    3    3  502    0 -0.16310787448E+03 -0.16085263059E+03  0.31074127811E+03  0.38605427028E+03  0.10100000352E+00 0. -1.
       -3    1    3    3    0  502  0.16310787448E+03  0.16085263059E+03 -0.92515450154E+02  0.24705640288E+03  0.10100000352E+00 0.  1.
</event>
<event>
 5   0  0.8207443E-02  0.4861154E+03  0.7818609E-02  0.1017468E+00
       -2   -1    0    0    0  501  0.00000000000E+00  0.00000000000E+00  0.10993930636E+03  0.10993930639E+03  0.25500000920E-02 0.  1.
        2   -1    0    0  501    0  0.00000000000E+00  0.00000000000E+00 -0.53736044396E+03  0.53736044396E+03  0.25500000920E-02 0. -1.
    10030    2    1    2    0    0  0.00000000000E+00  0.00000000000E+00 -0.42742113760E+03  0.64729975036E+03  0.48611535457E+03 0.  0.
        1    1    3    3  502    0 -0.54088057081E+02  0.53940985091E+02  0.93540087212E+02  0.12076794166E+03  0.50400001928E-02 0.  1.
       -1    1    3    3    0  502  0.54088057081E+02 -0.53940985091E+02 -0.52096122481E+03  0.52653180870E+03  0.50400001928E-02 0. -1.
</event>
<event>
 5   0  0.8817544E-02  0.6019335E+03  0.7818609E-02  0.9901403E-01
        2   -1    0    0  501    0  0.00000000000E+00  0.00000000000E+00  0.29771512368E+03  0.29771512369E+03  0.25500000920E-02 0. -1.
       -2   -1    0    0    0  501  0.00000000000E+00  0.00000000000E+00 -0.30425389489E+03  0.30425389490E+03  0.25500000920E-02 0.  1.
    10030    2    1    2    0    0  0.00000000000E+00  0.00000000000E+00 -0.65387712077E+01  0.60196901859E+03  0.60193350448E+03 0.  0.
        5    1    3    3  502    0  0.23582053296E+03 -0.69012303479E+02 -0.17701758295E+03  0.30287181524E+03  0.46999998093E+01 0.  1.
       -5    1    3    3    0  502 -0.23582053296E+03  0.69012303479E+02  0.17047881174E+03  0.29909720334E+03  0.46999998093E+01 0. -1.
</event>
<event>
 5   0  0.8420604E-02  0.6016507E+03  0.7818609E-02  0.9901987E-01
       -2   -1    0    0    0  501  0.00000000000E+00  0.00000000000E+00  0.55540108230E+02  0.55540108288E+02  0.25500000920E-02 0.  1.
        2   -1    0    0  501    0  0.00000000000E+00  0.00000000000E+00 -0.16293791425E+04  0.16293791425E+04  0.25500000920E-02 0. -1.
    10030    2    1    2    0    0  0.00000000000E+00  0.00000000000E+00 -0.15738390343E+04  0.16849192508E+04  0.60165070921E+03 0.  0.
        2    1    3    3  502    0 -0.27295945968E+03 -0.11184358988E+03 -0.95212585289E+03  0.99677454571E+03  0.25500000920E-02 0. -1.
       -2    1    3    3    0  502  0.27295945968E+03  0.11184358988E+03 -0.62171318138E+03  0.68814470508E+03  0.25500000920E-02 0.  1.
</event>
<event>
 5   0  0.4987389E-02  0.5958716E+03  0.7818609E-02  0.9914008E-01
        1   -1    0    0  501    0  0.00000000000E+00  0.00000000000E+00  0.11156245626E+03  0.11156245638E+03  0.50400001928E-02 0. -1.
       -1   -1    0    0    0  501  0.00000000000E+00  0.00000000000E+00 -0.79565952841E+03  0.79565952842E+03  0.50400001928E-02 0.  1.
    10030    2    1    2    0    0  0.00000000000E+00  0.00000000000E+00 -0.68409707215E+03  0.90722198480E+03  0.59587156803E+03 0.  0.
        1    1    3    3  502    0  0.18705635848E+02 -0.20767014681E+03 -0.66605746885E+03  0.69793219049E+03  0.50400001928E-02 0.  1.
       -1    1    3    3    0  502 -0.18705635848E+02  0.20767014681E+03 -0.18039603297E+02  0.20928979431E+03  0.50400001928E-02 0. -1.
</event>
<event>
 5   0  0.8420604E-02  0.6027706E+03  0.7818609E-02  0.9899675E-01
       -2   -1    0    0    0  501  0.00000000000E+00  0.00000000000E+00  0.28994311314E+03  0.28994311315E+03  0.25500000920E-02 0. -1.
        2   -1    0    0  501    0  0.00000000000E+00  0.00000000000E+00 -0.31327905541E+03  0.31327905542E+03  0.25500000920E-02 0.  1.
    10030    2    1    2    0    0  0.00000000000E+00  0.00000000000E+00 -0.23335942272E+02  0.60322216856E+03  0.60277061843E+03 0.  0.
        2    1    3    3  502    0 -0.33254831693E+02  0.12638510630E+03 -0.28344834007E+03  0.31212503972E+03  0.25500000920E-02 0.  1.
       -2    1    3    3    0  502  0.33254831693E+02 -0.12638510630E+03  0.26011239780E+03  0.29109712884E+03  0.25500000920E-02 0. -1.
</event>
<event>
 5   0  0.4987389E-02  0.5846273E+03  0.7818609E-02  0.9937823E-01
        1   -1    0    0  501    0  0.00000000000E+00  0.00000000000E+00  0.14670443541E+04  0.14670443541E+04  0.50400001928E-02 0. -1.
       -1   -1    0    0    0  501  0.00000000000E+00  0.00000000000E+00 -0.58244501292E+02  0.58244501510E+02  0.50400001928E-02 0.  1.
    10030    2    1    2    0    0  0.00000000000E+00  0.00000000000E+00  0.14087998528E+04  0.15252888556E+04  0.58462728964E+03 0.  0.
        1    1    3    3  502    0  0.43704436041E+02  0.10400064717E+03  0.14079630971E+04  0.14124752370E+04  0.50400001928E-02 0. -1.
       -1    1    3    3    0  502 -0.43704436041E+02 -0.10400064717E+03  0.83675563232E+00  0.11281361853E+03  0.50400001928E-02 0.  1.
</event>
<event>
 5   0  0.5190380E-02  0.6003070E+03  0.7818609E-02  0.9904769E-01
       -1   -1    0    0    0  501  0.00000000000E+00  0.00000000000E+00  0.13651404964E+03  0.13651404974E+03  0.50400001928E-02 0.  1.
        1   -1    0    0  501    0  0.00000000000E+00  0.00000000000E+00 -0.65994771584E+03  0.65994771586E+03  0.50400001928E-02 0. -1.
    10030    2    1    2    0    0  0.00000000000E+00  0.00000000000E+00 -0.52343366620E+03  0.79646176560E+03  0.60030703906E+03 0.  0.
        5    1    3    3  502    0  0.26576809722E+03  0.12500953533E+03 -0.34361097500E+03  0.45205160940E+03  0.46999998093E+01 0. -1.
       -5    1    3    3    0  502 -0.26576809722E+03 -0.12500953533E+03 -0.17982269119E+03  0.34441015619E+03  0.46999998093E+01 0.  1.
</event>
<event>
 5   0  0.8575590E-02  0.6050878E+03  0.7818609E-02  0.9894906E-01
        2   -1    0    0  501    0  0.00000000000E+00  0.00000000000E+00  0.50037482349E+03  0.50037482350E+03  0.25500000920E-02 0. -1.
       -2   -1    0    0    0  501  0.00000000000E+00  0.00000000000E+00 -0.18292848314E+03  0.18292848316E+03  0.25500000920E-02 0.  1.
    10030    2    1    2    0    0  0.00000000000E+00  0.00000000000E+00  0.31744634035E+03  0.68330330666E+03  0.60508778693E+03 0.  0.
        4    1    3    3  502    0  0.89900610463E+02  0.17670380472E+03  0.41679089622E+03  0.46154373404E+03  0.12699999809E+01 0. -1.
       -4    1    3    3    0  502 -0.89900610463E+02 -0.17670380472E+03 -0.99344555869E+02  0.22175957261E+03  0.12699999809E+01 0.  1.
</event>
<event>
 5   0  0.4987389E-02  0.5942711E+03  0.7818609E-02  0.9917364E-01
       -1   -1    0    0    0  501  0.00000000000E+00  0.00000000000E+00  0.28915680461E+03  0.28915680465E+03  0.50400001928E-02 0.  1.
        1   -1    0    0  501    0  0.00000000000E+00  0.00000000000E+00 -0.30533444727E+03  0.30533444731E+03  0.50400001928E-02 0. -1.
    10030    2    1    2    0    0  0.00000000000E+00  0.00000000000E+00 -0.16177642659E+02  0.59449125196E+03  0.59427109347E+03 0.  0.
        1    1    3    3  502    0 -0.11026009211E+02 -0.22656944854E+03 -0.20008242044E+03  0.30247026777E+03  0.50400001928E-02 0. -1.
       -1    1    3    3    0  502  0.11026009211E+02  0.22656944854E+03  0.18390477778E+03  0.29202098419E+03  0.50400001928E-02 0.  1.
</event>
<event>
 5   0  0.5190380E-02  0.6056862E+03  0.7818609E-02  0.9893679E-01
        1   -1    0    0  501    0  0.00000000000E+00  0.00000000000E+00  0.14900555947E+04  0.14900555947E+04  0.50400001928E-02 0.  1.
       -1   -1    0    0    0  501  0.00000000000E+00  0.00000000000E+00 -0.61550690586E+02  0.61550690792E+02  0.50400001928E-02 0. -1.
    10030    2    1    2    0    0  0.00000000000E+00  0.00000000000E+00  0.14285049041E+04  0.15516062855E+04  0.60568622581E+03 0.  0.
        5    1    3    3  502    0  0.10105665292E+03 -0.15920232764E+03  0.10731078243E+03  0.21701502770E+03  0.46999998093E+01 0. -1.
       -5    1    3    3    0  502 -0.10105665292E+03  0.15920232764E+03  0.13211941217E+04  0.13345912578E+04  0.46999998093E+01 0.  1.
</event>
<event>
 5   0  0.4987389E-02  0.6016393E+03  0.7818609E-02  0.9902011E-01
        1   -1    0    0  501    0  0.00000000000E+00  0.00000000000E+00  0.45546637062E+03  0.45546637065E+03  0.50400001928E-02 0.  1.
       -1   -1    0    0    0  501  0.00000000000E+00  0.00000000000E+00 -0.19868090173E+03  0.19868090179E+03  0.50400001928E-02 0. -1.
    10030    2    1    2    0    0  0.00000000000E+00  0.00000000000E+00  0.25678546889E+03  0.65414727244E+03  0.60163932468E+03 0.  0.
        1    1    3    3  502    0  0.24706366558E+03 -0.20931827059E+02 -0.56807773106E+02  0.25437318913E+03  0.50400001928E-02 0. -1.
       -1    1    3    3    0  502 -0.24706366558E+03  0.20931827059E+02  0.31359324200E+03  0.39977408331E+03  0.50400001928E-02 0.  1.
</event>
<event>
 5   0  0.5166903E-02  0.5971635E+03  0.7818609E-02  0.9911308E-01
        1   -1    0    0  501    0  0.00000000000E+00  0.00000000000E+00  0.39936889008E+03  0.39936889011E+03  0.50400001928E-02 0. -1.
       -1   -1    0    0    0  501  0.00000000000E+00  0.00000000000E+00 -0.22322987872E+03  0.22322987877E+03  0.50400001928E-02 0.  1.
    10030    2    1    2    0    0  0.00000000000E+00  0.00000000000E+00  0.17613901136E+03  0.62259876889E+03  0.59716352509E+03 0.  0.
        2    1    3    3  502    0  0.16943241713E+03  0.17335470271E+03 -0.93688567548E+02  0.25987832657E+03  0.25500000920E-02 0.  1.
       -2    1    3    3    0  502 -0.16943241713E+03 -0.17335470271E+03  0.26982757891E+03  0.36272044231E+03  0.25500000920E-02 0. -1.
</event>
<event>
 5   0  0.5166903E-02  0.5964787E+03  0.7818609E-02  0.9912739E-01
       -1   -1    0    0    0  501  0.00000000000E+00  0.00000000000E+00  0.31860307794E+03  0.31860307798E+03  0.50400001928E-02 0.  1.
        1   -1    0    0  501    0  0.00000000000E+00  0.00000000000E+00 -0.27917716922E+03  0.27917716926E+03  0.50400001928E-02 0. -1.
    10030    2    1    2    0    0  0.00000000000E+00  0.00000000000E+00  0.39425908717E+02  0.59778024724E+03  0.59647868504E+03 0.  0.
        2    1    3    3  502    0 -0.15762353353E+03 -0.66847066482E+02 -0.22501858892E+03  0.28274913614E+03  0.25500000920E-02 0. -1.
       -2    1    3    3    0  502  0.15762353353E+03  0.66847066482E+02  0.26444449764E+03  0.31503111110E+03  0.25500000920E-02 0.  1.
</event>
<event>
 5   0  0.3437375E-02  0.5958093E+03  0.7818609E-02  0.9914139E-01
       -3   -1    0    0    0  501  0.00000000000E+00  0.00000000000E+00  0.67293044053E+03  0.67293044811E+03  0.10100000352E+00 0. -1.
        3   -1    0    0  501    0  0.00000000000E+00  0.00000000000E+00 -0.13188163712E+03  0.13188167580E+03  0.10100000352E+00 0.  1.
    10030    2    1    2    0    0  0.00000000000E+00  0.00000000000E+00  0.54104880341E+03  0.80481212391E+03  0.59580932111E+03 0.  0.
        1    1    3    3  502    0 -0.49609545076E+01 -0.17024171721E+03  0.60068180329E+03  0.62436005812E+03  0.50400001928E-02 0.  1.
       -1    1    3    3    0  502  0.49609545076E+01  0.17024171721E+03 -0.59632999877E+02  0.18045206579E+03  0.50400001928E-02 0. -1.
</event>
<event>
 5   0  0.3437375E-02  0.6236734E+03  0.7818609E-02  0.9857473E-01
       -3   -1    0    0    0  501  0.00000000000E+00  0.00000000000E+00  0.16622471481E+03  0.16622474550E+03  0.10100000352E+00 0. -1.
        3   -1    0    0  501    0  0.00000000000E+00  0.00000000000E+00 -0.58500392380E+03  0.58500393251E+03  0.10100000352E+00 0.  1.
    10030    2    1    2    0    0  0.00000000000E+00  0.00000000000E+00 -0.41877920898E+03  0.75122867801E+03  0.62367339272E+03 0.  0.
        3    1    3    3  502    0 -0.16028419159E+03  0.20946661591E+03 -0.90081978037E+01  0.26390991471E+03  0.10100000352E+00 0. -1.
       -3    1    3    3    0  502  0.16028419159E+03 -0.20946661591E+03 -0.40977101118E+03  0.48731876330E+03  0.10100000352E+00 0.  1.
</event>
<event>
 5   0  0.5190380E-02  0.5993101E+03  0.7818609E-02  0.9906838E-01
       -1   -1    0    0    0  501  0.00000000000E+00  0.00000000000E+00  0.74976326477E+02  0.74976326646E+02  0.50400001928E-02 0. -1.
        1   -1    0    0  501    0  0.00000000000E+00  0.00000000000E+00 -0.11976201825E+04  0.11976201825E+04  0.50400001928E-02 0.  1.
    10030    2    1    2    0    0  0.00000000000E+00  0.00000000000E+00 -0.11226438560E+04  0.12725965092E+04  0.59931014312E+03 0.  0.
        5    1    3    3  502    0 -0.28868473580E+03 -0.77724785760E+02 -0.60331299009E+03  0.67334142381E+03  0.46999998093E+01 0.  1.
       -5    1    3    3    0  502  0.28868473580E+03  0.77724785760E+02 -0.51933086592E+03  0.59925508534E+03  0.46999998093E+01 0. -1.
</event>
<event>
 5   0  0.8207443E-02  0.6132483E+03  0.7818609E-02  0.9878295E-01
       -2   -1    0    0    0  501  0.00000000000E+00  0.00000000000E+00  0.10244562048E+03  0.10244562051E+03  0.25500000920E-02 0.  1.
        2   -1    0    0  501    0  0.00000000000E+00  0.00000000000E+00 -0.91773927667E+03  0.91773927667E+03  0.25500000920E-02 0. -1.
    10030    2    1    2    0    0  0.00000000000E+00  0.00000000000E+00 -0.81529365619E+03  0.10201848972E+04  0.61324830094E+03 0.  0.
        1    1    3    3  502    0 -0.72046187019E+02 -0.23910226155E+03 -0.11165271481E+03  0.27354501146E+03  0.50400001928E-02 0.  1.
       -1    1    3    3    0  502  0.72046187019E+02  0.23910226155E+03 -0.70364094138E+03  0.74663988572E+03  0.50400001928E-02 0. -1.
</event>
<event>
 5   0  0.5166903E-02  0.6084319E+03  0.7818609E-02  0.9888065E-01
       -1   -1    0    0    0  501  0.00000000000E+00  0.00000000000E+00  0.44748426867E+03  0.44748426870E+03  0.50400001928E-02 0.  1.
        1   -1    0    0  501    0  0.00000000000E+00  0.00000000000E+00 -0.20681696967E+03  0.20681696973E+03  0.50400001928E-02 0. -1.
    10030    2    1    2    0    0  0.00000000000E+00  0.00000000000E+00  0.24066729901E+03  0.65430123843E+03  0.60843188756E+03 0.  0.
        2    1    3    3  502    0 -0.74417960216E+02 -0.28971207913E+03  0.17997869711E+03  0.34908946277E+03  0.25500000920E-02 0. -1.
       -2    1    3    3    0  502  0.74417960216E+02  0.28971207913E+03  0.60688601899E+02  0.30521177566E+03  0.25500000920E-02 0.  1.
</event>
<event>
 5   0  0.8699746E-02  0.6026626E+03  0.7818609E-02  0.9899897E-01
       -2   -1    0    0    0  501  0.00000000000E+00  0.00000000000E+00  0.15439284254E+03  0.15439284256E+03  0.25500000920E-02 0.  1.
        2   -1    0    0  501    0  0.00000000000E+00  0.00000000000E+00 -0.58811374003E+03  0.58811374003E+03  0.25500000920E-02 0. -1.
    10030    2    1    2    0    0  0.00000000000E+00  0.00000000000E+00 -0.43372089749E+03  0.74250658259E+03  0.60266259903E+03 0.  0.
        3    1    3    3  502    0 -0.95579451963E+02 -0.22687825088E+02  0.13411062771E+03  0.16624030712E+03  0.10100000352E+00 0.  1.
       -3    1    3    3    0  502  0.95579451963E+02  0.22687825088E+02 -0.56783152519E+03  0.57626627548E+03  0.10100000352E+00 0. -1.
</event>
<event>
 5   0  0.5125031E-02  0.6018110E+03  0.7818609E-02  0.9901656E-01
       -1   -1    0    0    0  501  0.00000000000E+00  0.00000000000E+00  0.23890726005E+03  0.23890726010E+03  0.50400001928E-02 0.  1.
        1   -1    0    0  501    0  0.00000000000E+00  0.00000000000E+00 -0.37899279360E+03  0.37899279363E+03  0.50400001928E-02 0. -1.
    10030    2    1    2    0    0  0.00000000000E+00  0.00000000000E+00 -0.14008553355E+03  0.61790005373E+03  0.60181103321E+03 0.  0.
        4    1    3    3  502    0  0.13530425907E+03 -0.15945109403E+03  0.15209903933E+03  0.25858775024E+03  0.12699999809E+01 0.  1.
       -4    1    3    3    0  502 -0.13530425907E+03  0.15945109403E+03 -0.29218457288E+03  0.35931230349E+03  0.12699999809E+01 0. -1.
</event>
<event>
 5   0  0.8207443E-02  0.6138166E+03  0.7818609E-02  0.9877149E-01
       -2   -1    0    0    0  501  0.00000000000E+00  0.00000000000E+00  0.94501197057E+02  0.94501197091E+02  0.25500000920E-02 0.  1.
        2   -1    0    0  501    0  0.00000000000E+00  0.00000000000E+00 -0.99673545106E+03  0.99673545106E+03  0.25500000920E-02 0. -1.
    10030    2    1    2    0    0  0.00000000000E+00  0.00000000000E+00 -0.90223425400E+03  0.10912366482E+04  0.61381656313E+03 0.  0.
        1    1    3    3  502    0 -0.21412424696E+03  0.20155060207E+02 -0.61877538103E+02  0.22379510570E+03  0.50400001928E-02 0.  1.
       -1    1    3    3    0  502  0.21412424696E+03 -0.20155060207E+02 -0.84035671590E+03  0.86744154245E+03  0.50400001928E-02 0. -1.
</event>
<event>
 5   0  0.4987389E-02  0.5986092E+03  0.7818609E-02  0.9908296E-01
        1   -1    0    0  501    0  0.00000000000E+00  0.00000000000E+00  0.25202330079E+03  0.25202330084E+03  0.50400001928E-02 0.  1.
       -1   -1    0    0    0  501  0.00000000000E+00  0.00000000000E+00 -0.35545616265E+03  0.35545616269E+03  0.50400001928E-02 0. -1.
    10030    2    1    2    0    0  0.00000000000E+00  0.00000000000E+00 -0.10343286186E+03  0.60747946353E+03  0.59860917274E+03 0.  0.
        1    1    3    3  502    0  0.18086186871E+03 -0.13733550176E+03 -0.24957000875E+03  0.33742739203E+03  0.50400001928E-02 0. -1.
       -1    1    3    3    0  502 -0.18086186871E+03  0.13733550176E+03  0.14613714689E+03  0.27005207150E+03  0.50400001928E-02 0.  1.
</event>
<event>
 5   0  0.8575590E-02  0.6077979E+03  0.7818609E-02  0.9889359E-01
       -2   -1    0    0    0  501  0.00000000000E+00  0.00000000000E+00  0.31089140329E+03  0.31089140330E+03  0.25500000920E-02 0. -1.
        2   -1    0    0  501    0  0.00000000000E+00  0.00000000000E+00 -0.29706380021E+03  0.29706380022E+03  0.25500000920E-02 0.  1.
    10030    2    1    2    0    0  0.00000000000E+00  0.00000000000E+00  0.13827603074E+02  0.60795520352E+03  0.60779793261E+03 0.  0.
        4    1    3    3  502    0  0.10616673613E+03 -0.96234440215E+02  0.27497666387E+03  0.31007454252E+03  0.12699999809E+01 0. -1.
       -4    1    3    3    0  502 -0.10616673613E+03  0.96234440215E+02 -0.26114906080E+03  0.29788066100E+03  0.12699999809E+01 0.  1.
</event>
<event>
 5   0  0.5190380E-02  0.5937359E+03  0.7818609E-02  0.9918488E-01
        1   -1    0    0  501    0  0.00000000000E+00  0.00000000000E+00  0.71629880658E+03  0.71629880660E+03  0.50400001928E-02 0. -1.
       -1   -1    0    0    0  501  0.00000000000E+00  0.00000000000E+00 -0.12303603981E+03  0.12303603991E+03  0.50400001928E-02 0.  1.
    10030    2    1    2    0    0  0.00000000000E+00  0.00000000000E+00  0.59326276677E+03  0.83933484651E+03  0.59373586225E+03 0.  0.
        5    1    3    3  502    0 -0.16085560559E+03 -0.54407233347E+01 -0.55944298778E+02  0.17045815288E+03  0.46999998093E+01 0.  1.
       -5    1    3    3    0  502  0.16085560559E+03  0.54407233347E+01  0.64920706555E+03  0.66887669363E+03  0.46999998093E+01 0. -1.
</event>
<event>
 5   0  0.8575590E-02  0.6128946E+03  0.7818609E-02  0.9879009E-01
        2   -1    0    0  501    0  0.00000000000E+00  0.00000000000E+00  0.16003434711E+04  0.16003434711E+04  0.25500000920E-02 0. -1.
       -2   -1    0    0    0  501  0.00000000000E+00  0.00000000000E+00 -0.58681117769E+02  0.58681117824E+02  0.25500000920E-02 0.  1.
    10030    2    1    2    0    0  0.00000000000E+00  0.00000000000E+00  0.15416623533E+04  0.16590245889E+04  0.61289458717E+03 0.  0.
        4    1    3    3  502    0  0.13523823829E+03 -0.18188791987E+03  0.21256154438E+03  0.31073561035E+03  0.12699999809E+01 0.  1.
       -4    1    3    3    0  502 -0.13523823829E+03  0.18188791987E+03  0.13291008090E+04  0.13482889786E+04  0.12699999809E+01 0. -1.
</event>
<event>
 5   0  0.8817544E-02  0.6086736E+03  0.7818609E-02  0.9887573E-01
        2   -1    0    0  501    0  0.00000000000E+00  0.00000000000E+00  0.74083934572E+03  0.74083934573E+03  0.25500000920E-02 0.  1.
       -2   -1    0    0    0  501  0.00000000000E+00  0.00000000000E+00 -0.12502157512E+03  0.12502157515E+03  0.25500000920E-02 0. -1.
    10030    2    1    2    0    0  0.00000000000E+00  0.00000000000E+00  0.61581777060E+03  0.86586092088E+03  0.60867364631E+03 0.  0.
        5    1    3    3  502    0  0.90450558508E+02  0.21324147413E+03  0.27176354941E+02  0.23326781623E+03  0.46999998093E+01 0. -1.
       -5    1    3    3    0  502 -0.90450558508E+02 -0.21324147413E+03  0.58864141566E+03  0.63259310465E+03  0.46999998093E+01 0.  1.
</event>
<event>
 5   0  0.8420604E-02  0.5936662E+03  0.7818609E-02  0.9918634E-01
        2   -1    0    0  501    0  0.00000000000E+00  0.00000000000E+00  0.71540190210E+03  0.71540190211E+03  0.25500000920E-02 0. -1.
       -2   -1    0    0    0  501  0.00000000000E+00  0.00000000000E+00 -0.12316140202E+03  0.12316140205E+03  0.25500000920E-02 0.  1.
    10030    2    1    2    0    0  0.00000000000E+00  0.00000000000E+00  0.59224050008E+03  0.83856330416E+03  0.59366624052E+03 0.  0.
        2    1    3    3  502    0 -0.32925646339E+02 -0.19615251404E+03  0.60735500825E+03  0.63909311763E+03  0.25500000920E-02 0. -1.
       -2    1    3    3    0  502  0.32925646339E+02  0.19615251404E+03 -0.15114508164E+02  0.19947018653E+03  0.25500000920E-02 0.  1.
</event>
<event>
 5   0  0.8699746E-02  0.5975710E+03  0.7818609E-02  0.9910458E-01
        2   -1    0    0  501    0  0.00000000000E+00  0.00000000000E+00  0.90369703505E+03  0.90369703505E+03  0.25500000920E-02 0.  1.
       -2   -1    0    0    0  501  0.00000000000E+00  0.00000000000E+00 -0.98786172526E+02  0.98786172559E+02  0.25500000920E-02 0. -1.
    10030    2    1    2    0    0  0.00000000000E+00  0.00000000000E+00  0.80491086252E+03  0.10024832076E+04  0.59757098736E+03 0.  0.
        3    1    3    3  502    0  0.73047280444E+02 -0.27956743910E+03  0.52998482623E+03  0.60363712975E+03  0.10100000352E+00 0.  1.
       -3    1    3    3    0  502 -0.73047280444E+02  0.27956743910E+03  0.27492603630E+03  0.39884607786E+03  0.10100000352E+00 0. -1.
</event>
<event>
 5   0  0.8699746E-02  0.5926361E+03  0.7818609E-02  0.9920803E-01
       -2   -1    0    0    0  501  0.00000000000E+00  0.00000000000E+00  0.54151104314E+03  0.54151104314E+03  0.25500000920E-02 0.  1.
        2   -1    0    0  501    0  0.00000000000E+00  0.00000000000E+00 -0.16214697848E+03  0.16214697850E+03  0.25500000920E-02 0. -1.
    10030    2    1    2    0    0  0.00000000000E+00  0.00000000000E+00  0.37936406465E+03  0.70365802165E+03  0.59263607541E+03 0.  0.
        3    1    3    3  502    0  0.11785487998E+03  0.16654120344E+03 -0.65467074683E+02  0.21427014082E+03  0.10100000352E+00 0. -1.
       -3    1    3    3    0  502 -0.11785487998E+03 -0.16654120344E+03  0.44483113934E+03  0.48938788083E+03  0.10100000352E+00 0.  1.
</event>
<event>
 5   0  0.8420604E-02  0.5991238E+03  0.7818609E-02  0.9907225E-01
        2   -1    0    0  501    0  0.00000000000E+00  0.00000000000E+00  0.18397666864E+04  0.18397666864E+04  0.25500000920E-02 0. -1.
       -2   -1    0    0    0  501  0.00000000000E+00  0.00000000000E+00 -0.48776479394E+02  0.48776479460E+02  0.25500000920E-02 0.  1.
    10030    2    1    2    0    0  0.00000000000E+00  0.00000000000E+00  0.17909902070E+04  0.18885431659E+04  0.59912383339E+03 0.  0.
        2    1    3    3  502    0 -0.12500314810E+03  0.12268620286E+03  0.12944750428E+03  0.21779427857E+03  0.25500000920E-02 0.  1.
       -2    1    3    3    0  502  0.12500314810E+03 -0.12268620286E+03  0.16615427028E+04  0.16707488873E+04  0.25500000920E-02 0. -1.
</event>
<event>
 5   0  0.5190380E-02  0.6017918E+03  0.7818609E-02  0.9901696E-01
        1   -1    0    0  501    0  0.00000000000E+00  0.00000000000E+00  0.58733514353E+03  0.58733514355E+03  0.50400001928E-02 0. -1.
       -1   -1    0    0    0  501  0.00000000000E+00  0.00000000000E+00 -0.15415108859E+03  0.15415108867E+03  0.50400001928E-02 0.  1.
    10030    2    1    2    0    0  0.00000000000E+00  0.00000000000E+00  0.43318405494E+03  0.74148623222E+03  0.60179183039E+03 0.  0.
        5    1    3    3  502    0  0.59188155467E+02 -0.13009506729E+03  0.54278872453E+03  0.56131065709E+03  0.46999998093E+01 0. -1.
       -5    1    3    3    0  502 -0.59188155467E+02  0.13009506729E+03 -0.10960466959E+03  0.18017557514E+03  0.46999998093E+01 0.  1.
</event>
<event>
 5   0  0.8817544E-02  0.5926490E+03  0.7818609E-02  0.9920775E-01
       -2   -1    0    0    0  501  0.00000000000E+00  0.00000000000E+00  0.45636779651E+03  0.45636779651E+03  0.25500000920E-02 0.  1.
        2   -1    0    0  501    0  0.00000000000E+00  0.00000000000E+00 -0.19240668274E+03  0.19240668276E+03  0.25500000920E-02 0. -1.
    10030    2    1    2    0    0  0.00000000000E+00  0.00000000000E+00  0.26396111376E+03  0.64877447927E+03  0.59264901534E+03 0.  0.
        5    1    3    3  502    0  0.21707199480E+03  0.11691864095E+03 -0.47883808920E+02  0.25120742163E+03  0.46999998093E+01 0. -1.
       -5    1    3    3    0  502 -0.21707199480E+03 -0.11691864095E+03  0.31184492268E+03  0.39756705765E+03  0.46999998093E+01 0.  1.
</event>
<event>
 5   0  0.8699746E-02  0.5984843E+03  0.7818609E-02  0.9908556E-01
        2   -1    0    0  501    0  0.00000000000E+00  0.00000000000E+00  0.49083687443E+03  0.49083687443E+03  0.25500000920E-02 0.  1.
       -2   -1    0    0    0  501  0.00000000000E+00  0.00000000000E+00 -0.18243505585E+03  0.18243505587E+03  0.25500000920E-02 0. -1.
    10030    2    1    2    0    0  0.00000000000E+00  0.00000000000E+00  0.30840181858E+03  0.67327193030E+03  0.59848426081E+03 0.  0.
        3    1    3    3  502    0 -0.10640273702E+02 -0.17213230424E+03 -0.12090480530E+03  0.21061986548E+03  0.10100000352E+00 0. -1.
       -3    1    3    3    0  502  0.10640273702E+02  0.17213230424E+03  0.42930662387E+03  0.46265206483E+03  0.10100000352E+00 0.  1.
</event>
<event>
 5   0  0.5125031E-02  0.6000949E+03  0.7818609E-02  0.9905209E-01
       -1   -1    0    0    0  501  0.00000000000E+00  0.00000000000E+00  0.82532584561E+02  0.82532584715E+02  0.50400001928E-02 0. -1.
        1   -1    0    0  501    0  0.00000000000E+00  0.00000000000E+00 -0.10908233281E+04  0.10908233281E+04  0.50400001928E-02 0.  1.
    10030    2    1    2    0    0  0.00000000000E+00  0.00000000000E+00 -0.10082907436E+04  0.11733559128E+04  0.60009488805E+03 0.  0.
        4    1    3    3  502    0 -0.26369267748E+03 -0.20585386642E+02 -0.22714801740E+03  0.34864799011E+03  0.12699999809E+01 0. -1.
       -4    1    3    3    0  502  0.26369267748E+03  0.20585386642E+02 -0.78114272616E+03  0.82470792274E+03  0.12699999809E+01 0.  1.
</event>
<event>
 5   0  0.8207443E-02  0.6121543E+03  0.7818609E-02  0.9880506E-01
       -2   -1    0    0    0  501  0.00000000000E+00  0.00000000000E+00  0.85113060029E+02  0.85113060067E+02  0.25500000920E-02 0. -1.
        2   -1    0    0  501    0  0.00000000000E+00  0.00000000000E+00 -0.11006914704E+04  0.11006914704E+04  0.25500000920E-02 0.  1.
    10030    2    1    2    0    0  0.00000000000E+00  0.00000000000E+00 -0.10155784104E+04  0.11858045305E+04  0.61215429173E+03 0.  0.
        1    1    3    3  502    0 -0.12494390457E+03 -0.27593697900E+03 -0.42266638789E+03  0.51999910687E+03  0.50400001928E-02 0.  1.
       -1    1    3    3    0  502  0.12494390457E+03  0.27593697900E+03 -0.59291202250E+03  0.66580542362E+03  0.50400001928E-02 0. -1.
</event>
<event>
 5   0  0.8420604E-02  0.6022954E+03  0.7818609E-02  0.9900655E-01
       -2   -1    0    0    0  501  0.00000000000E+00  0.00000000000E+00  0.11117020038E+03  0.11117020041E+03  0.25500000920E-02 0.  1.
        2   -1    0    0  501    0  0.00000000000E+00  0.00000000000E+00 -0.81577548941E+03  0.81577548942E+03  0.25500000920E-02 0. -1.
    10030    2    1    2    0    0  0.00000000000E+00  0.00000000000E+00 -0.70460528903E+03  0.92694568983E+03  0.60229535825E+03 0.  0.
        2    1    3    3  502    0 -0.85123374167E+02  0.45988486083E+02  0.86599270652E+02  0.12984746191E+03  0.25500000920E-02 0.  1.
       -2    1    3    3    0  502  0.85123374167E+02 -0.45988486083E+02 -0.79120455968E+03  0.79709822792E+03  0.25500000920E-02 0. -1.
</event>
<event>
 5   0  0.5166903E-02  0.6021943E+03  0.7818609E-02  0.9900864E-01
        1   -1    0    0  501    0  0.00000000000E+00  0.00000000000E+00  0.33016137239E+03  0.33016137243E+03  0.50400001928E-02 0. -1.
       -1   -1    0    0    0  501  0.00000000000E+00  0.00000000000E+00 -0.27459142647E+03  0.27459142652E+03  0.50400001928E-02 0.  1.
    10030    2    1    2    0    0  0.00000000000E+00  0.00000000000E+00  0.55569945916E+02  0.60475279895E+03  0.60219426180E+03 0.  0.
        2    1    3    3  502    0  0.14867235413E+03 -0.12087592519E+03  0.26103245800E+03  0.32380920665E+03  0.25500000920E-02 0. -1.
       -2    1    3    3    0  502 -0.14867235413E+03  0.12087592519E+03 -0.20546251209E+03  0.28094359230E+03  0.25500000920E-02 0.  1.
</event>
<event>
 5   0  0.8817544E-02  0.4582352E+03  0.7818609E-02  0.1025294E+00
        2   -1    0    0  501    0  0.00000000000E+00  0.00000000000E+00  0.67317959764E+03  0.67317959764E+03  0.25500000920E-02 0.  1.
       -2   -1    0    0    0  501  0.00000000000E+00  0.00000000000E+00 -0.77980484526E+02  0.77980484567E+02  0.25500000920E-02 0. -1.
    10030    2    1    2    0    0  0.00000000000E+00  0.00000000000E+00  0.59519911311E+03  0.75116008221E+03  0.45823518509E+03 0.  0.
        5    1    3    3  502    0  0.20736508147E+03 -0.24589742097E+02  0.14323300327E+03  0.25326412232E+03  0.46999998093E+01 0. -1.
       -5    1    3    3    0  502 -0.20736508147E+03  0.24589742097E+02  0.45196610984E+03  0.49789595988E+03  0.46999998093E+01 0.  1.
</event>
<event>
 5   0  0.4881209E-02  0.5929509E+03  0.7818609E-02  0.9920140E-01
        1   -1    0    0  501    0  0.00000000000E+00  0.00000000000E+00  0.20602194771E+03  0.20602194777E+03  0.50400001928E-02 0.  1.
       -1   -1    0    0    0  501  0.00000000000E+00  0.00000000000E+00 -0.42664241632E+03  0.42664241635E+03  0.50400001928E-02 0. -1.
    10030    2    1    2    0    0  0.00000000000E+00  0.00000000000E+00 -0.22062046861E+03  0.63266436412E+03  0.59295093090E+03 0.  0.
        3    1    3    3  502    0 -0.22962460828E+03  0.13362347267E+03  0.30089356943E+02  0.26737253557E+03  0.10100000352E+00 0.  1.
       -3    1    3    3    0  502  0.22962460828E+03 -0.13362347267E+03 -0.25070982555E+03  0.36529182855E+03  0.10100000352E+00 0. -1.
</event>
<event>
 5   0  0.4881209E-02  0.5636180E+03  0.7818609E-02  0.9983901E-01
        1   -1    0    0  501    0  0.00000000000E+00  0.00000000000E+00  0.37410945085E+03  0.37410945088E+03  0.50400001928E-02 0. -1.
       -1   -1    0    0    0  501  0.00000000000E+00  0.00000000000E+00 -0.21228097286E+03  0.21228097292E+03  0.50400001928E-02 0.  1.
    10030    2    1    2    0    0  0.00000000000E+00  0.00000000000E+00  0.16182847799E+03  0.58639042380E+03  0.56361802032E+03 0.  0.
        3    1    3    3  502    0 -0.14353154907E+03 -0.14883082498E+03 -0.11830176250E+03  0.23821678625E+03  0.10100000352E+00 0.  1.
       -3    1    3    3    0  502  0.14353154907E+03  0.14883082498E+03  0.28013024049E+03  0.34817363754E+03  0.10100000352E+00 0. -1.
</event>
<event>
 5   0  0.5166903E-02  0.6197158E+03  0.7818609E-02  0.9865326E-01
        1   -1    0    0  501    0  0.00000000000E+00  0.00000000000E+00  0.19361139007E+03  0.19361139014E+03  0.50400001928E-02 0.  1.
       -1   -1    0    0    0  501  0.00000000000E+00  0.00000000000E+00 -0.49590009186E+03  0.49590009188E+03  0.50400001928E-02 0. -1.
    10030    2    1    2    0    0  0.00000000000E+00  0.00000000000E+00 -0.30228870179E+03  0.68951148202E+03  0.61971576115E+03 0.  0.
        2    1    3    3  502    0 -0.63021053568E+02 -0.30091610946E+03 -0.10820006653E+03  0.32592853899E+03  0.25500000920E-02 0. -1.
       -2    1    3    3    0  502  0.63021053568E+02  0.30091610946E+03 -0.19408863526E+03  0.36358294304E+03  0.25500000920E-02 0.  1.
</event>
<event>
 5   0  0.8575590E-02  0.5933020E+03  0.7818609E-02  0.9919401E-01
       -2   -1    0    0    0  501  0.00000000000E+00  0.00000000000E+00  0.94566639278E+02  0.94566639313E+02  0.25500000920E-02 0. -1.
        2   -1    0    0  501    0  0.00000000000E+00  0.00000000000E+00 -0.93057992977E+03  0.93057992978E+03  0.25500000920E-02 0.  1.
    10030    2    1    2    0    0  0.00000000000E+00  0.00000000000E+00 -0.83601329050E+03  0.10251465691E+04  0.59330200255E+03 0.  0.
        4    1    3    3  502    0 -0.19701623126E+03  0.15658822967E+03 -0.68936933325E+03  0.73387121458E+03  0.12699999809E+01 0.  1.
       -4    1    3    3    0  502  0.19701623126E+03 -0.15658822967E+03 -0.14664395724E+03  0.29127535452E+03  0.12699999809E+01 0. -1.
</event>
<event>
 5   0  0.8420604E-02  0.5870852E+03  0.7818609E-02  0.9932569E-01
       -2   -1    0    0    0  501  0.00000000000E+00  0.00000000000E+00  0.14261934691E+03  0.14261934693E+03  0.25500000920E-02 0. -1.
        2   -1    0    0  501    0  0.00000000000E+00  0.00000000000E+00 -0.60417640198E+03  0.60417640198E+03  0.25500000920E-02 0.  1.
    10030    2    1    2    0    0  0.00000000000E+00  0.00000000000E+00 -0.46155705507E+03  0.74679574891E+03  0.58708515183E+03 0.  0.
        2    1    3    3  502    0  0.17010754422E+03 -0.15829860304E+02  0.72863776663E+02  0.18573177174E+03  0.25500000920E-02 0. -1.
       -2    1    3    3    0  502 -0.17010754422E+03  0.15829860304E+02 -0.53442083173E+03  0.56106397717E+03  0.25500000920E-02 0.  1.
</event>
<event>
 5   0  0.8575590E-02  0.5994780E+03  0.7818609E-02  0.9906490E-01
       -2   -1    0    0    0  501  0.00000000000E+00  0.00000000000E+00  0.14278446129E+03  0.14278446131E+03  0.25500000920E-02 0. -1.
        2   -1    0    0  501    0  0.00000000000E+00  0.00000000000E+00 -0.62922434566E+03  0.62922434567E+03  0.25500000920E-02 0.  1.
    10030    2    1    2    0    0  0.00000000000E+00  0.00000000000E+00 -0.48643988437E+03  0.77200880697E+03  0.59947797035E+03 0.  0.
        4    1    3    3  502    0 -0.15002592299E+03  0.92147950435E+01  0.90738515424E+02  0.17557841866E+03  0.12699999809E+01 0. -1.
       -4    1    3    3    0  502  0.15002592299E+03 -0.92147950435E+01 -0.57717839980E+03  0.59643038832E+03  0.12699999809E+01 0.  1.
</event>
<event>
 5   0  0.8207443E-02  0.6049512E+03  0.7818609E-02  0.9895187E-01
        2   -1    0    0  501    0  0.00000000000E+00  0.00000000000E+00  0.68961990970E+03  0.68961990970E+03  0.25500000920E-02 0.  1.
       -2   -1    0    0    0  501  0.00000000000E+00  0.00000000000E+00 -0.13266946318E+03  0.13266946320E+03  0.25500000920E-02 0. -1.
    10030    2    1    2    0    0  0.00000000000E+00  0.00000000000E+00  0.55695044652E+03  0.82228937290E+03  0.60495124838E+03 0.  0.
        1    1    3    3  502    0 -0.10850432447E+03 -0.24438784939E+03  0.86280203295E+02  0.28096776125E+03  0.50400001928E-02 0. -1.
       -1    1    3    3    0  502  0.10850432447E+03  0.24438784939E+03  0.47067024322E+03  0.54132161165E+03  0.50400001928E-02 0.  1.
</event>
<event>
 5   0  0.8699746E-02  0.5757550E+03  0.7818609E-02  0.9957024E-01
        2   -1    0    0  501    0  0.00000000000E+00  0.00000000000E+00  0.56379084465E+03  0.56379084466E+03  0.25500000920E-02 0.  1.
       -2   -1    0    0    0  501  0.00000000000E+00  0.00000000000E+00 -0.14699324571E+03  0.14699324573E+03  0.25500000920E-02 0. -1.
    10030    2    1    2    0    0  0.00000000000E+00  0.00000000000E+00  0.41679759894E+03  0.71078409038E+03  0.57575496929E+03 0.  0.
        3    1    3    3  502    0  0.19692985231E+03  0.55855360780E+02  0.45828651067E+03  0.50192402226E+03  0.10100000352E+00 0.  1.
       -3    1    3    3    0  502 -0.19692985231E+03 -0.55855360780E+02 -0.41488911728E+02  0.20886006812E+03  0.10100000352E+00 0. -1.
</event>
<event>
 5   0  0.4987389E-02  0.6235221E+03  0.7818609E-02  0.9857772E-01
       -1   -1    0    0    0  501  0.00000000000E+00  0.00000000000E+00  0.24581000225E+03  0.24581000230E+03  0.50400001928E-02 0. -1.
        1   -1    0    0  501    0  0.00000000000E+00  0.00000000000E+00 -0.39540677736E+03  0.39540677740E+03  0.50400001928E-02 0.  1.
    10030    2    1    2    0    0  0.00000000000E+00  0.00000000000E+00 -0.14959677511E+03  0.64121677970E+03  0.62352206332E+03 0.  0.
        1    1    3    3  502    0  0.21574830030E+03  0.22081358783E+03 -0.30102690041E+02  0.31018082086E+03  0.50400001928E-02 0. -1.
       -1    1    3    3    0  502 -0.21574830030E+03 -0.22081358783E+03 -0.11949408507E+03  0.33103595884E+03  0.50400001928E-02 0.  1.
</event>
<event>
 5   0  0.8420604E-02  0.6023535E+03  0.7818609E-02  0.9900535E-01
       -2   -1    0    0    0  501  0.00000000000E+00  0.00000000000E+00  0.16799681549E+03  0.16799681551E+03  0.25500000920E-02 0. -1.
        2   -1    0    0  501    0  0.00000000000E+00  0.00000000000E+00 -0.53993548674E+03  0.53993548675E+03  0.25500000920E-02 0.  1.
    10030    2    1    2    0    0  0.00000000000E+00  0.00000000000E+00 -0.37193867125E+03  0.70793230226E+03  0.60235352527E+03 0.  0.
        2    1    3    3  502    0 -0.27104360108E+03 -0.12450795667E+03 -0.23500216354E+03  0.37972737831E+03  0.25500000920E-02 0. -1.
       -2    1    3    3    0  502  0.27104360108E+03  0.12450795667E+03 -0.13693650770E+03  0.32820492395E+03  0.25500000920E-02 0.  1.
</event>
<event>
 5   0  0.5166903E-02  0.5957309E+03  0.7818609E-02  0.9914303E-01
        1   -1    0    0  501    0  0.00000000000E+00  0.00000000000E+00  0.46584182558E+03  0.46584182561E+03  0.50400001928E-02 0. -1.
       -1   -1    0    0    0  501  0.00000000000E+00  0.00000000000E+00 -0.19045909602E+03  0.19045909609E+03  0.50400001928E-02 0.  1.
    10030    2    1    2    0    0  0.00000000000E+00  0.00000000000E+00  0.27538272956E+03  0.65630092170E+03  0.59573085540E+03 0.  0.
        2    1    3    3  502    0  0.13936243154E+03 -0.17401216555E+03  0.35531495338E+03  0.41946494154E+03  0.25500000920E-02 0. -1.
       -2    1    3    3    0  502 -0.13936243154E+03  0.17401216555E+03 -0.79932223815E+02  0.23683598015E+03  0.25500000920E-02 0.  1.
</event>
<event>
 5   0  0.8420604E-02  0.5901559E+03  0.7818609E-02  0.9926042E-01
        2   -1    0    0  501    0  0.00000000000E+00  0.00000000000E+00  0.14342226237E+04  0.14342226237E+04  0.25500000920E-02 0.  1.
       -2   -1    0    0    0  501  0.00000000000E+00  0.00000000000E+00 -0.60709548298E+02  0.60709548351E+02  0.25500000920E-02 0. -1.
    10030    2    1    2    0    0  0.00000000000E+00  0.00000000000E+00  0.13735130754E+04  0.14949321720E+04  0.59015593764E+03 0.  0.
        2    1    3    3  502    0 -0.47204153145E+02 -0.28777756265E+03  0.80079871914E+03  0.85224570766E+03  0.25500000920E-02 0.  1.
       -2    1    3    3    0  502  0.47204153145E+02  0.28777756265E+03  0.57271435624E+03  0.64268646437E+03  0.25500000920E-02 0. -1.
</event>
<event>
 5   0  0.8575590E-02  0.5442726E+03  0.7818609E-02  0.1002828E+00
        2   -1    0    0  501    0  0.00000000000E+00  0.00000000000E+00  0.12456781147E+04  0.12456781147E+04  0.25500000920E-02 0.  1.
       -2   -1    0    0    0  501  0.00000000000E+00  0.00000000000E+00 -0.59452083777E+02  0.59452083832E+02  0.25500000920E-02 0. -1.
    10030    2    1    2    0    0  0.00000000000E+00  0.00000000000E+00  0.11862260309E+04  0.13051301985E+04  0.54427257756E+03 0.  0.
        4    1    3    3  502    0  0.77215773350E+02 -0.17597537237E+03  0.10551555525E+04  0.10725131515E+04  0.12699999809E+01 0.  1.
       -4    1    3    3    0  502 -0.77215773350E+02  0.17597537237E+03  0.13107047839E+03  0.23261704697E+03  0.12699999809E+01 0. -1.
</event>
<event>
 5   0  0.5125031E-02  0.6004847E+03  0.7818609E-02  0.9904401E-01
        1   -1    0    0  501    0  0.00000000000E+00  0.00000000000E+00  0.93160504825E+02  0.93160504961E+02  0.50400001928E-02 0.  1.
       -1   -1    0    0    0  501  0.00000000000E+00  0.00000000000E+00 -0.96763600090E+03  0.96763600091E+03  0.50400001928E-02 0. -1.
    10030    2    1    2    0    0  0.00000000000E+00  0.00000000000E+00 -0.87447549607E+03  0.10607965059E+04  0.60048466562E+03 0.  0.
        4    1    3    3  502    0 -0.84613700023E+02 -0.20191932348E+02 -0.94488121038E+03  0.94887791997E+03  0.12699999809E+01 0. -1.
       -4    1    3    3    0  502  0.84613700023E+02  0.20191932348E+02  0.70405714311E+02  0.11191858591E+03  0.12699999809E+01 0.  1.
</event>
<event>
 5   0  0.4881209E-02  0.5748895E+03  0.7818609E-02  0.9958917E-01
        1   -1    0    0  501    0  0.00000000000E+00  0.00000000000E+00  0.11230041454E+04  0.11230041454E+04  0.50400001928E-02 0. -1.
       -1   -1    0    0    0  501  0.00000000000E+00  0.00000000000E+00 -0.73574506818E+02  0.73574506991E+02  0.50400001928E-02 0.  1.
    10030    2    1    2    0    0  0.00000000000E+00  0.00000000000E+00  0.10494296386E+04  0.11965786524E+04  0.57488947203E+03 0.  0.
        3    1    3    3  502    0  0.47205763479E+02  0.15481665569E+03  0.30285994702E+02  0.16466278469E+03  0.10100000352E+00 0.  1.
       -3    1    3    3    0  502 -0.47205763479E+02 -0.15481665569E+03  0.10191436439E+04  0.10319158677E+04  0.10100000352E+00 0. -1.
</event>
<event>
 5   0  0.8699746E-02  0.6015388E+03  0.7818609E-02  0.9902219E-01
        2   -1    0    0  501    0  0.00000000000E+00  0.00000000000E+00  0.43526979020E+03  0.43526979021E+03  0.25500000920E-02 0.  1.
       -2   -1    0    0    0  501  0.00000000000E+00  0.00000000000E+00 -0.20783023150E+03  0.20783023151E+03  0.25500000920E-02 0. -1.
    10030    2    1    2    0    0  0.00000000000E+00  0.00000000000E+00  0.22743955870E+03  0.64310002172E+03  0.60153876440E+03 0.  0.
        3    1    3    3  502    0  0.12304329422E+02 -0.29807837159E+03  0.72868463749E+02  0.30710248345E+03  0.10100000352E+00 0.  1.
       -3    1    3    3    0  502 -0.12304329422E+02  0.29807837159E+03  0.15457109495E+03  0.33599753827E+03  0.10100000352E+00 0. -1.
</event>
<event>
 5   0  0.5190380E-02  0.6029999E+03  0.7818609E-02  0.9899202E-01
       -1   -1    0    0    0  501  0.00000000000E+00  0.00000000000E+00  0.70037899516E+02  0.70037899698E+02  0.50400001928E-02 0. -1.
        1   -1    0    0  501    0  0.00000000000E+00  0.00000000000E+00 -0.12979004038E+04  0.12979004038E+04  0.50400001928E-02 0.  1.
    10030    2    1    2    0    0  0.00000000000E+00  0.00000000000E+00 -0.12278625042E+04  0.13679383035E+04  0.60299989450E+03 0.  0.
        5    1    3    3  502    0  0.62305470283E+02  0.26360915400E+03 -0.91410460639E+03  0.95340499218E+03  0.46999998093E+01 0.  1.
       -5    1    3    3    0  502 -0.62305470283E+02 -0.26360915400E+03 -0.31375789786E+03  0.41453331129E+03  0.46999998093E+01 0. -1.
</event>
<event>
 5   0  0.5125031E-02  0.5997228E+03  0.7818609E-02  0.9905981E-01
        1   -1    0    0  501    0  0.00000000000E+00  0.00000000000E+00  0.22610052582E+03  0.22610052588E+03  0.50400001928E-02 0. -1.
       -1   -1    0    0    0  501  0.00000000000E+00  0.00000000000E+00 -0.39768528861E+03  0.39768528864E+03  0.50400001928E-02 0.  1.
    10030    2    1    2    0    0  0.00000000000E+00  0.00000000000E+00 -0.17158476279E+03  0.62378581452E+03  0.59972277894E+03 0.  0.
        4    1    3    3  502    0  0.27251761958E+03 -0.61634900544E+02 -0.19902036260E+03  0.34303852783E+03  0.12699999809E+01 0. -1.
       -4    1    3    3    0  502 -0.27251761958E+03  0.61634900544E+02  0.27435599812E+02  0.28074728669E+03  0.12699999809E+01 0.  1.
</event>
<event>
 5   0  0.3437375E-02  0.6002810E+03  0.7818609E-02  0.9904823E-01
        3   -1    0    0  501    0  0.00000000000E+00  0.00000000000E+00  0.14036435159E+04  0.14036435196E+04  0.10100000352E+00 0.  1.
       -3   -1    0    0    0  501  0.00000000000E+00  0.00000000000E+00 -0.64178875153E+02  0.64178954626E+02  0.10100000352E+00 0. -1.
    10030    2    1    2    0    0  0.00000000000E+00  0.00000000000E+00  0.13394646408E+04  0.14678224742E+04  0.60028101073E+03 0.  0.
        5    1    3    3  502    0 -0.28894419636E+03  0.68720084172E+02  0.77493484715E+03  0.82991403525E+03  0.46999998093E+01 0.  1.
       -5    1    3    3    0  502  0.28894419636E+03 -0.68720084172E+02  0.56452979362E+03  0.63790843893E+03  0.46999998093E+01 0. -1.
</event>
<event>
 5   0  0.8575590E-02  0.6030789E+03  0.7818609E-02  0.9899039E-01
       -2   -1    0    0    0  501  0.00000000000E+00  0.00000000000E+00  0.55052202100E+02  0.55052202159E+02  0.25500000920E-02 0. -1.
        2   -1    0    0  501    0  0.00000000000E+00  0.00000000000E+00 -0.16516333428E+04  0.16516333429E+04  0.25500000920E-02 0.  1.
    10030    2    1    2    0    0  0.00000000000E+00  0.00000000000E+00 -0.15965811407E+04  0.17066855450E+04  0.60307894222E+03 0.  0.
        4    1    3    3  502    0  0.70877490888E+02  0.21089568837E+03 -0.13742666790E+04  0.13921605970E+04  0.12699999809E+01 0. -1.
       -4    1    3    3    0  502 -0.70877490888E+02 -0.21089568837E+03 -0.22231446177E+03  0.31452494798E+03  0.12699999809E+01 0.  1.
</event>
<event>
 5   0  0.8207443E-02  0.5781085E+03  0.7818609E-02  0.9951894E-01
        2   -1    0    0  501    0  0.00000000000E+00  0.00000000000E+00  0.66849412863E+03  0.66849412863E+03  0.25500000920E-02 0.  1.
       -2   -1    0    0    0  501  0.00000000000E+00  0.00000000000E+00 -0.12498593098E+03  0.12498593100E+03  0.25500000920E-02 0. -1.
    10030    2    1    2    0    0  0.00000000000E+00  0.00000000000E+00  0.54350819765E+03  0.79348005964E+03  0.57810850550E+03 0.  0.
        1    1    3    3  502    0 -0.25153327381E+03  0.98431064898E+02  0.13047726212E+03  0.29996996237E+03  0.50400001928E-02 0. -1.
       -1    1    3    3    0  502  0.25153327381E+03 -0.98431064898E+02  0.41303093553E+03  0.49351009726E+03  0.50400001928E-02 0.  1.
</event>
<event>
 5   0  0.5166903E-02  0.6317578E+03  0.7818609E-02  0.9841625E-01
        1   -1    0    0  501    0  0.00000000000E+00  0.00000000000E+00  0.86979420249E+02  0.86979420396E+02  0.50400001928E-02 0.  1.
       -1   -1    0    0    0  501  0.00000000000E+00  0.00000000000E+00 -0.11471617525E+04  0.11471617525E+04  0.50400001928E-02 0. -1.
    10030    2    1    2    0    0  0.00000000000E+00  0.00000000000E+00 -0.10601823323E+04  0.12341411729E+04  0.63175775187E+03 0.  0.
        2    1    3    3  502    0  0.66499926948E+02 -0.29034671627E+03 -0.32468501720E+03  0.44061753974E+03  0.25500000920E-02 0.  1.
       -2    1    3    3    0  502 -0.66499926948E+02  0.29034671627E+03 -0.73549731506E+03  0.79352363317E+03  0.25500000920E-02 0. -1.
</event>
<event>
 5   0  0.8420604E-02  0.6077959E+03  0.7818609E-02  0.9889363E-01
       -2   -1    0    0    0  501  0.00000000000E+00  0.00000000000E+00  0.17697576040E+03  0.17697576042E+03  0.25500000920E-02 0.  1.
        2   -1    0    0  501    0  0.00000000000E+00  0.00000000000E+00 -0.52184527186E+03  0.52184527186E+03  0.25500000920E-02 0. -1.
    10030    2    1    2    0    0  0.00000000000E+00  0.00000000000E+00 -0.34486951145E+03  0.69882103229E+03  0.60779589933E+03 0.  0.
        2    1    3    3  502    0  0.95167892299E+01 -0.13609409288E+03  0.13978835512E+03  0.19532781581E+03  0.25500000920E-02 0.  1.
       -2    1    3    3    0  502 -0.95167892299E+01  0.13609409288E+03 -0.48465786658E+03  0.50349321648E+03  0.25500000920E-02 0. -1.
</event>
<event>
 5   0  0.3437375E-02  0.5964362E+03  0.7818609E-02  0.9912828E-01
        3   -1    0    0  501    0  0.00000000000E+00  0.00000000000E+00  0.79089553494E+03  0.79089554138E+03  0.10100000352E+00 0. -1.
       -3   -1    0    0    0  501  0.00000000000E+00  0.00000000000E+00 -0.11244721183E+03  0.11244725719E+03  0.10100000352E+00 0.  1.
    10030    2    1    2    0    0  0.00000000000E+00  0.00000000000E+00  0.67844832311E+03  0.90334279857E+03  0.59643615300E+03 0.  0.
        2    1    3    3  502    0 -0.32502631765E+02 -0.12721273405E+03  0.74476221123E+03  0.75624748070E+03  0.25500000920E-02 0. -1.
       -2    1    3    3    0  502  0.32502631765E+02  0.12721273405E+03 -0.66313888121E+02  0.14709531787E+03  0.25500000920E-02 0.  1.
</event>
<event>
 5   0  0.8207443E-02  0.5930046E+03  0.7818609E-02  0.9920027E-01
        2   -1    0    0  501    0  0.00000000000E+00  0.00000000000E+00  0.17847965989E+04  0.17847965989E+04  0.25500000920E-02 0.  1.
       -2   -1    0    0    0  501  0.00000000000E+00  0.00000000000E+00 -0.49256936253E+02  0.49256936319E+02  0.25500000920E-02 0. -1.
    10030    2    1    2    0    0  0.00000000000E+00  0.00000000000E+00  0.17355396626E+04  0.18340535352E+04  0.59300459478E+03 0.  0.
        1    1    3    3  502    0 -0.14774998098E+03 -0.29815284788E+01  0.16627777199E+04  0.16693318101E+04  0.50400001928E-02 0.  1.
       -1    1    3    3    0  502  0.14774998098E+03  0.29815284788E+01  0.72761942765E+02  0.16472172514E+03  0.50400001928E-02 0. -1.
</event>
<event>
 5   0  0.8699746E-02  0.6072930E+03  0.7818609E-02  0.9890390E-01
       -2   -1    0    0    0  501  0.00000000000E+00  0.00000000000E+00  0.20617053335E+03  0.20617053337E+03  0.25500000920E-02 0.  1.
        2   -1    0    0  501    0  0.00000000000E+00  0.00000000000E+00 -0.44720844331E+03  0.44720844332E+03  0.25500000920E-02 0. -1.
    10030    2    1    2    0    0  0.00000000000E+00  0.00000000000E+00 -0.24103790996E+03  0.65337897668E+03  0.60729302082E+03 0.  0.
        3    1    3    3  502    0 -0.92285151792E+02 -0.59293415183E+02 -0.42514702762E+03  0.43906977079E+03  0.10100000352E+00 0. -1.
       -3    1    3    3    0  502  0.92285151792E+02  0.59293415183E+02  0.18410911766E+03  0.21430920590E+03  0.10100000352E+00 0.  1.
</event>
<event>
 5   0  0.8420604E-02  0.5866466E+03  0.7818609E-02  0.9933504E-01
        2   -1    0    0  501    0  0.00000000000E+00  0.00000000000E+00  0.17606032666E+04  0.17606032666E+04  0.25500000920E-02 0. -1.
       -2   -1    0    0    0  501  0.00000000000E+00  0.00000000000E+00 -0.48868785994E+02  0.48868786061E+02  0.25500000920E-02 0.  1.
    10030    2    1    2    0    0  0.00000000000E+00  0.00000000000E+00  0.17117344807E+04  0.18094720527E+04  0.58664655226E+03 0.  0.
        2    1    3    3  502    0  0.58109135483E+02 -0.27979721003E+03  0.10598924994E+04  0.10977409807E+04  0.25500000920E-02 0.  1.
       -2    1    3    3    0  502 -0.58109135483E+02  0.27979721003E+03  0.65184198127E+03  0.71173107205E+03  0.25500000920E-02 0. -1.
</event>
<event>
 5   0  0.5190380E-02  0.6000436E+03  0.7818609E-02  0.9905316E-01
        1   -1    0    0  501    0  0.00000000000E+00  0.00000000000E+00  0.93690599097E+03  0.93690599098E+03  0.50400001928E-02 0.  1.
       -1   -1    0    0    0  501  0.00000000000E+00  0.00000000000E+00 -0.96074827422E+02  0.96074827554E+02  0.50400001928E-02 0. -1.
    10030    2    1    2    0    0  0.00000000000E+00  0.00000000000E+00  0.84083116355E+03  0.10329808185E+04  0.60004360331E+03 0.  0.
        5    1    3    3  502    0  0.60978569859E+02 -0.16210544154E+03  0.84207802156E+03  0.85971742133E+03  0.46999998093E+01 0.  1.
       -5    1    3    3    0  502 -0.60978569859E+02  0.16210544154E+03 -0.12468580085E+01  0.17326339720E+03  0.46999998093E+01 0. -1.
</event>
<event>
 5   0  0.8575590E-02  0.5853663E+03  0.7818609E-02  0.9936240E-01
        2   -1    0    0  501    0  0.00000000000E+00  0.00000000000E+00  0.13823581743E+03  0.13823581746E+03  0.25500000920E-02 0. -1.
       -2   -1    0    0    0  501  0.00000000000E+00  0.00000000000E+00 -0.61969058180E+03  0.61969058181E+03  0.25500000920E-02 0.  1.
    10030    2    1    2    0    0  0.00000000000E+00  0.00000000000E+00 -0.48145476437E+03  0.75792639926E+03  0.58536632681E+03 0.  0.
        4    1    3    3  502    0  0.28032708218E+02 -0.22650560721E+03 -0.34902199012E+01  0.22826392042E+03  0.12699999809E+01 0. -1.
       -4    1    3    3    0  502 -0.28032708218E+02  0.22650560721E+03 -0.47796454447E+03  0.52966247885E+03  0.12699999809E+01 0.  1.
</event>
<event>
 5   0  0.4987389E-02  0.5929292E+03  0.7818609E-02  0.9920185E-01
       -1   -1    0    0    0  501  0.00000000000E+00  0.00000000000E+00  0.24946522741E+03  0.24946522746E+03  0.50400001928E-02 0.  1.
        1   -1    0    0  501    0  0.00000000000E+00  0.00000000000E+00 -0.35231866237E+03  0.35231866240E+03  0.50400001928E-02 0. -1.
    10030    2    1    2    0    0  0.00000000000E+00  0.00000000000E+00 -0.10285343496E+03  0.60178388986E+03  0.59292918719E+03 0.  0.
        1    1    3    3  502    0 -0.26311472128E+03 -0.12709564050E+03 -0.10226058627E+03  0.30958017688E+03  0.50400001928E-02 0. -1.
       -1    1    3    3    0  502  0.26311472128E+03  0.12709564050E+03 -0.59284868223E+00  0.29220371298E+03  0.50400001928E-02 0.  1.
</event>
<event>
 5   0  0.4987389E-02  0.6383497E+03  0.7818609E-02  0.9828889E-01
        1   -1    0    0  501    0  0.00000000000E+00  0.00000000000E+00  0.35687636223E+03  0.35687636226E+03  0.50400001928E-02 0. -1.
       -1   -1    0    0    0  501  0.00000000000E+00  0.00000000000E+00 -0.28545623575E+03  0.28545623579E+03  0.50400001928E-02 0.  1.
    10030    2    1    2    0    0  0.00000000000E+00  0.00000000000E+00  0.71420126477E+02  0.64233259806E+03  0.63834969418E+03 0.  0.
        1    1    3    3  502    0 -0.23554009135E+03  0.24849539449E+02 -0.17957801707E+03  0.29722869728E+03  0.50400001928E-02 0. -1.
       -1    1    3    3    0  502  0.23554009135E+03 -0.24849539449E+02  0.25099814355E+03  0.34510390078E+03  0.50400001928E-02 0.  1.
</event>
<event>
 5   0  0.8699746E-02  0.5902682E+03  0.7818609E-02  0.9925805E-01
       -2   -1    0    0    0  501  0.00000000000E+00  0.00000000000E+00  0.21082119663E+03  0.21082119664E+03  0.25500000920E-02 0.  1.
        2   -1    0    0  501    0  0.00000000000E+00  0.00000000000E+00 -0.41316594824E+03  0.41316594825E+03  0.25500000920E-02 0. -1.
    10030    2    1    2    0    0  0.00000000000E+00  0.00000000000E+00 -0.20234475161E+03  0.62398714490E+03  0.59026820894E+03 0.  0.
        3    1    3    3  502    0 -0.20409609146E+03 -0.13966304609E+03  0.69097409922E+02  0.25677897743E+03  0.10100000352E+00 0.  1.
       -3    1    3    3    0  502  0.20409609146E+03  0.13966304609E+03 -0.27144216154E+03  0.36720816746E+03  0.10100000352E+00 0. -1.
</event>
<event>
 5   0  0.5190380E-02  0.6028498E+03  0.7818609E-02  0.9899511E-01
       -1   -1    0    0    0  501  0.00000000000E+00  0.00000000000E+00  0.16703591983E+03  0.16703591990E+03  0.50400001928E-02 0. -1.
        1   -1    0    0  501    0  0.00000000000E+00  0.00000000000E+00 -0.54393680677E+03  0.54393680679E+03  0.50400001928E-02 0.  1.
    10030    2    1    2    0    0  0.00000000000E+00  0.00000000000E+00 -0.37690088694E+03  0.71097272669E+03  0.60284984824E+03 0.  0.
        5    1    3    3  502    0  0.80404251580E+02  0.13158893967E+03 -0.49384228639E+03  0.51738069788E+03  0.46999998093E+01 0.  1.
       -5    1    3    3    0  502 -0.80404251580E+02 -0.13158893967E+03  0.11694139945E+03  0.19359202881E+03  0.46999998093E+01 0. -1.
</event>
<event>
 5   0  0.4881209E-02  0.6254230E+03  0.7818609E-02  0.9854021E-01
        1   -1    0    0  501    0  0.00000000000E+00  0.00000000000E+00  0.10130405970E+04  0.10130405970E+04  0.50400001928E-02 0. -1.
       -1   -1    0    0    0  501  0.00000000000E+00  0.00000000000E+00 -0.96529684140E+02  0.96529684271E+02  0.50400001928E-02 0.  1.
    10030    2    1    2    0    0  0.00000000000E+00  0.00000000000E+00  0.91651091290E+03  0.11095702813E+04  0.62542302143E+03 0.  0.
        3    1    3    3  502    0 -0.23724105168E+03 -0.74551494112E+02  0.12188820275E+03  0.27694401248E+03  0.10100000352E+00 0.  1.
       -3    1    3    3    0  502  0.23724105168E+03  0.74551494112E+02  0.79462271015E+03  0.83262626884E+03  0.10100000352E+00 0. -1.
</event>
<event>
 5   0  0.5125031E-02  0.6067231E+03  0.7818609E-02  0.9891555E-01
        1   -1    0    0  501    0  0.00000000000E+00  0.00000000000E+00  0.74469132416E+03  0.74469132418E+03  0.50400001928E-02 0. -1.
       -1   -1    0    0    0  501  0.00000000000E+00  0.00000000000E+00 -0.12357904195E+03  0.12357904205E+03  0.50400001928E-02 0.  1.
    10030    2    1    2    0    0  0.00000000000E+00  0.00000000000E+00  0.62111228221E+03  0.86827036623E+03  0.60672313435E+03 0.  0.
        4    1    3    3  502    0 -0.27464905392E+03  0.70801278014E+02  0.46456675428E+03  0.54430580180E+03  0.12699999809E+01 0. -1.
       -4    1    3    3    0  502  0.27464905392E+03 -0.70801278014E+02  0.15654552793E+03  0.32396456443E+03  0.12699999809E+01 0.  1.
</event>
<event>
 5   0  0.5190380E-02  0.5988409E+03  0.7818609E-02  0.9907814E-01
       -1   -1    0    0    0  501  0.00000000000E+00  0.00000000000E+00  0.26098848628E+03  0.26098848633E+03  0.50400001928E-02 0.  1.
        1   -1    0    0  501    0  0.00000000000E+00  0.00000000000E+00 -0.34351168716E+03  0.34351168720E+03  0.50400001928E-02 0. -1.
    10030    2    1    2    0    0  0.00000000000E+00  0.00000000000E+00 -0.82523200885E+02  0.60450017353E+03  0.59884086459E+03 0.  0.
        5    1    3    3  502    0 -0.22449524651E+01 -0.26673315570E+03 -0.17848334326E+03  0.32098288113E+03  0.46999998093E+01 0. -1.
       -5    1    3    3    0  502  0.22449524651E+01  0.26673315570E+03  0.95960142375E+02  0.28351729239E+03  0.46999998093E+01 0.  1.
</event>
<event>
 5   0  0.5125031E-02  0.5950841E+03  0.7818609E-02  0.9915658E-01
        1   -1    0    0  501    0  0.00000000000E+00  0.00000000000E+00  0.27532056634E+03  0.27532056638E+03  0.50400001928E-02 0.  1.
       -1   -1    0    0    0  501  0.00000000000E+00  0.00000000000E+00 -0.32155706125E+03  0.32155706129E+03  0.50400001928E-02 0. -1.
    10030    2    1    2    0    0  0.00000000000E+00  0.00000000000E+00 -0.46236494911E+02  0.59687762767E+03  0.59508410242E+03 0.  0.
        4    1    3    3  502    0  0.11399294461E+03  0.42236029309E+02 -0.29550880271E+03  0.31953926046E+03  0.12699999809E+01 0. -1.
       -4    1    3    3    0  502 -0.11399294461E+03 -0.42236029309E+02  0.24927230780E+03  0.27733836721E+03  0.12699999809E+01 0.  1.
</event>
<event>
 5   0  0.8207443E-02  0.6036229E+03  0.7818609E-02  0.9897918E-01
       -2   -1    0    0    0  501  0.00000000000E+00  0.00000000000E+00  0.20451391015E+03  0.20451391017E+03  0.25500000920E-02 0. -1.
        2   -1    0    0  501    0  0.00000000000E+00  0.00000000000E+00 -0.44539837675E+03  0.44539837676E+03  0.25500000920E-02 0.  1.
    10030    2    1    2    0    0  0.00000000000E+00  0.00000000000E+00 -0.24088446660E+03  0.64991228693E+03  0.60362294063E+03 0.  0.
        1    1    3    3  502    0  0.19562784651E+01  0.24275285933E+03 -0.31351871626E+03  0.39651830123E+03  0.50400001928E-02 0.  1.
       -1    1    3    3    0  502 -0.19562784651E+01 -0.24275285933E+03  0.72634249660E+02  0.25339398570E+03  0.50400001928E-02 0. -1.
</event>
<event>
 5   0  0.5125031E-02  0.6067250E+03  0.7818609E-02  0.9891551E-01
       -1   -1    0    0    0  501  0.00000000000E+00  0.00000000000E+00  0.10442694439E+03  0.10442694451E+03  0.50400001928E-02 0.  1.
        1   -1    0    0  501    0  0.00000000000E+00  0.00000000000E+00 -0.88127442970E+03  0.88127442972E+03  0.50400001928E-02 0. -1.
    10030    2    1    2    0    0  0.00000000000E+00  0.00000000000E+00 -0.77684748532E+03  0.98570137422E+03  0.60672496545E+03 0.  0.
        4    1    3    3  502    0  0.14320232803E+02  0.57912173954E+02  0.94798952019E+02  0.11201492384E+03  0.12699999809E+01 0.  1.
       -4    1    3    3    0  502 -0.14320232803E+02 -0.57912173954E+02 -0.87164643734E+03  0.87368645038E+03  0.12699999809E+01 0. -1.
</event>
<event>
 5   0  0.8699746E-02  0.5243257E+03  0.7818609E-02  0.1007618E+00
        2   -1    0    0  501    0  0.00000000000E+00  0.00000000000E+00  0.45179382875E+03  0.45179382876E+03  0.25500000920E-02 0. -1.
       -2   -1    0    0    0  501  0.00000000000E+00  0.00000000000E+00 -0.15212547664E+03  0.15212547666E+03  0.25500000920E-02 0.  1.
    10030    2    1    2    0    0  0.00000000000E+00  0.00000000000E+00  0.29966835211E+03  0.60391930542E+03  0.52432566808E+03 0.  0.
        3    1    3    3  502    0 -0.68469612290E+02  0.70984929735E+02  0.42961156198E+03  0.44078685602E+03  0.10100000352E+00 0. -1.
       -3    1    3    3    0  502  0.68469612290E+02 -0.70984929735E+02 -0.12994320987E+03  0.16313244940E+03  0.10100000352E+00 0.  1.
</event>
<event>
 5   0  0.8575590E-02  0.5951009E+03  0.7818609E-02  0.9915622E-01
       -2   -1    0    0    0  501  0.00000000000E+00  0.00000000000E+00  0.65198511263E+02  0.65198511313E+02  0.25500000920E-02 0.  1.
        2   -1    0    0  501    0  0.00000000000E+00  0.00000000000E+00 -0.13579494395E+04  0.13579494395E+04  0.25500000920E-02 0. -1.
    10030    2    1    2    0    0  0.00000000000E+00  0.00000000000E+00 -0.12927509282E+04  0.14231479508E+04  0.59510093888E+03 0.  0.
        4    1    3    3  502    0  0.33189428459E+02 -0.28052791853E+03 -0.86991070243E+03  0.91462762605E+03  0.12699999809E+01 0. -1.
       -4    1    3    3    0  502 -0.33189428459E+02  0.28052791853E+03 -0.42284022581E+03  0.50852032476E+03  0.12699999809E+01 0.  1.
</event>
<event>
 5   0  0.5125031E-02  0.5981298E+03  0.7818609E-02  0.9909294E-01
        1   -1    0    0  501    0  0.00000000000E+00  0.00000000000E+00  0.11407030017E+04  0.11407030017E+04  0.50400001928E-02 0. -1.
       -1   -1    0    0    0  501  0.00000000000E+00  0.00000000000E+00 -0.78407622521E+02  0.78407622683E+02  0.50400001928E-02 0.  1.
    10030    2    1    2    0    0  0.00000000000E+00  0.00000000000E+00  0.10622953791E+04  0.12191106244E+04  0.59812978681E+03 0.  0.
        4    1    3    3  502    0 -0.17046205337E+03 -0.21417427949E+03  0.28562855682E+03  0.39561751605E+03  0.12699999809E+01 0.  1.
       -4    1    3    3    0  502  0.17046205337E+03  0.21417427949E+03  0.77666682231E+03  0.82349310830E+03  0.12699999809E+01 0. -1.
</event>
<event>
 5   0  0.4987389E-02  0.6071065E+03  0.7818609E-02  0.9890771E-01
       -1   -1    0    0    0  501  0.00000000000E+00  0.00000000000E+00  0.98990315925E+02  0.98990316053E+02  0.50400001928E-02 0. -1.
        1   -1    0    0  501    0  0.00000000000E+00  0.00000000000E+00 -0.93084419220E+03  0.93084419222E+03  0.50400001928E-02 0.  1.
    10030    2    1    2    0    0  0.00000000000E+00  0.00000000000E+00 -0.83185387628E+03  0.10298345083E+04  0.60710645108E+03 0.  0.
        1    1    3    3  502    0 -0.18222041507E+03  0.24048202852E+03 -0.47240824292E+03  0.56054030516E+03  0.50400001928E-02 0.  1.
       -1    1    3    3    0  502  0.18222041507E+03 -0.24048202852E+03 -0.35944563336E+03  0.46929420311E+03  0.50400001928E-02 0. -1.
</event>
<event>
 5   0  0.8420604E-02  0.5486525E+03  0.7818609E-02  0.1001806E+00
       -2   -1    0    0    0  501  0.00000000000E+00  0.00000000000E+00  0.72850918215E+02  0.72850918260E+02  0.25500000920E-02 0. -1.
        2   -1    0    0  501    0  0.00000000000E+00  0.00000000000E+00 -0.10329986308E+04  0.10329986308E+04  0.25500000920E-02 0.  1.
    10030    2    1    2    0    0  0.00000000000E+00  0.00000000000E+00 -0.96014771255E+03  0.11058495490E+04  0.54865252681E+03 0.  0.
        2    1    3    3  502    0  0.83736583708E+02 -0.65995195876E+02  0.29382925197E+02  0.11059176113E+03  0.25500000920E-02 0. -1.
       -2    1    3    3    0  502 -0.83736583708E+02  0.65995195876E+02 -0.98953063775E+03  0.99525778790E+03  0.25500000920E-02 0.  1.
</event>
<event>
 5   0  0.8699746E-02  0.5789530E+03  0.7818609E-02  0.9950060E-01
       -2   -1    0    0    0  501  0.00000000000E+00  0.00000000000E+00  0.10751514945E+03  0.10751514948E+03  0.25500000920E-02 0.  1.
        2   -1    0    0  501    0  0.00000000000E+00  0.00000000000E+00 -0.77939390209E+03  0.77939390210E+03  0.25500000920E-02 0. -1.
    10030    2    1    2    0    0  0.00000000000E+00  0.00000000000E+00 -0.67187875264E+03  0.88690905158E+03  0.57895302703E+03 0.  0.
        3    1    3    3  502    0 -0.39219800067E+02  0.26395788807E+02 -0.77344024830E+03  0.77488370629E+03  0.10100000352E+00 0. -1.
       -3    1    3    3    0  502  0.39219800067E+02 -0.26395788807E+02  0.10156149566E+03  0.11202534528E+03  0.10100000352E+00 0.  1.
</event>
<event>
 5   0  0.5125031E-02  0.6276004E+03  0.7818609E-02  0.9849743E-01
        1   -1    0    0  501    0  0.00000000000E+00  0.00000000000E+00  0.20911314271E+03  0.20911314277E+03  0.50400001928E-02 0. -1.
       -1   -1    0    0    0  501  0.00000000000E+00  0.00000000000E+00 -0.47089613386E+03  0.47089613389E+03  0.50400001928E-02 0.  1.
    10030    2    1    2    0    0  0.00000000000E+00  0.00000000000E+00 -0.26178299115E+03  0.68000927666E+03  0.62760041578E+03 0.  0.
        4    1    3    3  502    0  0.23072973260E+03  0.48420494455E+02  0.93496977679E+02  0.25362186721E+03  0.12699999809E+01 0. -1.
       -4    1    3    3    0  502 -0.23072973260E+03 -0.48420494455E+02 -0.35527996883E+03  0.42638740946E+03  0.12699999809E+01 0.  1.
</event>
<event>
 5   0  0.5166903E-02  0.6068834E+03  0.7818609E-02  0.9891227E-01
        1   -1    0    0  501    0  0.00000000000E+00  0.00000000000E+00  0.11099541856E+04  0.11099541856E+04  0.50400001928E-02 0.  1.
       -1   -1    0    0    0  501  0.00000000000E+00  0.00000000000E+00 -0.82955559115E+02  0.82955559268E+02  0.50400001928E-02 0. -1.
    10030    2    1    2    0    0  0.00000000000E+00  0.00000000000E+00  0.10269986265E+04  0.11929097449E+04  0.60688341601E+03 0.  0.
        2    1    3    3  502    0  0.23004104452E+03 -0.88534559330E+02  0.86136417077E+03  0.89593832659E+03  0.25500000920E-02 0.  1.
       -2    1    3    3    0  502 -0.23004104452E+03  0.88534559330E+02  0.16563445572E+03  0.29697141830E+03  0.25500000920E-02 0. -1.
</event>
<event>
 5   0  0.4987389E-02  0.6057842E+03  0.7818609E-02  0.9893478E-01
       -1   -1    0    0    0  501  0.00000000000E+00  0.00000000000E+00  0.23425308188E+03  0.23425308194E+03  0.50400001928E-02 0. -1.
        1   -1    0    0  501    0  0.00000000000E+00  0.00000000000E+00 -0.39164317100E+03  0.39164317103E+03  0.50400001928E-02 0.  1.
    10030    2    1    2    0    0  0.00000000000E+00  0.00000000000E+00 -0.15739008912E+03  0.62589625297E+03  0.60578418544E+03 0.  0.
        1    1    3    3  502    0 -0.55527769729E+02 -0.23055715503E+02 -0.38541579120E+03  0.39007721205E+03  0.50400001928E-02 0.  1.
       -1    1    3    3    0  502  0.55527769729E+02  0.23055715503E+02  0.22802570208E+03  0.23581904093E+03  0.50400001928E-02 0. -1.
</event>
<event>
 5   0  0.8420604E-02  0.5591444E+03  0.7818609E-02  0.9993992E-01
       -2   -1    0    0    0  501  0.00000000000E+00  0.00000000000E+00  0.47476580464E+02  0.47476580532E+02  0.25500000920E-02 0. -1.
        2   -1    0    0  501    0  0.00000000000E+00  0.00000000000E+00 -0.16462982546E+04  0.16462982546E+04  0.25500000920E-02 0.  1.
    10030    2    1    2    0    0  0.00000000000E+00  0.00000000000E+00 -0.15988216742E+04  0.16937748352E+04  0.55914438784E+03 0.  0.
        2    1    3    3  502    0  0.23782138156E+03 -0.11229109659E+03 -0.10866656952E+04  0.11180387440E+04  0.25500000920E-02 0.  1.
       -2    1    3    3    0  502 -0.23782138156E+03  0.11229109659E+03 -0.51215597897E+03  0.57573609119E+03  0.25500000920E-02 0. -1.
</event>
<event>
 5   0  0.3437375E-02  0.5925979E+03  0.7818609E-02  0.9920883E-01
       -3   -1    0    0    0  501  0.00000000000E+00  0.00000000000E+00  0.19210944185E+03  0.19210946840E+03  0.10100000352E+00 0.  1.
        3   -1    0    0  501    0  0.00000000000E+00  0.00000000000E+00 -0.45699504678E+03  0.45699505794E+03  0.10100000352E+00 0. -1.
    10030    2    1    2    0    0  0.00000000000E+00  0.00000000000E+00 -0.26488560493E+03  0.64910452634E+03  0.59259792643E+03 0.  0.
        4    1    3    3  502    0  0.96458354155E+02  0.79839165587E+02 -0.42658759214E+03  0.44458642930E+03  0.12699999809E+01 0. -1.
       -4    1    3    3    0  502 -0.96458354155E+02 -0.79839165587E+02  0.16170198721E+03  0.20451809704E+03  0.12699999809E+01 0.  1.
</event>
<event>
 5   0  0.4881209E-02  0.6009299E+03  0.7818609E-02  0.9903479E-01
        1   -1    0    0  501    0  0.00000000000E+00  0.00000000000E+00  0.18526912512E+03  0.18526912519E+03  0.50400001928E-02 0. -1.
       -1   -1    0    0    0  501  0.00000000000E+00  0.00000000000E+00 -0.48728670783E+03  0.48728670785E+03  0.50400001928E-02 0.  1.
    10030    2    1    2    0    0  0.00000000000E+00  0.00000000000E+00 -0.30201758270E+03  0.67255583304E+03  0.60092988634E+03 0.  0.
        3    1    3    3  502    0 -0.14242380658E+03  0.10044265917E+03  0.12292105322E+03  0.21326711887E+03  0.10100000352E+00 0. -1.
       -3    1    3    3    0  502  0.14242380658E+03 -0.10044265917E+03 -0.42493863593E+03  0.45928871418E+03  0.10100000352E+00 0.  1.
</event>
<event>
 5   0  0.4987389E-02  0.6069346E+03  0.7818609E-02  0.9891123E-01
        1   -1    0    0  501    0  0.00000000000E+00  0.00000000000E+00  0.56033290256E+03  0.56033290258E+03  0.50400001928E-02 0. -1.
       -1   -1    0    0    0  501  0.00000000000E+00  0.00000000000E+00 -0.16435301032E+03  0.16435301040E+03  0.50400001928E-02 0.  1.
    10030    2    1    2    0    0  0.00000000000E+00  0.00000000000E+00  0.39597989224E+03  0.72468591298E+03  0.60693459072E+03 0.  0.
        1    1    3    3  502    0  0.25481577048E+03  0.16349065673E+03  0.22281064094E+03  0.37590537834E+03  0.50400001928E-02 0.  1.
       -1    1    3    3    0  502 -0.25481577048E+03 -0.16349065673E+03  0.17316925130E+03  0.34878053464E+03  0.50400001928E-02 0. -1.
</event>
<event>
 5   0  0.8699746E-02  0.5994021E+03  0.7818609E-02  0.9906647E-01
        2   -1    0    0  501    0  0.00000000000E+00  0.00000000000E+00  0.34839686827E+03  0.34839686828E+03  0.25500000920E-02 0. -1.
       -2   -1    0    0    0  501  0.00000000000E+00  0.00000000000E+00 -0.25781147210E+03  0.25781147212E+03  0.25500000920E-02 0.  1.
    10030    2    1    2    0    0  0.00000000000E+00  0.00000000000E+00  0.90585396169E+02  0.60620834040E+03  0.59940206704E+03 0.  0.
        3    1    3    3  502    0 -0.20967462087E+03 -0.74312387427E+02 -0.15782336969E+03  0.27275264212E+03  0.10100000352E+00 0.  1.
       -3    1    3    3    0  502  0.20967462087E+03  0.74312387427E+02  0.24840876586E+03  0.33345569828E+03  0.10100000352E+00 0. -1.
</event>
<event>
 5   0  0.8699746E-02  0.5960823E+03  0.7818609E-02  0.9913568E-01
        2   -1    0    0  501    0  0.00000000000E+00  0.00000000000E+00  0.47568605843E+03  0.47568605844E+03  0.25500000920E-02 0. -1.
       -2   -1    0    0    0  501  0.00000000000E+00  0.00000000000E+00 -0.18673769258E+03  0.18673769260E+03  0.25500000920E-02 0.  1.
    10030    2    1    2    0    0  0.00000000000E+00  0.00000000000E+00  0.28894836585E+03  0.66242375104E+03  0.59608226598E+03 0.  0.
        3    1    3    3  502    0 -0.27555661142E+03  0.10463222136E+03  0.19353709460E+03  0.35261305283E+03  0.10100000352E+00 0. -1.
       -3    1    3    3    0  502  0.27555661142E+03 -0.10463222136E+03  0.95411271248E+02  0.30981069821E+03  0.10100000352E+00 0.  1.
</event>
<event>
 5   0  0.4987389E-02  0.6121609E+03  0.7818609E-02  0.9880492E-01
        1   -1    0    0  501    0  0.00000000000E+00  0.00000000000E+00  0.34894757685E+03  0.34894757689E+03  0.50400001928E-02 0. -1.
       -1   -1    0    0    0  501  0.00000000000E+00  0.00000000000E+00 -0.26847945814E+03  0.26847945818E+03  0.50400001928E-02 0.  1.
    10030    2    1    2    0    0  0.00000000000E+00  0.00000000000E+00  0.80468118713E+02  0.61742703507E+03  0.61216094739E+03 0.  0.
        1    1    3    3  502    0 -0.23603992952E+03 -0.17493447662E+03  0.12681150316E+03  0.31999699498E+03  0.50400001928E-02 0. -1.
       -1    1    3    3    0  502  0.23603992952E+03  0.17493447662E+03 -0.46343384447E+02  0.29743004009E+03  0.50400001928E-02 0.  1.
</event>
<event>
 5   0  0.3437375E-02  0.5643484E+03  0.7818609E-02  0.9982263E-01
        3   -1    0    0  501    0  0.00000000000E+00  0.00000000000E+00  0.53217485633E+02  0.53217581476E+02  0.10100000352E+00 0. -1.
       -3   -1    0    0    0  501  0.00000000000E+00  0.00000000000E+00 -0.14961662529E+04  0.14961662563E+04  0.10100000352E+00 0.  1.
    10030    2    1    2    0    0  0.00000000000E+00  0.00000000000E+00 -0.14429487672E+04  0.15493838377E+04  0.56434841350E+03 0.  0.
        1    1    3    3  502    0 -0.15940199583E+03  0.20576106282E+03 -0.42228870278E+03  0.49605882692E+03  0.50400001928E-02 0. -1.
       -1    1    3    3    0  502  0.15940199583E+03 -0.20576106282E+03 -0.10206600644E+04  0.10533250108E+04  0.50400001928E-02 0.  1.
</event>
<event>
 5   0  0.8207443E-02  0.5947563E+03  0.7818609E-02  0.9916345E-01
       -2   -1    0    0    0  501  0.00000000000E+00  0.00000000000E+00  0.84646511347E+02  0.84646511386E+02  0.25500000920E-02 0.  1.
        2   -1    0    0  501    0  0.00000000000E+00  0.00000000000E+00 -0.10447419608E+04  0.10447419608E+04  0.25500000920E-02 0. -1.
    10030    2    1    2    0    0  0.00000000000E+00  0.00000000000E+00 -0.96009544945E+03  0.11293884722E+04  0.59475629383E+03 0.  0.
        1    1    3    3  502    0  0.40363274288E+02 -0.29406326326E+03 -0.44548102094E+03  0.53530901053E+03  0.50400001928E-02 0.  1.
       -1    1    3    3    0  502 -0.40363274288E+02  0.29406326326E+03 -0.51461442851E+03  0.59407946165E+03  0.50400001928E-02 0. -1.
</event>
<event>
 5   0  0.5166903E-02  0.6801862E+03  0.7818609E-02  0.9751729E-01
       -1   -1    0    0    0  501  0.00000000000E+00  0.00000000000E+00  0.27247713138E+03  0.27247713143E+03  0.50400001928E-02 0. -1.
        1   -1    0    0  501    0  0.00000000000E+00  0.00000000000E+00 -0.42448817742E+03  0.42448817745E+03  0.50400001928E-02 0.  1.
    10030    2    1    2    0    0  0.00000000000E+00  0.00000000000E+00 -0.15201104603E+03  0.69696530888E+03  0.68018621249E+03 0.  0.
        2    1    3    3  502    0  0.49613324420E+02 -0.63965645720E+02  0.26246128303E+03  0.27466162981E+03  0.25500000920E-02 0. -1.
       -2    1    3    3    0  502 -0.49613324420E+02  0.63965645720E+02 -0.41447232906E+03  0.42230367907E+03  0.25500000920E-02 0.  1.
</event>
<event>
 5   0  0.4987389E-02  0.5857389E+03  0.7818609E-02  0.9935443E-01
       -1   -1    0    0    0  501  0.00000000000E+00  0.00000000000E+00  0.38600566658E+03  0.38600566661E+03  0.50400001928E-02 0. -1.
        1   -1    0    0  501    0  0.00000000000E+00  0.00000000000E+00 -0.22220530253E+03  0.22220530259E+03  0.50400001928E-02 0.  1.
    10030    2    1    2    0    0  0.00000000000E+00  0.00000000000E+00  0.16380036404E+03  0.60821096920E+03  0.58573886997E+03 0.  0.
        1    1    3    3  502    0  0.12702187706E+03  0.50639418220E+02  0.35082197939E+03  0.37653017034E+03  0.50400001928E-02 0. -1.
       -1    1    3    3    0  502 -0.12702187706E+03 -0.50639418220E+02 -0.18702161534E+03  0.23168079886E+03  0.50400001928E-02 0.  1.
</event>
<event>
 5   0  0.3437375E-02  0.6070920E+03  0.7818609E-02  0.9890801E-01
        4   -1    0    0  501    0  0.00000000000E+00  0.00000000000E+00  0.47462263819E+03  0.47462433733E+03  0.12699999809E+01 0.  1.
       -4   -1    0    0    0  501  0.00000000000E+00  0.00000000000E+00 -0.19412939675E+03  0.19413355089E+03  0.12699999809E+01 0. -1.
    10030    2    1    2    0    0  0.00000000000E+00  0.00000000000E+00  0.28049324144E+03  0.66875788822E+03  0.60709196549E+03 0.  0.
        2    1    3    3  502    0 -0.25745190421E+03 -0.15490577206E+03  0.92701368412E+02  0.31443731475E+03  0.25500000920E-02 0.  1.
       -2    1    3    3    0  502  0.25745190421E+03  0.15490577206E+03  0.18779187303E+03  0.35432057347E+03  0.25500000920E-02 0. -1.
</event>
<event>
 5   0  0.8207443E-02  0.6193266E+03  0.7818609E-02  0.9866101E-01
        2   -1    0    0  501    0  0.00000000000E+00  0.00000000000E+00  0.89570659804E+03  0.89570659804E+03  0.25500000920E-02 0.  1.
       -2   -1    0    0    0  501  0.00000000000E+00  0.00000000000E+00 -0.10705664822E+03  0.10705664825E+03  0.25500000920E-02 0. -1.
    10030    2    1    2    0    0  0.00000000000E+00  0.00000000000E+00  0.78864994981E+03  0.10027632463E+04  0.61932655746E+03 0.  0.
        1    1    3    3  502    0  0.25923851783E+03  0.93735712539E+02  0.16591813942E+03  0.32174496414E+03  0.50400001928E-02 0.  1.
       -1    1    3    3    0  502 -0.25923851783E+03 -0.93735712539E+02  0.62273181039E+03  0.68101828216E+03  0.50400001928E-02 0. -1.
</event>
<event>
 5   0  0.5166903E-02  0.6172988E+03  0.7818609E-02  0.9870153E-01
       -1   -1    0    0    0  501  0.00000000000E+00  0.00000000000E+00  0.12024452614E+03  0.12024452625E+03  0.50400001928E-02 0.  1.
        1   -1    0    0  501    0  0.00000000000E+00  0.00000000000E+00 -0.79225597018E+03  0.79225597019E+03  0.50400001928E-02 0. -1.
    10030    2    1    2    0    0  0.00000000000E+00  0.00000000000E+00 -0.67201144403E+03  0.91250049644E+03  0.61729877295E+03 0.  0.
        2    1    3    3  502    0 -0.78416457076E+01  0.30229446328E+03 -0.24463085181E+03  0.38895717965E+03  0.25500000920E-02 0.  1.
       -2    1    3    3    0  502  0.78416457076E+01 -0.30229446328E+03 -0.42738059222E+03  0.52354331679E+03  0.25500000920E-02 0. -1.
</event>
<event>
 5   0  0.5166903E-02  0.5916557E+03  0.7818609E-02  0.9922871E-01
        1   -1    0    0  501    0  0.00000000000E+00  0.00000000000E+00  0.35993786068E+03  0.35993786072E+03  0.50400001928E-02 0.  1.
       -1   -1    0    0    0  501  0.00000000000E+00  0.00000000000E+00 -0.24313670994E+03  0.24313671000E+03  0.50400001928E-02 0. -1.
    10030    2    1    2    0    0  0.00000000000E+00  0.00000000000E+00  0.11680115074E+03  0.60307457072E+03  0.59165566762E+03 0.  0.
        2    1    3    3  502    0 -0.13332015746E+03  0.24998538990E+03 -0.28372610647E+02  0.28473139025E+03  0.25500000920E-02 0. -1.
       -2    1    3    3    0  502  0.13332015746E+03 -0.24998538990E+03  0.14517376139E+03  0.31834318047E+03  0.25500000920E-02 0.  1.
</event>
<event>
 5   0  0.8420604E-02  0.6241665E+03  0.7818609E-02  0.9856499E-01
       -2   -1    0    0    0  501  0.00000000000E+00  0.00000000000E+00  0.24362260262E+03  0.24362260264E+03  0.25500000920E-02 0.  1.
        2   -1    0    0  501    0  0.00000000000E+00  0.00000000000E+00 -0.39978204128E+03  0.39978204129E+03  0.25500000920E-02 0. -1.
    10030    2    1    2    0    0  0.00000000000E+00  0.00000000000E+00 -0.15615943865E+03  0.64340464392E+03  0.62416645660E+03 0.  0.
        2    1    3    3  502    0  0.15996903297E+03 -0.97131632758E+02  0.17936035320E+03  0.25921956311E+03  0.25500000920E-02 0.  1.
       -2    1    3    3    0  502 -0.15996903297E+03  0.97131632758E+02 -0.33551979185E+03  0.38418508082E+03  0.25500000920E-02 0. -1.
</event>
<event>
 5   0  0.5190380E-02  0.6062657E+03  0.7818609E-02  0.9892491E-01
        1   -1    0    0  501    0  0.00000000000E+00  0.00000000000E+00  0.30185639851E+04  0.30185639851E+04  0.50400001928E-02 0.  1.
       -1   -1    0    0    0  501  0.00000000000E+00  0.00000000000E+00 -0.30441466889E+02  0.30441467306E+02  0.50400001928E-02 0. -1.
    10030    2    1    2    0    0  0.00000000000E+00  0.00000000000E+00  0.29881225182E+04  0.30490054524E+04  0.60626567195E+03 0.  0.
        5    1    3    3  502    0 -0.29756614617E+02 -0.28191092051E+03  0.20335706149E+04  0.20532390896E+04  0.46999998093E+01 0.  1.
       -5    1    3    3    0  502  0.29756614617E+02  0.28191092051E+03  0.95455190328E+03  0.99576636279E+03  0.46999998093E+01 0. -1.
</event>
<event>
 5   0  0.4987389E-02  0.6255824E+03  0.7818609E-02  0.9853708E-01
        1   -1    0    0  501    0  0.00000000000E+00  0.00000000000E+00  0.44845135614E+03  0.44845135617E+03  0.50400001928E-02 0. -1.
       -1   -1    0    0    0  501  0.00000000000E+00  0.00000000000E+00 -0.21816933565E+03  0.21816933570E+03  0.50400001928E-02 0.  1.
    10030    2    1    2    0    0  0.00000000000E+00  0.00000000000E+00  0.23028202050E+03  0.66662069188E+03  0.62558239895E+03 0.  0.
        1    1    3    3  502    0  0.21626262969E+03  0.63700818948E+02  0.34618468498E+03  0.41312365640E+03  0.50400001928E-02 0. -1.
       -1    1    3    3    0  502 -0.21626262969E+03 -0.63700818948E+02 -0.11590266448E+03  0.25349703548E+03  0.50400001928E-02 0.  1.
</event>
<event>
 5   0  0.8817544E-02  0.6056298E+03  0.7818609E-02  0.9893794E-01
       -2   -1    0    0    0  501  0.00000000000E+00  0.00000000000E+00  0.19526275698E+03  0.19526275699E+03  0.25500000920E-02 0.  1.
        2   -1    0    0  501    0  0.00000000000E+00  0.00000000000E+00 -0.46960758145E+03  0.46960758146E+03  0.25500000920E-02 0. -1.
    10030    2    1    2    0    0  0.00000000000E+00  0.00000000000E+00 -0.27434482447E+03  0.66487033845E+03  0.60562982442E+03 0.  0.
        5    1    3    3  502    0  0.17773785487E+03  0.22469047402E+03 -0.24472607634E+03  0.37681493682E+03  0.46999998093E+01 0. -1.
       -5    1    3    3    0  502 -0.17773785487E+03 -0.22469047402E+03 -0.29618748130E+02  0.28805540163E+03  0.46999998093E+01 0.  1.
</event>
<event>
 5   0  0.4881209E-02  0.5908592E+03  0.7818609E-02  0.9924554E-01
       -1   -1    0    0    0  501  0.00000000000E+00  0.00000000000E+00  0.35923324579E+03  0.35923324583E+03  0.50400001928E-02 0. -1.
        1   -1    0    0  501    0  0.00000000000E+00  0.00000000000E+00 -0.24295817714E+03  0.24295817720E+03  0.50400001928E-02 0.  1.
    10030    2    1    2    0    0  0.00000000000E+00  0.00000000000E+00  0.11627506865E+03  0.60219142303E+03  0.59085922044E+03 0.  0.
        3    1    3    3  502    0  0.47003965630E+02 -0.21163543595E+03 -0.14640975889E+03  0.26160037888E+03  0.10100000352E+00 0.  1.
       -3    1    3    3    0  502 -0.47003965630E+02  0.21163543595E+03  0.26268482754E+03  0.34059104415E+03  0.10100000352E+00 0. -1.
</event>
<event>
 5   0  0.8420604E-02  0.6031684E+03  0.7818609E-02  0.9898854E-01
        2   -1    0    0  501    0  0.00000000000E+00  0.00000000000E+00  0.18860628749E+04  0.18860628749E+04  0.25500000920E-02 0.  1.
       -2   -1    0    0    0  501  0.00000000000E+00  0.00000000000E+00 -0.48223756493E+02  0.48223756560E+02  0.25500000920E-02 0. -1.
    10030    2    1    2    0    0  0.00000000000E+00  0.00000000000E+00  0.18378391184E+04  0.19342866315E+04  0.60316842383E+03 0.  0.
        2    1    3    3  502    0 -0.58897726081E+02 -0.16672228170E+03  0.17023941733E+04  0.17115522729E+04  0.25500000920E-02 0.  1.
       -2    1    3    3    0  502  0.58897726081E+02  0.16672228170E+03  0.13544494511E+03  0.22273435863E+03  0.25500000920E-02 0. -1.
</event>
<event>
 5   0  0.8420604E-02  0.5682686E+03  0.7818609E-02  0.9973517E-01
        2   -1    0    0  501    0  0.00000000000E+00  0.00000000000E+00  0.50858972565E+03  0.50858972566E+03  0.25500000920E-02 0.  1.
       -2   -1    0    0    0  501  0.00000000000E+00  0.00000000000E+00 -0.15873756178E+03  0.15873756180E+03  0.25500000920E-02 0. -1.
    10030    2    1    2    0    0  0.00000000000E+00  0.00000000000E+00  0.34985216387E+03  0.66732728746E+03  0.56826857385E+03 0.  0.
        2    1    3    3  502    0  0.11537744283E+03 -0.25121353898E+03  0.25203941605E+03  0.37409098322E+03  0.25500000920E-02 0.  1.
       -2    1    3    3    0  502 -0.11537744283E+03  0.25121353898E+03  0.97812747823E+02  0.29323630424E+03  0.25500000920E-02 0. -1.
</event>
<event>
 5   0  0.4987389E-02  0.5992830E+03  0.7818609E-02  0.9906895E-01
        1   -1    0    0  501    0  0.00000000000E+00  0.00000000000E+00  0.31783417119E+02  0.31783417518E+02  0.50400001928E-02 0. -1.
       -1   -1    0    0    0  501  0.00000000000E+00  0.00000000000E+00 -0.28249016721E+04  0.28249016721E+04  0.50400001928E-02 0.  1.
    10030    2    1    2    0    0  0.00000000000E+00  0.00000000000E+00 -0.27931182550E+04  0.28566850896E+04  0.59928300073E+03 0.  0.
        1    1    3    3  502    0  0.26388504955E+03 -0.79841694777E+02 -0.83708962195E+03  0.88132233082E+03  0.50400001928E-02 0. -1.
       -1    1    3    3    0  502 -0.26388504955E+03  0.79841694777E+02 -0.19560286330E+04  0.19753627588E+04  0.50400001928E-02 0.  1.
</event>
<event>
 5   0  0.8699746E-02  0.5951147E+03  0.7818609E-02  0.9915594E-01
       -2   -1    0    0    0  501  0.00000000000E+00  0.00000000000E+00  0.26597013243E+03  0.26597013244E+03  0.25500000920E-02 0. -1.
        2   -1    0    0  501    0  0.00000000000E+00  0.00000000000E+00 -0.33289597723E+03  0.33289597724E+03  0.25500000920E-02 0.  1.
    10030    2    1    2    0    0  0.00000000000E+00  0.00000000000E+00 -0.66925844800E+02  0.59886610968E+03  0.59511473567E+03 0.  0.
        3    1    3    3  502    0 -0.17035528269E+03 -0.22147411025E+03  0.69498575478E+02  0.28792666782E+03  0.10100000352E+00 0.  1.
       -3    1    3    3    0  502  0.17035528269E+03  0.22147411025E+03 -0.13642442028E+03  0.31093944185E+03  0.10100000352E+00 0. -1.
</event>
<event>
 5   0  0.8420604E-02  0.6112122E+03  0.7818609E-02  0.9882414E-01
        2   -1    0    0  501    0  0.00000000000E+00  0.00000000000E+00  0.12392444702E+03  0.12392444704E+03  0.25500000920E-02 0.  1.
       -2   -1    0    0    0  501  0.00000000000E+00  0.00000000000E+00 -0.75364527461E+03  0.75364527462E+03  0.25500000920E-02 0. -1.
    10030    2    1    2    0    0  0.00000000000E+00  0.00000000000E+00 -0.62972082760E+03  0.87756972166E+03  0.61121215275E+03 0.  0.
        2    1    3    3  502    0  0.40503017100E+02  0.10077524356E+03 -0.72500018166E+03  0.73309031335E+03  0.25500000920E-02 0. -1.
       -2    1    3    3    0  502 -0.40503017100E+02 -0.10077524356E+03  0.95279354064E+02  0.14447940831E+03  0.25500000920E-02 0.  1.
</event>
<event>
 5   0  0.4881209E-02  0.6401473E+03  0.7818609E-02  0.9825445E-01
        1   -1    0    0  501    0  0.00000000000E+00  0.00000000000E+00  0.38141998348E+03  0.38141998351E+03  0.50400001928E-02 0.  1.
       -1   -1    0    0    0  501  0.00000000000E+00  0.00000000000E+00 -0.26859403436E+03  0.26859403441E+03  0.50400001928E-02 0. -1.
    10030    2    1    2    0    0  0.00000000000E+00  0.00000000000E+00  0.11282594911E+03  0.65001401792E+03  0.64014727110E+03 0.  0.
        3    1    3    3  502    0  0.14015707680E+03  0.24535266680E+03  0.20908056598E+03  0.35150623117E+03  0.10100000352E+00 0.  1.
       -3    1    3    3    0  502 -0.14015707680E+03 -0.24535266680E+03 -0.96254616864E+02  0.29850778675E+03  0.10100000352E+00 0. -1.
</event>
<event>
 5   0  0.4881209E-02  0.6007477E+03  0.7818609E-02  0.9903856E-01
       -1   -1    0    0    0  501  0.00000000000E+00  0.00000000000E+00  0.16621698743E+03  0.16621698751E+03  0.50400001928E-02 0.  1.
        1   -1    0    0  501    0  0.00000000000E+00  0.00000000000E+00 -0.54281119435E+03  0.54281119437E+03  0.50400001928E-02 0. -1.
    10030    2    1    2    0    0  0.00000000000E+00  0.00000000000E+00 -0.37659420692E+03  0.70902818187E+03  0.60074767250E+03 0.  0.
        3    1    3    3  502    0  0.23050286191E+03 -0.12795949697E+03 -0.35818334046E+03  0.44474770129E+03  0.10100000352E+00 0. -1.
       -3    1    3    3    0  502 -0.23050286191E+03  0.12795949697E+03 -0.18410866454E+02  0.26428048059E+03  0.10100000352E+00 0.  1.
</event>
<event>
 5   0  0.5125031E-02  0.5765879E+03  0.7818609E-02  0.9955206E-01
       -1   -1    0    0    0  501  0.00000000000E+00  0.00000000000E+00  0.98220402623E+02  0.98220402752E+02  0.50400001928E-02 0.  1.
        1   -1    0    0  501    0  0.00000000000E+00  0.00000000000E+00 -0.84619291014E+03  0.84619291015E+03  0.50400001928E-02 0. -1.
    10030    2    1    2    0    0  0.00000000000E+00  0.00000000000E+00 -0.74797250752E+03  0.94441331291E+03  0.57658792356E+03 0.  0.
        4    1    3    3  502    0 -0.15171141866E+03 -0.17598005555E+03 -0.94448534171E+02  0.25081362206E+03  0.12699999809E+01 0.  1.
       -4    1    3    3    0  502  0.15171141866E+03  0.17598005555E+03 -0.65352397335E+03  0.69359969085E+03  0.12699999809E+01 0. -1.
</event>
<event>
 5   0  0.8699746E-02  0.5903741E+03  0.7818609E-02  0.9925580E-01
       -2   -1    0    0    0  501  0.00000000000E+00  0.00000000000E+00  0.19409150708E+03  0.19409150710E+03  0.25500000920E-02 0. -1.
        2   -1    0    0  501    0  0.00000000000E+00  0.00000000000E+00 -0.44893979416E+03  0.44893979416E+03  0.25500000920E-02 0.  1.
    10030    2    1    2    0    0  0.00000000000E+00  0.00000000000E+00 -0.25484828708E+03  0.64303130126E+03  0.59037412289E+03 0.  0.
        3    1    3    3  502    0  0.20272612592E+03  0.79117181968E+02 -0.34465732638E+03  0.40761022244E+03  0.10100000352E+00 0.  1.
       -3    1    3    3    0  502 -0.20272612592E+03 -0.79117181968E+02  0.89809039301E+02  0.23542107882E+03  0.10100000352E+00 0. -1.
</event>
<event>
 5   0  0.8420604E-02  0.6111748E+03  0.7818609E-02  0.9882489E-01
        2   -1    0    0  501    0  0.00000000000E+00  0.00000000000E+00  0.97213871939E+03  0.97213871939E+03  0.25500000920E-02 0. -1.
       -2   -1    0    0    0  501  0.00000000000E+00  0.00000000000E+00 -0.96060005578E+02  0.96060005612E+02  0.25500000920E-02 0.  1.
    10030    2    1    2    0    0  0.00000000000E+00  0.00000000000E+00  0.87607871381E+03  0.10681987250E+04  0.61117477313E+03 0.  0.
        2    1    3    3  502    0  0.99334766876E+02  0.15744790833E+03  0.14490644654E+02  0.18672765874E+03  0.25500000920E-02 0.  1.
       -2    1    3    3    0  502 -0.99334766876E+02 -0.15744790833E+03  0.86158806916E+03  0.88147106627E+03  0.25500000920E-02 0. -1.
</event>
<event>
 5   0  0.8575590E-02  0.5998666E+03  0.7818609E-02  0.9905683E-01
        2   -1    0    0  501    0  0.00000000000E+00  0.00000000000E+00  0.97433850056E+03  0.97433850057E+03  0.25500000920E-02 0. -1.
       -2   -1    0    0    0  501  0.00000000000E+00  0.00000000000E+00 -0.92329302438E+02  0.92329302473E+02  0.25500000920E-02 0.  1.
    10030    2    1    2    0    0  0.00000000000E+00  0.00000000000E+00  0.88200919812E+03  0.10666678030E+04  0.59986663223E+03 0.  0.
        4    1    3    3  502    0  0.16161310528E+03 -0.15962166736E+03  0.78927507583E+03  0.82131274842E+03  0.12699999809E+01 0. -1.
       -4    1    3    3    0  502 -0.16161310528E+03  0.15962166736E+03  0.92734122294E+02  0.24535505462E+03  0.12699999809E+01 0.  1.
</event>
<event>
 5   0  0.5166903E-02  0.6007047E+03  0.7818609E-02  0.9903945E-01
       -1   -1    0    0    0  501  0.00000000000E+00  0.00000000000E+00  0.62702919237E+02  0.62702919439E+02  0.50400001928E-02 0.  1.
        1   -1    0    0  501    0  0.00000000000E+00  0.00000000000E+00 -0.14387134881E+04  0.14387134881E+04  0.50400001928E-02 0. -1.
    10030    2    1    2    0    0  0.00000000000E+00  0.00000000000E+00 -0.13760105688E+04  0.15014164075E+04  0.60070470551E+03 0.  0.
        2    1    3    3  502    0 -0.23345824834E+03 -0.82444386641E+02 -0.26301698148E+03  0.36121705824E+03  0.25500000920E-02 0.  1.
       -2    1    3    3    0  502  0.23345824834E+03  0.82444386641E+02 -0.11129935874E+04  0.11401993493E+04  0.25500000920E-02 0. -1.
</event>
<event>
 5   0  0.5190380E-02  0.6077081E+03  0.7818609E-02  0.9889542E-01
        1   -1    0    0  501    0  0.00000000000E+00  0.00000000000E+00  0.42549537774E+03  0.42549537777E+03  0.50400001928E-02 0. -1.
       -1   -1    0    0    0  501  0.00000000000E+00  0.00000000000E+00 -0.21698774033E+03  0.21698774039E+03  0.50400001928E-02 0.  1.
    10030    2    1    2    0    0  0.00000000000E+00  0.00000000000E+00  0.20850763741E+03  0.64248311816E+03  0.60770808967E+03 0.  0.
        5    1    3    3  502    0  0.93285608883E+02 -0.12653083900E+03 -0.17060985540E+03  0.23203894242E+03  0.46999998093E+01 0.  1.
       -5    1    3    3    0  502 -0.93285608883E+02  0.12653083900E+03  0.37911749281E+03  0.41044417574E+03  0.46999998093E+01 0. -1.
</event>
<event>
 5   0  0.8207443E-02  0.6181958E+03  0.7818609E-02  0.9868358E-01
        2   -1    0    0  501    0  0.00000000000E+00  0.00000000000E+00  0.89982753265E+03  0.89982753266E+03  0.25500000920E-02 0.  1.
       -2   -1    0    0    0  501  0.00000000000E+00  0.00000000000E+00 -0.10617759376E+03  0.10617759379E+03  0.25500000920E-02 0. -1.
    10030    2    1    2    0    0  0.00000000000E+00  0.00000000000E+00  0.79364993889E+03  0.10060051265E+04  0.61819583381E+03 0.  0.
        1    1    3    3  502    0 -0.19387366726E+03  0.21808218996E+03  0.56273770310E+03  0.63389317945E+03  0.50400001928E-02 0. -1.
       -1    1    3    3    0  502  0.19387366726E+03 -0.21808218996E+03  0.23091223579E+03  0.37211194700E+03  0.50400001928E-02 0.  1.
</event>
<event>
 5   0  0.8420604E-02  0.6082123E+03  0.7818609E-02  0.9888513E-01
        2   -1    0    0  501    0  0.00000000000E+00  0.00000000000E+00  0.11423268984E+04  0.11423268984E+04  0.25500000920E-02 0. -1.
       -2   -1    0    0    0  501  0.00000000000E+00  0.00000000000E+00 -0.80958045156E+02  0.80958045196E+02  0.25500000920E-02 0.  1.
    10030    2    1    2    0    0  0.00000000000E+00  0.00000000000E+00  0.10613688532E+04  0.12232849436E+04  0.60821230718E+03 0.  0.
        2    1    3    3  502    0  0.76474780137E+02  0.13218513383E+03  0.10596136558E+04  0.10705617223E+04  0.25500000920E-02 0. -1.
       -2    1    3    3    0  502 -0.76474780137E+02 -0.13218513383E+03  0.17551974179E+01  0.15272322131E+03  0.25500000920E-02 0.  1.
</event>
<event>
 5   0  0.4987389E-02  0.6027440E+03  0.7818609E-02  0.9899729E-01
        1   -1    0    0  501    0  0.00000000000E+00  0.00000000000E+00  0.53552032876E+03  0.53552032878E+03  0.50400001928E-02 0.  1.
       -1   -1    0    0    0  501  0.00000000000E+00  0.00000000000E+00 -0.16960157280E+03  0.16960157287E+03  0.50400001928E-02 0. -1.
    10030    2    1    2    0    0  0.00000000000E+00  0.00000000000E+00  0.36591875596E+03  0.70512190166E+03  0.60274402547E+03 0.  0.
        1    1    3    3  502    0 -0.26508717423E+03 -0.10462216053E+03  0.29762934224E+03  0.41206823683E+03  0.50400001928E-02 0. -1.
       -1    1    3    3    0  502  0.26508717423E+03  0.10462216053E+03  0.68289413719E+02  0.29305366483E+03  0.50400001928E-02 0.  1.
</event>
<event>
 5   0  0.4881209E-02  0.6715958E+03  0.7818609E-02  0.9767079E-01
       -1   -1    0    0    0  501  0.00000000000E+00  0.00000000000E+00  0.16109417451E+03  0.16109417459E+03  0.50400001928E-02 0. -1.
        1   -1    0    0  501    0  0.00000000000E+00  0.00000000000E+00 -0.69996460825E+03  0.69996460827E+03  0.50400001928E-02 0.  1.
    10030    2    1    2    0    0  0.00000000000E+00  0.00000000000E+00 -0.53887043374E+03  0.86105878286E+03  0.67159577364E+03 0.  0.
        3    1    3    3  502    0 -0.11769592108E+03  0.10426552121E+03 -0.64984916521E+03  0.66860120885E+03  0.10100000352E+00 0.  1.
       -3    1    3    3    0  502  0.11769592108E+03 -0.10426552121E+03  0.11097873146E+03  0.19245757400E+03  0.10100000352E+00 0. -1.
</event>
<event>
 5   0  0.5125031E-02  0.6034318E+03  0.7818609E-02  0.9898312E-01
        1   -1    0    0  501    0  0.00000000000E+00  0.00000000000E+00  0.34292622338E+03  0.34292622342E+03  0.50400001928E-02 0. -1.
       -1   -1    0    0    0  501  0.00000000000E+00  0.00000000000E+00 -0.26545791441E+03  0.26545791445E+03  0.50400001928E-02 0.  1.
    10030    2    1    2    0    0  0.00000000000E+00  0.00000000000E+00  0.77468308975E+02  0.60838413787E+03  0.60343178597E+03 0.  0.
        4    1    3    3  502    0  0.12926334632E+03  0.19670780780E+02 -0.23540715812E+03  0.26928441342E+03  0.12699999809E+01 0.  1.
       -4    1    3    3    0  502 -0.12926334632E+03 -0.19670780780E+02  0.31287546709E+03  0.33909972445E+03  0.12699999809E+01 0. -1.
</event>
<event>
 5   0  0.5190380E-02  0.5998163E+03  0.7818609E-02  0.9905787E-01
        1   -1    0    0  501    0  0.00000000000E+00  0.00000000000E+00  0.33352077436E+03  0.33352077439E+03  0.50400001928E-02 0.  1.
       -1   -1    0    0    0  501  0.00000000000E+00  0.00000000000E+00 -0.26968303923E+03  0.26968303928E+03  0.50400001928E-02 0. -1.
    10030    2    1    2    0    0  0.00000000000E+00  0.00000000000E+00  0.63837735124E+02  0.60320381367E+03  0.59981629221E+03 0.  0.
        5    1    3    3  502    0  0.15873297827E+03  0.69277115030E+01 -0.22383741407E+03  0.27453493313E+03  0.46999998093E+01 0. -1.
       -5    1    3    3    0  502 -0.15873297827E+03 -0.69277115030E+01  0.28767514919E+03  0.32866888054E+03  0.46999998093E+01 0.  1.
</event>
<event>
 5   0  0.4987389E-02  0.5875496E+03  0.7818609E-02  0.9931579E-01
        1   -1    0    0  501    0  0.00000000000E+00  0.00000000000E+00  0.33974351988E+03  0.33974351992E+03  0.50400001928E-02 0.  1.
       -1   -1    0    0    0  501  0.00000000000E+00  0.00000000000E+00 -0.25402580462E+03  0.25402580467E+03  0.50400001928E-02 0. -1.
    10030    2    1    2    0    0  0.00000000000E+00  0.00000000000E+00  0.85717715259E+02  0.59376932459E+03  0.58754955886E+03 0.  0.
        1    1    3    3  502    0  0.20546526225E+03 -0.20996931675E+03  0.43596678984E+02  0.29699117565E+03  0.50400001928E-02 0.  1.
       -1    1    3    3    0  502 -0.20546526225E+03  0.20996931675E+03  0.42121036275E+02  0.29677814894E+03  0.50400001928E-02 0. -1.
</event>
<event>
 5   0  0.8699746E-02  0.6010185E+03  0.7818609E-02  0.9903295E-01
       -2   -1    0    0    0  501  0.00000000000E+00  0.00000000000E+00  0.51793676816E+03  0.51793676817E+03  0.25500000920E-02 0. -1.
        2   -1    0    0  501    0  0.00000000000E+00  0.00000000000E+00 -0.17435682102E+03  0.17435682104E+03  0.25500000920E-02 0.  1.
    10030    2    1    2    0    0  0.00000000000E+00  0.00000000000E+00  0.34357994713E+03  0.69229358921E+03  0.60101849688E+03 0.  0.
        3    1    3    3  502    0  0.25406254067E+02 -0.10528631117E+03 -0.15109287753E+03  0.18590253604E+03  0.10100000352E+00 0.  1.
       -3    1    3    3    0  502 -0.25406254067E+02  0.10528631117E+03  0.49467282467E+03  0.50639105317E+03  0.10100000352E+00 0. -1.
</event>
<event>
 5   0  0.3437375E-02  0.6117547E+03  0.7818609E-02  0.9881314E-01
        3   -1    0    0  501    0  0.00000000000E+00  0.00000000000E+00  0.35806562430E+03  0.35806563854E+03  0.10100000352E+00 0. -1.
       -3   -1    0    0    0  501  0.00000000000E+00  0.00000000000E+00 -0.26129551841E+03  0.26129553793E+03  0.10100000352E+00 0.  1.
    10030    2    1    2    0    0  0.00000000000E+00  0.00000000000E+00  0.96770105887E+02  0.61936117647E+03  0.61175470045E+03 0.  0.
        5    1    3    3  502    0  0.45978404626E+02 -0.27700857203E+03 -0.74328867745E+02  0.29050754422E+03  0.46999998093E+01 0.  1.
       -5    1    3    3    0  502 -0.45978404626E+02  0.27700857203E+03  0.17109897363E+03  0.32885363225E+03  0.46999998093E+01 0. -1.
</event>
<event>
 5   0  0.5166903E-02  0.5476462E+03  0.7818609E-02  0.1002040E+00
        1   -1    0    0  501    0  0.00000000000E+00  0.00000000000E+00  0.10866786696E+04  0.10866786696E+04  0.50400001928E-02 0.  1.
       -1   -1    0    0    0  501  0.00000000000E+00  0.00000000000E+00 -0.68998395528E+02  0.68998395712E+02  0.50400001928E-02 0. -1.
    10030    2    1    2    0    0  0.00000000000E+00  0.00000000000E+00  0.10176802741E+04  0.11556770653E+04  0.54764618057E+03 0.  0.
        2    1    3    3  502    0  0.14181727464E+03  0.22993082990E+03  0.60318464640E+03  0.66091757700E+03  0.25500000920E-02 0.  1.
       -2    1    3    3    0  502 -0.14181727464E+03 -0.22993082990E+03  0.41449562770E+03  0.49475948835E+03  0.25500000920E-02 0. -1.
</event>
<event>
 5   0  0.3437375E-02  0.5976707E+03  0.7818609E-02  0.9910250E-01
       -3   -1    0    0    0  501  0.00000000000E+00  0.00000000000E+00  0.79767600613E+03  0.79767601253E+03  0.10100000352E+00 0. -1.
        3   -1    0    0  501    0  0.00000000000E+00  0.00000000000E+00 -0.11195340430E+03  0.11195344986E+03  0.10100000352E+00 0.  1.
    10030    2    1    2    0    0  0.00000000000E+00  0.00000000000E+00  0.68572260183E+03  0.90962946239E+03  0.59767070548E+03 0.  0.
        3    1    3    3  502    0 -0.54314315443E+02 -0.24209982640E+03  0.89373396360E+02  0.26372331141E+03  0.10100000352E+00 0.  1.
       -3    1    3    3    0  502  0.54314315443E+02  0.24209982640E+03  0.59634920547E+03  0.64590615098E+03  0.10100000352E+00 0. -1.
</event>
<event>
 5   0  0.8207443E-02  0.5820441E+03  0.7818609E-02  0.9943375E-01
        2   -1    0    0  501    0  0.00000000000E+00  0.00000000000E+00  0.11016753828E+04  0.11016753828E+04  0.25500000920E-02 0. -1.
       -2   -1    0    0    0  501  0.00000000000E+00  0.00000000000E+00 -0.76877294132E+02  0.76877294175E+02  0.25500000920E-02 0.  1.
    10030    2    1    2    0    0  0.00000000000E+00  0.00000000000E+00  0.10247980887E+04  0.11785526770E+04  0.58204406181E+03 0.  0.
        1    1    3    3  502    0  0.27308299820E+03  0.76162057835E+02  0.37933011345E+03  0.47356764876E+03  0.50400001928E-02 0.  1.
       -1    1    3    3    0  502 -0.27308299820E+03 -0.76162057835E+02  0.64546797525E+03  0.70498502825E+03  0.50400001928E-02 0. -1.
</event>
<event>
 5   0  0.5166903E-02  0.6005742E+03  0.7818609E-02  0.9904215E-01
       -1   -1    0    0    0  501  0.00000000000E+00  0.00000000000E+00  0.11022889313E+03  0.11022889325E+03  0.50400001928E-02 0.  1.
        1   -1    0    0  501    0  0.00000000000E+00  0.00000000000E+00 -0.81804638613E+03  0.81804638615E+03  0.50400001928E-02 0. -1.
    10030    2    1    2    0    0  0.00000000000E+00  0.00000000000E+00 -0.70781749300E+03  0.92827527940E+03  0.60057421767E+03 0.  0.
        2    1    3    3  502    0  0.24090560673E+03  0.58426678111E+02 -0.61586345372E+03  0.66388024651E+03  0.25500000920E-02 0. -1.
       -2    1    3    3    0  502 -0.24090560673E+03 -0.58426678111E+02 -0.91954039283E+02  0.26439503289E+03  0.25500000920E-02 0.  1.
</event>
<event>
 5   0  0.4881209E-02  0.6004069E+03  0.7818609E-02  0.9904562E-01
        1   -1    0    0  501    0  0.00000000000E+00  0.00000000000E+00  0.55271108295E+03  0.55271108297E+03  0.50400001928E-02 0.  1.
       -1   -1    0    0    0  501  0.00000000000E+00  0.00000000000E+00 -0.16305462528E+03  0.16305462535E+03  0.50400001928E-02 0. -1.
    10030    2    1    2    0    0  0.00000000000E+00  0.00000000000E+00  0.38965645767E+03  0.71576570833E+03  0.60040685723E+03 0.  0.
        3    1    3    3  502    0 -0.11172363916E+03 -0.14259542450E+03  0.48021053393E+03  0.51324243173E+03  0.10100000352E+00 0.  1.
       -3    1    3    3    0  502  0.11172363916E+03  0.14259542450E+03 -0.90554076254E+02  0.20252327659E+03  0.10100000352E+00 0. -1.
</event>
<event>
 5   0  0.8575590E-02  0.6105572E+03  0.7818609E-02  0.9883742E-01
        2   -1    0    0  501    0  0.00000000000E+00  0.00000000000E+00  0.15452104024E+04  0.15452104024E+04  0.25500000920E-02 0. -1.
       -2   -1    0    0    0  501  0.00000000000E+00  0.00000000000E+00 -0.60312181041E+02  0.60312181095E+02  0.25500000920E-02 0.  1.
    10030    2    1    2    0    0  0.00000000000E+00  0.00000000000E+00  0.14848982214E+04  0.16055225835E+04  0.61055715403E+03 0.  0.
        4    1    3    3  502    0  0.82623461521E+02  0.25106871483E+03  0.11441096786E+04  0.11742447383E+04  0.12699999809E+01 0. -1.
       -4    1    3    3    0  502 -0.82623461521E+02 -0.25106871483E+03  0.34078854283E+03  0.43127784523E+03  0.12699999809E+01 0.  1.
</event>
<event>
 5   0  0.5125031E-02  0.5745654E+03  0.7818609E-02  0.9959627E-01
       -1   -1    0    0    0  501  0.00000000000E+00  0.00000000000E+00  0.34289808158E+03  0.34289808161E+03  0.50400001928E-02 0. -1.
        1   -1    0    0  501    0  0.00000000000E+00  0.00000000000E+00 -0.24068770808E+03  0.24068770813E+03  0.50400001928E-02 0.  1.
    10030    2    1    2    0    0  0.00000000000E+00  0.00000000000E+00  0.10221037350E+03  0.58358578974E+03  0.57456541276E+03 0.  0.
        4    1    3    3  502    0  0.12920376562E+02  0.19863436441E+03 -0.15928732784E+03  0.25494433229E+03  0.12699999809E+01 0.  1.
       -4    1    3    3    0  502 -0.12920376562E+02 -0.19863436441E+03  0.26149770134E+03  0.32864145746E+03  0.12699999809E+01 0. -1.
</event>
<event>
 5   0  0.8420604E-02  0.6065906E+03  0.7818609E-02  0.9891826E-01
       -2   -1    0    0    0  501  0.00000000000E+00  0.00000000000E+00  0.11343596495E+03  0.11343596498E+03  0.25500000920E-02 0. -1.
        2   -1    0    0  501    0  0.00000000000E+00  0.00000000000E+00 -0.81092487705E+03  0.81092487706E+03  0.25500000920E-02 0.  1.
    10030    2    1    2    0    0  0.00000000000E+00  0.00000000000E+00 -0.69748891210E+03  0.92436084204E+03  0.60659062290E+03 0.  0.
        2    1    3    3  502    0 -0.91036188997E+02  0.28843696893E+03 -0.31451437462E+03  0.43635165245E+03  0.25500000920E-02 0. -1.
       -2    1    3    3    0  502  0.91036188997E+02 -0.28843696893E+03 -0.38297453748E+03  0.48800918958E+03  0.25500000920E-02 0.  1.
</event>
<event>
 5   0  0.4881209E-02  0.5987759E+03  0.7818609E-02  0.9907949E-01
        1   -1    0    0  501    0  0.00000000000E+00  0.00000000000E+00  0.38975831160E+03  0.38975831163E+03  0.50400001928E-02 0.  1.
       -1   -1    0    0    0  501  0.00000000000E+00  0.00000000000E+00 -0.22997108880E+03  0.22997108885E+03  0.50400001928E-02 0. -1.
    10030    2    1    2    0    0  0.00000000000E+00  0.00000000000E+00  0.15978722280E+03  0.61972940048E+03  0.59877589568E+03 0.  0.
        3    1    3    3  502    0 -0.15728617121E+03  0.11899980606E+01 -0.18376136438E+03  0.24188552042E+03  0.10100000352E+00 0. -1.
       -3    1    3    3    0  502  0.15728617121E+03 -0.11899980606E+01  0.34354858718E+03  0.37784388006E+03  0.10100000352E+00 0.  1.
</event>
<event>
 5   0  0.8699746E-02  0.6077165E+03  0.7818609E-02  0.9889525E-01
       -2   -1    0    0    0  501  0.00000000000E+00  0.00000000000E+00  0.91964879986E+02  0.91964880021E+02  0.25500000920E-02 0. -1.
        2   -1    0    0  501    0  0.00000000000E+00  0.00000000000E+00 -0.10039685747E+04  0.10039685747E+04  0.25500000920E-02 0.  1.
    10030    2    1    2    0    0  0.00000000000E+00  0.00000000000E+00 -0.91200369475E+03  0.10959334548E+04  0.60771654414E+03 0.  0.
        3    1    3    3  502    0 -0.10966612025E+03  0.34848558109E+01  0.54993162419E+02  0.12273165959E+03  0.10100000352E+00 0. -1.
       -3    1    3    3    0  502  0.10966612025E+03 -0.34848558109E+01 -0.96699685717E+03  0.97320179517E+03  0.10100000352E+00 0.  1.
</event>
<event>
 5   0  0.5166903E-02  0.6116645E+03  0.7818609E-02  0.9881497E-01
       -1   -1    0    0    0  501  0.00000000000E+00  0.00000000000E+00  0.66585325432E+02  0.66585325623E+02  0.50400001928E-02 0. -1.
        1   -1    0    0  501    0  0.00000000000E+00  0.00000000000E+00 -0.14047143531E+04  0.14047143531E+04  0.50400001928E-02 0.  1.
    10030    2    1    2    0    0  0.00000000000E+00  0.00000000000E+00 -0.13381290277E+04  0.14712996787E+04  0.61166449133E+03 0.  0.
        2    1    3    3  502    0  0.53676236985E+02 -0.21408532931E+03 -0.11783042955E+04  0.11987971803E+04  0.25500000920E-02 0.  1.
       -2    1    3    3    0  502 -0.53676236985E+02  0.21408532931E+03 -0.15982473215E+03  0.27250249844E+03  0.25500000920E-02 0. -1.
</event>
<event>
 5   0  0.8420604E-02  0.6044015E+03  0.7818609E-02  0.9896316E-01
        2   -1    0    0  501    0  0.00000000000E+00  0.00000000000E+00  0.80536186379E+03  0.80536186379E+03  0.25500000920E-02 0.  1.
       -2   -1    0    0    0  501  0.00000000000E+00  0.00000000000E+00 -0.11339660435E+03  0.11339660438E+03  0.25500000920E-02 0. -1.
    10030    2    1    2    0    0  0.00000000000E+00  0.00000000000E+00  0.69196525943E+03  0.91875846817E+03  0.60440152430E+03 0.  0.
        2    1    3    3  502    0  0.33642242892E+02  0.96558431377E+02 -0.86301651146E+02  0.13380323678E+03  0.25500000920E-02 0. -1.
       -2    1    3    3    0  502 -0.33642242892E+02 -0.96558431377E+02  0.77826691058E+03  0.78495523139E+03  0.25500000920E-02 0.  1.
</event>
<event>
 5   0  0.8207443E-02  0.5939776E+03  0.7818609E-02  0.9917980E-01
       -2   -1    0    0    0  501  0.00000000000E+00  0.00000000000E+00  0.70901423000E+02  0.70901423045E+02  0.25500000920E-02 0. -1.
        2   -1    0    0  501    0  0.00000000000E+00  0.00000000000E+00 -0.12440138804E+04  0.12440138804E+04  0.25500000920E-02 0.  1.
    10030    2    1    2    0    0  0.00000000000E+00  0.00000000000E+00 -0.11731124574E+04  0.13149153035E+04  0.59397762378E+03 0.  0.
        1    1    3    3  502    0 -0.61313568325E+02  0.76415257511E+01  0.56515346262E+02  0.83736079232E+02  0.50400001928E-02 0. -1.
       -1    1    3    3    0  502  0.61313568325E+02 -0.76415257511E+01 -0.12296278037E+04  0.12311792243E+04  0.50400001928E-02 0.  1.
</event>
<event>
 5   0  0.4987389E-02  0.6744634E+03  0.7818609E-02  0.9761928E-01
       -1   -1    0    0    0  501  0.00000000000E+00  0.00000000000E+00  0.71009958061E+02  0.71009958240E+02  0.50400001928E-02 0. -1.
        1   -1    0    0  501    0  0.00000000000E+00  0.00000000000E+00 -0.16015390469E+04  0.16015390469E+04  0.50400001928E-02 0.  1.
    10030    2    1    2    0    0  0.00000000000E+00  0.00000000000E+00 -0.15305290888E+04  0.16725490051E+04  0.67446340363E+03 0.  0.
        1    1    3    3  502    0  0.68524780164E+02 -0.41280839218E+02 -0.15776681756E+04  0.15796951053E+04  0.50400001928E-02 0.  1.
       -1    1    3    3    0  502 -0.68524780164E+02  0.41280839218E+02  0.47139086831E+02  0.92853899842E+02  0.50400001928E-02 0. -1.
</event>
<event>
 5   0  0.5166903E-02  0.6886885E+03  0.7818609E-02  0.9736774E-01
       -1   -1    0    0    0  501  0.00000000000E+00  0.00000000000E+00  0.14401040489E+03  0.14401040498E+03  0.50400001928E-02 0.  1.
        1   -1    0    0  501    0  0.00000000000E+00  0.00000000000E+00 -0.82336380207E+03  0.82336380208E+03  0.50400001928E-02 0. -1.
    10030    2    1    2    0    0  0.00000000000E+00  0.00000000000E+00 -0.67935339717E+03  0.96737420707E+03  0.68868847692E+03 0.  0.
        2    1    3    3  502    0  0.11918224208E+03  0.20138793686E+03  0.15153833382E+02  0.23450191175E+03  0.25500000920E-02 0.  1.
       -2    1    3    3    0  502 -0.11918224208E+03 -0.20138793686E+03 -0.69450723056E+03  0.73287229532E+03  0.25500000920E-02 0. -1.
</event>
<event>
 5   0  0.8420604E-02  0.5994793E+03  0.7818609E-02  0.9906487E-01
       -2   -1    0    0    0  501  0.00000000000E+00  0.00000000000E+00  0.32496487994E+03  0.32496487995E+03  0.25500000920E-02 0.  1.
        2   -1    0    0  501    0  0.00000000000E+00  0.00000000000E+00 -0.27647255040E+03  0.27647255041E+03  0.25500000920E-02 0. -1.
    10030    2    1    2    0    0  0.00000000000E+00  0.00000000000E+00  0.48492329537E+02  0.60143743036E+03  0.59947933794E+03 0.  0.
        2    1    3    3  502    0 -0.28751308030E+02  0.26131962371E+03 -0.12020079399E+03  0.28907233408E+03  0.25500000920E-02 0. -1.
       -2    1    3    3    0  502  0.28751308030E+02 -0.26131962371E+03  0.16869312352E+03  0.31236509629E+03  0.25500000920E-02 0.  1.
</event>
<event>
 5   0  0.8575590E-02  0.5806873E+03  0.7818609E-02  0.9946304E-01
        2   -1    0    0  501    0  0.00000000000E+00  0.00000000000E+00  0.21885247673E+03  0.21885247675E+03  0.25500000920E-02 0. -1.
       -2   -1    0    0    0  501  0.00000000000E+00  0.00000000000E+00 -0.38518835308E+03  0.38518835308E+03  0.25500000920E-02 0.  1.
    10030    2    1    2    0    0  0.00000000000E+00  0.00000000000E+00 -0.16633587634E+03  0.60404082983E+03  0.58068726553E+03 0.  0.
        4    1    3    3  502    0 -0.48765752766E+02  0.76510346471E+02 -0.37006027083E+03  0.38102250420E+03  0.12699999809E+01 0.  1.
       -4    1    3    3    0  502  0.48765752766E+02 -0.76510346471E+02  0.20372439449E+03  0.22301832563E+03  0.12699999809E+01 0. -1.
</event>
<event>
 5   0  0.8699746E-02  0.5999560E+03  0.7818609E-02  0.9905497E-01
       -2   -1    0    0    0  501  0.00000000000E+00  0.00000000000E+00  0.50158552890E+02  0.50158552955E+02  0.25500000920E-02 0.  1.
        2   -1    0    0  501    0  0.00000000000E+00  0.00000000000E+00 -0.17940469622E+04  0.17940469622E+04  0.25500000920E-02 0. -1.
    10030    2    1    2    0    0  0.00000000000E+00  0.00000000000E+00 -0.17438884093E+04  0.18442055151E+04  0.59995599672E+03 0.  0.
        3    1    3    3  502    0  0.14854661124E+03 -0.74681563958E+02 -0.16394559176E+04  0.16478650271E+04  0.10100000352E+00 0. -1.
       -3    1    3    3    0  502 -0.14854661124E+03  0.74681563958E+02 -0.10443249169E+03  0.19634048800E+03  0.10100000352E+00 0.  1.
</event>
<event>
 5   0  0.8817544E-02  0.6000091E+03  0.7818609E-02  0.9905387E-01
       -2   -1    0    0    0  501  0.00000000000E+00  0.00000000000E+00  0.22760500977E+03  0.22760500979E+03  0.25500000920E-02 0.  1.
        2   -1    0    0  501    0  0.00000000000E+00  0.00000000000E+00 -0.39543380683E+03  0.39543380684E+03  0.25500000920E-02 0. -1.
    10030    2    1    2    0    0  0.00000000000E+00  0.00000000000E+00 -0.16782879706E+03  0.62303881663E+03  0.60000905152E+03 0.  0.
        5    1    3    3  502    0 -0.12340544384E+03  0.93844120352E+02  0.18273969126E+03  0.23969044048E+03  0.46999998093E+01 0.  1.
       -5    1    3    3    0  502  0.12340544384E+03 -0.93844120352E+02 -0.35056848832E+03  0.38334837615E+03  0.46999998093E+01 0. -1.
</event>
<event>
 5   0  0.5125031E-02  0.6013126E+03  0.7818609E-02  0.9902687E-01
       -1   -1    0    0    0  501  0.00000000000E+00  0.00000000000E+00  0.75308289371E+02  0.75308289540E+02  0.50400001928E-02 0.  1.
        1   -1    0    0  501    0  0.00000000000E+00  0.00000000000E+00 -0.12003219987E+04  0.12003219987E+04  0.50400001928E-02 0. -1.
    10030    2    1    2    0    0  0.00000000000E+00  0.00000000000E+00 -0.11250137093E+04  0.12756302883E+04  0.60131255278E+03 0.  0.
        4    1    3    3  502    0  0.95080468064E+02 -0.23875356749E+03 -0.89353530085E+03  0.92975830632E+03  0.12699999809E+01 0. -1.
       -4    1    3    3    0  502 -0.95080468064E+02  0.23875356749E+03 -0.23147840849E+03  0.34587198194E+03  0.12699999809E+01 0.  1.
</event>
<event>
 5   0  0.4881209E-02  0.6103130E+03  0.7818609E-02  0.9884238E-01
        1   -1    0    0  501    0  0.00000000000E+00  0.00000000000E+00  0.11245365903E+04  0.11245365903E+04  0.50400001928E-02 0. -1.
       -1   -1    0    0    0  501  0.00000000000E+00  0.00000000000E+00 -0.82807872200E+02  0.82807872354E+02  0.50400001928E-02 0.  1.
    10030    2    1    2    0    0  0.00000000000E+00  0.00000000000E+00  0.10417287181E+04  0.12073444626E+04  0.61031297660E+03 0.  0.
        3    1    3    3  502    0  0.10388547555E+03 -0.38311211103E+02  0.10833959095E+04  0.10890393234E+04  0.10100000352E+00 0. -1.
       -3    1    3    3    0  502 -0.10388547555E+03  0.38311211103E+02 -0.41667191450E+02  0.11830513924E+03  0.10100000352E+00 0.  1.
</event>
<event>
 5   0  0.5125031E-02  0.6035037E+03  0.7818609E-02  0.9898164E-01
       -1   -1    0    0    0  501  0.00000000000E+00  0.00000000000E+00  0.44585555321E+03  0.44585555324E+03  0.50400001928E-02 0. -1.
        1   -1    0    0  501    0  0.00000000000E+00  0.00000000000E+00 -0.20422346986E+03  0.20422346992E+03  0.50400001928E-02 0.  1.
    10030    2    1    2    0    0  0.00000000000E+00  0.00000000000E+00  0.24163208335E+03  0.65007902316E+03  0.60350366416E+03 0.  0.
        4    1    3    3  502    0  0.16637878278E+02  0.12714337247E+03  0.41504514732E+03  0.43440343388E+03  0.12699999809E+01 0. -1.
       -4    1    3    3    0  502 -0.16637878278E+02 -0.12714337247E+03 -0.17341306397E+03  0.21567558928E+03  0.12699999809E+01 0.  1.
</event>
<event>
 5   0  0.8575590E-02  0.6014448E+03  0.7818609E-02  0.9902413E-01
        2   -1    0    0  501    0  0.00000000000E+00  0.00000000000E+00  0.87315450991E+03  0.87315450991E+03  0.25500000920E-02 0. -1.
       -2   -1    0    0    0  501  0.00000000000E+00  0.00000000000E+00 -0.10357156113E+03  0.10357156116E+03  0.25500000920E-02 0.  1.
    10030    2    1    2    0    0  0.00000000000E+00  0.00000000000E+00  0.76958294877E+03  0.97672607107E+03  0.60144484607E+03 0.  0.
        4    1    3    3  502    0  0.10459094460E+03 -0.10951575006E+03  0.80670837395E+03  0.82080020632E+03  0.12699999809E+01 0. -1.
       -4    1    3    3    0  502 -0.10459094460E+03  0.10951575006E+03 -0.37125425174E+02  0.15592586475E+03  0.12699999809E+01 0.  1.
</event>
<event>
 5   0  0.8575590E-02  0.6026299E+03  0.7818609E-02  0.9899965E-01
        2   -1    0    0  501    0  0.00000000000E+00  0.00000000000E+00  0.23927654383E+03  0.23927654385E+03  0.25500000920E-02 0. -1.
       -2   -1    0    0    0  501  0.00000000000E+00  0.00000000000E+00 -0.37943832498E+03  0.37943832499E+03  0.25500000920E-02 0.  1.
    10030    2    1    2    0    0  0.00000000000E+00  0.00000000000E+00 -0.14016178115E+03  0.61871486884E+03  0.60262987316E+03 0.  0.
        4    1    3    3  502    0  0.12112234524E+03 -0.23715613000E+03 -0.21482407234E+03  0.34214711378E+03  0.12699999809E+01 0. -1.
       -4    1    3    3    0  502 -0.12112234524E+03  0.23715613000E+03  0.74662291191E+02  0.27656775506E+03  0.12699999809E+01 0.  1.
</event>
<event>
 5   0  0.5190380E-02  0.5890808E+03  0.7818609E-02  0.9928322E-01
       -1   -1    0    0    0  501  0.00000000000E+00  0.00000000000E+00  0.69555037500E+03  0.69555037502E+03  0.50400001928E-02 0.  1.
        1   -1    0    0  501    0  0.00000000000E+00  0.00000000000E+00 -0.12472721140E+03  0.12472721150E+03  0.50400001928E-02 0. -1.
    10030    2    1    2    0    0  0.00000000000E+00  0.00000000000E+00  0.57082316360E+03  0.82027758652E+03  0.58908083897E+03 0.  0.
        5    1    3    3  502    0  0.30933323550E+02 -0.95769125402E+02 -0.99986806571E+02  0.14194381766E+03  0.46999998093E+01 0. -1.
       -5    1    3    3    0  502 -0.30933323550E+02  0.95769125402E+02  0.67080997017E+03  0.67833376885E+03  0.46999998093E+01 0.  1.
</event>
<event>
 5   0  0.8420604E-02  0.5747861E+03  0.7818609E-02  0.9959143E-01
       -2   -1    0    0    0  501  0.00000000000E+00  0.00000000000E+00  0.61330828760E+02  0.61330828813E+02  0.25500000920E-02 0.  1.
        2   -1    0    0  501    0  0.00000000000E+00  0.00000000000E+00 -0.13467088182E+04  0.13467088182E+04  0.25500000920E-02 0. -1.
    10030    2    1    2    0    0  0.00000000000E+00  0.00000000000E+00 -0.12853779894E+04  0.14080396470E+04  0.57478610962E+03 0.  0.
        2    1    3    3  502    0 -0.13844320621E+03  0.81843873828E+02 -0.12261533756E+04  0.12366555873E+04  0.25500000920E-02 0. -1.
       -2    1    3    3    0  502  0.13844320621E+03 -0.81843873828E+02 -0.59224613772E+02  0.17138405968E+03  0.25500000920E-02 0.  1.
</event>
<event>
 5   0  0.5166903E-02  0.6008504E+03  0.7818609E-02  0.9903643E-01
       -1   -1    0    0    0  501  0.00000000000E+00  0.00000000000E+00  0.11349569615E+03  0.11349569626E+03  0.50400001928E-02 0. -1.
        1   -1    0    0  501    0  0.00000000000E+00  0.00000000000E+00 -0.79523116359E+03  0.79523116361E+03  0.50400001928E-02 0.  1.
    10030    2    1    2    0    0  0.00000000000E+00  0.00000000000E+00 -0.68173546745E+03  0.90872685987E+03  0.60085044584E+03 0.  0.
        2    1    3    3  502    0 -0.24737479061E+03  0.87382162801E+02 -0.56224412119E+03  0.62044208531E+03  0.25500000920E-02 0.  1.
       -2    1    3    3    0  502  0.24737479061E+03 -0.87382162801E+02 -0.11949134626E+03  0.28828477456E+03  0.25500000920E-02 0. -1.
</event>
<event>
 5   0  0.4881209E-02  0.5994128E+03  0.7818609E-02  0.9906625E-01
        1   -1    0    0  501    0  0.00000000000E+00  0.00000000000E+00  0.60048858378E+03  0.60048858381E+03  0.50400001928E-02 0. -1.
       -1   -1    0    0    0  501  0.00000000000E+00  0.00000000000E+00 -0.14958474751E+03  0.14958474759E+03  0.50400001928E-02 0.  1.
    10030    2    1    2    0    0  0.00000000000E+00  0.00000000000E+00  0.45090383628E+03  0.75007333140E+03  0.59941282344E+03 0.  0.
        3    1    3    3  502    0  0.76744059978E+01 -0.25675197804E+03  0.32227402679E+02  0.25888045585E+03  0.10100000352E+00 0.  1.
       -3    1    3    3    0  502 -0.76744059978E+01  0.25675197804E+03  0.41867643360E+03  0.49119287555E+03  0.10100000352E+00 0. -1.
</event>
<event>
 5   0  0.8817544E-02  0.6079047E+03  0.7818609E-02  0.9889141E-01
       -2   -1    0    0    0  501  0.00000000000E+00  0.00000000000E+00  0.18188941314E+03  0.18188941316E+03  0.25500000920E-02 0.  1.
        2   -1    0    0  501    0  0.00000000000E+00  0.00000000000E+00 -0.50792960244E+03  0.50792960245E+03  0.25500000920E-02 0. -1.
    10030    2    1    2    0    0  0.00000000000E+00  0.00000000000E+00 -0.32604018930E+03  0.68981901561E+03  0.60790465474E+03 0.  0.
        5    1    3    3  502    0 -0.73286711769E+02 -0.15531507180E+03  0.12150830111E+03  0.21042830343E+03  0.46999998093E+01 0.  1.
       -5    1    3    3    0  502  0.73286711769E+02  0.15531507180E+03 -0.44754849041E+03  0.47939071217E+03  0.46999998093E+01 0. -1.
</event>
<event>
 5   0  0.8207443E-02  0.6022914E+03  0.7818609E-02  0.9900664E-01
       -2   -1    0    0    0  501  0.00000000000E+00  0.00000000000E+00  0.51315384571E+03  0.51315384571E+03  0.25500000920E-02 0.  1.
        2   -1    0    0  501    0  0.00000000000E+00  0.00000000000E+00 -0.17672815104E+03  0.17672815106E+03  0.25500000920E-02 0. -1.
    10030    2    1    2    0    0  0.00000000000E+00  0.00000000000E+00  0.33642569467E+03  0.68988199677E+03  0.60229139246E+03 0.  0.
        1    1    3    3  502    0 -0.27530068455E+02 -0.11786094830E+03 -0.14764242546E+03  0.19091200493E+03  0.50400001928E-02 0. -1.
       -1    1    3    3    0  502  0.27530068455E+02  0.11786094830E+03  0.48406812013E+03  0.49896999184E+03  0.50400001928E-02 0.  1.
</event>
<event>
 5   0  0.5125031E-02  0.6087848E+03  0.7818609E-02  0.9887346E-01
       -1   -1    0    0    0  501  0.00000000000E+00  0.00000000000E+00  0.15996100932E+03  0.15996100940E+03  0.50400001928E-02 0.  1.
        1   -1    0    0  501    0  0.00000000000E+00  0.00000000000E+00 -0.57923319562E+03  0.57923319564E+03  0.50400001928E-02 0. -1.
    10030    2    1    2    0    0  0.00000000000E+00  0.00000000000E+00 -0.41927218630E+03  0.73919420504E+03  0.60878477853E+03 0.  0.
        4    1    3    3  502    0 -0.13576786257E+03  0.23056114774E+03 -0.38585077152E+03  0.46954636207E+03  0.12699999809E+01 0. -1.
       -4    1    3    3    0  502  0.13576786257E+03 -0.23056114774E+03 -0.33421414781E+02  0.26964784297E+03  0.12699999809E+01 0.  1.
</event>
<event>
 5   0  0.5166903E-02  0.5989259E+03  0.7818609E-02  0.9907637E-01
        1   -1    0    0  501    0  0.00000000000E+00  0.00000000000E+00  0.38642565579E+03  0.38642565582E+03  0.50400001928E-02 0. -1.
       -1   -1    0    0    0  501  0.00000000000E+00  0.00000000000E+00 -0.23207065609E+03  0.23207065615E+03  0.50400001928E-02 0.  1.
    10030    2    1    2    0    0  0.00000000000E+00  0.00000000000E+00  0.15435499970E+03  0.61849631197E+03  0.59892589023E+03 0.  0.
        2    1    3    3  502    0  0.75458036726E+02  0.26276776037E+03 -0.49034099205E+02  0.27775016488E+03  0.25500000920E-02 0.  1.
       -2    1    3    3    0  502 -0.75458036726E+02 -0.26276776037E+03  0.20338909890E+03  0.34074614709E+03  0.25500000920E-02 0. -1.
</event>
<event>
 5   0  0.4881209E-02  0.6043820E+03  0.7818609E-02  0.9896356E-01
       -1   -1    0    0    0  501  0.00000000000E+00  0.00000000000E+00  0.13616622012E+03  0.13616622021E+03  0.50400001928E-02 0.  1.
        1   -1    0    0  501    0  0.00000000000E+00  0.00000000000E+00 -0.67064652964E+03  0.67064652966E+03  0.50400001928E-02 0. -1.
    10030    2    1    2    0    0  0.00000000000E+00  0.00000000000E+00 -0.53448030953E+03  0.80681274987E+03  0.60438200840E+03 0.  0.
        3    1    3    3  502    0  0.13762317042E+03  0.16672057087E+03  0.14629510101E+02  0.21667929886E+03  0.10100000352E+00 0.  1.
       -3    1    3    3    0  502 -0.13762317042E+03 -0.16672057087E+03 -0.54910981963E+03  0.59013345101E+03  0.10100000352E+00 0. -1.
</event>
<event>
 5   0  0.8575590E-02  0.5974107E+03  0.7818609E-02  0.9910793E-01
       -2   -1    0    0    0  501  0.00000000000E+00  0.00000000000E+00  0.14016634222E+03  0.14016634224E+03  0.25500000920E-02 0. -1.
        2   -1    0    0  501    0  0.00000000000E+00  0.00000000000E+00 -0.63656430709E+03  0.63656430710E+03  0.25500000920E-02 0.  1.
    10030    2    1    2    0    0  0.00000000000E+00  0.00000000000E+00 -0.49639796487E+03  0.77673064934E+03  0.59741071475E+03 0.  0.
        4    1    3    3  502    0 -0.33493074594E+02  0.21720566417E+03  0.14817024701E+02  0.22027538155E+03  0.12699999809E+01 0. -1.
       -4    1    3    3    0  502  0.33493074594E+02 -0.21720566417E+03 -0.51121498957E+03  0.55645526780E+03  0.12699999809E+01 0.  1.
</event>
<event>
 5   0  0.5190380E-02  0.6043669E+03  0.7818609E-02  0.9896387E-01
        1   -1    0    0  501    0  0.00000000000E+00  0.00000000000E+00  0.16272892681E+03  0.16272892689E+03  0.50400001928E-02 0.  1.
       -1   -1    0    0    0  501  0.00000000000E+00  0.00000000000E+00 -0.56114687601E+03  0.56114687604E+03  0.50400001928E-02 0. -1.
    10030    2    1    2    0    0  0.00000000000E+00  0.00000000000E+00 -0.39841794920E+03  0.72387580293E+03  0.60436687187E+03 0.  0.
        5    1    3    3  502    0 -0.76067745176E+02 -0.43553753516E+02 -0.54553987505E+03  0.55255685370E+03  0.46999998093E+01 0. -1.
       -5    1    3    3    0  502  0.76067745176E+02  0.43553753516E+02  0.14712192585E+03  0.17131894923E+03  0.46999998093E+01 0.  1.
</event>
<event>
 5   0  0.8699746E-02  0.5848802E+03  0.7818609E-02  0.9937281E-01
       -2   -1    0    0    0  501  0.00000000000E+00  0.00000000000E+00  0.90656116359E+02  0.90656116395E+02  0.25500000920E-02 0.  1.
        2   -1    0    0  501    0  0.00000000000E+00  0.00000000000E+00 -0.94335841272E+03  0.94335841272E+03  0.25500000920E-02 0. -1.
    10030    2    1    2    0    0  0.00000000000E+00  0.00000000000E+00 -0.85270229636E+03  0.10340145291E+04  0.58488019304E+03 0.  0.
        3    1    3    3  502    0 -0.24356149096E+03  0.90141687638E+02 -0.18867775213E+03  0.32100938940E+03  0.10100000352E+00 0.  1.
       -3    1    3    3    0  502  0.24356149096E+03 -0.90141687638E+02 -0.66402454423E+03  0.71300513972E+03  0.10100000352E+00 0. -1.
</event>
<event>
 5   0  0.8699746E-02  0.6033846E+03  0.7818609E-02  0.9898409E-01
       -2   -1    0    0    0  501  0.00000000000E+00  0.00000000000E+00  0.70879254329E+03  0.70879254329E+03  0.25500000920E-02 0.  1.
        2   -1    0    0  501    0  0.00000000000E+00  0.00000000000E+00 -0.12841308489E+03  0.12841308492E+03  0.25500000920E-02 0. -1.
    10030    2    1    2    0    0  0.00000000000E+00  0.00000000000E+00  0.58037945840E+03  0.83720562821E+03  0.60338457734E+03 0.  0.
        3    1    3    3  502    0  0.55133369521E+02 -0.27104281451E+03  0.12302815701E+03  0.30272071840E+03  0.10100000352E+00 0. -1.
       -3    1    3    3    0  502 -0.55133369521E+02  0.27104281451E+03  0.45735130139E+03  0.53448490981E+03  0.10100000352E+00 0.  1.
</event>
<event>
 5   0  0.5190380E-02  0.6143059E+03  0.7818609E-02  0.9876162E-01
       -1   -1    0    0    0  501  0.00000000000E+00  0.00000000000E+00  0.10111191002E+03  0.10111191015E+03  0.50400001928E-02 0.  1.
        1   -1    0    0  501    0  0.00000000000E+00  0.00000000000E+00 -0.93305456281E+03  0.93305456283E+03  0.50400001928E-02 0. -1.
    10030    2    1    2    0    0  0.00000000000E+00  0.00000000000E+00 -0.83194265279E+03  0.10341664730E+04  0.61430588169E+03 0.  0.
        5    1    3    3  502    0  0.97551779575E+02 -0.24509931311E+03 -0.15122801025E+03  0.30410857283E+03  0.46999998093E+01 0.  1.
       -5    1    3    3    0  502 -0.97551779575E+02  0.24509931311E+03 -0.68071464254E+03  0.73005790014E+03  0.46999998093E+01 0. -1.
</event>
<event>
 5   0  0.3437375E-02  0.5940744E+03  0.7818609E-02  0.9917777E-01
        3   -1    0    0  501    0  0.00000000000E+00  0.00000000000E+00  0.13554465712E+03  0.13554469475E+03  0.10100000352E+00 0. -1.
       -3   -1    0    0    0  501  0.00000000000E+00  0.00000000000E+00 -0.65093728168E+03  0.65093728952E+03  0.10100000352E+00 0.  1.
    10030    2    1    2    0    0  0.00000000000E+00  0.00000000000E+00 -0.51539262456E+03  0.78648198427E+03  0.59407436751E+03 0.  0.
        4    1    3    3  502    0 -0.82826165110E+02  0.10143080745E+02 -0.63509773104E+03  0.64055741084E+03  0.12699999809E+01 0.  1.
       -4    1    3    3    0  502  0.82826165110E+02 -0.10143080745E+02  0.11970510648E+03  0.14592457343E+03  0.12699999809E+01 0. -1.
</event>
<event>
 5   0  0.3437375E-02  0.5900408E+03  0.7818609E-02  0.9926286E-01
        3   -1    0    0  501    0  0.00000000000E+00  0.00000000000E+00  0.35475072177E+03  0.35475073615E+03  0.10100000352E+00 0. -1.
       -3   -1    0    0    0  501  0.00000000000E+00  0.00000000000E+00 -0.24534699698E+03  0.24534701777E+03  0.10100000352E+00 0.  1.
    10030    2    1    2    0    0  0.00000000000E+00  0.00000000000E+00  0.10940372479E+03  0.60009775392E+03  0.59004079458E+03 0.  0.
        4    1    3    3  502    0  0.11331373953E+03 -0.17273668330E+03  0.26890374338E+03  0.33909998736E+03  0.12699999809E+01 0. -1.
       -4    1    3    3    0  502 -0.11331373953E+03  0.17273668330E+03 -0.15950001858E+03  0.26099776656E+03  0.12699999809E+01 0.  1.
</event>
<event>
 5   0  0.5190380E-02  0.5976822E+03  0.7818609E-02  0.9910227E-01
        1   -1    0    0  501    0  0.00000000000E+00  0.00000000000E+00  0.21123485180E+03  0.21123485186E+03  0.50400001928E-02 0.  1.
       -1   -1    0    0    0  501  0.00000000000E+00  0.00000000000E+00 -0.42278058351E+03  0.42278058354E+03  0.50400001928E-02 0. -1.
    10030    2    1    2    0    0  0.00000000000E+00  0.00000000000E+00 -0.21154573171E+03  0.63401543540E+03  0.59768216948E+03 0.  0.
        5    1    3    3  502    0 -0.22671382299E+03  0.73342807993E+02 -0.29702596607E+03  0.38082126981E+03  0.46999998093E+01 0. -1.
       -5    1    3    3    0  502  0.22671382299E+03 -0.73342807993E+02  0.85480234366E+02  0.25319416558E+03  0.46999998093E+01 0.  1.
</event>
<event>
 5   0  0.8699746E-02  0.6038662E+03  0.7818609E-02  0.9897417E-01
       -2   -1    0    0    0  501  0.00000000000E+00  0.00000000000E+00  0.16292060092E+03  0.16292060094E+03  0.25500000920E-02 0. -1.
        2   -1    0    0  501    0  0.00000000000E+00  0.00000000000E+00 -0.55955836339E+03  0.55955836340E+03  0.25500000920E-02 0.  1.
    10030    2    1    2    0    0  0.00000000000E+00  0.00000000000E+00 -0.39663776247E+03  0.72247896433E+03  0.60386616008E+03 0.  0.
        3    1    3    3  502    0  0.63406907593E+02 -0.20973013735E+03  0.50227337154E+02  0.22478870533E+03  0.10100000352E+00 0. -1.
       -3    1    3    3    0  502 -0.63406907593E+02  0.20973013735E+03 -0.44686509963E+03  0.49769025901E+03  0.10100000352E+00 0.  1.
</event>
<event>
 5   0  0.5190380E-02  0.5971206E+03  0.7818609E-02  0.9911398E-01
       -1   -1    0    0    0  501  0.00000000000E+00  0.00000000000E+00  0.59022306015E+03  0.59022306017E+03  0.50400001928E-02 0. -1.
        1   -1    0    0  501    0  0.00000000000E+00  0.00000000000E+00 -0.15102468775E+03  0.15102468784E+03  0.50400001928E-02 0.  1.
    10030    2    1    2    0    0  0.00000000000E+00  0.00000000000E+00  0.43919837240E+03  0.74124774801E+03  0.59712060223E+03 0.  0.
        5    1    3    3  502    0 -0.11534651538E+03  0.26815497789E+03  0.29716498813E+03  0.41658256198E+03  0.46999998093E+01 0. -1.
       -5    1    3    3    0  502  0.11534651538E+03 -0.26815497789E+03  0.14203338427E+03  0.32466518603E+03  0.46999998093E+01 0.  1.
</event>
<event>
 5   0  0.8420604E-02  0.5915829E+03  0.7818609E-02  0.9923024E-01
       -2   -1    0    0    0  501  0.00000000000E+00  0.00000000000E+00  0.60209234669E+02  0.60209234723E+02  0.25500000920E-02 0.  1.
        2   -1    0    0  501    0  0.00000000000E+00  0.00000000000E+00 -0.14531423837E+04  0.14531423837E+04  0.25500000920E-02 0. -1.
    10030    2    1    2    0    0  0.00000000000E+00  0.00000000000E+00 -0.13929331490E+04  0.15133516184E+04  0.59158293020E+03 0.  0.
        2    1    3    3  502    0 -0.19040854274E+03  0.10000767928E+03 -0.17699643249E+03  0.27854027749E+03  0.25500000920E-02 0.  1.
       -2    1    3    3    0  502  0.19040854274E+03 -0.10000767928E+03 -0.12159367165E+04  0.12348113409E+04  0.25500000920E-02 0. -1.
</event>
<event>
 5   0  0.8207443E-02  0.5985521E+03  0.7818609E-02  0.9908415E-01
       -2   -1    0    0    0  501  0.00000000000E+00  0.00000000000E+00  0.78474838777E+02  0.78474838819E+02  0.25500000920E-02 0.  1.
        2   -1    0    0  501    0  0.00000000000E+00  0.00000000000E+00 -0.11413358155E+04  0.11413358155E+04  0.25500000920E-02 0. -1.
    10030    2    1    2    0    0  0.00000000000E+00  0.00000000000E+00 -0.10628609768E+04  0.12198106544E+04  0.59855206671E+03 0.  0.
        1    1    3    3  502    0 -0.26281424922E+03 -0.10199302640E+03 -0.73616177222E+03  0.78829440055E+03  0.50400001928E-02 0. -1.
       -1    1    3    3    0  502  0.26281424922E+03  0.10199302640E+03 -0.32669920453E+03  0.43151625380E+03  0.50400001928E-02 0.  1.
</event>
<event>
 5   0  0.4987389E-02  0.4915044E+03  0.7818609E-02  0.1016020E+00
        1   -1    0    0  501    0  0.00000000000E+00  0.00000000000E+00  0.60067894722E+03  0.60067894724E+03  0.50400001928E-02 0. -1.
       -1   -1    0    0    0  501  0.00000000000E+00  0.00000000000E+00 -0.10054314972E+03  0.10054314985E+03  0.50400001928E-02 0.  1.
    10030    2    1    2    0    0  0.00000000000E+00  0.00000000000E+00  0.50013579750E+03  0.70122209709E+03  0.49150443895E+03 0.  0.
        1    1    3    3  502    0 -0.40445726815E+02  0.19884888157E+03  0.52290948147E+02  0.20954970247E+03  0.50400001928E-02 0.  1.
       -1    1    3    3    0  502  0.40445726815E+02 -0.19884888157E+03  0.44784484935E+03  0.49167239463E+03  0.50400001928E-02 0. -1.
</event>
<event>
 5   0  0.8575590E-02  0.5982944E+03  0.7818609E-02  0.9908951E-01
       -2   -1    0    0    0  501  0.00000000000E+00  0.00000000000E+00  0.10598687635E+03  0.10598687638E+03  0.25500000920E-02 0. -1.
        2   -1    0    0  501    0  0.00000000000E+00  0.00000000000E+00 -0.84434096845E+03  0.84434096845E+03  0.25500000920E-02 0.  1.
    10030    2    1    2    0    0  0.00000000000E+00  0.00000000000E+00 -0.73835409210E+03  0.95032784483E+03  0.59829444870E+03 0.  0.
        4    1    3    3  502    0  0.27340740880E+03  0.81675421969E+02 -0.22653102037E+03  0.36433556213E+03  0.12699999809E+01 0.  1.
       -4    1    3    3    0  502 -0.27340740880E+03 -0.81675421969E+02 -0.51182307172E+03  0.58599228271E+03  0.12699999809E+01 0. -1.
</event>
<event>
 5   0  0.8575590E-02  0.6138024E+03  0.7818609E-02  0.9877177E-01
        2   -1    0    0  501    0  0.00000000000E+00  0.00000000000E+00  0.12561279063E+03  0.12561279066E+03  0.25500000920E-02 0.  1.
       -2   -1    0    0    0  501  0.00000000000E+00  0.00000000000E+00 -0.74983096691E+03  0.74983096692E+03  0.25500000920E-02 0. -1.
    10030    2    1    2    0    0  0.00000000000E+00  0.00000000000E+00 -0.62421817628E+03  0.87544375757E+03  0.61380244466E+03 0.  0.
        4    1    3    3  502    0  0.14147849346E+03 -0.88314650077E+02  0.55333222384E+02  0.17572427245E+03  0.12699999809E+01 0.  1.
       -4    1    3    3    0  502 -0.14147849346E+03  0.88314650077E+02 -0.67955139867E+03  0.69971948512E+03  0.12699999809E+01 0. -1.
</event>
<event>
 5   0  0.8699746E-02  0.6060576E+03  0.7818609E-02  0.9892917E-01
        2   -1    0    0  501    0  0.00000000000E+00  0.00000000000E+00  0.16140039551E+04  0.16140039551E+04  0.25500000920E-02 0. -1.
       -2   -1    0    0    0  501  0.00000000000E+00  0.00000000000E+00 -0.56893582647E+02  0.56893582705E+02  0.25500000920E-02 0.  1.
    10030    2    1    2    0    0  0.00000000000E+00  0.00000000000E+00  0.15571103724E+04  0.16708975378E+04  0.60605764564E+03 0.  0.
        3    1    3    3  502    0  0.24124651981E+03  0.75089834556E+02  0.31731990444E+03  0.40562334564E+03  0.10100000352E+00 0.  1.
       -3    1    3    3    0  502 -0.24124651981E+03 -0.75089834556E+02  0.12397904680E+04  0.12652741921E+04  0.10100000352E+00 0. -1.
</event>
<event>
 5   0  0.3437375E-02  0.5823743E+03  0.7818609E-02  0.9942664E-01
        3   -1    0    0  501    0  0.00000000000E+00  0.00000000000E+00  0.13677261231E+03  0.13677264960E+03  0.10100000352E+00 0. -1.
       -3   -1    0    0    0  501  0.00000000000E+00  0.00000000000E+00 -0.61993369616E+03  0.61993370439E+03  0.10100000352E+00 0.  1.
    10030    2    1    2    0    0  0.00000000000E+00  0.00000000000E+00 -0.48316108385E+03  0.75670635398E+03  0.58237434113E+03 0.  0.
        1    1    3    3  502    0  0.63025928245E+02 -0.20378714669E+02  0.12685343861E+03  0.14310609545E+03  0.50400001928E-02 0. -1.
       -1    1    3    3    0  502 -0.63025928245E+02  0.20378714669E+02 -0.61001452246E+03  0.61360025854E+03  0.50400001928E-02 0.  1.
</event>
<event>
 5   0  0.5125031E-02  0.6004758E+03  0.7818609E-02  0.9904419E-01
        1   -1    0    0  501    0  0.00000000000E+00  0.00000000000E+00  0.68554548914E+03  0.68554548916E+03  0.50400001928E-02 0. -1.
       -1   -1    0    0    0  501  0.00000000000E+00  0.00000000000E+00 -0.13149062954E+03  0.13149062964E+03  0.50400001928E-02 0.  1.
    10030    2    1    2    0    0  0.00000000000E+00  0.00000000000E+00  0.55405485960E+03  0.81703611880E+03  0.60047583797E+03 0.  0.
        4    1    3    3  502    0 -0.13110899368E+03 -0.10809535099E+03  0.61381736506E+03  0.63690465823E+03  0.12699999809E+01 0. -1.
       -4    1    3    3    0  502  0.13110899368E+03  0.10809535099E+03 -0.59762505458E+02  0.18013146057E+03  0.12699999809E+01 0.  1.
</event>
<event>
 5   0  0.5166903E-02  0.6055691E+03  0.7818609E-02  0.9893919E-01
        1   -1    0    0  501    0  0.00000000000E+00  0.00000000000E+00  0.92515190904E+03  0.92515190906E+03  0.50400001928E-02 0. -1.
       -1   -1    0    0    0  501  0.00000000000E+00  0.00000000000E+00 -0.99095597626E+02  0.99095597755E+02  0.50400001928E-02 0.  1.
    10030    2    1    2    0    0  0.00000000000E+00  0.00000000000E+00  0.82605631142E+03  0.10242475068E+04  0.60556909232E+03 0.  0.
        2    1    3    3  502    0  0.13795420729E+03  0.23261540618E+03  0.18274446802E+03  0.32639980254E+03  0.25500000920E-02 0. -1.
       -2    1    3    3    0  502 -0.13795420729E+03 -0.23261540618E+03  0.64331184339E+03  0.69784770427E+03  0.25500000920E-02 0.  1.
</event>
<event>
 5   0  0.8699746E-02  0.6272250E+03  0.7818609E-02  0.9850479E-01
        2   -1    0    0  501    0  0.00000000000E+00  0.00000000000E+00  0.10327640608E+04  0.10327640608E+04  0.25500000920E-02 0.  1.
       -2   -1    0    0    0  501  0.00000000000E+00  0.00000000000E+00 -0.95232581097E+02  0.95232581131E+02  0.25500000920E-02 0. -1.
    10030    2    1    2    0    0  0.00000000000E+00  0.00000000000E+00  0.93753147974E+03  0.11279966420E+04  0.62722495868E+03 0.  0.
        3    1    3    3  502    0 -0.23978942786E+03  0.45529742186E+02  0.11461093665E+03  0.26964347598E+03  0.10100000352E+00 0. -1.
       -3    1    3    3    0  502  0.23978942786E+03 -0.45529742186E+02  0.82292054309E+03  0.85835316600E+03  0.10100000352E+00 0.  1.
</event>
<event>
 5   0  0.8575590E-02  0.5957582E+03  0.7818609E-02  0.9914246E-01
       -2   -1    0    0    0  501  0.00000000000E+00  0.00000000000E+00  0.65146799611E+02  0.65146799660E+02  0.25500000920E-02 0. -1.
        2   -1    0    0  501    0  0.00000000000E+00  0.00000000000E+00 -0.13620311398E+04  0.13620311398E+04  0.25500000920E-02 0.  1.
    10030    2    1    2    0    0  0.00000000000E+00  0.00000000000E+00 -0.12968843402E+04  0.14271779394E+04  0.59575823876E+03 0.  0.
        4    1    3    3  502    0 -0.16209101465E+03  0.12310490743E+03 -0.12742982965E+03  0.24014222795E+03  0.12699999809E+01 0. -1.
       -4    1    3    3    0  502  0.16209101465E+03 -0.12310490743E+03 -0.11694545105E+04  0.11870357115E+04  0.12699999809E+01 0.  1.
</event>
<event>
 5   0  0.8575590E-02  0.6114781E+03  0.7818609E-02  0.9881875E-01
        2   -1    0    0  501    0  0.00000000000E+00  0.00000000000E+00  0.55849185602E+03  0.55849185603E+03  0.25500000920E-02 0.  1.
       -2   -1    0    0    0  501  0.00000000000E+00  0.00000000000E+00 -0.16737284208E+03  0.16737284210E+03  0.25500000920E-02 0. -1.
    10030    2    1    2    0    0  0.00000000000E+00  0.00000000000E+00  0.39111901394E+03  0.72586469812E+03  0.61147810829E+03 0.  0.
        4    1    3    3  502    0 -0.58011487620E+02  0.16128872093E+03  0.49608969196E+03  0.52486758288E+03  0.12699999809E+01 0.  1.
       -4    1    3    3    0  502  0.58011487620E+02 -0.16128872093E+03 -0.10497067801E+03  0.20099711524E+03  0.12699999809E+01 0. -1.
</event>
<event>
 5   0  0.4881209E-02  0.6044145E+03  0.7818609E-02  0.9896289E-01
       -1   -1    0    0    0  501  0.00000000000E+00  0.00000000000E+00  0.90759327221E+03  0.90759327223E+03  0.50400001928E-02 0.  1.
        1   -1    0    0  501    0  0.00000000000E+00  0.00000000000E+00 -0.10062791973E+03  0.10062791986E+03  0.50400001928E-02 0. -1.
    10030    2    1    2    0    0  0.00000000000E+00  0.00000000000E+00  0.80696535248E+03  0.10082211921E+04  0.60441450351E+03 0.  0.
        3    1    3    3  502    0 -0.16378854347E+03 -0.21623844037E+03  0.18128468208E+03  0.32626660298E+03  0.10100000352E+00 0. -1.
       -3    1    3    3    0  502  0.16378854347E+03  0.21623844037E+03  0.62568067041E+03  0.68195458910E+03  0.10100000352E+00 0.  1.
</event>
<event>
 5   0  0.4987389E-02  0.6002623E+03  0.7818609E-02  0.9904862E-01
        1   -1    0    0  501    0  0.00000000000E+00  0.00000000000E+00  0.28718574531E+03  0.28718574535E+03  0.50400001928E-02 0. -1.
       -1   -1    0    0    0  501  0.00000000000E+00  0.00000000000E+00 -0.31366013477E+03  0.31366013481E+03  0.50400001928E-02 0.  1.
    10030    2    1    2    0    0  0.00000000000E+00  0.00000000000E+00 -0.26474389459E+02  0.60084588016E+03  0.60026234132E+03 0.  0.
        1    1    3    3  502    0 -0.21565908819E+03  0.11645271015E+03 -0.18663562928E+03  0.30806319832E+03  0.50400001928E-02 0.  1.
       -1    1    3    3    0  502  0.21565908819E+03 -0.11645271015E+03  0.16016123982E+03  0.29278268184E+03  0.50400001928E-02 0. -1.
</event>
<event>
 5   0  0.5166903E-02  0.5964587E+03  0.7818609E-02  0.9912781E-01
        1   -1    0    0  501    0  0.00000000000E+00  0.00000000000E+00  0.15179757892E+03  0.15179757900E+03  0.50400001928E-02 0.  1.
       -1   -1    0    0    0  501  0.00000000000E+00  0.00000000000E+00 -0.58591670708E+03  0.58591670710E+03  0.50400001928E-02 0. -1.
    10030    2    1    2    0    0  0.00000000000E+00  0.00000000000E+00 -0.43411912816E+03  0.73771428611E+03  0.59645867459E+03 0.  0.
        2    1    3    3  502    0  0.75965504677E+02 -0.42118151179E+02 -0.56992528893E+03  0.57650631525E+03  0.25500000920E-02 0. -1.
       -2    1    3    3    0  502 -0.75965504677E+02  0.42118151179E+02  0.13580616077E+03  0.16120797086E+03  0.25500000920E-02 0.  1.
</event>
<event>
 5   0  0.8207443E-02  0.5918104E+03  0.7818609E-02  0.9922544E-01
       -2   -1    0    0    0  501  0.00000000000E+00  0.00000000000E+00  0.12840787448E+03  0.12840787450E+03  0.25500000920E-02 0. -1.
        2   -1    0    0  501    0  0.00000000000E+00  0.00000000000E+00 -0.68188885533E+03  0.68188885533E+03  0.25500000920E-02 0.  1.
    10030    2    1    2    0    0  0.00000000000E+00  0.00000000000E+00 -0.55348098085E+03  0.81029672983E+03  0.59181043774E+03 0.  0.
        1    1    3    3  502    0  0.18880222744E+03  0.11597467225E+03 -0.54526617070E+03  0.58856741553E+03  0.50400001928E-02 0.  1.
       -1    1    3    3    0  502 -0.18880222744E+03 -0.11597467225E+03 -0.82148101508E+01  0.22172931431E+03  0.50400001928E-02 0. -1.
</event>
<event>
 5   0  0.8575590E-02  0.6016447E+03  0.7818609E-02  0.9902000E-01
        2   -1    0    0  501    0  0.00000000000E+00  0.00000000000E+00  0.38321177445E+03  0.38321177446E+03  0.25500000920E-02 0. -1.
       -2   -1    0    0    0  501  0.00000000000E+00  0.00000000000E+00 -0.23614637656E+03  0.23614637658E+03  0.25500000920E-02 0.  1.
    10030    2    1    2    0    0  0.00000000000E+00  0.00000000000E+00  0.14706539789E+03  0.61935815104E+03  0.60164465260E+03 0.  0.
        4    1    3    3  502    0 -0.27596352034E+03 -0.46275937115E+02  0.18721557507E+03  0.33667285510E+03  0.12699999809E+01 0. -1.
       -4    1    3    3    0  502  0.27596352034E+03  0.46275937115E+02 -0.40150177179E+02  0.28268529594E+03  0.12699999809E+01 0.  1.
</event>
<event>
 5   0  0.5190380E-02  0.6108685E+03  0.7818609E-02  0.9883110E-01
       -1   -1    0    0    0  501  0.00000000000E+00  0.00000000000E+00  0.52009448807E+03  0.52009448810E+03  0.50400001928E-02 0. -1.
        1   -1    0    0  501    0  0.00000000000E+00  0.00000000000E+00 -0.17937141216E+03  0.17937141223E+03  0.50400001928E-02 0.  1.
    10030    2    1    2    0    0  0.00000000000E+00  0.00000000000E+00  0.34072307591E+03  0.69946590033E+03  0.61086850571E+03 0.  0.
        5    1    3    3  502    0  0.20287283473E+03  0.21238428297E+03  0.26618614866E+03  0.39641093131E+03  0.46999998093E+01 0. -1.
       -5    1    3    3    0  502 -0.20287283473E+03 -0.21238428297E+03  0.74536927256E+02  0.30305496902E+03  0.46999998093E+01 0.  1.
</event>
<event>
 5   0  0.8207443E-02  0.5862342E+03  0.7818609E-02  0.9934385E-01
       -2   -1    0    0    0  501  0.00000000000E+00  0.00000000000E+00  0.87334026716E+02  0.87334026753E+02  0.25500000920E-02 0. -1.
        2   -1    0    0  501    0  0.00000000000E+00  0.00000000000E+00 -0.98378180655E+03  0.98378180656E+03  0.25500000920E-02 0.  1.
    10030    2    1    2    0    0  0.00000000000E+00  0.00000000000E+00 -0.89644777984E+03  0.10711158333E+04  0.58623417368E+03 0.  0.
        1    1    3    3  502    0 -0.14758864403E+03 -0.90563989491E+02 -0.16107390104E+02  0.17390713637E+03  0.50400001928E-02 0. -1.
       -1    1    3    3    0  502  0.14758864403E+03  0.90563989491E+02 -0.88034038973E+03  0.89720869694E+03  0.50400001928E-02 0.  1.
</event>
<event>
 5   0  0.4987389E-02  0.5681640E+03  0.7818609E-02  0.9973750E-01
       -1   -1    0    0    0  501  0.00000000000E+00  0.00000000000E+00  0.73962361871E+02  0.73962362043E+02  0.50400001928E-02 0. -1.
        1   -1    0    0  501    0  0.00000000000E+00  0.00000000000E+00 -0.10911305918E+04  0.10911305918E+04  0.50400001928E-02 0.  1.
    10030    2    1    2    0    0  0.00000000000E+00  0.00000000000E+00 -0.10171682299E+04  0.11650929538E+04  0.56816404598E+03 0.  0.
        1    1    3    3  502    0  0.24945064378E+03 -0.13507439797E+03 -0.47735802395E+03  0.55528497164E+03  0.50400001928E-02 0.  1.
       -1    1    3    3    0  502 -0.24945064378E+03  0.13507439797E+03 -0.53981020596E+03  0.60980798220E+03  0.50400001928E-02 0. -1.
</event>
<event>
 5   0  0.5190380E-02  0.5931127E+03  0.7818609E-02  0.9919799E-01
       -1   -1    0    0    0  501  0.00000000000E+00  0.00000000000E+00  0.32122735448E+03  0.32122735452E+03  0.50400001928E-02 0. -1.
        1   -1    0    0  501    0  0.00000000000E+00  0.00000000000E+00 -0.27378011729E+03  0.27378011734E+03  0.50400001928E-02 0.  1.
    10030    2    1    2    0    0  0.00000000000E+00  0.00000000000E+00  0.47447237194E+02  0.59500747186E+03  0.59311268006E+03 0.  0.
        5    1    3    3  502    0 -0.24700464134E+02  0.14550200137E+03  0.28172731738E+03  0.31807753251E+03  0.46999998093E+01 0. -1.
       -5    1    3    3    0  502  0.24700464134E+02 -0.14550200137E+03 -0.23428008019E+03  0.27692993934E+03  0.46999998093E+01 0.  1.
</event>
<event>
 5   0  0.5190380E-02  0.6006728E+03  0.7818609E-02  0.9904011E-01
       -1   -1    0    0    0  501  0.00000000000E+00  0.00000000000E+00  0.11806683682E+03  0.11806683693E+03  0.50400001928E-02 0. -1.
        1   -1    0    0  501    0  0.00000000000E+00  0.00000000000E+00 -0.76399052313E+03  0.76399052314E+03  0.50400001928E-02 0.  1.
    10030    2    1    2    0    0  0.00000000000E+00  0.00000000000E+00 -0.64592368631E+03  0.88205736007E+03  0.60067277108E+03 0.  0.
        5    1    3    3  502    0 -0.12682818658E+03 -0.18468941780E+03 -0.61659395405E+03  0.65605317173E+03  0.46999998093E+01 0.  1.
       -5    1    3    3    0  502  0.12682818658E+03  0.18468941780E+03 -0.29329732253E+02  0.22600418835E+03  0.46999998093E+01 0. -1.
</event>
<event>
 5   0  0.8817544E-02  0.4888957E+03  0.7818609E-02  0.1016719E+00
        2   -1    0    0  501    0  0.00000000000E+00  0.00000000000E+00  0.44416997175E+03  0.44416997176E+03  0.25500000920E-02 0. -1.
       -2   -1    0    0    0  501  0.00000000000E+00  0.00000000000E+00 -0.13453128318E+03  0.13453128320E+03  0.25500000920E-02 0.  1.
    10030    2    1    2    0    0  0.00000000000E+00  0.00000000000E+00  0.30963868857E+03  0.57870125496E+03  0.48889572000E+03 0.  0.
        5    1    3    3  502    0  0.30049594114E+02 -0.87194488257E+02  0.42272805993E+03  0.43269730706E+03  0.46999998093E+01 0. -1.
       -5    1    3    3    0  502 -0.30049594114E+02  0.87194488257E+02 -0.11308937136E+03  0.14600394790E+03  0.46999998093E+01 0.  1.
</event>
<event>
 5   0  0.8817544E-02  0.6202198E+03  0.7818609E-02  0.9864322E-01
       -2   -1    0    0    0  501  0.00000000000E+00  0.00000000000E+00  0.19618969963E+03  0.19618969964E+03  0.25500000920E-02 0. -1.
        2   -1    0    0  501    0  0.00000000000E+00  0.00000000000E+00 -0.49017943983E+03  0.49017943984E+03  0.25500000920E-02 0.  1.
    10030    2    1    2    0    0  0.00000000000E+00  0.00000000000E+00 -0.29398974020E+03  0.68636913948E+03  0.62021982256E+03 0.  0.
        5    1    3    3  502    0  0.85648904187E+02  0.28834608033E+02 -0.47524232258E+03  0.48378148432E+03  0.46999998093E+01 0.  1.
       -5    1    3    3    0  502 -0.85648904187E+02 -0.28834608033E+02  0.18125258237E+03  0.20258765516E+03  0.46999998093E+01 0. -1.
</event>
<event>
 5   0  0.8575590E-02  0.5992912E+03  0.7818609E-02  0.9906878E-01
        2   -1    0    0  501    0  0.00000000000E+00  0.00000000000E+00  0.12243519513E+04  0.12243519513E+04  0.25500000920E-02 0.  1.
       -2   -1    0    0    0  501  0.00000000000E+00  0.00000000000E+00 -0.73334711363E+02  0.73334711407E+02  0.25500000920E-02 0. -1.
    10030    2    1    2    0    0  0.00000000000E+00  0.00000000000E+00  0.11510172399E+04  0.12976866627E+04  0.59929123799E+03 0.  0.
        4    1    3    3  502    0 -0.24584040457E+03 -0.14760110394E+03  0.76381224574E+03  0.81586417378E+03  0.12699999809E+01 0.  1.
       -4    1    3    3    0  502  0.24584040457E+03  0.14760110394E+03  0.38720499416E+03  0.48182248890E+03  0.12699999809E+01 0. -1.
</event>
<event>
 5   0  0.4987389E-02  0.6052175E+03  0.7818609E-02  0.9894640E-01
       -1   -1    0    0    0  501  0.00000000000E+00  0.00000000000E+00  0.91114168637E+02  0.91114168776E+02  0.50400001928E-02 0.  1.
        1   -1    0    0  501    0  0.00000000000E+00  0.00000000000E+00 -0.10050253297E+04  0.10050253297E+04  0.50400001928E-02 0. -1.
    10030    2    1    2    0    0  0.00000000000E+00  0.00000000000E+00 -0.91391116106E+03  0.10961394985E+04  0.60521747317E+03 0.  0.
        1    1    3    3  502    0  0.12034061301E+03 -0.11133722787E+03  0.37113774605E+01  0.16398663298E+03  0.50400001928E-02 0.  1.
       -1    1    3    3    0  502 -0.12034061301E+03  0.11133722787E+03 -0.91762253852E+03  0.93215286551E+03  0.50400001928E-02 0. -1.
</event>
<event>
 5   0  0.8817544E-02  0.5924215E+03  0.7818609E-02  0.9921255E-01
        2   -1    0    0  501    0  0.00000000000E+00  0.00000000000E+00  0.45596090757E+03  0.45596090757E+03  0.25500000920E-02 0. -1.
       -2   -1    0    0    0  501  0.00000000000E+00  0.00000000000E+00 -0.19243055246E+03  0.19243055248E+03  0.25500000920E-02 0.  1.
    10030    2    1    2    0    0  0.00000000000E+00  0.00000000000E+00  0.26353035510E+03  0.64839146006E+03  0.59242150317E+03 0.  0.
        5    1    3    3  502    0 -0.22913330009E+02 -0.22646561069E+03 -0.75628823198E+02  0.23990311048E+03  0.46999998093E+01 0.  1.
       -5    1    3    3    0  502  0.22913330009E+02  0.22646561069E+03  0.33915917830E+03  0.40848834958E+03  0.46999998093E+01 0. -1.
</event>
<event>
 5   0  0.4881209E-02  0.5913534E+03  0.7818609E-02  0.9923509E-01
        1   -1    0    0  501    0  0.00000000000E+00  0.00000000000E+00  0.16124475077E+03  0.16124475085E+03  0.50400001928E-02 0.  1.
       -1   -1    0    0    0  501  0.00000000000E+00  0.00000000000E+00 -0.54218644744E+03  0.54218644746E+03  0.50400001928E-02 0. -1.
    10030    2    1    2    0    0  0.00000000000E+00  0.00000000000E+00 -0.38094169667E+03  0.70343119831E+03  0.59135342605E+03 0.  0.
        3    1    3    3  502    0  0.10002901063E+03  0.19856415970E+03  0.41383849453E+02  0.22615517169E+03  0.10100000352E+00 0.  1.
       -3    1    3    3    0  502 -0.10002901063E+03 -0.19856415970E+03 -0.42232554612E+03  0.47727602662E+03  0.10100000352E+00 0. -1.
</event>
<event>
 5   0  0.8699746E-02  0.6005701E+03  0.7818609E-02  0.9904224E-01
       -2   -1    0    0    0  501  0.00000000000E+00  0.00000000000E+00  0.24425513300E+03  0.24425513301E+03  0.25500000920E-02 0.  1.
        2   -1    0    0  501    0  0.00000000000E+00  0.00000000000E+00 -0.36916778024E+03  0.36916778025E+03  0.25500000920E-02 0. -1.
    10030    2    1    2    0    0  0.00000000000E+00  0.00000000000E+00 -0.12491264724E+03  0.61342291326E+03  0.60057014667E+03 0.  0.
        3    1    3    3  502    0  0.18087052676E+03 -0.11009052937E+03  0.15502544148E+03  0.26242516993E+03  0.10100000352E+00 0.  1.
       -3    1    3    3    0  502 -0.18087052676E+03  0.11009052937E+03 -0.27993808873E+03  0.35099774333E+03  0.10100000352E+00 0. -1.
</event>
<event>
 5   0  0.8817544E-02  0.5886790E+03  0.7818609E-02  0.9929176E-01
        2   -1    0    0  501    0  0.00000000000E+00  0.00000000000E+00  0.69868944280E+03  0.69868944281E+03  0.25500000920E-02 0. -1.
       -2   -1    0    0    0  501  0.00000000000E+00  0.00000000000E+00 -0.12399749662E+03  0.12399749664E+03  0.25500000920E-02 0.  1.
    10030    2    1    2    0    0  0.00000000000E+00  0.00000000000E+00  0.57469194619E+03  0.82268693945E+03  0.58867900195E+03 0.  0.
        5    1    3    3  502    0  0.25435263918E+02  0.21609093068E+03  0.56429146413E+03  0.60480508386E+03  0.46999998093E+01 0. -1.
       -5    1    3    3    0  502 -0.25435263918E+02 -0.21609093068E+03  0.10400482054E+02  0.21788185559E+03  0.46999998093E+01 0.  1.
</event>
<event>
 5   0  0.5125031E-02  0.6008131E+03  0.7818609E-02  0.9903721E-01
       -1   -1    0    0    0  501  0.00000000000E+00  0.00000000000E+00  0.60006783927E+02  0.60006784139E+02  0.50400001928E-02 0.  1.
        1   -1    0    0  501    0  0.00000000000E+00  0.00000000000E+00 -0.15038980456E+04  0.15038980456E+04  0.50400001928E-02 0. -1.
    10030    2    1    2    0    0  0.00000000000E+00  0.00000000000E+00 -0.14438912616E+04  0.15639048297E+04  0.60081306657E+03 0.  0.
        4    1    3    3  502    0  0.20528101952E+03  0.19579860528E+03 -0.97916809150E+03  0.10194357043E+04  0.12699999809E+01 0. -1.
       -4    1    3    3    0  502 -0.20528101952E+03 -0.19579860528E+03 -0.46472317013E+03  0.54446912544E+03  0.12699999809E+01 0.  1.
</event>
<event>
 5   0  0.8699746E-02  0.5942772E+03  0.7818609E-02  0.9917351E-01
       -2   -1    0    0    0  501  0.00000000000E+00  0.00000000000E+00  0.68391944612E+02  0.68391944659E+02  0.25500000920E-02 0. -1.
        2   -1    0    0  501    0  0.00000000000E+00  0.00000000000E+00 -0.12909613499E+04  0.12909613499E+04  0.25500000920E-02 0.  1.
    10030    2    1    2    0    0  0.00000000000E+00  0.00000000000E+00 -0.12225694053E+04  0.13593532946E+04  0.59427723218E+03 0.  0.
        3    1    3    3  502    0  0.14473200642E+03  0.12087999379E+03 -0.86017290508E+02  0.20726386817E+03  0.10100000352E+00 0. -1.
       -3    1    3    3    0  502 -0.14473200642E+03 -0.12087999379E+03 -0.11365521148E+04  0.11520894264E+04  0.10100000352E+00 0.  1.
</event>
<event>
 5   0  0.8420604E-02  0.6024958E+03  0.7818609E-02  0.9900242E-01
        2   -1    0    0  501    0  0.00000000000E+00  0.00000000000E+00  0.12205027254E+04  0.12205027254E+04  0.25500000920E-02 0. -1.
       -2   -1    0    0    0  501  0.00000000000E+00  0.00000000000E+00 -0.74354844043E+02  0.74354844087E+02  0.25500000920E-02 0.  1.
    10030    2    1    2    0    0  0.00000000000E+00  0.00000000000E+00  0.11461478813E+04  0.12948575695E+04  0.60249577535E+03 0.  0.
        2    1    3    3  502    0 -0.84471085608E+02 -0.25629583963E+03  0.86083118239E+03  0.90213815256E+03  0.25500000920E-02 0.  1.
       -2    1    3    3    0  502  0.84471085608E+02  0.25629583963E+03  0.28531669894E+03  0.39271941690E+03  0.25500000920E-02 0. -1.
</event>
<event>
 5   0  0.8575590E-02  0.5996352E+03  0.7818609E-02  0.9906163E-01
       -2   -1    0    0    0  501  0.00000000000E+00  0.00000000000E+00  0.15806085607E+03  0.15806085609E+03  0.25500000920E-02 0. -1.
        2   -1    0    0  501    0  0.00000000000E+00  0.00000000000E+00 -0.56870882658E+03  0.56870882658E+03  0.25500000920E-02 0.  1.
    10030    2    1    2    0    0  0.00000000000E+00  0.00000000000E+00 -0.41064797051E+03  0.72676968267E+03  0.59963523576E+03 0.  0.
        4    1    3    3  502    0  0.56888778041E+02  0.21801181499E+03 -0.44505738468E+03  0.49884183175E+03  0.12699999809E+01 0.  1.
       -4    1    3    3    0  502 -0.56888778041E+02 -0.21801181499E+03  0.34409414173E+02  0.22792785092E+03  0.12699999809E+01 0. -1.
</event>
<event>
 5   0  0.8699746E-02  0.6028729E+03  0.7818609E-02  0.9899463E-01
        2   -1    0    0  501    0  0.00000000000E+00  0.00000000000E+00  0.48599254250E+03  0.48599254251E+03  0.25500000920E-02 0.  1.
       -2   -1    0    0    0  501  0.00000000000E+00  0.00000000000E+00 -0.18696572307E+03  0.18696572309E+03  0.25500000920E-02 0. -1.
    10030    2    1    2    0    0  0.00000000000E+00  0.00000000000E+00  0.29902681943E+03  0.67295826560E+03  0.60287294557E+03 0.  0.
        3    1    3    3  502    0 -0.86880383277E+02 -0.22695152002E+02 -0.17168933798E+03  0.19375373519E+03  0.10100000352E+00 0. -1.
       -3    1    3    3    0  502  0.86880383277E+02  0.22695152002E+02  0.47071615741E+03  0.47920453041E+03  0.10100000352E+00 0.  1.
</event>
<event>
 5   0  0.8207443E-02  0.6336217E+03  0.7818609E-02  0.9838007E-01
       -2   -1    0    0    0  501  0.00000000000E+00  0.00000000000E+00  0.52488363135E+02  0.52488363197E+02  0.25500000920E-02 0.  1.
        2   -1    0    0  501    0  0.00000000000E+00  0.00000000000E+00 -0.19122165636E+04  0.19122165636E+04  0.25500000920E-02 0. -1.
    10030    2    1    2    0    0  0.00000000000E+00  0.00000000000E+00 -0.18597282005E+04  0.19647049268E+04  0.63362170874E+03 0.  0.
        1    1    3    3  502    0 -0.20932577229E+03  0.22741146910E+03 -0.11454916482E+04  0.11864587525E+04  0.50400001928E-02 0.  1.
       -1    1    3    3    0  502  0.20932577229E+03 -0.22741146910E+03 -0.71423655230E+03  0.77824617435E+03  0.50400001928E-02 0. -1.
</event>
<event>
 5   0  0.8207443E-02  0.6127912E+03  0.7818609E-02  0.9879218E-01
       -2   -1    0    0    0  501  0.00000000000E+00  0.00000000000E+00  0.18848796418E+03  0.18848796420E+03  0.25500000920E-02 0.  1.
        2   -1    0    0  501    0  0.00000000000E+00  0.00000000000E+00 -0.49805968338E+03  0.49805968339E+03  0.25500000920E-02 0. -1.
    10030    2    1    2    0    0  0.00000000000E+00  0.00000000000E+00 -0.30957171920E+03  0.68654764758E+03  0.61279117411E+03 0.  0.
        1    1    3    3  502    0  0.99793352362E+02  0.11591816550E+03  0.14265381543E+03  0.20915507489E+03  0.50400001928E-02 0.  1.
       -1    1    3    3    0  502 -0.99793352362E+02 -0.11591816550E+03 -0.45222553463E+03  0.47739257270E+03  0.50400001928E-02 0. -1.
</event>
<event>
 5   0  0.4987389E-02  0.5964024E+03  0.7818609E-02  0.9912898E-01
       -1   -1    0    0    0  501  0.00000000000E+00  0.00000000000E+00  0.20492412188E+03  0.20492412194E+03  0.50400001928E-02 0.  1.
        1   -1    0    0  501    0  0.00000000000E+00  0.00000000000E+00 -0.43393604567E+03  0.43393604570E+03  0.50400001928E-02 0. -1.
    10030    2    1    2    0    0  0.00000000000E+00  0.00000000000E+00 -0.22901192379E+03  0.63886016765E+03  0.59640242502E+03 0.  0.
        1    1    3    3  502    0  0.22949382025E+03 -0.65645010622E+02  0.76956381085E+02  0.25079666180E+03  0.50400001928E-02 0.  1.
       -1    1    3    3    0  502 -0.22949382025E+03  0.65645010622E+02 -0.30596830488E+03  0.38806350585E+03  0.50400001928E-02 0. -1.
</event>
<event>
 5   0  0.5166903E-02  0.6082540E+03  0.7818609E-02  0.9888428E-01
        1   -1    0    0  501    0  0.00000000000E+00  0.00000000000E+00  0.11757235194E+04  0.11757235194E+04  0.50400001928E-02 0. -1.
       -1   -1    0    0    0  501  0.00000000000E+00  0.00000000000E+00 -0.78669210266E+02  0.78669210427E+02  0.50400001928E-02 0.  1.
    10030    2    1    2    0    0  0.00000000000E+00  0.00000000000E+00  0.10970543092E+04  0.12543927299E+04  0.60825402875E+03 0.  0.
        2    1    3    3  502    0  0.84858442946E+01  0.26172773612E+03  0.86748076250E+03  0.90614363691E+03  0.25500000920E-02 0. -1.
       -2    1    3    3    0  502 -0.84858442946E+01 -0.26172773612E+03  0.22957354665E+03  0.34824909294E+03  0.25500000920E-02 0.  1.
</event>
<event>
 5   0  0.8207443E-02  0.5984881E+03  0.7818609E-02  0.9908548E-01
        2   -1    0    0  501    0  0.00000000000E+00  0.00000000000E+00  0.42266709713E+03  0.42266709714E+03  0.25500000920E-02 0.  1.
       -2   -1    0    0    0  501  0.00000000000E+00  0.00000000000E+00 -0.21186175977E+03  0.21186175978E+03  0.25500000920E-02 0. -1.
    10030    2    1    2    0    0  0.00000000000E+00  0.00000000000E+00  0.21080533736E+03  0.63452885692E+03  0.59848807841E+03 0.  0.
        1    1    3    3  502    0  0.15096852657E+03 -0.82863864543E+02  0.36486223663E+03  0.40346296956E+03  0.50400001928E-02 0.  1.
       -1    1    3    3    0  502 -0.15096852657E+03  0.82863864543E+02 -0.15405689927E+03  0.23106588736E+03  0.50400001928E-02 0. -1.
</event>
<event>
 5   0  0.4881209E-02  0.6002006E+03  0.7818609E-02  0.9904990E-01
       -1   -1    0    0    0  501  0.00000000000E+00  0.00000000000E+00  0.13515246561E+03  0.13515246570E+03  0.50400001928E-02 0.  1.
        1   -1    0    0  501    0  0.00000000000E+00  0.00000000000E+00 -0.66635993998E+03  0.66635994000E+03  0.50400001928E-02 0. -1.
    10030    2    1    2    0    0  0.00000000000E+00  0.00000000000E+00 -0.53120747437E+03  0.80151240570E+03  0.60020059619E+03 0.  0.
        3    1    3    3  502    0  0.10321948424E+03  0.26466096619E+03 -0.13640355901E+03  0.31512795824E+03  0.10100000352E+00 0. -1.
       -3    1    3    3    0  502 -0.10321948424E+03 -0.26466096619E+03 -0.39480391536E+03  0.48638444746E+03  0.10100000352E+00 0.  1.
</event>
<event>
 5   0  0.8817544E-02  0.5896731E+03  0.7818609E-02  0.9927066E-01
        2   -1    0    0  501    0  0.00000000000E+00  0.00000000000E+00  0.31914427340E+03  0.31914427341E+03  0.25500000920E-02 0. -1.
       -2   -1    0    0    0  501  0.00000000000E+00  0.00000000000E+00 -0.27238019339E+03  0.27238019340E+03  0.25500000920E-02 0.  1.
    10030    2    1    2    0    0  0.00000000000E+00  0.00000000000E+00  0.46764080006E+02  0.59152446681E+03  0.58967305827E+03 0.  0.
        5    1    3    3  502    0 -0.10002825931E+03 -0.27502802391E+03 -0.12231854615E+02  0.29294670994E+03  0.46999998093E+01 0.  1.
       -5    1    3    3    0  502  0.10002825931E+03  0.27502802391E+03  0.58995934621E+02  0.29857775687E+03  0.46999998093E+01 0. -1.
</event>
<event>
 5   0  0.4881209E-02  0.5912273E+03  0.7818609E-02  0.9923776E-01
        1   -1    0    0  501    0  0.00000000000E+00  0.00000000000E+00  0.56872591012E+03  0.56872591014E+03  0.50400001928E-02 0. -1.
       -1   -1    0    0    0  501  0.00000000000E+00  0.00000000000E+00 -0.15365476069E+03  0.15365476077E+03  0.50400001928E-02 0.  1.
    10030    2    1    2    0    0  0.00000000000E+00  0.00000000000E+00  0.41507114943E+03  0.72238067091E+03  0.59122734596E+03 0.  0.
        3    1    3    3  502    0 -0.88440863770E+02  0.22585630827E+03  0.41400200760E+03  0.47982343718E+03  0.10100000352E+00 0. -1.
       -3    1    3    3    0  502  0.88440863770E+02 -0.22585630827E+03  0.10691418318E+01  0.24255723373E+03  0.10100000352E+00 0.  1.
</event>
<event>
 5   0  0.8420604E-02  0.6036575E+03  0.7818609E-02  0.9897847E-01
        2   -1    0    0  501    0  0.00000000000E+00  0.00000000000E+00  0.64717123399E+03  0.64717123399E+03  0.25500000920E-02 0.  1.
       -2   -1    0    0    0  501  0.00000000000E+00  0.00000000000E+00 -0.14076737686E+03  0.14076737688E+03  0.25500000920E-02 0. -1.
    10030    2    1    2    0    0  0.00000000000E+00  0.00000000000E+00  0.50640385713E+03  0.78793861087E+03  0.60365750884E+03 0.  0.
        2    1    3    3  502    0 -0.82062112080E+02 -0.13692745546E+03 -0.81155427896E+02  0.17907965206E+03  0.25500000920E-02 0. -1.
       -2    1    3    3    0  502  0.82062112080E+02  0.13692745546E+03  0.58755928503E+03  0.60885895882E+03  0.25500000920E-02 0.  1.
</event>
<event>
 5   0  0.5125031E-02  0.5997574E+03  0.7818609E-02  0.9905910E-01
        1   -1    0    0  501    0  0.00000000000E+00  0.00000000000E+00  0.82105881232E+03  0.82105881234E+03  0.50400001928E-02 0. -1.
       -1   -1    0    0    0  501  0.00000000000E+00  0.00000000000E+00 -0.10952591962E+03  0.10952591974E+03  0.50400001928E-02 0.  1.
    10030    2    1    2    0    0  0.00000000000E+00  0.00000000000E+00  0.71153289270E+03  0.93058473208E+03  0.59975735609E+03 0.  0.
        4    1    3    3  502    0  0.31375943743E+02 -0.28674877800E+03  0.22860797756E+03  0.36806593408E+03  0.12699999809E+01 0.  1.
       -4    1    3    3    0  502 -0.31375943743E+02  0.28674877800E+03  0.48292491514E+03  0.56251879800E+03  0.12699999809E+01 0. -1.
</event>
<event>
 5   0  0.5190380E-02  0.5767373E+03  0.7818609E-02  0.9954880E-01
        1   -1    0    0  501    0  0.00000000000E+00  0.00000000000E+00  0.18351848538E+03  0.18351848545E+03  0.50400001928E-02 0.  1.
       -1   -1    0    0    0  501  0.00000000000E+00  0.00000000000E+00 -0.45312316809E+03  0.45312316812E+03  0.50400001928E-02 0. -1.
    10030    2    1    2    0    0  0.00000000000E+00  0.00000000000E+00 -0.26960468272E+03  0.63664165357E+03  0.57673729731E+03 0.  0.
        5    1    3    3  502    0  0.14676543310E+03 -0.49200051196E+02  0.13372047385E+03  0.20460692197E+03  0.46999998093E+01 0.  1.
       -5    1    3    3    0  502 -0.14676543310E+03  0.49200051196E+02 -0.40332515657E+03  0.43203473160E+03  0.46999998093E+01 0. -1.
</event>
<event>
 5   0  0.4987389E-02  0.5856781E+03  0.7818609E-02  0.9935573E-01
        1   -1    0    0  501    0  0.00000000000E+00  0.00000000000E+00  0.34598232229E+03  0.34598232233E+03  0.50400001928E-02 0.  1.
       -1   -1    0    0    0  501  0.00000000000E+00  0.00000000000E+00 -0.24785865682E+03  0.24785865687E+03  0.50400001928E-02 0. -1.
    10030    2    1    2    0    0  0.00000000000E+00  0.00000000000E+00  0.98123665469E+02  0.59384097920E+03  0.58567811539E+03 0.  0.
        1    1    3    3  502    0  0.21924276070E+03  0.15287312670E+03 -0.72260064283E+02  0.27687379418E+03  0.50400001928E-02 0. -1.
       -1    1    3    3    0  502 -0.21924276070E+03 -0.15287312670E+03  0.17038372975E+03  0.31696718502E+03  0.50400001928E-02 0.  1.
</event>
<event>
 5   0  0.5166903E-02  0.5981704E+03  0.7818609E-02  0.9909209E-01
       -1   -1    0    0    0  501  0.00000000000E+00  0.00000000000E+00  0.10740611886E+03  0.10740611897E+03  0.50400001928E-02 0. -1.
        1   -1    0    0  501    0  0.00000000000E+00  0.00000000000E+00 -0.83283855437E+03  0.83283855438E+03  0.50400001928E-02 0.  1.
    10030    2    1    2    0    0  0.00000000000E+00  0.00000000000E+00 -0.72543243551E+03  0.94024467336E+03  0.59817039987E+03 0.  0.
        2    1    3    3  502    0 -0.24727258311E+03 -0.13487828388E+03 -0.52081261874E+03  0.59209937145E+03  0.25500000920E-02 0.  1.
       -2    1    3    3    0  502  0.24727258311E+03  0.13487828388E+03 -0.20461981677E+03  0.34814530191E+03  0.25500000920E-02 0. -1.
</event>
<event>
 5   0  0.8699746E-02  0.6060408E+03  0.7818609E-02  0.9892952E-01
        2   -1    0    0  501    0  0.00000000000E+00  0.00000000000E+00  0.12502683342E+04  0.12502683342E+04  0.25500000920E-02 0. -1.
       -2   -1    0    0    0  501  0.00000000000E+00  0.00000000000E+00 -0.73441322877E+02  0.73441322921E+02  0.25500000920E-02 0.  1.
    10030    2    1    2    0    0  0.00000000000E+00  0.00000000000E+00  0.11768270114E+04  0.13237096572E+04  0.60604079218E+03 0.  0.
        3    1    3    3  502    0 -0.28236468315E+03 -0.10395662202E+03  0.51013049518E+03  0.59225832697E+03  0.10100000352E+00 0.  1.
       -3    1    3    3    0  502  0.28236468315E+03  0.10395662202E+03  0.66669651617E+03  0.73145133018E+03  0.10100000352E+00 0. -1.
</event>
<event>
 5   0  0.8207443E-02  0.6054488E+03  0.7818609E-02  0.9894166E-01
        2   -1    0    0  501    0  0.00000000000E+00  0.00000000000E+00  0.21875884545E+03  0.21875884546E+03  0.25500000920E-02 0.  1.
       -2   -1    0    0    0  501  0.00000000000E+00  0.00000000000E+00 -0.41891820290E+03  0.41891820291E+03  0.25500000920E-02 0. -1.
    10030    2    1    2    0    0  0.00000000000E+00  0.00000000000E+00 -0.20015935745E+03  0.63767704837E+03  0.60544880018E+03 0.  0.
        1    1    3    3  502    0  0.25761264337E+03  0.15489745731E+03 -0.13782834293E+03  0.33068738779E+03  0.50400001928E-02 0.  1.
       -1    1    3    3    0  502 -0.25761264337E+03 -0.15489745731E+03 -0.62331014526E+02  0.30698966058E+03  0.50400001928E-02 0. -1.
</event>
<event>
 5   0  0.3437375E-02  0.5988173E+03  0.7818609E-02  0.9907863E-01
        4   -1    0    0  501    0  0.00000000000E+00  0.00000000000E+00  0.12076648702E+03  0.12077316460E+03  0.12699999809E+01 0. -1.
       -4   -1    0    0    0  501  0.00000000000E+00  0.00000000000E+00 -0.74227694202E+03  0.74227802847E+03  0.12699999809E+01 0.  1.
    10030    2    1    2    0    0  0.00000000000E+00  0.00000000000E+00 -0.62151045500E+03  0.86305119307E+03  0.59881726444E+03 0.  0.
        5    1    3    3  502    0 -0.71929355580E+02 -0.82004412729E+02  0.91056199351E+02  0.14216848223E+03  0.46999998093E+01 0. -1.
       -5    1    3    3    0  502  0.71929355580E+02  0.82004412729E+02 -0.71256665435E+03  0.72088271084E+03  0.46999998093E+01 0.  1.
</event>
<event>
 5   0  0.5166903E-02  0.5915459E+03  0.7818609E-02  0.9923102E-01
       -1   -1    0    0    0  501  0.00000000000E+00  0.00000000000E+00  0.92256203769E+02  0.92256203907E+02  0.50400001928E-02 0. -1.
        1   -1    0    0  501    0  0.00000000000E+00  0.00000000000E+00 -0.94824676867E+03  0.94824676869E+03  0.50400001928E-02 0.  1.
    10030    2    1    2    0    0  0.00000000000E+00  0.00000000000E+00 -0.85599056490E+03  0.10405029726E+04  0.59154593124E+03 0.  0.
        2    1    3    3  502    0 -0.15865069944E+03  0.24561454636E+03 -0.34962601977E+03  0.45577944614E+03  0.25500000920E-02 0. -1.
       -2    1    3    3    0  502  0.15865069944E+03 -0.24561454636E+03 -0.50636454514E+03  0.58472352646E+03  0.25500000920E-02 0.  1.
</event>
<event>
 5   0  0.4881209E-02  0.6071212E+03  0.7818609E-02  0.9890741E-01
        1   -1    0    0  501    0  0.00000000000E+00  0.00000000000E+00  0.14403084070E+04  0.14403084070E+04  0.50400001928E-02 0.  1.
       -1   -1    0    0    0  501  0.00000000000E+00  0.00000000000E+00 -0.63978684674E+02  0.63978684872E+02  0.50400001928E-02 0. -1.
    10030    2    1    2    0    0  0.00000000000E+00  0.00000000000E+00  0.13763297223E+04  0.15042870918E+04  0.60712119896E+03 0.  0.
        3    1    3    3  502    0  0.72244263722E+01 -0.19281780053E+03  0.10751649941E+03  0.22088617970E+03  0.10100000352E+00 0. -1.
       -3    1    3    3    0  502 -0.72244263722E+01  0.19281780053E+03  0.12688132229E+04  0.12834009121E+04  0.10100000352E+00 0.  1.
</event>
<event>
 5   0  0.5125031E-02  0.5990256E+03  0.7818609E-02  0.9907430E-01
        1   -1    0    0  501    0  0.00000000000E+00  0.00000000000E+00  0.10514579350E+04  0.10514579350E+04  0.50400001928E-02 0. -1.
       -1   -1    0    0    0  501  0.00000000000E+00  0.00000000000E+00 -0.85317639675E+02  0.85317639824E+02  0.50400001928E-02 0.  1.
    10030    2    1    2    0    0  0.00000000000E+00  0.00000000000E+00  0.96614029533E+03  0.11367755748E+04  0.59902557316E+03 0.  0.
        4    1    3    3  502    0  0.40044477694E+02 -0.28671273062E+03  0.33732239471E+03  0.44451744731E+03  0.12699999809E+01 0. -1.
       -4    1    3    3    0  502 -0.40044477694E+02  0.28671273062E+03  0.62881790062E+03  0.69225812753E+03  0.12699999809E+01 0.  1.
</event>
<event>
 5   0  0.8420604E-02  0.5982768E+03  0.7818609E-02  0.9908988E-01
       -2   -1    0    0    0  501  0.00000000000E+00  0.00000000000E+00  0.88396744306E+02  0.88396744343E+02  0.25500000920E-02 0. -1.
        2   -1    0    0  501    0  0.00000000000E+00  0.00000000000E+00 -0.10122974024E+04  0.10122974024E+04  0.25500000920E-02 0.  1.
    10030    2    1    2    0    0  0.00000000000E+00  0.00000000000E+00 -0.92390065807E+03  0.11006941467E+04  0.59827684114E+03 0.  0.
        2    1    3    3  502    0 -0.10135232835E+03  0.85291500180E+02  0.31496320191E+02  0.13615782260E+03  0.25500000920E-02 0. -1.
       -2    1    3    3    0  502  0.10135232835E+03 -0.85291500180E+02 -0.95539697826E+03  0.96453632411E+03  0.25500000920E-02 0.  1.
</event>
<event>
 5   0  0.8207443E-02  0.5970305E+03  0.7818609E-02  0.9911586E-01
        2   -1    0    0  501    0  0.00000000000E+00  0.00000000000E+00  0.22627855568E+03  0.22627855570E+03  0.25500000920E-02 0.  1.
       -2   -1    0    0    0  501  0.00000000000E+00  0.00000000000E+00 -0.39381258300E+03  0.39381258301E+03  0.25500000920E-02 0. -1.
    10030    2    1    2    0    0  0.00000000000E+00  0.00000000000E+00 -0.16753402732E+03  0.62009113871E+03  0.59703045985E+03 0.  0.
        1    1    3    3  502    0  0.19864172881E+03  0.64665504487E+02 -0.30524325357E+03  0.36988323532E+03  0.50400001928E-02 0. -1.
       -1    1    3    3    0  502 -0.19864172881E+03 -0.64665504487E+02  0.13770922625E+03  0.25020790338E+03  0.50400001928E-02 0.  1.
</event>
<event>
 5   0  0.5190380E-02  0.5672046E+03  0.7818609E-02  0.9975884E-01
        1   -1    0    0  501    0  0.00000000000E+00  0.00000000000E+00  0.96214871661E+02  0.96214871793E+02  0.50400001928E-02 0. -1.
       -1   -1    0    0    0  501  0.00000000000E+00  0.00000000000E+00 -0.83594416002E+03  0.83594416004E+03  0.50400001928E-02 0.  1.
    10030    2    1    2    0    0  0.00000000000E+00  0.00000000000E+00 -0.73972928836E+03  0.93215903183E+03  0.56720458440E+03 0.  0.
        5    1    3    3  502    0  0.16366531219E+03  0.22387405234E+03 -0.46712223457E+03  0.54325978845E+03  0.46999998093E+01 0.  1.
       -5    1    3    3    0  502 -0.16366531219E+03 -0.22387405234E+03 -0.27260705379E+03  0.38889924338E+03  0.46999998093E+01 0. -1.
</event>
<event>
 5   0  0.4987389E-02  0.6028081E+03  0.7818609E-02  0.9899597E-01
       -1   -1    0    0    0  501  0.00000000000E+00  0.00000000000E+00  0.20070013483E+03  0.20070013490E+03  0.50400001928E-02 0.  1.
        1   -1    0    0  501    0  0.00000000000E+00  0.00000000000E+00 -0.45263748203E+03  0.45263748206E+03  0.50400001928E-02 0. -1.
    10030    2    1    2    0    0  0.00000000000E+00  0.00000000000E+00 -0.25193734719E+03  0.65333761695E+03  0.60280810779E+03 0.  0.
        1    1    3    3  502    0  0.24183687581E+03  0.97619985306E+02  0.37791531540E+02  0.26352027610E+03  0.50400001928E-02 0.  1.
       -1    1    3    3    0  502 -0.24183687581E+03 -0.97619985306E+02 -0.28972887873E+03  0.38981734085E+03  0.50400001928E-02 0. -1.
</event>
<event>
 5   0  0.8420604E-02  0.5560791E+03  0.7818609E-02  0.1000097E+00
        2   -1    0    0  501    0  0.00000000000E+00  0.00000000000E+00  0.15389732155E+04  0.15389732155E+04  0.25500000920E-02 0.  1.
       -2   -1    0    0    0  501  0.00000000000E+00  0.00000000000E+00 -0.50232192650E+02  0.50232192715E+02  0.25500000920E-02 0. -1.
    10030    2    1    2    0    0  0.00000000000E+00  0.00000000000E+00  0.14887410229E+04  0.15892054083E+04  0.55607912782E+03 0.  0.
        2    1    3    3  502    0  0.20033040922E+03  0.18903741903E+03  0.63597519550E+03  0.69305978671E+03  0.25500000920E-02 0. -1.
       -2    1    3    3    0  502 -0.20033040922E+03 -0.18903741903E+03  0.85276582740E+03  0.89614562156E+03  0.25500000920E-02 0.  1.
</event>
<event>
 5   0  0.4987389E-02  0.6053098E+03  0.7818609E-02  0.9894451E-01
        1   -1    0    0  501    0  0.00000000000E+00  0.00000000000E+00  0.66144733695E+03  0.66144733697E+03  0.50400001928E-02 0.  1.
       -1   -1    0    0    0  501  0.00000000000E+00  0.00000000000E+00 -0.13848419637E+03  0.13848419647E+03  0.50400001928E-02 0. -1.
    10030    2    1    2    0    0  0.00000000000E+00  0.00000000000E+00  0.52296314057E+03  0.79993153343E+03  0.60530984775E+03 0.  0.
        1    1    3    3  502    0  0.70698633971E+01 -0.22275413981E+03 -0.91264625158E+01  0.22305309259E+03  0.50400001928E-02 0. -1.
       -1    1    3    3    0  502 -0.70698633971E+01  0.22275413981E+03  0.53208960309E+03  0.57687844084E+03  0.50400001928E-02 0.  1.
</event>
<event>
 5   0  0.8207443E-02  0.6004310E+03  0.7818609E-02  0.9904512E-01
       -2   -1    0    0    0  501  0.00000000000E+00  0.00000000000E+00  0.28813110071E+03  0.28813110072E+03  0.25500000920E-02 0.  1.
        2   -1    0    0  501    0  0.00000000000E+00  0.00000000000E+00 -0.31280672483E+03  0.31280672484E+03  0.25500000920E-02 0. -1.
    10030    2    1    2    0    0  0.00000000000E+00  0.00000000000E+00 -0.24675624116E+02  0.60093782556E+03  0.60043099834E+03 0.  0.
        1    1    3    3  502    0  0.70435969782E+02  0.17374887386E+03  0.22233708011E+03  0.29083272551E+03  0.50400001928E-02 0.  1.
       -1    1    3    3    0  502 -0.70435969782E+02 -0.17374887386E+03 -0.24701270423E+03  0.31010510006E+03  0.50400001928E-02 0. -1.
</event>
<event>
 5   0  0.4881209E-02  0.6017424E+03  0.7818609E-02  0.9901798E-01
       -1   -1    0    0    0  501  0.00000000000E+00  0.00000000000E+00  0.67749909227E+02  0.67749909414E+02  0.50400001928E-02 0.  1.
        1   -1    0    0  501    0  0.00000000000E+00  0.00000000000E+00 -0.13361416661E+04  0.13361416661E+04  0.50400001928E-02 0. -1.
    10030    2    1    2    0    0  0.00000000000E+00  0.00000000000E+00 -0.12683917569E+04  0.14038915755E+04  0.60174239250E+03 0.  0.
        3    1    3    3  502    0  0.48705097982E+02  0.29064775929E+03 -0.49275951417E+03  0.57416047892E+03  0.10100000352E+00 0.  1.
       -3    1    3    3    0  502 -0.48705097982E+02 -0.29064775929E+03 -0.77563224272E+03  0.82973109662E+03  0.10100000352E+00 0. -1.
</event>
<event>
 5   0  0.8817544E-02  0.6005978E+03  0.7818609E-02  0.9904167E-01
        2   -1    0    0  501    0  0.00000000000E+00  0.00000000000E+00  0.69231832370E+03  0.69231832370E+03  0.25500000920E-02 0.  1.
       -2   -1    0    0    0  501  0.00000000000E+00  0.00000000000E+00 -0.13025716349E+03  0.13025716352E+03  0.25500000920E-02 0. -1.
    10030    2    1    2    0    0  0.00000000000E+00  0.00000000000E+00  0.56206116021E+03  0.82257548722E+03  0.60059777253E+03 0.  0.
        5    1    3    3  502    0  0.24333169174E+03 -0.13667626445E+03  0.12934145027E+03  0.30763942242E+03  0.46999998093E+01 0. -1.
       -5    1    3    3    0  502 -0.24333169174E+03  0.13667626445E+03  0.43271970994E+03  0.51493606480E+03  0.46999998093E+01 0.  1.
</event>
<event>
 5   0  0.8207443E-02  0.5999221E+03  0.7818609E-02  0.9905568E-01
        2   -1    0    0  501    0  0.00000000000E+00  0.00000000000E+00  0.36422525394E+03  0.36422525394E+03  0.25500000920E-02 0. -1.
       -2   -1    0    0    0  501  0.00000000000E+00  0.00000000000E+00 -0.24703568428E+03  0.24703568429E+03  0.25500000920E-02 0.  1.
    10030    2    1    2    0    0  0.00000000000E+00  0.00000000000E+00  0.11718956965E+03  0.61126093824E+03  0.59992211110E+03 0.  0.
        1    1    3    3  502    0 -0.31365679714E+02  0.22047876879E+03  0.26334547405E+03  0.34488480987E+03  0.50400001928E-02 0. -1.
       -1    1    3    3    0  502  0.31365679714E+02 -0.22047876879E+03 -0.14615590440E+03  0.26637612837E+03  0.50400001928E-02 0.  1.
</event>
<event>
 5   0  0.5166903E-02  0.6034354E+03  0.7818609E-02  0.9898304E-01
       -1   -1    0    0    0  501  0.00000000000E+00  0.00000000000E+00  0.15768325959E+03  0.15768325967E+03  0.50400001928E-02 0. -1.
        1   -1    0    0  501    0  0.00000000000E+00  0.00000000000E+00 -0.57731923565E+03  0.57731923567E+03  0.50400001928E-02 0.  1.
    10030    2    1    2    0    0  0.00000000000E+00  0.00000000000E+00 -0.41963597606E+03  0.73500249534E+03  0.60343542798E+03 0.  0.
        2    1    3    3  502    0  0.13756510143E+03  0.11852739598E+03 -0.50331187605E+03  0.53506611302E+03  0.25500000920E-02 0.  1.
       -2    1    3    3    0  502 -0.13756510143E+03 -0.11852739598E+03  0.83675899987E+02  0.19993638231E+03  0.25500000920E-02 0. -1.
</event>
<event>
 5   0  0.8420604E-02  0.6007696E+03  0.7818609E-02  0.9903811E-01
        2   -1    0    0  501    0  0.00000000000E+00  0.00000000000E+00  0.84740556850E+03  0.84740556851E+03  0.25500000920E-02 0.  1.
       -2   -1    0    0    0  501  0.00000000000E+00  0.00000000000E+00 -0.10647916577E+03  0.10647916580E+03  0.25500000920E-02 0. -1.
    10030    2    1    2    0    0  0.00000000000E+00  0.00000000000E+00  0.74092640274E+03  0.95388473431E+03  0.60076963312E+03 0.  0.
        2    1    3    3  502    0 -0.27275195734E+03 -0.25025469766E+02  0.17463793901E+03  0.32483582641E+03  0.25500000920E-02 0. -1.
       -2    1    3    3    0  502  0.27275195734E+03  0.25025469766E+02  0.56628846373E+03  0.62904890790E+03  0.25500000920E-02 0.  1.
</event>
<event>
 5   0  0.8207443E-02  0.5952645E+03  0.7818609E-02  0.9915280E-01
        2   -1    0    0  501    0  0.00000000000E+00  0.00000000000E+00  0.11666709682E+03  0.11666709685E+03  0.25500000920E-02 0.  1.
       -2   -1    0    0    0  501  0.00000000000E+00  0.00000000000E+00 -0.75929683035E+03  0.75929683036E+03  0.25500000920E-02 0. -1.
    10030    2    1    2    0    0  0.00000000000E+00  0.00000000000E+00 -0.64262973353E+03  0.87596392720E+03  0.59526450200E+03 0.  0.
        1    1    3    3  502    0  0.15412835190E+03 -0.93638011792E+02 -0.66973876745E+03  0.69359472515E+03  0.50400001928E-02 0. -1.
       -1    1    3    3    0  502 -0.15412835190E+03  0.93638011792E+02  0.27109033916E+02  0.18236920205E+03  0.50400001928E-02 0.  1.
</event>
<event>
 5   0  0.5166903E-02  0.6014762E+03  0.7818609E-02  0.9902348E-01
        1   -1    0    0  501    0  0.00000000000E+00  0.00000000000E+00  0.99645328785E+03  0.99645328787E+03  0.50400001928E-02 0. -1.
       -1   -1    0    0    0  501  0.00000000000E+00  0.00000000000E+00 -0.90765316808E+02  0.90765316948E+02  0.50400001928E-02 0.  1.
    10030    2    1    2    0    0  0.00000000000E+00  0.00000000000E+00  0.90568797104E+03  0.10872186048E+04  0.60147617888E+03 0.  0.
        2    1    3    3  502    0  0.17145772999E+03  0.60763317380E+02  0.88573470187E+03  0.90422115437E+03  0.25500000920E-02 0. -1.
       -2    1    3    3    0  502 -0.17145772999E+03 -0.60763317380E+02  0.19953269177E+02  0.18299745044E+03  0.25500000920E-02 0.  1.
</event>
<event>
 5   0  0.5125031E-02  0.5755722E+03  0.7818609E-02  0.9957423E-01
        1   -1    0    0  501    0  0.00000000000E+00  0.00000000000E+00  0.17819444438E+04  0.17819444438E+04  0.50400001928E-02 0.  1.
       -1   -1    0    0    0  501  0.00000000000E+00  0.00000000000E+00 -0.46477797594E+02  0.46477797868E+02  0.50400001928E-02 0. -1.
    10030    2    1    2    0    0  0.00000000000E+00  0.00000000000E+00  0.17354666462E+04  0.18284222417E+04  0.57557224895E+03 0.  0.
        4    1    3    3  502    0  0.19182870174E+03 -0.21422979411E+03  0.90347441701E+03  0.94813516472E+03  0.12699999809E+01 0. -1.
       -4    1    3    3    0  502 -0.19182870174E+03  0.21422979411E+03  0.83199222918E+03  0.88028707693E+03  0.12699999809E+01 0.  1.
</event>
<event>
 5   0  0.8817544E-02  0.5892761E+03  0.7818609E-02  0.9927908E-01
        2   -1    0    0  501    0  0.00000000000E+00  0.00000000000E+00  0.34072738169E+03  0.34072738170E+03  0.25500000920E-02 0. -1.
       -2   -1    0    0    0  501  0.00000000000E+00  0.00000000000E+00 -0.25478306568E+03  0.25478306570E+03  0.25500000920E-02 0.  1.
    10030    2    1    2    0    0  0.00000000000E+00  0.00000000000E+00  0.85944316006E+02  0.59551044739E+03  0.58927605373E+03 0.  0.
        5    1    3    3  502    0 -0.42335880309E+02  0.29148370051E+03  0.48899572297E+02  0.29861067060E+03  0.46999998093E+01 0.  1.
       -5    1    3    3    0  502  0.42335880309E+02 -0.29148370051E+03  0.37044743709E+02  0.29689977680E+03  0.46999998093E+01 0. -1.
</event>
<event>
 5   0  0.4881209E-02  0.5968660E+03  0.7818609E-02  0.9911929E-01
       -1   -1    0    0    0  501  0.00000000000E+00  0.00000000000E+00  0.31590214391E+03  0.31590214396E+03  0.50400001928E-02 0. -1.
        1   -1    0    0  501    0  0.00000000000E+00  0.00000000000E+00 -0.28192990594E+03  0.28192990598E+03  0.50400001928E-02 0.  1.
    10030    2    1    2    0    0  0.00000000000E+00  0.00000000000E+00  0.33972237980E+02  0.59783204994E+03  0.59686602096E+03 0.  0.
        3    1    3    3  502    0 -0.24681920268E+03 -0.87067539697E+02  0.16061198255E+03  0.30707766839E+03  0.10100000352E+00 0. -1.
       -3    1    3    3    0  502  0.24681920268E+03  0.87067539697E+02 -0.12663974457E+03  0.29075438155E+03  0.10100000352E+00 0.  1.
</event>
<event>
 5   0  0.4987389E-02  0.6050745E+03  0.7818609E-02  0.9894934E-01
        1   -1    0    0  501    0  0.00000000000E+00  0.00000000000E+00  0.77514317152E+03  0.77514317154E+03  0.50400001928E-02 0.  1.
       -1   -1    0    0    0  501  0.00000000000E+00  0.00000000000E+00 -0.11807985278E+03  0.11807985289E+03  0.50400001928E-02 0. -1.
    10030    2    1    2    0    0  0.00000000000E+00  0.00000000000E+00  0.65706331874E+03  0.89322302443E+03  0.60507451320E+03 0.  0.
        1    1    3    3  502    0  0.17505655904E+03 -0.22283529011E+03  0.48495821914E+03  0.56168037149E+03  0.50400001928E-02 0.  1.
       -1    1    3    3    0  502 -0.17505655904E+03  0.22283529011E+03  0.17210509960E+03  0.33154265293E+03  0.50400001928E-02 0. -1.
</event>
<event>
 5   0  0.8699746E-02  0.6129088E+03  0.7818609E-02  0.9878980E-01
        2   -1    0    0  501    0  0.00000000000E+00  0.00000000000E+00  0.85873539522E+03  0.85873539523E+03  0.25500000920E-02 0.  1.
       -2   -1    0    0    0  501  0.00000000000E+00  0.00000000000E+00 -0.10936349122E+03  0.10936349125E+03  0.25500000920E-02 0. -1.
    10030    2    1    2    0    0  0.00000000000E+00  0.00000000000E+00  0.74937190401E+03  0.96809888647E+03  0.61290880518E+03 0.  0.
        3    1    3    3  502    0  0.88975474203E+02  0.27272742260E+02 -0.86505095588E+02  0.12705738563E+03  0.10100000352E+00 0. -1.
       -3    1    3    3    0  502 -0.88975474203E+02 -0.27272742260E+02  0.83587699960E+03  0.84104150084E+03  0.10100000352E+00 0.  1.
</event>
<event>
 5   0  0.8817544E-02  0.6011136E+03  0.7818609E-02  0.9903098E-01
        2   -1    0    0  501    0  0.00000000000E+00  0.00000000000E+00  0.16283458439E+03  0.16283458441E+03  0.25500000920E-02 0. -1.
       -2   -1    0    0    0  501  0.00000000000E+00  0.00000000000E+00 -0.55476161784E+03  0.55476161785E+03  0.25500000920E-02 0.  1.
    10030    2    1    2    0    0  0.00000000000E+00  0.00000000000E+00 -0.39192703345E+03  0.71759620226E+03  0.60111355827E+03 0.  0.
        5    1    3    3  502    0  0.17435615957E+03 -0.22333207623E+03 -0.31555006051E+03  0.42411226974E+03  0.46999998093E+01 0.  1.
       -5    1    3    3    0  502 -0.17435615957E+03  0.22333207623E+03 -0.76376972943E+02  0.29348393252E+03  0.46999998093E+01 0. -1.
</event>
<event>
 5   0  0.5190380E-02  0.5379803E+03  0.7818609E-02  0.1004315E+00
       -1   -1    0    0    0  501  0.00000000000E+00  0.00000000000E+00  0.23131694948E+03  0.23131694954E+03  0.50400001928E-02 0. -1.
        1   -1    0    0  501    0  0.00000000000E+00  0.00000000000E+00 -0.31279891120E+03  0.31279891124E+03  0.50400001928E-02 0.  1.
    10030    2    1    2    0    0  0.00000000000E+00  0.00000000000E+00 -0.81481961714E+02  0.54411586077E+03  0.53798025973E+03 0.  0.
        5    1    3    3  502    0  0.15327066419E+03  0.58165099135E+02  0.17490070278E+03  0.23976534589E+03  0.46999998093E+01 0. -1.
       -5    1    3    3    0  502 -0.15327066419E+03 -0.58165099135E+02 -0.25638266449E+03  0.30435051488E+03  0.46999998093E+01 0.  1.
</event>
<event>
 5   0  0.5166903E-02  0.5891800E+03  0.7818609E-02  0.9928112E-01
        1   -1    0    0  501    0  0.00000000000E+00  0.00000000000E+00  0.11943407551E+04  0.11943407551E+04  0.50400001928E-02 0.  1.
       -1   -1    0    0    0  501  0.00000000000E+00  0.00000000000E+00 -0.72662064336E+02  0.72662064510E+02  0.50400001928E-02 0. -1.
    10030    2    1    2    0    0  0.00000000000E+00  0.00000000000E+00  0.11216786908E+04  0.12670028196E+04  0.58917998915E+03 0.  0.
        2    1    3    3  502    0 -0.35792732583E+02  0.14585103118E+03  0.11058403163E+04  0.11159912402E+04  0.25500000920E-02 0.  1.
       -2    1    3    3    0  502  0.35792732583E+02 -0.14585103118E+03  0.15838374425E+02  0.15101157940E+03  0.25500000920E-02 0. -1.
</event>
<event>
 5   0  0.8575590E-02  0.6007116E+03  0.7818609E-02  0.9903931E-01
        2   -1    0    0  501    0  0.00000000000E+00  0.00000000000E+00  0.14731676240E+03  0.14731676242E+03  0.25500000920E-02 0.  1.
       -2   -1    0    0    0  501  0.00000000000E+00  0.00000000000E+00 -0.61237834945E+03  0.61237834945E+03  0.25500000920E-02 0. -1.
    10030    2    1    2    0    0  0.00000000000E+00  0.00000000000E+00 -0.46506158704E+03  0.75969511187E+03  0.60071156412E+03 0.  0.
        4    1    3    3  502    0 -0.28779230804E+03  0.26706612869E+02 -0.12921253306E+03  0.31659934829E+03  0.12699999809E+01 0.  1.
       -4    1    3    3    0  502  0.28779230804E+03 -0.26706612869E+02 -0.33584905399E+03  0.44309576358E+03  0.12699999809E+01 0. -1.
</event>
<event>
 5   0  0.8817544E-02  0.6013208E+03  0.7818609E-02  0.9902670E-01
       -2   -1    0    0    0  501  0.00000000000E+00  0.00000000000E+00  0.11634931614E+03  0.11634931617E+03  0.25500000920E-02 0.  1.
        2   -1    0    0  501    0  0.00000000000E+00  0.00000000000E+00 -0.77694212160E+03  0.77694212160E+03  0.25500000920E-02 0. -1.
    10030    2    1    2    0    0  0.00000000000E+00  0.00000000000E+00 -0.66059280546E+03  0.89329143777E+03  0.60132082799E+03 0.  0.
        5    1    3    3  502    0 -0.25217307732E+03  0.10132628546E+03 -0.13937987113E+03  0.30546213436E+03  0.46999998093E+01 0.  1.
       -5    1    3    3    0  502  0.25217307732E+03 -0.10132628546E+03 -0.52121293432E+03  0.58782930341E+03  0.46999998093E+01 0. -1.
</event>
<event>
 5   0  0.5125031E-02  0.6669176E+03  0.7818609E-02  0.9775542E-01
        1   -1    0    0  501    0  0.00000000000E+00  0.00000000000E+00  0.53382359759E+03  0.53382359761E+03  0.50400001928E-02 0.  1.
       -1   -1    0    0    0  501  0.00000000000E+00  0.00000000000E+00 -0.20829871592E+03  0.20829871598E+03  0.50400001928E-02 0. -1.
    10030    2    1    2    0    0  0.00000000000E+00  0.00000000000E+00  0.32552488167E+03  0.74212231359E+03  0.66691759592E+03 0.  0.
        4    1    3    3  502    0 -0.28532777732E+03 -0.16954063996E+03  0.19859947333E+03  0.38678072963E+03  0.12699999809E+01 0. -1.
       -4    1    3    3    0  502  0.28532777732E+03  0.16954063996E+03  0.12692540834E+03  0.35534158396E+03  0.12699999809E+01 0.  1.
</event>
<event>
 5   0  0.8420604E-02  0.5993036E+03  0.7818609E-02  0.9906852E-01
        2   -1    0    0  501    0  0.00000000000E+00  0.00000000000E+00  0.78245822590E+03  0.78245822590E+03  0.25500000920E-02 0.  1.
       -2   -1    0    0    0  501  0.00000000000E+00  0.00000000000E+00 -0.11475527957E+03  0.11475527959E+03  0.25500000920E-02 0. -1.
    10030    2    1    2    0    0  0.00000000000E+00  0.00000000000E+00  0.66770294633E+03  0.89721350550E+03  0.59930363749E+03 0.  0.
        2    1    3    3  502    0  0.13201736115E+03  0.34982054886E+02 -0.65451381058E+02  0.15144705708E+03  0.25500000920E-02 0. -1.
       -2    1    3    3    0  502 -0.13201736115E+03 -0.34982054886E+02  0.73315432739E+03  0.74576644842E+03  0.25500000920E-02 0.  1.
</event>
<event>
 5   0  0.3437375E-02  0.5986178E+03  0.7818609E-02  0.9908278E-01
       -3   -1    0    0    0  501  0.00000000000E+00  0.00000000000E+00  0.15052223866E+03  0.15052227254E+03  0.10100000352E+00 0.  1.
        3   -1    0    0  501    0  0.00000000000E+00  0.00000000000E+00 -0.59516651604E+03  0.59516652461E+03  0.10100000352E+00 0. -1.
    10030    2    1    2    0    0  0.00000000000E+00  0.00000000000E+00 -0.44464427738E+03  0.74568879715E+03  0.59861778189E+03 0.  0.
        4    1    3    3  502    0 -0.16699882208E+03  0.57430455136E+02  0.78704217250E+02  0.19334640019E+03  0.12699999809E+01 0.  1.
       -4    1    3    3    0  502  0.16699882208E+03 -0.57430455136E+02 -0.52334849463E+03  0.55234239696E+03  0.12699999809E+01 0. -1.
</event>
<event>
 5   0  0.5166903E-02  0.5977337E+03  0.7818609E-02  0.9910119E-01
        1   -1    0    0  501    0  0.00000000000E+00  0.00000000000E+00  0.84188669526E+03  0.84188669527E+03  0.50400001928E-02 0. -1.
       -1   -1    0    0    0  501  0.00000000000E+00  0.00000000000E+00 -0.10609668032E+03  0.10609668044E+03  0.50400001928E-02 0.  1.
    10030    2    1    2    0    0  0.00000000000E+00  0.00000000000E+00  0.73579001494E+03  0.94798337571E+03  0.59773366523E+03 0.  0.
        2    1    3    3  502    0  0.20996506009E+03  0.47764742267E+02  0.39196466401E+02  0.21886790548E+03  0.25500000920E-02 0.  1.
       -2    1    3    3    0  502 -0.20996506009E+03 -0.47764742267E+02  0.69659354854E+03  0.72911547024E+03  0.25500000920E-02 0. -1.
</event>
<event>
 5   0  0.8207443E-02  0.6030667E+03  0.7818609E-02  0.9899064E-01
        2   -1    0    0  501    0  0.00000000000E+00  0.00000000000E+00  0.64352995820E+03  0.64352995821E+03  0.25500000920E-02 0. -1.
       -2   -1    0    0    0  501  0.00000000000E+00  0.00000000000E+00 -0.14128691285E+03  0.14128691287E+03  0.25500000920E-02 0.  1.
    10030    2    1    2    0    0  0.00000000000E+00  0.00000000000E+00  0.50224304536E+03  0.78481687108E+03  0.60306669989E+03 0.  0.
        1    1    3    3  502    0 -0.22241651079E+03 -0.20253101223E+03  0.22399645420E+03  0.37504976564E+03  0.50400001928E-02 0.  1.
       -1    1    3    3    0  502  0.22241651079E+03  0.20253101223E+03  0.27824659116E+03  0.40976710544E+03  0.50400001928E-02 0. -1.
</event>
<event>
 5   0  0.4987389E-02  0.6332035E+03  0.7818609E-02  0.9838817E-01
        1   -1    0    0  501    0  0.00000000000E+00  0.00000000000E+00  0.79742220879E+03  0.79742220881E+03  0.50400001928E-02 0. -1.
       -1   -1    0    0    0  501  0.00000000000E+00  0.00000000000E+00 -0.12570087409E+03  0.12570087419E+03  0.50400001928E-02 0.  1.
    10030    2    1    2    0    0  0.00000000000E+00  0.00000000000E+00  0.67172133470E+03  0.92312308300E+03  0.63320350195E+03 0.  0.
        1    1    3    3  502    0 -0.10294215679E+03 -0.51645030617E+02  0.76579978392E+03  0.77441178059E+03  0.50400001928E-02 0. -1.
       -1    1    3    3    0  502  0.10294215679E+03  0.51645030617E+02 -0.94078449223E+02  0.14871130241E+03  0.50400001928E-02 0.  1.
</event>
<event>
 5   0  0.4881209E-02  0.5955216E+03  0.7818609E-02  0.9914741E-01
       -1   -1    0    0    0  501  0.00000000000E+00  0.00000000000E+00  0.11300959646E+03  0.11300959658E+03  0.50400001928E-02 0.  1.
        1   -1    0    0  501    0  0.00000000000E+00  0.00000000000E+00 -0.78454838513E+03  0.78454838515E+03  0.50400001928E-02 0. -1.
    10030    2    1    2    0    0  0.00000000000E+00  0.00000000000E+00 -0.67153878867E+03  0.89755798172E+03  0.59552160823E+03 0.  0.
        3    1    3    3  502    0 -0.85503135458E+02  0.28420917619E+03 -0.37193681277E+03  0.47583888544E+03  0.10100000352E+00 0. -1.
       -3    1    3    3    0  502  0.85503135458E+02 -0.28420917619E+03 -0.29960197590E+03  0.42171909628E+03  0.10100000352E+00 0.  1.
</event>
<event>
 5   0  0.8575590E-02  0.6043798E+03  0.7818609E-02  0.9896361E-01
       -2   -1    0    0    0  501  0.00000000000E+00  0.00000000000E+00  0.88191395479E+02  0.88191395516E+02  0.25500000920E-02 0.  1.
        2   -1    0    0  501    0  0.00000000000E+00  0.00000000000E+00 -0.10354607050E+04  0.10354607050E+04  0.25500000920E-02 0. -1.
    10030    2    1    2    0    0  0.00000000000E+00  0.00000000000E+00 -0.94726930956E+03  0.11236521006E+04  0.60437976327E+03 0.  0.
        4    1    3    3  502    0 -0.10843439762E+03 -0.35293482465E+01 -0.99799865148E+03  0.10038791741E+04  0.12699999809E+01 0. -1.
       -4    1    3    3    0  502  0.10843439762E+03  0.35293482465E+01  0.50729341921E+02  0.11977292648E+03  0.12699999809E+01 0.  1.
</event>
<event>
 5   0  0.8207443E-02  0.5935388E+03  0.7818609E-02  0.9918902E-01
        2   -1    0    0  501    0  0.00000000000E+00  0.00000000000E+00  0.41539269717E+03  0.41539269717E+03  0.25500000920E-02 0.  1.
       -2   -1    0    0    0  501  0.00000000000E+00  0.00000000000E+00 -0.21202123915E+03  0.21202123917E+03  0.25500000920E-02 0. -1.
    10030    2    1    2    0    0  0.00000000000E+00  0.00000000000E+00  0.20337145801E+03  0.62741393634E+03  0.59353879198E+03 0.  0.
        1    1    3    3  502    0  0.15310736821E+03 -0.81938393977E+02 -0.15270746398E+03  0.23124734850E+03  0.50400001928E-02 0.  1.
       -1    1    3    3    0  502 -0.15310736821E+03  0.81938393977E+02  0.35607892200E+03  0.39616658784E+03  0.50400001928E-02 0. -1.
</event>
<event>
 5   0  0.3437375E-02  0.6104911E+03  0.7818609E-02  0.9883876E-01
       -4   -1    0    0    0  501  0.00000000000E+00  0.00000000000E+00  0.19094770223E+03  0.19095192559E+03  0.12699999809E+01 0.  1.
        4   -1    0    0  501    0  0.00000000000E+00  0.00000000000E+00 -0.48794955638E+03  0.48795120911E+03  0.12699999809E+01 0. -1.
    10030    2    1    2    0    0  0.00000000000E+00  0.00000000000E+00 -0.29700185415E+03  0.67890313470E+03  0.61049108506E+03 0.  0.
        2    1    3    3  502    0 -0.14554205516E+03  0.13522500837E+03 -0.40621735853E+03  0.45219557172E+03  0.25500000920E-02 0. -1.
       -2    1    3    3    0  502  0.14554205516E+03 -0.13522500837E+03  0.10921550438E+03  0.22670756298E+03  0.25500000920E-02 0.  1.
</event>
<event>
 5   0  0.5125031E-02  0.6048138E+03  0.7818609E-02  0.9895469E-01
        1   -1    0    0  501    0  0.00000000000E+00  0.00000000000E+00  0.38014886373E+03  0.38014886376E+03  0.50400001928E-02 0. -1.
       -1   -1    0    0    0  501  0.00000000000E+00  0.00000000000E+00 -0.24056349254E+03  0.24056349260E+03  0.50400001928E-02 0.  1.
    10030    2    1    2    0    0  0.00000000000E+00  0.00000000000E+00  0.13958537118E+03  0.62071235636E+03  0.60481381721E+03 0.  0.
        4    1    3    3  502    0 -0.27711420117E+03 -0.98480344381E+02  0.14205424873E+03  0.32660630919E+03  0.12699999809E+01 0. -1.
       -4    1    3    3    0  502  0.27711420117E+03  0.98480344381E+02 -0.24688775446E+01  0.29410604716E+03  0.12699999809E+01 0.  1.
</event>
<event>
 5   0  0.5190380E-02  0.6238609E+03  0.7818609E-02  0.9857103E-01
        1   -1    0    0  501    0  0.00000000000E+00  0.00000000000E+00  0.57498160359E+03  0.57498160361E+03  0.50400001928E-02 0.  1.
       -1   -1    0    0    0  501  0.00000000000E+00  0.00000000000E+00 -0.16922383814E+03  0.16922383822E+03  0.50400001928E-02 0. -1.
    10030    2    1    2    0    0  0.00000000000E+00  0.00000000000E+00  0.40575776545E+03  0.74420544183E+03  0.62386086223E+03 0.  0.
        5    1    3    3  502    0 -0.29394174787E+03 -0.98792791458E+02  0.24274285460E+03  0.39383746678E+03  0.46999998093E+01 0. -1.
       -5    1    3    3    0  502  0.29394174787E+03  0.98792791458E+02  0.16301491085E+03  0.35036797505E+03  0.46999998093E+01 0.  1.
</event>
<event>
 5   0  0.8420604E-02  0.5974486E+03  0.7818609E-02  0.9910713E-01
       -2   -1    0    0    0  501  0.00000000000E+00  0.00000000000E+00  0.36073787218E+03  0.36073787219E+03  0.25500000920E-02 0.  1.
        2   -1    0    0  501    0  0.00000000000E+00  0.00000000000E+00 -0.24737137044E+03  0.24737137046E+03  0.25500000920E-02 0. -1.
    10030    2    1    2    0    0  0.00000000000E+00  0.00000000000E+00  0.11336650174E+03  0.60810924264E+03  0.59744864823E+03 0.  0.
        2    1    3    3  502    0 -0.67284536157E+02  0.17134149073E+03  0.29614942475E+03  0.34869699890E+03  0.25500000920E-02 0.  1.
       -2    1    3    3    0  502  0.67284536157E+02 -0.17134149073E+03 -0.18278292302E+03  0.25941224375E+03  0.25500000920E-02 0. -1.
</event>
<event>
 5   0  0.5125031E-02  0.6013564E+03  0.7818609E-02  0.9902596E-01
        1   -1    0    0  501    0  0.00000000000E+00  0.00000000000E+00  0.29701379533E+03  0.29701379537E+03  0.50400001928E-02 0.  1.
       -1   -1    0    0    0  501  0.00000000000E+00  0.00000000000E+00 -0.30438777908E+03  0.30438777912E+03  0.50400001928E-02 0. -1.
    10030    2    1    2    0    0  0.00000000000E+00  0.00000000000E+00 -0.73739837494E+01  0.60140157449E+03  0.60135636536E+03 0.  0.
        4    1    3    3  502    0 -0.71303126423E+02  0.14701842107E+03 -0.25610882901E+03  0.30379581493E+03  0.12699999809E+01 0. -1.
       -4    1    3    3    0  502  0.71303126423E+02 -0.14701842107E+03  0.24873484526E+03  0.29760575956E+03  0.12699999809E+01 0.  1.
</event>
<event>
 5   0  0.8817544E-02  0.5935423E+03  0.7818609E-02  0.9918895E-01
       -2   -1    0    0    0  501  0.00000000000E+00  0.00000000000E+00  0.91046159914E+02  0.91046159949E+02  0.25500000920E-02 0.  1.
        2   -1    0    0  501    0  0.00000000000E+00  0.00000000000E+00 -0.96734561650E+03  0.96734561650E+03  0.25500000920E-02 0. -1.
    10030    2    1    2    0    0  0.00000000000E+00  0.00000000000E+00 -0.87629945658E+03  0.10583917765E+04  0.59354226037E+03 0.  0.
        5    1    3    3  502    0 -0.33010336789E+02 -0.98783560383E+02  0.57314485011E+02  0.11897442720E+03  0.46999998093E+01 0.  1.
       -5    1    3    3    0  502  0.33010336789E+02  0.98783560383E+02 -0.93361394160E+03  0.93941734925E+03  0.46999998093E+01 0. -1.
</event>
<event>
 5   0  0.5190380E-02  0.6074564E+03  0.7818609E-02  0.9890056E-01
        1   -1    0    0  501    0  0.00000000000E+00  0.00000000000E+00  0.76917269569E+03  0.76917269570E+03  0.50400001928E-02 0.  1.
       -1   -1    0    0    0  501  0.00000000000E+00  0.00000000000E+00 -0.11993510660E+03  0.11993510670E+03  0.50400001928E-02 0. -1.
    10030    2    1    2    0    0  0.00000000000E+00  0.00000000000E+00  0.64923758909E+03  0.88910780241E+03  0.60745636651E+03 0.  0.
        5    1    3    3  502    0  0.49035465748E+02  0.18356557583E+03 -0.22141061814E+02  0.19134553600E+03  0.46999998093E+01 0. -1.
       -5    1    3    3    0  502 -0.49035465748E+02 -0.18356557583E+03  0.67137865090E+03  0.69776226640E+03  0.46999998093E+01 0.  1.
</event>
<event>
 5   0  0.5125031E-02  0.5998295E+03  0.7818609E-02  0.9905760E-01
        1   -1    0    0  501    0  0.00000000000E+00  0.00000000000E+00  0.86028346349E+03  0.86028346351E+03  0.50400001928E-02 0.  1.
       -1   -1    0    0    0  501  0.00000000000E+00  0.00000000000E+00 -0.10455724624E+03  0.10455724636E+03  0.50400001928E-02 0. -1.
    10030    2    1    2    0    0  0.00000000000E+00  0.00000000000E+00  0.75572621725E+03  0.96484070987E+03  0.59982954244E+03 0.  0.
        4    1    3    3  502    0 -0.27724381429E+03  0.13501146880E+02  0.56056238300E+03  0.62552235105E+03  0.12699999809E+01 0.  1.
       -4    1    3    3    0  502  0.27724381429E+03 -0.13501146880E+02  0.19516383425E+03  0.33931835882E+03  0.12699999809E+01 0. -1.
</event>
<event>
 5   0  0.8420604E-02  0.6061441E+03  0.7818609E-02  0.9892740E-01
       -2   -1    0    0    0  501  0.00000000000E+00  0.00000000000E+00  0.12289214262E+03  0.12289214264E+03  0.25500000920E-02 0.  1.
        2   -1    0    0  501    0  0.00000000000E+00  0.00000000000E+00 -0.74742498914E+03  0.74742498914E+03  0.25500000920E-02 0. -1.
    10030    2    1    2    0    0  0.00000000000E+00  0.00000000000E+00 -0.62453284652E+03  0.87031713179E+03  0.60614406992E+03 0.  0.
        2    1    3    3  502    0 -0.48754873594E+02 -0.28703293368E+03 -0.43314652441E+03  0.52190119212E+03  0.25500000920E-02 0. -1.
       -2    1    3    3    0  502  0.48754873594E+02  0.28703293368E+03 -0.19138632211E+03  0.34841593967E+03  0.25500000920E-02 0.  1.
</event>
<event>
 5   0  0.5190380E-02  0.6046903E+03  0.7818609E-02  0.9895723E-01
       -1   -1    0    0    0  501  0.00000000000E+00  0.00000000000E+00  0.21541252302E+03  0.21541252308E+03  0.50400001928E-02 0. -1.
        1   -1    0    0  501    0  0.00000000000E+00  0.00000000000E+00 -0.42436067907E+03  0.42436067910E+03  0.50400001928E-02 0.  1.
    10030    2    1    2    0    0  0.00000000000E+00  0.00000000000E+00 -0.20894815605E+03  0.63977320218E+03  0.60469034911E+03 0.  0.
        5    1    3    3  502    0 -0.13166955012E+03  0.20410393693E+03  0.85955112824E+02  0.25769295473E+03  0.46999998093E+01 0. -1.
       -5    1    3    3    0  502  0.13166955012E+03 -0.20410393693E+03 -0.29490326888E+03  0.38208024745E+03  0.46999998093E+01 0.  1.
</event>
<event>
 5   0  0.8207443E-02  0.7181343E+03  0.7818609E-02  0.9686713E-01
       -2   -1    0    0    0  501  0.00000000000E+00  0.00000000000E+00  0.23005530926E+03  0.23005530927E+03  0.25500000920E-02 0. -1.
        2   -1    0    0  501    0  0.00000000000E+00  0.00000000000E+00 -0.56042698970E+03  0.56042698970E+03  0.25500000920E-02 0.  1.
    10030    2    1    2    0    0  0.00000000000E+00  0.00000000000E+00 -0.33037168044E+03  0.79048229897E+03  0.71813426165E+03 0.  0.
        1    1    3    3  502    0  0.19081801002E+03 -0.64516052687E+02  0.16200638715E+03  0.25849546129E+03  0.50400001928E-02 0. -1.
       -1    1    3    3    0  502 -0.19081801002E+03  0.64516052687E+02 -0.49237806759E+03  0.53198683769E+03  0.50400001928E-02 0.  1.
</event>
<event>
 5   0  0.5125031E-02  0.6078422E+03  0.7818609E-02  0.9889268E-01
        1   -1    0    0  501    0  0.00000000000E+00  0.00000000000E+00  0.52839933741E+03  0.52839933743E+03  0.50400001928E-02 0. -1.
       -1   -1    0    0    0  501  0.00000000000E+00  0.00000000000E+00 -0.17480726589E+03  0.17480726596E+03  0.50400001928E-02 0.  1.
    10030    2    1    2    0    0  0.00000000000E+00  0.00000000000E+00  0.35359207152E+03  0.70320660339E+03  0.60784222790E+03 0.  0.
        4    1    3    3  502    0  0.62470960307E+02  0.19212547234E+03  0.43946768435E+03  0.48368199935E+03  0.12699999809E+01 0. -1.
       -4    1    3    3    0  502 -0.62470960307E+02 -0.19212547234E+03 -0.85875612836E+02  0.21952460405E+03  0.12699999809E+01 0.  1.
</event>
<event>
 5   0  0.5166903E-02  0.6048182E+03  0.7818609E-02  0.9895460E-01
        1   -1    0    0  501    0  0.00000000000E+00  0.00000000000E+00  0.79821377940E+03  0.79821377942E+03  0.50400001928E-02 0.  1.
       -1   -1    0    0    0  501  0.00000000000E+00  0.00000000000E+00 -0.11456989513E+03  0.11456989525E+03  0.50400001928E-02 0. -1.
    10030    2    1    2    0    0  0.00000000000E+00  0.00000000000E+00  0.68364388427E+03  0.91278367466E+03  0.60481821751E+03 0.  0.
        2    1    3    3  502    0 -0.21157984403E+02  0.18391001776E+02  0.79624853971E+03  0.79674188182E+03  0.25500000920E-02 0.  1.
       -2    1    3    3    0  502  0.21157984403E+02 -0.18391001776E+02 -0.11260465545E+03  0.11604179284E+03  0.25500000920E-02 0. -1.
</event>
<event>
 5   0  0.8575590E-02  0.6130533E+03  0.7818609E-02  0.9878689E-01
       -2   -1    0    0    0  501  0.00000000000E+00  0.00000000000E+00  0.34413953201E+03  0.34413953202E+03  0.25500000920E-02 0.  1.
        2   -1    0    0  501    0  0.00000000000E+00  0.00000000000E+00 -0.27302472081E+03  0.27302472083E+03  0.25500000920E-02 0. -1.
    10030    2    1    2    0    0  0.00000000000E+00  0.00000000000E+00  0.71114811192E+02  0.61716425284E+03  0.61305334076E+03 0.  0.
        4    1    3    3  502    0 -0.16524465970E+03 -0.25538156297E+03 -0.25307601708E+01  0.30419329038E+03  0.12699999809E+01 0. -1.
       -4    1    3    3    0  502  0.16524465970E+03  0.25538156297E+03  0.73645571362E+02  0.31297096246E+03  0.12699999809E+01 0.  1.
</event>
<event>
 5   0  0.8420604E-02  0.6141583E+03  0.7818609E-02  0.9876460E-01
        2   -1    0    0  501    0  0.00000000000E+00  0.00000000000E+00  0.54716903137E+03  0.54716903138E+03  0.25500000920E-02 0.  1.
       -2   -1    0    0    0  501  0.00000000000E+00  0.00000000000E+00 -0.17233724120E+03  0.17233724122E+03  0.25500000920E-02 0. -1.
    10030    2    1    2    0    0  0.00000000000E+00  0.00000000000E+00  0.37483179017E+03  0.71950627259E+03  0.61415829016E+03 0.  0.
        2    1    3    3  502    0 -0.38109354888E+02 -0.31163050643E+02  0.54251609409E+03  0.54474505138E+03  0.25500000920E-02 0.  1.
       -2    1    3    3    0  502  0.38109354888E+02  0.31163050643E+02 -0.16768430391E+03  0.17476122121E+03  0.25500000920E-02 0. -1.
</event>
<event>
 5   0  0.8575590E-02  0.6070673E+03  0.7818609E-02  0.9890851E-01
       -2   -1    0    0    0  501  0.00000000000E+00  0.00000000000E+00  0.74724376916E+02  0.74724376960E+02  0.25500000920E-02 0. -1.
        2   -1    0    0  501    0  0.00000000000E+00  0.00000000000E+00 -0.12329667931E+04  0.12329667931E+04  0.25500000920E-02 0.  1.
    10030    2    1    2    0    0  0.00000000000E+00  0.00000000000E+00 -0.11582424162E+04  0.13076911701E+04  0.60706729580E+03 0.  0.
        4    1    3    3  502    0 -0.99509028653E+02  0.58270604252E+02  0.25695671017E+02  0.11814986463E+03  0.12699999809E+01 0. -1.
       -4    1    3    3    0  502  0.99509028653E+02 -0.58270604252E+02 -0.11839380872E+04  0.11895413055E+04  0.12699999809E+01 0.  1.
</event>
<event>
 5   0  0.3437375E-02  0.5936567E+03  0.7818609E-02  0.9918654E-01
        4   -1    0    0  501    0  0.00000000000E+00  0.00000000000E+00  0.56618372734E+02  0.56632614552E+02  0.12699999809E+01 0. -1.
       -4   -1    0    0    0  501  0.00000000000E+00  0.00000000000E+00 -0.15559466300E+04  0.15559471483E+04  0.12699999809E+01 0.  1.
    10030    2    1    2    0    0  0.00000000000E+00  0.00000000000E+00 -0.14993282573E+04  0.16125797629E+04  0.59365669248E+03 0.  0.
        5    1    3    3  502    0 -0.16858529167E+03 -0.14897791216E+03 -0.22385862967E+03  0.31741171206E+03  0.46999998093E+01 0. -1.
       -5    1    3    3    0  502  0.16858529167E+03  0.14897791216E+03 -0.12754696276E+04  0.12951680508E+04  0.46999998093E+01 0.  1.
</event>
<event>
 5   0  0.8207443E-02  0.5592299E+03  0.7818609E-02  0.9993799E-01
        2   -1    0    0  501    0  0.00000000000E+00  0.00000000000E+00  0.62760002205E+03  0.62760002205E+03  0.25500000920E-02 0. -1.
       -2   -1    0    0    0  501  0.00000000000E+00  0.00000000000E+00 -0.12457700173E+03  0.12457700176E+03  0.25500000920E-02 0.  1.
    10030    2    1    2    0    0  0.00000000000E+00  0.00000000000E+00  0.50302302032E+03  0.75217702381E+03  0.55922993141E+03 0.  0.
        1    1    3    3  502    0  0.18348759796E+03 -0.19240860718E+03  0.13506205995E+03  0.29821222441E+03  0.50400001928E-02 0.  1.
       -1    1    3    3    0  502 -0.18348759796E+03  0.19240860718E+03  0.36796096036E+03  0.45396479940E+03  0.50400001928E-02 0. -1.
</event>
<event>
 5   0  0.5125031E-02  0.5988467E+03  0.7818609E-02  0.9907802E-01
        1   -1    0    0  501    0  0.00000000000E+00  0.00000000000E+00  0.14414542447E+03  0.14414542455E+03  0.50400001928E-02 0. -1.
       -1   -1    0    0    0  501  0.00000000000E+00  0.00000000000E+00 -0.62197137620E+03  0.62197137623E+03  0.50400001928E-02 0.  1.
    10030    2    1    2    0    0  0.00000000000E+00  0.00000000000E+00 -0.47782595174E+03  0.76611680078E+03  0.59884665173E+03 0.  0.
        4    1    3    3  502    0 -0.18827984639E+03  0.94845397861E+02 -0.51092360799E+03  0.55271104218E+03  0.12699999809E+01 0.  1.
       -4    1    3    3    0  502  0.18827984639E+03 -0.94845397861E+02  0.33097656249E+02  0.21340575860E+03  0.12699999809E+01 0. -1.
</event>
<event>
 5   0  0.5166903E-02  0.6004142E+03  0.7818609E-02  0.9904547E-01
       -1   -1    0    0    0  501  0.00000000000E+00  0.00000000000E+00  0.21601216595E+03  0.21601216601E+03  0.50400001928E-02 0.  1.
        1   -1    0    0  501    0  0.00000000000E+00  0.00000000000E+00 -0.41721862447E+03  0.41721862450E+03  0.50400001928E-02 0. -1.
    10030    2    1    2    0    0  0.00000000000E+00  0.00000000000E+00 -0.20120645852E+03  0.63323079051E+03  0.60041418629E+03 0.  0.
        2    1    3    3  502    0 -0.83275855696E+02 -0.28448670300E+03 -0.15070492928E+03  0.33253500273E+03  0.25500000920E-02 0.  1.
       -2    1    3    3    0  502  0.83275855696E+02  0.28448670300E+03 -0.50501529243E+02  0.30069578778E+03  0.25500000920E-02 0. -1.
</event>
<event>
 5   0  0.5125031E-02  0.5968265E+03  0.7818609E-02  0.9912012E-01
        1   -1    0    0  501    0  0.00000000000E+00  0.00000000000E+00  0.21561652736E+03  0.21561652742E+03  0.50400001928E-02 0. -1.
       -1   -1    0    0    0  501  0.00000000000E+00  0.00000000000E+00 -0.41300397261E+03  0.41300397264E+03  0.50400001928E-02 0.  1.
    10030    2    1    2    0    0  0.00000000000E+00  0.00000000000E+00 -0.19738744525E+03  0.62862050006E+03  0.59682654897E+03 0.  0.
        4    1    3    3  502    0  0.78212474930E+02 -0.18043514500E+03 -0.33509359165E+03  0.38854003764E+03  0.12699999809E+01 0.  1.
       -4    1    3    3    0  502 -0.78212474930E+02  0.18043514500E+03  0.13770614639E+03  0.24008046243E+03  0.12699999809E+01 0. -1.
</event>
<event>
 5   0  0.8207443E-02  0.5864172E+03  0.7818609E-02  0.9933994E-01
        2   -1    0    0  501    0  0.00000000000E+00  0.00000000000E+00  0.11477425894E+04  0.11477425894E+04  0.25500000920E-02 0. -1.
       -2   -1    0    0    0  501  0.00000000000E+00  0.00000000000E+00 -0.74904666633E+02  0.74904666677E+02  0.25500000920E-02 0.  1.
    10030    2    1    2    0    0  0.00000000000E+00  0.00000000000E+00  0.10728379228E+04  0.12226472561E+04  0.58641717597E+03 0.  0.
        1    1    3    3  502    0  0.15626482555E+03  0.20532530605E+03  0.82677395517E+03  0.86610181271E+03  0.50400001928E-02 0.  1.
       -1    1    3    3    0  502 -0.15626482555E+03 -0.20532530605E+03  0.24606396759E+03  0.35654544336E+03  0.50400001928E-02 0. -1.
</event>
<event>
 5   0  0.4987389E-02  0.6072354E+03  0.7818609E-02  0.9890508E-01
        1   -1    0    0  501    0  0.00000000000E+00  0.00000000000E+00  0.31062996850E+03  0.31062996854E+03  0.50400001928E-02 0.  1.
       -1   -1    0    0    0  501  0.00000000000E+00  0.00000000000E+00 -0.29676373044E+03  0.29676373048E+03  0.50400001928E-02 0. -1.
    10030    2    1    2    0    0  0.00000000000E+00  0.00000000000E+00  0.13866238062E+02  0.60739369902E+03  0.60723540168E+03 0.  0.
        1    1    3    3  502    0  0.80291735484E+02  0.14078641430E+03  0.26374141760E+03  0.30955954616E+03  0.50400001928E-02 0.  1.
       -1    1    3    3    0  502 -0.80291735484E+02 -0.14078641430E+03 -0.24987517953E+03  0.29783415286E+03  0.50400001928E-02 0. -1.
</event>
<event>
 5   0  0.5190380E-02  0.6259132E+03  0.7818609E-02  0.9853057E-01
       -1   -1    0    0    0  501  0.00000000000E+00  0.00000000000E+00  0.31069362486E+03  0.31069362490E+03  0.50400001928E-02 0.  1.
        1   -1    0    0  501    0  0.00000000000E+00  0.00000000000E+00 -0.31523604350E+03  0.31523604354E+03  0.50400001928E-02 0. -1.
    10030    2    1    2    0    0  0.00000000000E+00  0.00000000000E+00 -0.45424186434E+01  0.62592966843E+03  0.62591318588E+03 0.  0.
        5    1    3    3  502    0 -0.17688724952E+03 -0.15621165696E+03  0.20323008591E+03  0.31147349587E+03  0.46999998093E+01 0.  1.
       -5    1    3    3    0  502  0.17688724952E+03  0.15621165696E+03 -0.20777250456E+03  0.31445617256E+03  0.46999998093E+01 0. -1.
</event>
<event>
 5   0  0.4881209E-02  0.6063853E+03  0.7818609E-02  0.9892247E-01
        1   -1    0    0  501    0  0.00000000000E+00  0.00000000000E+00  0.15351324789E+03  0.15351324797E+03  0.50400001928E-02 0. -1.
       -1   -1    0    0    0  501  0.00000000000E+00  0.00000000000E+00 -0.59881327610E+03  0.59881327612E+03  0.50400001928E-02 0.  1.
    10030    2    1    2    0    0  0.00000000000E+00  0.00000000000E+00 -0.44530002821E+03  0.75232652409E+03  0.60638526015E+03 0.  0.
        3    1    3    3  502    0 -0.12351178708E+03 -0.26196390470E+03 -0.33393448779E+03  0.44203224006E+03  0.10100000352E+00 0. -1.
       -3    1    3    3    0  502  0.12351178708E+03  0.26196390470E+03 -0.11136554042E+03  0.31029428404E+03  0.10100000352E+00 0.  1.
</event>
<event>
 5   0  0.8420604E-02  0.6023013E+03  0.7818609E-02  0.9900643E-01
        2   -1    0    0  501    0  0.00000000000E+00  0.00000000000E+00  0.27898392524E+03  0.27898392525E+03  0.25500000920E-02 0.  1.
       -2   -1    0    0    0  501  0.00000000000E+00  0.00000000000E+00 -0.32507862346E+03  0.32507862347E+03  0.25500000920E-02 0. -1.
    10030    2    1    2    0    0  0.00000000000E+00  0.00000000000E+00 -0.46094698224E+02  0.60406254872E+03  0.60230128803E+03 0.  0.
        2    1    3    3  502    0  0.23507448731E+03 -0.18807360045E+03 -0.30817042185E+02  0.30262416273E+03  0.25500000920E-02 0. -1.
       -2    1    3    3    0  502 -0.23507448731E+03  0.18807360045E+03 -0.15277656039E+02  0.30143838600E+03  0.25500000920E-02 0.  1.
</event>
<event>
 5   0  0.8420604E-02  0.6066955E+03  0.7818609E-02  0.9891612E-01
       -2   -1    0    0    0  501  0.00000000000E+00  0.00000000000E+00  0.22052177609E+03  0.22052177611E+03  0.25500000920E-02 0.  1.
        2   -1    0    0  501    0  0.00000000000E+00  0.00000000000E+00 -0.41728244667E+03  0.41728244667E+03  0.25500000920E-02 0. -1.
    10030    2    1    2    0    0  0.00000000000E+00  0.00000000000E+00 -0.19676067057E+03  0.63780422278E+03  0.60669552917E+03 0.  0.
        2    1    3    3  502    0  0.29402571132E+03 -0.65586506807E+02 -0.60957913281E+02  0.30735740757E+03  0.25500000920E-02 0. -1.
       -2    1    3    3    0  502 -0.29402571132E+03  0.65586506807E+02 -0.13580275729E+03  0.33044681521E+03  0.25500000920E-02 0.  1.
</event>
<event>
 5   0  0.3437375E-02  0.5980743E+03  0.7818609E-02  0.9909409E-01
        3   -1    0    0  501    0  0.00000000000E+00  0.00000000000E+00  0.61021472289E+03  0.61021473125E+03  0.10100000352E+00 0. -1.
       -3   -1    0    0    0  501  0.00000000000E+00  0.00000000000E+00 -0.14654384379E+03  0.14654387860E+03  0.10100000352E+00 0.  1.
    10030    2    1    2    0    0  0.00000000000E+00  0.00000000000E+00  0.46367087909E+03  0.75675860984E+03  0.59807433439E+03 0.  0.
        4    1    3    3  502    0  0.29114449517E+03  0.42955405355E+02  0.29892549658E+03  0.41948581540E+03  0.12699999809E+01 0. -1.
       -4    1    3    3    0  502 -0.29114449517E+03 -0.42955405355E+02  0.16474538251E+03  0.33727279444E+03  0.12699999809E+01 0.  1.
</event>
<event>
 5   0  0.8575590E-02  0.6333871E+03  0.7818609E-02  0.9838461E-01
       -2   -1    0    0    0  501  0.00000000000E+00  0.00000000000E+00  0.59274118541E+02  0.59274118595E+02  0.25500000920E-02 0. -1.
        2   -1    0    0  501    0  0.00000000000E+00  0.00000000000E+00 -0.16920503973E+04  0.16920503973E+04  0.25500000920E-02 0.  1.
    10030    2    1    2    0    0  0.00000000000E+00  0.00000000000E+00 -0.16327762787E+04  0.17513245159E+04  0.63338707241E+03 0.  0.
        4    1    3    3  502    0 -0.79083138434E+02 -0.27953213585E+03 -0.46772401429E+03  0.55059942263E+03  0.12699999809E+01 0. -1.
       -4    1    3    3    0  502  0.79083138434E+02  0.27953213585E+03 -0.11650522644E+04  0.12007250932E+04  0.12699999809E+01 0.  1.
</event>
<event>
 5   0  0.3437375E-02  0.5985764E+03  0.7818609E-02  0.9908364E-01
        3   -1    0    0  501    0  0.00000000000E+00  0.00000000000E+00  0.51568946025E+03  0.51568947014E+03  0.10100000352E+00 0. -1.
       -3   -1    0    0    0  501  0.00000000000E+00  0.00000000000E+00 -0.17369641423E+03  0.17369644360E+03  0.10100000352E+00 0.  1.
    10030    2    1    2    0    0  0.00000000000E+00  0.00000000000E+00  0.34199304602E+03  0.68938591374E+03  0.59857638989E+03 0.  0.
        4    1    3    3  502    0 -0.26110268576E+03  0.17356459287E+02  0.33827589224E+03  0.42767750860E+03  0.12699999809E+01 0. -1.
       -4    1    3    3    0  502  0.26110268576E+03 -0.17356459287E+02  0.37171537788E+01  0.26170840514E+03  0.12699999809E+01 0.  1.
</event>
<event>
 5   0  0.5190380E-02  0.6068620E+03  0.7818609E-02  0.9891271E-01
       -1   -1    0    0    0  501  0.00000000000E+00  0.00000000000E+00  0.17578672505E+03  0.17578672512E+03  0.50400001928E-02 0.  1.
        1   -1    0    0  501    0  0.00000000000E+00  0.00000000000E+00 -0.52376174840E+03  0.52376174842E+03  0.50400001928E-02 0. -1.
    10030    2    1    2    0    0  0.00000000000E+00  0.00000000000E+00 -0.34797502335E+03  0.69954847355E+03  0.60686196945E+03 0.  0.
        5    1    3    3  502    0 -0.19473688516E+02  0.11992617841E+03  0.14647736763E+03  0.19036602122E+03  0.46999998093E+01 0.  1.
       -5    1    3    3    0  502  0.19473688516E+02 -0.11992617841E+03 -0.49445239098E+03  0.50918245232E+03  0.46999998093E+01 0. -1.
</event>
<event>
 5   0  0.4987389E-02  0.6108067E+03  0.7818609E-02  0.9883236E-01
       -1   -1    0    0    0  501  0.00000000000E+00  0.00000000000E+00  0.23191043279E+03  0.23191043285E+03  0.50400001928E-02 0. -1.
        1   -1    0    0  501    0  0.00000000000E+00  0.00000000000E+00 -0.40218632328E+03  0.40218632331E+03  0.50400001928E-02 0.  1.
    10030    2    1    2    0    0  0.00000000000E+00  0.00000000000E+00 -0.17027589048E+03  0.63409675615E+03  0.61080669388E+03 0.  0.
        1    1    3    3  502    0  0.43375349268E+02  0.64103339953E+02  0.22155971919E+03  0.23468994080E+03  0.50400001928E-02 0. -1.
       -1    1    3    3    0  502 -0.43375349268E+02 -0.64103339953E+02 -0.39183560968E+03  0.39940681536E+03  0.50400001928E-02 0.  1.
</event>
<event>
 5   0  0.5166903E-02  0.5896463E+03  0.7818609E-02  0.9927123E-01
        1   -1    0    0  501    0  0.00000000000E+00  0.00000000000E+00  0.14002447519E+04  0.14002447519E+04  0.50400001928E-02 0.  1.
       -1   -1    0    0    0  501  0.00000000000E+00  0.00000000000E+00 -0.62075349938E+02  0.62075350143E+02  0.50400001928E-02 0. -1.
    10030    2    1    2    0    0  0.00000000000E+00  0.00000000000E+00  0.13381694020E+04  0.14623201021E+04  0.58964627746E+03 0.  0.
        2    1    3    3  502    0  0.12122534912E+03  0.17180396524E+03  0.15656799666E+03  0.26215591797E+03  0.25500000920E-02 0. -1.
       -2    1    3    3    0  502 -0.12122534912E+03 -0.17180396524E+03  0.11816014053E+04  0.12001641841E+04  0.25500000920E-02 0.  1.
</event>
<event>
 5   0  0.8817544E-02  0.6004985E+03  0.7818609E-02  0.9904372E-01
        2   -1    0    0  501    0  0.00000000000E+00  0.00000000000E+00  0.10693902060E+04  0.10693902060E+04  0.25500000920E-02 0. -1.
       -2   -1    0    0    0  501  0.00000000000E+00  0.00000000000E+00 -0.84300021479E+02  0.84300021517E+02  0.25500000920E-02 0.  1.
    10030    2    1    2    0    0  0.00000000000E+00  0.00000000000E+00  0.98509018452E+03  0.11536902275E+04  0.60049851743E+03 0.  0.
        5    1    3    3  502    0 -0.63208185960E+02  0.25903788950E+03  0.22750278513E+03  0.35053603269E+03  0.46999998093E+01 0.  1.
       -5    1    3    3    0  502  0.63208185960E+02 -0.25903788950E+03  0.75758739939E+03  0.80315419483E+03  0.46999998093E+01 0. -1.
</event>
<event>
 5   0  0.4881209E-02  0.6176439E+03  0.7818609E-02  0.9869462E-01
       -1   -1    0    0    0  501  0.00000000000E+00  0.00000000000E+00  0.48657159492E+02  0.48657159753E+02  0.50400001928E-02 0. -1.
        1   -1    0    0  501    0  0.00000000000E+00  0.00000000000E+00 -0.19600607588E+04  0.19600607589E+04  0.50400001928E-02 0.  1.
    10030    2    1    2    0    0  0.00000000000E+00  0.00000000000E+00 -0.19114035994E+04  0.20087179186E+04  0.61764387547E+03 0.  0.
        3    1    3    3  502    0  0.28468097919E+03 -0.10564826470E+03 -0.77270332579E+03  0.83022602683E+03  0.10100000352E+00 0.  1.
       -3    1    3    3    0  502 -0.28468097919E+03  0.10564826470E+03 -0.11387002736E+04  0.11784918918E+04  0.10100000352E+00 0. -1.
</event>
<event>
 5   0  0.5166903E-02  0.5877089E+03  0.7818609E-02  0.9931239E-01
       -1   -1    0    0    0  501  0.00000000000E+00  0.00000000000E+00  0.65752778532E+02  0.65752778725E+02  0.50400001928E-02 0.  1.
        1   -1    0    0  501    0  0.00000000000E+00  0.00000000000E+00 -0.13132592417E+04  0.13132592417E+04  0.50400001928E-02 0. -1.
    10030    2    1    2    0    0  0.00000000000E+00  0.00000000000E+00 -0.12475064632E+04  0.13790120205E+04  0.58770892189E+03 0.  0.
        2    1    3    3  502    0 -0.22143051089E+03 -0.12079280929E+03 -0.97749557618E+03  0.10095147227E+04  0.25500000920E-02 0.  1.
       -2    1    3    3    0  502  0.22143051089E+03  0.12079280929E+03 -0.27001088703E+03  0.36949729776E+03  0.25500000920E-02 0. -1.
</event>
<event>
 5   0  0.8699746E-02  0.5969760E+03  0.7818609E-02  0.9911700E-01
       -2   -1    0    0    0  501  0.00000000000E+00  0.00000000000E+00  0.13761063570E+03  0.13761063572E+03  0.25500000920E-02 0.  1.
        2   -1    0    0  501    0  0.00000000000E+00  0.00000000000E+00 -0.64744325810E+03  0.64744325811E+03  0.25500000920E-02 0. -1.
    10030    2    1    2    0    0  0.00000000000E+00  0.00000000000E+00 -0.50983262240E+03  0.78505389383E+03  0.59697597385E+03 0.  0.
        3    1    3    3  502    0 -0.32058021159E+02 -0.11663377858E+03  0.10393583400E+03  0.15947985082E+03  0.10100000352E+00 0.  1.
       -3    1    3    3    0  502  0.32058021159E+02  0.11663377858E+03 -0.61376845640E+03  0.62557404302E+03  0.10100000352E+00 0. -1.
</event>
<event>
 5   0  0.4881209E-02  0.7194674E+03  0.7818609E-02  0.9684508E-01
        1   -1    0    0  501    0  0.00000000000E+00  0.00000000000E+00  0.21933925916E+03  0.21933925922E+03  0.50400001928E-02 0.  1.
       -1   -1    0    0    0  501  0.00000000000E+00  0.00000000000E+00 -0.58999170111E+03  0.58999170113E+03  0.50400001928E-02 0. -1.
    10030    2    1    2    0    0  0.00000000000E+00  0.00000000000E+00 -0.37065244195E+03  0.80933096035E+03  0.71946742154E+03 0.  0.
        3    1    3    3  502    0 -0.16854279387E+03 -0.20763257952E+03  0.85330108329E+02  0.28071195028E+03  0.10100000352E+00 0.  1.
       -3    1    3    3    0  502  0.16854279387E+03  0.20763257952E+03 -0.45598255027E+03  0.52861901006E+03  0.10100000352E+00 0. -1.
</event>
<event>
 5   0  0.4881209E-02  0.6176098E+03  0.7818609E-02  0.9869530E-01
       -1   -1    0    0    0  501  0.00000000000E+00  0.00000000000E+00  0.14589207959E+03  0.14589207967E+03  0.50400001928E-02 0. -1.
        1   -1    0    0  501    0  0.00000000000E+00  0.00000000000E+00 -0.65363711526E+03  0.65363711528E+03  0.50400001928E-02 0.  1.
    10030    2    1    2    0    0  0.00000000000E+00  0.00000000000E+00 -0.50774503568E+03  0.79952919496E+03  0.61760983827E+03 0.  0.
        3    1    3    3  502    0 -0.28651029614E+03 -0.72130141334E+02 -0.37016324074E+03  0.47361560582E+03  0.10100000352E+00 0.  1.
       -3    1    3    3    0  502  0.28651029614E+03  0.72130141334E+02 -0.13758179494E+03  0.32591358913E+03  0.10100000352E+00 0. -1.
</event>
<event>
 5   0  0.4987389E-02  0.6040483E+03  0.7818609E-02  0.9897043E-01
       -1   -1    0    0    0  501  0.00000000000E+00  0.00000000000E+00  0.96783165651E+02  0.96783165782E+02  0.50400001928E-02 0.  1.
        1   -1    0    0  501    0  0.00000000000E+00  0.00000000000E+00 -0.94250466165E+03  0.94250466166E+03  0.50400001928E-02 0. -1.
    10030    2    1    2    0    0  0.00000000000E+00  0.00000000000E+00 -0.84572149600E+03  0.10392878274E+04  0.60404829234E+03 0.  0.
        1    1    3    3  502    0  0.13886683148E+03 -0.26819259808E+03 -0.42751520670E+03  0.52343148409E+03  0.50400001928E-02 0.  1.
       -1    1    3    3    0  502 -0.13886683148E+03  0.26819259808E+03 -0.41820628929E+03  0.51585634335E+03  0.50400001928E-02 0. -1.
</event>
<event>
 5   0  0.3437375E-02  0.5837735E+03  0.7818609E-02  0.9939655E-01
        4   -1    0    0  501    0  0.00000000000E+00  0.00000000000E+00  0.39095485728E+03  0.39095692005E+03  0.12699999809E+01 0. -1.
       -4   -1    0    0    0  501  0.00000000000E+00  0.00000000000E+00 -0.21791804502E+03  0.21792174569E+03  0.12699999809E+01 0.  1.
    10030    2    1    2    0    0  0.00000000000E+00  0.00000000000E+00  0.17303681226E+03  0.60887866574E+03  0.58377349306E+03 0.  0.
        2    1    3    3  502    0 -0.11329412703E+03  0.11220558284E+03  0.34151599953E+03  0.37690692482E+03  0.25500000920E-02 0. -1.
       -2    1    3    3    0  502  0.11329412703E+03 -0.11220558284E+03 -0.16847918727E+03  0.23197174092E+03  0.25500000920E-02 0.  1.
</event>
<event>
 5   0  0.5125031E-02  0.6015589E+03  0.7818609E-02  0.9902177E-01
       -1   -1    0    0    0  501  0.00000000000E+00  0.00000000000E+00  0.14379449483E+03  0.14379449492E+03  0.50400001928E-02 0. -1.
        1   -1    0    0  501    0  0.00000000000E+00  0.00000000000E+00 -0.62914976938E+03  0.62914976940E+03  0.50400001928E-02 0.  1.
    10030    2    1    2    0    0  0.00000000000E+00  0.00000000000E+00 -0.48535527455E+03  0.77294426432E+03  0.60155888591E+03 0.  0.
        4    1    3    3  502    0 -0.79201088526E+02 -0.10712861205E+03 -0.58916622137E+03  0.60404288031E+03  0.12699999809E+01 0.  1.
       -4    1    3    3    0  502  0.79201088526E+02  0.10712861205E+03  0.10381094682E+03  0.16890138402E+03  0.12699999809E+01 0. -1.
</event>
<event>
 5   0  0.5166903E-02  0.5978335E+03  0.7818609E-02  0.9909911E-01
        1   -1    0    0  501    0  0.00000000000E+00  0.00000000000E+00  0.18581660378E+03  0.18581660385E+03  0.50400001928E-02 0.  1.
       -1   -1    0    0    0  501  0.00000000000E+00  0.00000000000E+00 -0.48085705274E+03  0.48085705276E+03  0.50400001928E-02 0. -1.
    10030    2    1    2    0    0  0.00000000000E+00  0.00000000000E+00 -0.29504044896E+03  0.66667365661E+03  0.59783350349E+03 0.  0.
        2    1    3    3  502    0 -0.17411145203E+03  0.12624028470E+03 -0.37903075967E+03  0.43579321242E+03  0.25500000920E-02 0. -1.
       -2    1    3    3    0  502  0.17411145203E+03 -0.12624028470E+03  0.83990310715E+02  0.23088044419E+03  0.25500000920E-02 0.  1.
</event>
<event>
 5   0  0.8699746E-02  0.5429452E+03  0.7818609E-02  0.1003140E+00
        2   -1    0    0  501    0  0.00000000000E+00  0.00000000000E+00  0.51630104722E+03  0.51630104722E+03  0.25500000920E-02 0.  1.
       -2   -1    0    0    0  501  0.00000000000E+00  0.00000000000E+00 -0.14274109017E+03  0.14274109019E+03  0.25500000920E-02 0. -1.
    10030    2    1    2    0    0  0.00000000000E+00  0.00000000000E+00  0.37355995705E+03  0.65904213742E+03  0.54294520661E+03 0.  0.
        3    1    3    3  502    0  0.17220676633E+03 -0.69193900504E+02 -0.53712412394E+02  0.19320455399E+03  0.10100000352E+00 0. -1.
       -3    1    3    3    0  502 -0.17220676633E+03  0.69193900504E+02  0.42727236944E+03  0.46583758342E+03  0.10100000352E+00 0.  1.
</event>
<event>
 5   0  0.8575590E-02  0.5985145E+03  0.7818609E-02  0.9908493E-01
        2   -1    0    0  501    0  0.00000000000E+00  0.00000000000E+00  0.20502442357E+03  0.20502442359E+03  0.25500000920E-02 0. -1.
       -2   -1    0    0    0  501  0.00000000000E+00  0.00000000000E+00 -0.43680110615E+03  0.43680110616E+03  0.25500000920E-02 0.  1.
    10030    2    1    2    0    0  0.00000000000E+00  0.00000000000E+00 -0.23177668258E+03  0.64182552974E+03  0.59851447772E+03 0.  0.
        4    1    3    3  502    0 -0.17740526410E+03 -0.17332278881E+03 -0.29545689673E+03  0.38575874270E+03  0.12699999809E+01 0.  1.
       -4    1    3    3    0  502  0.17740526410E+03  0.17332278881E+03  0.63680214145E+02  0.25606678704E+03  0.12699999809E+01 0. -1.
</event>
<event>
 5   0  0.8575590E-02  0.6039154E+03  0.7818609E-02  0.9897316E-01
        2   -1    0    0  501    0  0.00000000000E+00  0.00000000000E+00  0.79844911307E+03  0.79844911307E+03  0.25500000920E-02 0. -1.
       -2   -1    0    0    0  501  0.00000000000E+00  0.00000000000E+00 -0.11419443416E+03  0.11419443419E+03  0.25500000920E-02 0.  1.
    10030    2    1    2    0    0  0.00000000000E+00  0.00000000000E+00  0.68425467891E+03  0.91264354726E+03  0.60391537383E+03 0.  0.
        4    1    3    3  502    0 -0.18688331806E+03 -0.20775146786E+03  0.16922218345E+03  0.32668609894E+03  0.12699999809E+01 0.  1.
       -4    1    3    3    0  502  0.18688331806E+03  0.20775146786E+03  0.51503249546E+03  0.58595744833E+03  0.12699999809E+01 0. -1.
</event>
<event>
 5   0  0.5190380E-02  0.5977766E+03  0.7818609E-02  0.9910030E-01
        1   -1    0    0  501    0  0.00000000000E+00  0.00000000000E+00  0.45278208826E+03  0.45278208829E+03  0.50400001928E-02 0. -1.
       -1   -1    0    0    0  501  0.00000000000E+00  0.00000000000E+00 -0.19730065296E+03  0.19730065302E+03  0.50400001928E-02 0.  1.
    10030    2    1    2    0    0  0.00000000000E+00  0.00000000000E+00  0.25548143530E+03  0.65008274131E+03  0.59777655254E+03 0.  0.
        5    1    3    3  502    0 -0.29072567800E+03  0.66716104074E+02  0.10769841197E+03  0.31716477788E+03  0.46999998093E+01 0.  1.
       -5    1    3    3    0  502  0.29072567800E+03 -0.66716104074E+02  0.14778302333E+03  0.33291796343E+03  0.46999998093E+01 0. -1.
</event>
<event>
 5   0  0.4881209E-02  0.6354105E+03  0.7818609E-02  0.9834547E-01
       -1   -1    0    0    0  501  0.00000000000E+00  0.00000000000E+00  0.98854351158E+02  0.98854351286E+02  0.50400001928E-02 0.  1.
        1   -1    0    0  501    0  0.00000000000E+00  0.00000000000E+00 -0.10210641083E+04  0.10210641083E+04  0.50400001928E-02 0. -1.
    10030    2    1    2    0    0  0.00000000000E+00  0.00000000000E+00 -0.92220975717E+03  0.11199184596E+04  0.63541051297E+03 0.  0.
        3    1    3    3  502    0  0.23910388430E+03  0.18596320769E+02 -0.93841552809E+02  0.25753201329E+03  0.10100000352E+00 0.  1.
       -3    1    3    3    0  502 -0.23910388430E+03 -0.18596320769E+02 -0.82836820436E+03  0.86238644633E+03  0.10100000352E+00 0. -1.
</event>
<event>
 5   0  0.8575590E-02  0.5739362E+03  0.7818609E-02  0.9961006E-01
       -2   -1    0    0    0  501  0.00000000000E+00  0.00000000000E+00  0.30850360131E+03  0.30850360132E+03  0.25500000920E-02 0.  1.
        2   -1    0    0  501    0  0.00000000000E+00  0.00000000000E+00 -0.26693589995E+03  0.26693589996E+03  0.25500000920E-02 0. -1.
    10030    2    1    2    0    0  0.00000000000E+00  0.00000000000E+00  0.41567701362E+02  0.57543950129E+03  0.57393618621E+03 0.  0.
        4    1    3    3  502    0 -0.76439250982E+01  0.14604284026E+03 -0.22676797846E+03  0.26983748764E+03  0.12699999809E+01 0. -1.
       -4    1    3    3    0  502  0.76439250982E+01 -0.14604284026E+03  0.26833567982E+03  0.30560201365E+03  0.12699999809E+01 0.  1.
</event>
<event>
 5   0  0.3437375E-02  0.6023391E+03  0.7818609E-02  0.9900565E-01
       -3   -1    0    0    0  501  0.00000000000E+00  0.00000000000E+00  0.71576629395E+03  0.71576630107E+03  0.10100000352E+00 0. -1.
        3   -1    0    0  501    0  0.00000000000E+00  0.00000000000E+00 -0.12672161980E+03  0.12672166005E+03  0.10100000352E+00 0.  1.
    10030    2    1    2    0    0  0.00000000000E+00  0.00000000000E+00  0.58904467414E+03  0.84248796113E+03  0.60233905444E+03 0.  0.
        4    1    3    3  502    0  0.23898591409E+03  0.16724376204E+03  0.18969745484E+03  0.34795327322E+03  0.12699999809E+01 0. -1.
       -4    1    3    3    0  502 -0.23898591409E+03 -0.16724376204E+03  0.39934721931E+03  0.49453468790E+03  0.12699999809E+01 0.  1.
</event>
<event>
 5   0  0.8817544E-02  0.5989215E+03  0.7818609E-02  0.9907646E-01
        2   -1    0    0  501    0  0.00000000000E+00  0.00000000000E+00  0.16352346149E+04  0.16352346149E+04  0.25500000920E-02 0.  1.
       -2   -1    0    0    0  501  0.00000000000E+00  0.00000000000E+00 -0.54840283094E+02  0.54840283154E+02  0.25500000920E-02 0. -1.
    10030    2    1    2    0    0  0.00000000000E+00  0.00000000000E+00  0.15803943318E+04  0.16900748981E+04  0.59892146149E+03 0.  0.
        5    1    3    3  502    0 -0.17752485847E+03  0.14655283459E+03  0.13305073441E+04  0.13502831893E+04  0.46999998093E+01 0.  1.
       -5    1    3    3    0  502  0.17752485847E+03 -0.14655283459E+03  0.24988698776E+03  0.33979170877E+03  0.46999998093E+01 0. -1.
</event>
<event>
 5   0  0.4881209E-02  0.5976898E+03  0.7818609E-02  0.9910211E-01
       -1   -1    0    0    0  501  0.00000000000E+00  0.00000000000E+00  0.44337159998E+03  0.44337160001E+03  0.50400001928E-02 0. -1.
        1   -1    0    0  501    0  0.00000000000E+00  0.00000000000E+00 -0.20142982633E+03  0.20142982639E+03  0.50400001928E-02 0.  1.
    10030    2    1    2    0    0  0.00000000000E+00  0.00000000000E+00  0.24194177365E+03  0.64480142640E+03  0.59768976707E+03 0.  0.
        3    1    3    3  502    0  0.21349774856E+03  0.22045489449E+02 -0.10336452980E+03  0.23822579304E+03  0.10100000352E+00 0.  1.
       -3    1    3    3    0  502 -0.21349774856E+03 -0.22045489449E+02  0.34530630345E+03  0.40657563337E+03  0.10100000352E+00 0. -1.
</event>
<event>
 5   0  0.4987389E-02  0.6003057E+03  0.7818609E-02  0.9904772E-01
        1   -1    0    0  501    0  0.00000000000E+00  0.00000000000E+00  0.79508193708E+03  0.79508193710E+03  0.50400001928E-02 0. -1.
       -1   -1    0    0    0  501  0.00000000000E+00  0.00000000000E+00 -0.11331124796E+03  0.11331124807E+03  0.50400001928E-02 0.  1.
    10030    2    1    2    0    0  0.00000000000E+00  0.00000000000E+00  0.68177068913E+03  0.90839318517E+03  0.60030567739E+03 0.  0.
        1    1    3    3  502    0  0.12539540747E+03  0.14276461707E+03 -0.10709032824E+02  0.19031665064E+03  0.50400001928E-02 0.  1.
       -1    1    3    3    0  502 -0.12539540747E+03 -0.14276461707E+03  0.69247972195E+03  0.71807653453E+03  0.50400001928E-02 0. -1.
</event>
<event>
 5   0  0.8420604E-02  0.6104527E+03  0.7818609E-02  0.9883954E-01
       -2   -1    0    0    0  501  0.00000000000E+00  0.00000000000E+00  0.28781054930E+03  0.28781054931E+03  0.25500000920E-02 0.  1.
        2   -1    0    0  501    0  0.00000000000E+00  0.00000000000E+00 -0.32369603167E+03  0.32369603168E+03  0.25500000920E-02 0. -1.
    10030    2    1    2    0    0  0.00000000000E+00  0.00000000000E+00 -0.35885482369E+02  0.61150658099E+03  0.61045272606E+03 0.  0.
        2    1    3    3  502    0  0.21711865742E+03 -0.17026550883E+03  0.11279032993E+03  0.29808138726E+03  0.25500000920E-02 0. -1.
       -2    1    3    3    0  502 -0.21711865742E+03  0.17026550883E+03 -0.14867581230E+03  0.31342519373E+03  0.25500000920E-02 0.  1.
</event>
<event>
 5   0  0.8817544E-02  0.5931028E+03  0.7818609E-02  0.9919820E-01
       -2   -1    0    0    0  501  0.00000000000E+00  0.00000000000E+00  0.54278694966E+02  0.54278695026E+02  0.25500000920E-02 0. -1.
        2   -1    0    0  501    0  0.00000000000E+00  0.00000000000E+00 -0.16202072770E+04  0.16202072770E+04  0.25500000920E-02 0.  1.
    10030    2    1    2    0    0  0.00000000000E+00  0.00000000000E+00 -0.15659285820E+04  0.16744859720E+04  0.59310281274E+03 0.  0.
        5    1    3    3  502    0 -0.58596864509E+01 -0.20710874491E+03 -0.13818176963E+04  0.13972725590E+04  0.46999998093E+01 0.  1.
       -5    1    3    3    0  502  0.58596864509E+01  0.20710874491E+03 -0.18411088566E+03  0.27721341302E+03  0.46999998093E+01 0. -1.
</event>
<event>
 5   0  0.8207443E-02  0.5983249E+03  0.7818609E-02  0.9908887E-01
       -2   -1    0    0    0  501  0.00000000000E+00  0.00000000000E+00  0.47034913883E+03  0.47034913884E+03  0.25500000920E-02 0. -1.
        2   -1    0    0  501    0  0.00000000000E+00  0.00000000000E+00 -0.19028030485E+03  0.19028030486E+03  0.25500000920E-02 0.  1.
    10030    2    1    2    0    0  0.00000000000E+00  0.00000000000E+00  0.28006883398E+03  0.66062944370E+03  0.59832492018E+03 0.  0.
        1    1    3    3  502    0 -0.16928399499E+03 -0.12794624059E+03  0.37287497320E+03  0.42902570681E+03  0.50400001928E-02 0. -1.
       -1    1    3    3    0  502  0.16928399499E+03  0.12794624059E+03 -0.92806139212E+02  0.23160373689E+03  0.50400001928E-02 0.  1.
</event>
<event>
 5   0  0.8575590E-02  0.5816563E+03  0.7818609E-02  0.9944211E-01
        2   -1    0    0  501    0  0.00000000000E+00  0.00000000000E+00  0.90056298970E+03  0.90056298970E+03  0.25500000920E-02 0. -1.
       -2   -1    0    0    0  501  0.00000000000E+00  0.00000000000E+00 -0.93920167742E+02  0.93920167777E+02  0.25500000920E-02 0.  1.
    10030    2    1    2    0    0  0.00000000000E+00  0.00000000000E+00  0.80664282196E+03  0.99448315748E+03  0.58165634897E+03 0.  0.
        4    1    3    3  502    0  0.17709837919E+03  0.21606428621E+03  0.26514068143E+03  0.38516075285E+03  0.12699999809E+01 0.  1.
       -4    1    3    3    0  502 -0.17709837919E+03 -0.21606428621E+03  0.54150214053E+03  0.60932240463E+03  0.12699999809E+01 0. -1.
</event>
<event>
 5   0  0.8817544E-02  0.5943342E+03  0.7818609E-02  0.9917231E-01
       -2   -1    0    0    0  501  0.00000000000E+00  0.00000000000E+00  0.88341010641E+03  0.88341010642E+03  0.25500000920E-02 0. -1.
        2   -1    0    0  501    0  0.00000000000E+00  0.00000000000E+00 -0.99962963189E+02  0.99962963222E+02  0.25500000920E-02 0.  1.
    10030    2    1    2    0    0  0.00000000000E+00  0.00000000000E+00  0.78344714322E+03  0.98337306964E+03  0.59433422236E+03 0.  0.
        5    1    3    3  502    0  0.11195503979E+02 -0.27419335879E+03  0.20322592849E+03  0.34151164741E+03  0.46999998093E+01 0. -1.
       -5    1    3    3    0  502 -0.11195503979E+02  0.27419335879E+03  0.58022121474E+03  0.64186142222E+03  0.46999998093E+01 0.  1.
</event>
<event>
 5   0  0.8699746E-02  0.5996817E+03  0.7818609E-02  0.9906067E-01
       -2   -1    0    0    0  501  0.00000000000E+00  0.00000000000E+00  0.12003713867E+03  0.12003713870E+03  0.25500000920E-02 0. -1.
        2   -1    0    0  501    0  0.00000000000E+00  0.00000000000E+00 -0.74897271083E+03  0.74897271084E+03  0.25500000920E-02 0.  1.
    10030    2    1    2    0    0  0.00000000000E+00  0.00000000000E+00 -0.62893557216E+03  0.86900984954E+03  0.59968171947E+03 0.  0.
        3    1    3    3  502    0  0.61038712417E+02  0.18799941784E+03  0.12259504509E+02  0.19803992318E+03  0.10100000352E+00 0. -1.
       -3    1    3    3    0  502 -0.61038712417E+02 -0.18799941784E+03 -0.64119507667E+03  0.67096992635E+03  0.10100000352E+00 0.  1.
</event>
<event>
 5   0  0.5166903E-02  0.5997812E+03  0.7818609E-02  0.9905860E-01
        1   -1    0    0  501    0  0.00000000000E+00  0.00000000000E+00  0.10174885830E+04  0.10174885830E+04  0.50400001928E-02 0.  1.
       -1   -1    0    0    0  501  0.00000000000E+00  0.00000000000E+00 -0.88388586303E+02  0.88388586447E+02  0.50400001928E-02 0. -1.
    10030    2    1    2    0    0  0.00000000000E+00  0.00000000000E+00  0.92909999673E+03  0.11058771695E+04  0.59978121851E+03 0.  0.
        2    1    3    3  502    0  0.23678477684E+03  0.15607671267E+03  0.28476847053E+03  0.40189557424E+03  0.25500000920E-02 0.  1.
       -2    1    3    3    0  502 -0.23678477684E+03 -0.15607671267E+03  0.64433152620E+03  0.70398159525E+03  0.25500000920E-02 0. -1.
</event>
<event>
 5   0  0.8817544E-02  0.5869012E+03  0.7818609E-02  0.9932961E-01
       -2   -1    0    0    0  501  0.00000000000E+00  0.00000000000E+00  0.14694742618E+03  0.14694742621E+03  0.25500000920E-02 0. -1.
        2   -1    0    0  501    0  0.00000000000E+00  0.00000000000E+00 -0.58601399593E+03  0.58601399594E+03  0.25500000920E-02 0.  1.
    10030    2    1    2    0    0  0.00000000000E+00  0.00000000000E+00 -0.43906656975E+03  0.73296142214E+03  0.58690117880E+03 0.  0.
        5    1    3    3  502    0 -0.24382045686E+03  0.11749367907E+03 -0.78030672013E+02  0.28171626787E+03  0.46999998093E+01 0. -1.
       -5    1    3    3    0  502  0.24382045686E+03 -0.11749367907E+03 -0.36103589773E+03  0.45124515428E+03  0.46999998093E+01 0.  1.
</event>
<event>
 5   0  0.5190380E-02  0.5952387E+03  0.7818609E-02  0.9915334E-01
       -1   -1    0    0    0  501  0.00000000000E+00  0.00000000000E+00  0.59070289131E+02  0.59070289346E+02  0.50400001928E-02 0. -1.
        1   -1    0    0  501    0  0.00000000000E+00  0.00000000000E+00 -0.14995234447E+04  0.14995234447E+04  0.50400001928E-02 0.  1.
    10030    2    1    2    0    0  0.00000000000E+00  0.00000000000E+00 -0.14404531556E+04  0.15585937340E+04  0.59523872055E+03 0.  0.
        5    1    3    3  502    0 -0.13582767258E+03  0.23744312274E+03 -0.10270061315E+04  0.10628226932E+04  0.46999998093E+01 0.  1.
       -5    1    3    3    0  502  0.13582767258E+03 -0.23744312274E+03 -0.41344702407E+03  0.49577104079E+03  0.46999998093E+01 0. -1.
</event>
<event>
 5   0  0.4881209E-02  0.5727823E+03  0.7818609E-02  0.9963541E-01
       -1   -1    0    0    0  501  0.00000000000E+00  0.00000000000E+00  0.14334488960E+04  0.14334488961E+04  0.50400001928E-02 0.  1.
        1   -1    0    0  501    0  0.00000000000E+00  0.00000000000E+00 -0.57218574217E+02  0.57218574439E+02  0.50400001928E-02 0. -1.
    10030    2    1    2    0    0  0.00000000000E+00  0.00000000000E+00  0.13762303218E+04  0.14906674705E+04  0.57278233987E+03 0.  0.
        3    1    3    3  502    0 -0.73156349706E+01  0.10994144829E+03  0.13760784706E+04  0.13804827446E+04  0.10100000352E+00 0.  1.
       -3    1    3    3    0  502  0.73156349706E+01 -0.10994144829E+03  0.15185121090E+00  0.11018472592E+03  0.10100000352E+00 0. -1.
</event>
<event>
 5   0  0.4881209E-02  0.5412193E+03  0.7818609E-02  0.1003547E+00
       -1   -1    0    0    0  501  0.00000000000E+00  0.00000000000E+00  0.13297664103E+03  0.13297664112E+03  0.50400001928E-02 0.  1.
        1   -1    0    0  501    0  0.00000000000E+00  0.00000000000E+00 -0.55069516479E+03  0.55069516481E+03  0.50400001928E-02 0. -1.
    10030    2    1    2    0    0  0.00000000000E+00  0.00000000000E+00 -0.41771852376E+03  0.68367180594E+03  0.54121933922E+03 0.  0.
        3    1    3    3  502    0 -0.22583152348E+03 -0.59254339407E+02 -0.36032343592E+02  0.23623990713E+03  0.10100000352E+00 0.  1.
       -3    1    3    3    0  502  0.22583152348E+03  0.59254339407E+02 -0.38168618017E+03  0.44743189881E+03  0.10100000352E+00 0. -1.
</event>
<event>
 5   0  0.5125031E-02  0.6015729E+03  0.7818609E-02  0.9902148E-01
        1   -1    0    0  501    0  0.00000000000E+00  0.00000000000E+00  0.17260638565E+03  0.17260638572E+03  0.50400001928E-02 0. -1.
       -1   -1    0    0    0  501  0.00000000000E+00  0.00000000000E+00 -0.52415500989E+03  0.52415500991E+03  0.50400001928E-02 0.  1.
    10030    2    1    2    0    0  0.00000000000E+00  0.00000000000E+00 -0.35154862424E+03  0.69676139563E+03  0.60157294424E+03 0.  0.
        4    1    3    3  502    0 -0.57033184767E+02  0.19513296490E+03 -0.43252924691E+03  0.47792553864E+03  0.12699999809E+01 0. -1.
       -4    1    3    3    0  502  0.57033184767E+02 -0.19513296490E+03  0.80980622669E+02  0.21883585699E+03  0.12699999809E+01 0.  1.
</event>
<event>
 5   0  0.8699746E-02  0.6389722E+03  0.7818609E-02  0.9827695E-01
       -2   -1    0    0    0  501  0.00000000000E+00  0.00000000000E+00  0.15001372477E+03  0.15001372479E+03  0.25500000920E-02 0.  1.
        2   -1    0    0  501    0  0.00000000000E+00  0.00000000000E+00 -0.68041353148E+03  0.68041353148E+03  0.25500000920E-02 0. -1.
    10030    2    1    2    0    0  0.00000000000E+00  0.00000000000E+00 -0.53039980671E+03  0.83042725628E+03  0.63897220050E+03 0.  0.
        3    1    3    3  502    0 -0.23914984766E+03 -0.19003737381E+03 -0.38686985266E+03  0.49292509185E+03  0.10100000352E+00 0. -1.
       -3    1    3    3    0  502  0.23914984766E+03  0.19003737381E+03 -0.14352995405E+03  0.33750216443E+03  0.10100000352E+00 0.  1.
</event>
<event>
 5   0  0.3437375E-02  0.6148254E+03  0.7818609E-02  0.9875117E-01
       -4   -1    0    0    0  501  0.00000000000E+00  0.00000000000E+00  0.17173228366E+03  0.17173697957E+03  0.12699999809E+01 0. -1.
        4   -1    0    0  501    0  0.00000000000E+00  0.00000000000E+00 -0.55027716694E+03  0.55027863247E+03  0.12699999809E+01 0.  1.
    10030    2    1    2    0    0  0.00000000000E+00  0.00000000000E+00 -0.37854488328E+03  0.72201561204E+03  0.61482543488E+03 0.  0.
        2    1    3    3  502    0  0.39735155018E+02  0.16479775026E+03 -0.49042980652E+03  0.51890131641E+03  0.25500000920E-02 0.  1.
       -2    1    3    3    0  502 -0.39735155018E+02 -0.16479775026E+03  0.11188492324E+03  0.20311429563E+03  0.25500000920E-02 0. -1.
</event>
<event>
 5   0  0.5125031E-02  0.5951067E+03  0.7818609E-02  0.9915610E-01
       -1   -1    0    0    0  501  0.00000000000E+00  0.00000000000E+00  0.46848400706E+03  0.46848400709E+03  0.50400001928E-02 0.  1.
        1   -1    0    0  501    0  0.00000000000E+00  0.00000000000E+00 -0.18898832000E+03  0.18898832006E+03  0.50400001928E-02 0. -1.
    10030    2    1    2    0    0  0.00000000000E+00  0.00000000000E+00  0.27949568706E+03  0.65747232715E+03  0.59510673151E+03 0.  0.
        4    1    3    3  502    0  0.27615694602E+03 -0.11036538921E+03  0.15041440847E+03  0.33327058848E+03  0.12699999809E+01 0.  1.
       -4    1    3    3    0  502 -0.27615694602E+03  0.11036538921E+03  0.12908127859E+03  0.32420173867E+03  0.12699999809E+01 0. -1.
</event>
<event>
 5   0  0.8420604E-02  0.5942387E+03  0.7818609E-02  0.9917432E-01
       -2   -1    0    0    0  501  0.00000000000E+00  0.00000000000E+00  0.10594069061E+03  0.10594069064E+03  0.25500000920E-02 0. -1.
        2   -1    0    0  501    0  0.00000000000E+00  0.00000000000E+00 -0.83329551468E+03  0.83329551468E+03  0.25500000920E-02 0.  1.
    10030    2    1    2    0    0  0.00000000000E+00  0.00000000000E+00 -0.72735482407E+03  0.93923620532E+03  0.59423868040E+03 0.  0.
        2    1    3    3  502    0  0.13705594856E+03  0.20750919415E+03 -0.10669245510E+03  0.27060613199E+03  0.25500000920E-02 0. -1.
       -2    1    3    3    0  502 -0.13705594856E+03 -0.20750919415E+03 -0.62066236897E+03  0.66863007333E+03  0.25500000920E-02 0.  1.
</event>
<event>
 5   0  0.8420604E-02  0.5916490E+03  0.7818609E-02  0.9922885E-01
       -2   -1    0    0    0  501  0.00000000000E+00  0.00000000000E+00  0.54037057082E+02  0.54037057142E+02  0.25500000920E-02 0. -1.
        2   -1    0    0  501    0  0.00000000000E+00  0.00000000000E+00 -0.16194837705E+04  0.16194837705E+04  0.25500000920E-02 0.  1.
    10030    2    1    2    0    0  0.00000000000E+00  0.00000000000E+00 -0.15654467135E+04  0.16735208277E+04  0.59164900745E+03 0.  0.
        2    1    3    3  502    0 -0.36315414328E+01  0.58074411284E+02 -0.16031370600E+04  0.16041927124E+04  0.25500000920E-02 0.  1.
       -2    1    3    3    0  502  0.36315414328E+01 -0.58074411284E+02  0.37690346551E+02  0.69328115284E+02  0.25500000920E-02 0. -1.
</event>
<event>
 5   0  0.5125031E-02  0.5926638E+03  0.7818609E-02  0.9920744E-01
        1   -1    0    0  501    0  0.00000000000E+00  0.00000000000E+00  0.10048646615E+04  0.10048646615E+04  0.50400001928E-02 0. -1.
       -1   -1    0    0    0  501  0.00000000000E+00  0.00000000000E+00 -0.87387487646E+02  0.87387487792E+02  0.50400001928E-02 0.  1.
    10030    2    1    2    0    0  0.00000000000E+00  0.00000000000E+00  0.91747717387E+03  0.10922521493E+04  0.59266381121E+03 0.  0.
        4    1    3    3  502    0 -0.28486488403E+03  0.78834204212E+02  0.49775316486E+03  0.57889779749E+03  0.12699999809E+01 0. -1.
       -4    1    3    3    0  502  0.28486488403E+03 -0.78834204212E+02  0.41972400900E+03  0.51335435183E+03  0.12699999809E+01 0.  1.
</event>
<event>
 5   0  0.8817544E-02  0.5734195E+03  0.7818609E-02  0.9962140E-01
       -2   -1    0    0    0  501  0.00000000000E+00  0.00000000000E+00  0.28471372891E+03  0.28471372892E+03  0.25500000920E-02 0. -1.
        2   -1    0    0  501    0  0.00000000000E+00  0.00000000000E+00 -0.28871980085E+03  0.28871980086E+03  0.25500000920E-02 0.  1.
    10030    2    1    2    0    0  0.00000000000E+00  0.00000000000E+00 -0.40060719405E+01  0.57343352978E+03  0.57341953617E+03 0.  0.
        5    1    3    3  502    0 -0.60129985552E+01 -0.10259702421E+02 -0.28843450708E+03  0.28871780776E+03  0.46999998093E+01 0.  1.
       -5    1    3    3    0  502  0.60129985552E+01  0.10259702421E+02  0.28442843514E+03  0.28471572201E+03  0.46999998093E+01 0. -1.
</event>
<event>
 5   0  0.3437375E-02  0.5992658E+03  0.7818609E-02  0.9906930E-01
        3   -1    0    0  501    0  0.00000000000E+00  0.00000000000E+00  0.33370512619E+03  0.33370514148E+03  0.10100000352E+00 0. -1.
       -3   -1    0    0    0  501  0.00000000000E+00  0.00000000000E+00 -0.26903952254E+03  0.26903954150E+03  0.10100000352E+00 0.  1.
    10030    2    1    2    0    0  0.00000000000E+00  0.00000000000E+00  0.64665603651E+02  0.60274468298E+03  0.59926581128E+03 0.  0.
        1    1    3    3  502    0  0.18133034161E+03 -0.69229049798E+02 -0.19726088276E+03  0.27674032958E+03  0.50400001928E-02 0.  1.
       -1    1    3    3    0  502 -0.18133034161E+03  0.69229049798E+02  0.26192648641E+03  0.32600435340E+03  0.50400001928E-02 0. -1.
</event>
<event>
 5   0  0.4881209E-02  0.5981040E+03  0.7818609E-02  0.9909347E-01
       -1   -1    0    0    0  501  0.00000000000E+00  0.00000000000E+00  0.23441389162E+03  0.23441389168E+03  0.50400001928E-02 0.  1.
        1   -1    0    0  501    0  0.00000000000E+00  0.00000000000E+00 -0.38151367662E+03  0.38151367666E+03  0.50400001928E-02 0. -1.
    10030    2    1    2    0    0  0.00000000000E+00  0.00000000000E+00 -0.14709978500E+03  0.61592756834E+03  0.59810402330E+03 0.  0.
        3    1    3    3  502    0  0.22587583212E+03  0.14821396560E+03 -0.20560875091E+03  0.33950293045E+03  0.10100000352E+00 0. -1.
       -3    1    3    3    0  502 -0.22587583212E+03 -0.14821396560E+03  0.58508965908E+02  0.27642463788E+03  0.10100000352E+00 0.  1.
</event>
<event>
 5   0  0.8575590E-02  0.5785967E+03  0.7818609E-02  0.9950834E-01
       -2   -1    0    0    0  501  0.00000000000E+00  0.00000000000E+00  0.60645301149E+02  0.60645301202E+02  0.25500000920E-02 0.  1.
        2   -1    0    0  501    0  0.00000000000E+00  0.00000000000E+00 -0.13800495922E+04  0.13800495922E+04  0.25500000920E-02 0. -1.
    10030    2    1    2    0    0  0.00000000000E+00  0.00000000000E+00 -0.13194042910E+04  0.14406948934E+04  0.57859665798E+03 0.  0.
        4    1    3    3  502    0  0.12575296764E+03 -0.18443560876E+03 -0.20150763433E+03  0.30072785412E+03  0.12699999809E+01 0.  1.
       -4    1    3    3    0  502 -0.12575296764E+03  0.18443560876E+03 -0.11178966567E+04  0.11399670393E+04  0.12699999809E+01 0. -1.
</event>
<event>
 5   0  0.5190380E-02  0.5983440E+03  0.7818609E-02  0.9908848E-01
        1   -1    0    0  501    0  0.00000000000E+00  0.00000000000E+00  0.13215169789E+04  0.13215169789E+04  0.50400001928E-02 0. -1.
       -1   -1    0    0    0  501  0.00000000000E+00  0.00000000000E+00 -0.67728142164E+02  0.67728142351E+02  0.50400001928E-02 0.  1.
    10030    2    1    2    0    0  0.00000000000E+00  0.00000000000E+00  0.12537888367E+04  0.13892451213E+04  0.59834401461E+03 0.  0.
        5    1    3    3  502    0  0.36706740093E+01 -0.18287082188E+03  0.77321885298E+02  0.19863528208E+03  0.46999998093E+01 0.  1.
       -5    1    3    3    0  502 -0.36706740093E+01  0.18287082188E+03  0.11764669514E+04  0.11906098392E+04  0.46999998093E+01 0. -1.
</event>
<event>
 5   0  0.3437375E-02  0.6021735E+03  0.7818609E-02  0.9900907E-01
       -4   -1    0    0    0  501  0.00000000000E+00  0.00000000000E+00  0.61466210284E+03  0.61466341486E+03  0.12699999809E+01 0. -1.
        4   -1    0    0  501    0  0.00000000000E+00  0.00000000000E+00 -0.14748046441E+03  0.14748593249E+03  0.12699999809E+01 0.  1.
    10030    2    1    2    0    0  0.00000000000E+00  0.00000000000E+00  0.46718163842E+03  0.76214934735E+03  0.60217351685E+03 0.  0.
        2    1    3    3  502    0 -0.29145553472E+03  0.64021064667E+02  0.18283452598E+03  0.34996212557E+03  0.25500000920E-02 0.  1.
       -2    1    3    3    0  502  0.29145553472E+03 -0.64021064667E+02  0.28434711244E+03  0.41218722178E+03  0.25500000920E-02 0. -1.
</event>
<event>
 5   0  0.3437375E-02  0.6001171E+03  0.7818609E-02  0.9905163E-01
        3   -1    0    0  501    0  0.00000000000E+00  0.00000000000E+00  0.42902370563E+03  0.42902371752E+03  0.10100000352E+00 0. -1.
       -3   -1    0    0    0  501  0.00000000000E+00  0.00000000000E+00 -0.20986048460E+03  0.20986050891E+03  0.10100000352E+00 0.  1.
    10030    2    1    2    0    0  0.00000000000E+00  0.00000000000E+00  0.21916322103E+03  0.63888422643E+03  0.60011710301E+03 0.  0.
        3    1    3    3  502    0  0.10577869326E+03 -0.82127068693E+02  0.39544413044E+03  0.41750456028E+03  0.10100000352E+00 0. -1.
       -3    1    3    3    0  502 -0.10577869326E+03  0.82127068693E+02 -0.17628090941E+03  0.22137966615E+03  0.10100000352E+00 0.  1.
</event>
<event>
 5   0  0.4987389E-02  0.6241795E+03  0.7818609E-02  0.9856473E-01
        1   -1    0    0  501    0  0.00000000000E+00  0.00000000000E+00  0.27308686371E+03  0.27308686376E+03  0.50400001928E-02 0. -1.
       -1   -1    0    0    0  501  0.00000000000E+00  0.00000000000E+00 -0.35666313049E+03  0.35666313053E+03  0.50400001928E-02 0.  1.
    10030    2    1    2    0    0  0.00000000000E+00  0.00000000000E+00 -0.83576266780E+02  0.62974999428E+03  0.62417951179E+03 0.  0.
        1    1    3    3  502    0 -0.78234495737E+02 -0.51100873690E+02  0.25864118710E+03  0.27500399871E+03  0.50400001928E-02 0. -1.
       -1    1    3    3    0  502  0.78234495737E+02  0.51100873690E+02 -0.34221745388E+03  0.35474599558E+03  0.50400001928E-02 0.  1.
</event>
<event>
 5   0  0.4987389E-02  0.6015951E+03  0.7818609E-02  0.9902102E-01
       -1   -1    0    0    0  501  0.00000000000E+00  0.00000000000E+00  0.26916687587E+03  0.26916687592E+03  0.50400001928E-02 0. -1.
        1   -1    0    0  501    0  0.00000000000E+00  0.00000000000E+00 -0.33614526134E+03  0.33614526138E+03  0.50400001928E-02 0.  1.
    10030    2    1    2    0    0  0.00000000000E+00  0.00000000000E+00 -0.66978385474E+02  0.60531213730E+03  0.60159511255E+03 0.  0.
        1    1    3    3  502    0  0.88901037087E+02 -0.12918831448E+03 -0.29175812325E+03  0.33123378074E+03  0.50400001928E-02 0.  1.
       -1    1    3    3    0  502 -0.88901037087E+02  0.12918831448E+03  0.22477973778E+03  0.27407835656E+03  0.50400001928E-02 0. -1.
</event>
<event>
 5   0  0.4881209E-02  0.5338695E+03  0.7818609E-02  0.1005298E+00
       -1   -1    0    0    0  501  0.00000000000E+00  0.00000000000E+00  0.25972610427E+03  0.25972610432E+03  0.50400001928E-02 0.  1.
        1   -1    0    0  501    0  0.00000000000E+00  0.00000000000E+00 -0.27434342983E+03  0.27434342988E+03  0.50400001928E-02 0. -1.
    10030    2    1    2    0    0  0.00000000000E+00  0.00000000000E+00 -0.14617325561E+02  0.53406953420E+03  0.53386946078E+03 0.  0.
        3    1    3    3  502    0  0.72437471652E+02 -0.63178566536E+02  0.24181362073E+03  0.26021636371E+03  0.10100000352E+00 0.  1.
       -3    1    3    3    0  502 -0.72437471652E+02  0.63178566536E+02 -0.25643094630E+03  0.27385317049E+03  0.10100000352E+00 0. -1.
</event>
<event>
 5   0  0.8575590E-02  0.6026943E+03  0.7818609E-02  0.9899832E-01
        2   -1    0    0  501    0  0.00000000000E+00  0.00000000000E+00  0.12564169874E+04  0.12564169874E+04  0.25500000920E-02 0.  1.
       -2   -1    0    0    0  501  0.00000000000E+00  0.00000000000E+00 -0.72277038940E+02  0.72277038985E+02  0.25500000920E-02 0. -1.
    10030    2    1    2    0    0  0.00000000000E+00  0.00000000000E+00  0.11841399485E+04  0.13286940264E+04  0.60269428255E+03 0.  0.
        4    1    3    3  502    0 -0.96824261209E+02  0.73195495706E+02  0.12001372839E+04  0.12062601839E+04  0.12699999809E+01 0.  1.
       -4    1    3    3    0  502  0.96824261209E+02 -0.73195495706E+02 -0.15997335422E+02  0.12243384251E+03  0.12699999809E+01 0. -1.
</event>
<event>
 5   0  0.8207443E-02  0.5602761E+03  0.7818609E-02  0.9991430E-01
       -2   -1    0    0    0  501  0.00000000000E+00  0.00000000000E+00  0.21496709610E+03  0.21496709612E+03  0.25500000920E-02 0. -1.
        2   -1    0    0  501    0  0.00000000000E+00  0.00000000000E+00 -0.36506665944E+03  0.36506665945E+03  0.25500000920E-02 0.  1.
    10030    2    1    2    0    0  0.00000000000E+00  0.00000000000E+00 -0.15009956334E+03  0.58003375556E+03  0.56027607363E+03 0.  0.
        1    1    3    3  502    0 -0.17781235067E+03  0.55725419505E+02 -0.29160261526E+03  0.34605583319E+03  0.50400001928E-02 0.  1.
       -1    1    3    3    0  502  0.17781235067E+03 -0.55725419505E+02  0.14150305193E+03  0.23397792238E+03  0.50400001928E-02 0. -1.
</event>
<event>
 5   0  0.3437375E-02  0.5973543E+03  0.7818609E-02  0.9910910E-01
       -4   -1    0    0    0  501  0.00000000000E+00  0.00000000000E+00  0.26030402532E+03  0.26030712341E+03  0.12699999809E+01 0.  1.
        4   -1    0    0  501    0  0.00000000000E+00  0.00000000000E+00 -0.34270080873E+03  0.34270316194E+03  0.12699999809E+01 0. -1.
    10030    2    1    2    0    0  0.00000000000E+00  0.00000000000E+00 -0.82396783405E+02  0.60301028535E+03  0.59735431222E+03 0.  0.
        2    1    3    3  502    0 -0.36463880225E+02 -0.41702330536E+02 -0.33747236262E+03  0.34198873442E+03  0.25500000920E-02 0. -1.
       -2    1    3    3    0  502  0.36463880225E+02  0.41702330536E+02  0.25507557921E+03  0.26102155093E+03  0.25500000920E-02 0.  1.
</event>
<event>
 5   0  0.3437375E-02  0.6064893E+03  0.7818609E-02  0.9892033E-01
        4   -1    0    0  501    0  0.00000000000E+00  0.00000000000E+00  0.62500296058E+03  0.62500425089E+03  0.12699999809E+01 0.  1.
       -4   -1    0    0    0  501  0.00000000000E+00  0.00000000000E+00 -0.14712684646E+03  0.14713232768E+03  0.12699999809E+01 0. -1.
    10030    2    1    2    0    0  0.00000000000E+00  0.00000000000E+00  0.47787611412E+03  0.77213657858E+03  0.60648933670E+03 0.  0.
        5    1    3    3  502    0  0.27591709217E+03  0.46825683798E+02  0.38747604964E+03  0.47799860403E+03  0.46999998093E+01 0.  1.
       -5    1    3    3    0  502 -0.27591709217E+03 -0.46825683798E+02  0.90400064478E+02  0.29413797454E+03  0.46999998093E+01 0. -1.
</event>
<event>
 5   0  0.3437375E-02  0.6015722E+03  0.7818609E-02  0.9902150E-01
       -3   -1    0    0    0  501  0.00000000000E+00  0.00000000000E+00  0.10644777457E+04  0.10644777505E+04  0.10100000352E+00 0. -1.
        3   -1    0    0  501    0  0.00000000000E+00  0.00000000000E+00 -0.84992149061E+02  0.84992209072E+02  0.10100000352E+00 0.  1.
    10030    2    1    2    0    0  0.00000000000E+00  0.00000000000E+00  0.97948559663E+03  0.11494699596E+04  0.60157223499E+03 0.  0.
        4    1    3    3  502    0  0.10437112205E+03  0.16050850760E+03  0.93300321054E+03  0.95244575484E+03  0.12699999809E+01 0. -1.
       -4    1    3    3    0  502 -0.10437112205E+03 -0.16050850760E+03  0.46482386094E+02  0.19702420472E+03  0.12699999809E+01 0.  1.
</event>
<event>
 5   0  0.5190380E-02  0.5727052E+03  0.7818609E-02  0.9963710E-01
       -1   -1    0    0    0  501  0.00000000000E+00  0.00000000000E+00  0.55584443661E+02  0.55584443890E+02  0.50400001928E-02 0.  1.
        1   -1    0    0  501    0  0.00000000000E+00  0.00000000000E+00 -0.14751933150E+04  0.14751933150E+04  0.50400001928E-02 0. -1.
    10030    2    1    2    0    0  0.00000000000E+00  0.00000000000E+00 -0.14196088713E+04  0.15307777589E+04  0.57270515936E+03 0.  0.
        5    1    3    3  502    0 -0.12634501561E+03 -0.11140090497E+02 -0.13959022055E+04  0.14016605231E+04  0.46999998093E+01 0. -1.
       -5    1    3    3    0  502  0.12634501561E+03  0.11140090497E+02 -0.23706665831E+02  0.12911723583E+03  0.46999998093E+01 0.  1.
</event>
<event>
 5   0  0.8575590E-02  0.5922123E+03  0.7818609E-02  0.9921696E-01
        2   -1    0    0  501    0  0.00000000000E+00  0.00000000000E+00  0.12102484427E+03  0.12102484430E+03  0.25500000920E-02 0.  1.
       -2   -1    0    0    0  501  0.00000000000E+00  0.00000000000E+00 -0.72446987736E+03  0.72446987736E+03  0.25500000920E-02 0. -1.
    10030    2    1    2    0    0  0.00000000000E+00  0.00000000000E+00 -0.60344503309E+03  0.84549472166E+03  0.59221230686E+03 0.  0.
        4    1    3    3  502    0  0.63286185772E+02  0.28226766532E+03 -0.21146069827E+03  0.35832585171E+03  0.12699999809E+01 0.  1.
       -4    1    3    3    0  502 -0.63286185772E+02 -0.28226766532E+03 -0.39198433482E+03  0.48716886994E+03  0.12699999809E+01 0. -1.
</event>
<event>
 5   0  0.4881209E-02  0.5973161E+03  0.7818609E-02  0.9910990E-01
        1   -1    0    0  501    0  0.00000000000E+00  0.00000000000E+00  0.17803492770E+03  0.17803492777E+03  0.50400001928E-02 0.  1.
       -1   -1    0    0    0  501  0.00000000000E+00  0.00000000000E+00 -0.50100631242E+03  0.50100631245E+03  0.50400001928E-02 0. -1.
    10030    2    1    2    0    0  0.00000000000E+00  0.00000000000E+00 -0.32297138473E+03  0.67904124022E+03  0.59731607258E+03 0.  0.
        3    1    3    3  502    0 -0.17457165669E+03 -0.17544775497E+03  0.28534938330E+02  0.24914138747E+03  0.10100000352E+00 0.  1.
       -3    1    3    3    0  502  0.17457165669E+03  0.17544775497E+03 -0.35150632306E+03  0.42989985275E+03  0.10100000352E+00 0. -1.
</event>
<event>
 5   0  0.8575590E-02  0.5994866E+03  0.7818609E-02  0.9906472E-01
       -2   -1    0    0    0  501  0.00000000000E+00  0.00000000000E+00  0.18541112938E+03  0.18541112940E+03  0.25500000920E-02 0.  1.
        2   -1    0    0  501    0  0.00000000000E+00  0.00000000000E+00 -0.48457747335E+03  0.48457747336E+03  0.25500000920E-02 0. -1.
    10030    2    1    2    0    0  0.00000000000E+00  0.00000000000E+00 -0.29916634397E+03  0.66998860275E+03  0.59948663576E+03 0.  0.
        4    1    3    3  502    0  0.84954129898E+02  0.14309789572E+03 -0.42820124569E+03  0.45940410496E+03  0.12699999809E+01 0. -1.
       -4    1    3    3    0  502 -0.84954129898E+02 -0.14309789572E+03  0.12903490172E+03  0.21058449779E+03  0.12699999809E+01 0.  1.
</event>
<event>
 5   0  0.4987389E-02  0.6122343E+03  0.7818609E-02  0.9880344E-01
       -1   -1    0    0    0  501  0.00000000000E+00  0.00000000000E+00  0.82296002848E+02  0.82296003003E+02  0.50400001928E-02 0. -1.
        1   -1    0    0  501    0  0.00000000000E+00  0.00000000000E+00 -0.11386667149E+04  0.11386667149E+04  0.50400001928E-02 0.  1.
    10030    2    1    2    0    0  0.00000000000E+00  0.00000000000E+00 -0.10563707121E+04  0.12209627179E+04  0.61223433199E+03 0.  0.
        1    1    3    3  502    0 -0.18178377512E+03  0.21450334682E+03 -0.76957231382E+03  0.81932812286E+03  0.50400001928E-02 0.  1.
       -1    1    3    3    0  502  0.18178377512E+03 -0.21450334682E+03 -0.28679839826E+03  0.40163459508E+03  0.50400001928E-02 0. -1.
</event>
<event>
 5   0  0.4987389E-02  0.5958275E+03  0.7818609E-02  0.9914101E-01
       -1   -1    0    0    0  501  0.00000000000E+00  0.00000000000E+00  0.38377970217E+03  0.38377970221E+03  0.50400001928E-02 0.  1.
        1   -1    0    0  501    0  0.00000000000E+00  0.00000000000E+00 -0.23125920900E+03  0.23125920906E+03  0.50400001928E-02 0. -1.
    10030    2    1    2    0    0  0.00000000000E+00  0.00000000000E+00  0.15252049317E+03  0.61503891126E+03  0.59582745953E+03 0.  0.
        1    1    3    3  502    0 -0.21397604372E+03 -0.17173543332E+03  0.19607957169E+03  0.33723286436E+03  0.50400001928E-02 0. -1.
       -1    1    3    3    0  502  0.21397604372E+03  0.17173543332E+03 -0.43559078520E+02  0.27780604690E+03  0.50400001928E-02 0.  1.
</event>
<event>
 5   0  0.8575590E-02  0.6136349E+03  0.7818609E-02  0.9877515E-01
        2   -1    0    0  501    0  0.00000000000E+00  0.00000000000E+00  0.28355254191E+03  0.28355254192E+03  0.25500000920E-02 0. -1.
       -2   -1    0    0    0  501  0.00000000000E+00  0.00000000000E+00 -0.33199116245E+03  0.33199116246E+03  0.25500000920E-02 0.  1.
    10030    2    1    2    0    0  0.00000000000E+00  0.00000000000E+00 -0.48438620538E+02  0.61554370438E+03  0.61363486866E+03 0.  0.
        4    1    3    3  502    0  0.11030553342E+03 -0.30196332698E+02  0.26137001676E+03  0.28529813839E+03  0.12699999809E+01 0. -1.
       -4    1    3    3    0  502 -0.11030553342E+03  0.30196332698E+02 -0.30980863729E+03  0.33024556599E+03  0.12699999809E+01 0.  1.
</event>
<event>
 5   0  0.8207443E-02  0.6079975E+03  0.7818609E-02  0.9888951E-01
        2   -1    0    0  501    0  0.00000000000E+00  0.00000000000E+00  0.63209095691E+03  0.63209095692E+03  0.25500000920E-02 0. -1.
       -2   -1    0    0    0  501  0.00000000000E+00  0.00000000000E+00 -0.14620558236E+03  0.14620558239E+03  0.25500000920E-02 0.  1.
    10030    2    1    2    0    0  0.00000000000E+00  0.00000000000E+00  0.48588537455E+03  0.77829653931E+03  0.60799745550E+03 0.  0.
        1    1    3    3  502    0 -0.78089630428E+02 -0.11263984593E+02  0.61875645115E+03  0.62376631329E+03  0.50400001928E-02 0. -1.
       -1    1    3    3    0  502  0.78089630428E+02  0.11263984593E+02 -0.13287107660E+03  0.15453022602E+03  0.50400001928E-02 0.  1.
</event>
<event>
 5   0  0.8420604E-02  0.5864942E+03  0.7818609E-02  0.9933829E-01
        2   -1    0    0  501    0  0.00000000000E+00  0.00000000000E+00  0.54082828530E+03  0.54082828531E+03  0.25500000920E-02 0.  1.
       -2   -1    0    0    0  501  0.00000000000E+00  0.00000000000E+00 -0.15900401696E+03  0.15900401698E+03  0.25500000920E-02 0. -1.
    10030    2    1    2    0    0  0.00000000000E+00  0.00000000000E+00  0.38182426834E+03  0.69983230229E+03  0.58649422796E+03 0.  0.
        2    1    3    3  502    0  0.22384451298E+03  0.17216380368E+03  0.96599372108E+02  0.29845967900E+03  0.25500000920E-02 0. -1.
       -2    1    3    3    0  502 -0.22384451298E+03 -0.17216380368E+03  0.28522489623E+03  0.40137262329E+03  0.25500000920E-02 0.  1.
</event>
<event>
 5   0  0.8575590E-02  0.6042409E+03  0.7818609E-02  0.9896646E-01
        2   -1    0    0  501    0  0.00000000000E+00  0.00000000000E+00  0.16322929570E+03  0.16322929572E+03  0.25500000920E-02 0. -1.
       -2   -1    0    0    0  501  0.00000000000E+00  0.00000000000E+00 -0.55919356524E+03  0.55919356525E+03  0.25500000920E-02 0.  1.
    10030    2    1    2    0    0  0.00000000000E+00  0.00000000000E+00 -0.39596426954E+03  0.72242286097E+03  0.60424091826E+03 0.  0.
        4    1    3    3  502    0 -0.51350548339E+02 -0.11767233281E+03 -0.52495181090E+03  0.54042545591E+03  0.12699999809E+01 0.  1.
       -4    1    3    3    0  502  0.51350548339E+02  0.11767233281E+03  0.12898754136E+03  0.18199740506E+03  0.12699999809E+01 0. -1.
</event>
<event>
 5   0  0.4987389E-02  0.7571871E+03  0.7818609E-02  0.9624142E-01
        1   -1    0    0  501    0  0.00000000000E+00  0.00000000000E+00  0.22901292014E+03  0.22901292020E+03  0.50400001928E-02 0. -1.
       -1   -1    0    0    0  501  0.00000000000E+00  0.00000000000E+00 -0.62587326602E+03  0.62587326604E+03  0.50400001928E-02 0.  1.
    10030    2    1    2    0    0  0.00000000000E+00  0.00000000000E+00 -0.39686034588E+03  0.85488618624E+03  0.75718706889E+03 0.  0.
        1    1    3    3  502    0  0.26505373427E+02  0.35805506870E+03 -0.33404107060E+03  0.49039718995E+03  0.50400001928E-02 0.  1.
       -1    1    3    3    0  502 -0.26505373427E+02 -0.35805506870E+03 -0.62819275284E+02  0.36448899629E+03  0.50400001928E-02 0. -1.
</event>
<event>
 5   0  0.4881209E-02  0.6163335E+03  0.7818609E-02  0.9872087E-01
       -1   -1    0    0    0  501  0.00000000000E+00  0.00000000000E+00  0.88879527589E+02  0.88879527732E+02  0.50400001928E-02 0.  1.
        1   -1    0    0  501    0  0.00000000000E+00  0.00000000000E+00 -0.10684882838E+04  0.10684882838E+04  0.50400001928E-02 0. -1.
    10030    2    1    2    0    0  0.00000000000E+00  0.00000000000E+00 -0.97960875623E+03  0.11573678116E+04  0.61633346166E+03 0.  0.
        3    1    3    3  502    0  0.39905168332E+02  0.93765471138E+01 -0.10633457846E+04  0.10641356164E+04  0.10100000352E+00 0. -1.
       -3    1    3    3    0  502 -0.39905168332E+02 -0.93765471138E+01  0.83737028407E+02  0.93232195205E+02  0.10100000352E+00 0.  1.
</event>
<event>
 5   0  0.8420604E-02  0.5969457E+03  0.7818609E-02  0.9911763E-01
       -2   -1    0    0    0  501  0.00000000000E+00  0.00000000000E+00  0.15505406150E+03  0.15505406152E+03  0.25500000920E-02 0. -1.
        2   -1    0    0  501    0  0.00000000000E+00  0.00000000000E+00 -0.57454822609E+03  0.57454822610E+03  0.25500000920E-02 0.  1.
    10030    2    1    2    0    0  0.00000000000E+00  0.00000000000E+00 -0.41949416459E+03  0.72960228762E+03  0.59694567925E+03 0.  0.
        2    1    3    3  502    0 -0.26890956830E+03  0.12893761232E+03 -0.19483932712E+03  0.35622973935E+03  0.25500000920E-02 0. -1.
       -2    1    3    3    0  502  0.26890956830E+03 -0.12893761232E+03 -0.22465483747E+03  0.37337254827E+03  0.25500000920E-02 0.  1.
</event>
<event>
 5   0  0.3437375E-02  0.5994246E+03  0.7818609E-02  0.9906600E-01
        3   -1    0    0  501    0  0.00000000000E+00  0.00000000000E+00  0.15063461806E+03  0.15063465192E+03  0.10100000352E+00 0. -1.
       -3   -1    0    0    0  501  0.00000000000E+00  0.00000000000E+00 -0.59632676504E+03  0.59632677359E+03  0.10100000352E+00 0.  1.
    10030    2    1    2    0    0  0.00000000000E+00  0.00000000000E+00 -0.44569214698E+03  0.74696142551E+03  0.59942462522E+03 0.  0.
        2    1    3    3  502    0  0.10973005045E+03  0.19058307552E+03 -0.47659475159E+03  0.52488584463E+03  0.25500000920E-02 0.  1.
       -2    1    3    3    0  502 -0.10973005045E+03 -0.19058307552E+03  0.30902604610E+02  0.22207558088E+03  0.25500000920E-02 0. -1.
</event>
<event>
 5   0  0.5166903E-02  0.5969665E+03  0.7818609E-02  0.9911720E-01
        1   -1    0    0  501    0  0.00000000000E+00  0.00000000000E+00  0.95219265647E+03  0.95219265648E+03  0.50400001928E-02 0.  1.
       -1   -1    0    0    0  501  0.00000000000E+00  0.00000000000E+00 -0.93565374594E+02  0.93565374730E+02  0.50400001928E-02 0. -1.
    10030    2    1    2    0    0  0.00000000000E+00  0.00000000000E+00  0.85862728188E+03  0.10457580312E+04  0.59696654066E+03 0.  0.
        2    1    3    3  502    0  0.25841182433E+03 -0.11383663065E+03  0.25986222629E+03  0.38374969197E+03  0.25500000920E-02 0. -1.
       -2    1    3    3    0  502 -0.25841182433E+03  0.11383663065E+03  0.59876505558E+03  0.66200833924E+03  0.25500000920E-02 0.  1.
</event>
<event>
 5   0  0.5166903E-02  0.6035953E+03  0.7818609E-02  0.9897975E-01
        1   -1    0    0  501    0  0.00000000000E+00  0.00000000000E+00  0.16639959607E+04  0.16639959607E+04  0.50400001928E-02 0.  1.
       -1   -1    0    0    0  501  0.00000000000E+00  0.00000000000E+00 -0.54736796729E+02  0.54736796961E+02  0.50400001928E-02 0. -1.
    10030    2    1    2    0    0  0.00000000000E+00  0.00000000000E+00  0.16092591640E+04  0.17187327577E+04  0.60359525798E+03 0.  0.
        2    1    3    3  502    0 -0.92563273570E+01  0.27172305090E+03  0.11776696689E+04  0.12086459138E+04  0.25500000920E-02 0. -1.
       -2    1    3    3    0  502  0.92563273570E+01 -0.27172305090E+03  0.43158949508E+03  0.51008684383E+03  0.25500000920E-02 0.  1.
</event>
<event>
 5   0  0.5125031E-02  0.5901599E+03  0.7818609E-02  0.9926034E-01
        1   -1    0    0  501    0  0.00000000000E+00  0.00000000000E+00  0.16080267012E+03  0.16080267020E+03  0.50400001928E-02 0.  1.
       -1   -1    0    0    0  501  0.00000000000E+00  0.00000000000E+00 -0.54148464766E+03  0.54148464768E+03  0.50400001928E-02 0. -1.
    10030    2    1    2    0    0  0.00000000000E+00  0.00000000000E+00 -0.38068197754E+03  0.70228731787E+03  0.59015990106E+03 0.  0.
        4    1    3    3  502    0  0.25142294947E+03 -0.15016679979E+03 -0.14731979786E+03  0.32782358521E+03  0.12699999809E+01 0. -1.
       -4    1    3    3    0  502 -0.25142294947E+03  0.15016679979E+03 -0.23336217968E+03  0.37446373267E+03  0.12699999809E+01 0.  1.
</event>
<event>
 5   0  0.8420604E-02  0.5933567E+03  0.7818609E-02  0.9919285E-01
       -2   -1    0    0    0  501  0.00000000000E+00  0.00000000000E+00  0.80282715427E+02  0.80282715467E+02  0.25500000920E-02 0. -1.
        2   -1    0    0  501    0  0.00000000000E+00  0.00000000000E+00 -0.10963510926E+04  0.10963510926E+04  0.25500000920E-02 0.  1.
    10030    2    1    2    0    0  0.00000000000E+00  0.00000000000E+00 -0.10160683771E+04  0.11766338080E+04  0.59335669811E+03 0.  0.
        2    1    3    3  502    0  0.23569639999E+03 -0.45942433119E+02 -0.85352565150E+03  0.88666202011E+03  0.25500000920E-02 0.  1.
       -2    1    3    3    0  502 -0.23569639999E+03  0.45942433119E+02 -0.16254272564E+03  0.28997178793E+03  0.25500000920E-02 0. -1.
</event>
<event>
 5   0  0.4987389E-02  0.6120055E+03  0.7818609E-02  0.9880807E-01
        1   -1    0    0  501    0  0.00000000000E+00  0.00000000000E+00  0.63512526767E+03  0.63512526769E+03  0.50400001928E-02 0. -1.
       -1   -1    0    0    0  501  0.00000000000E+00  0.00000000000E+00 -0.14743182549E+03  0.14743182558E+03  0.50400001928E-02 0.  1.
    10030    2    1    2    0    0  0.00000000000E+00  0.00000000000E+00  0.48769344218E+03  0.78255709326E+03  0.61200548255E+03 0.  0.
        1    1    3    3  502    0 -0.16738777117E+03  0.14865073125E+03  0.51060321536E+03  0.55752251021E+03  0.50400001928E-02 0. -1.
       -1    1    3    3    0  502  0.16738777117E+03 -0.14865073125E+03 -0.22909773179E+02  0.22503458305E+03  0.50400001928E-02 0.  1.
</event>
<event>
 5   0  0.8420604E-02  0.5993535E+03  0.7818609E-02  0.9906748E-01
        2   -1    0    0  501    0  0.00000000000E+00  0.00000000000E+00  0.88137393640E+03  0.88137393640E+03  0.25500000920E-02 0. -1.
       -2   -1    0    0    0  501  0.00000000000E+00  0.00000000000E+00 -0.10189336124E+03  0.10189336127E+03  0.25500000920E-02 0.  1.
    10030    2    1    2    0    0  0.00000000000E+00  0.00000000000E+00  0.77948057516E+03  0.98326729767E+03  0.59935349471E+03 0.  0.
        2    1    3    3  502    0 -0.76726847358E+01 -0.27812133414E+03  0.57239292347E+03  0.63643067607E+03  0.25500000920E-02 0. -1.
       -2    1    3    3    0  502  0.76726847358E+01  0.27812133414E+03  0.20708765169E+03  0.34683662160E+03  0.25500000920E-02 0.  1.
</event>
<event>
 5   0  0.8420604E-02  0.5888151E+03  0.7818609E-02  0.9928887E-01
        2   -1    0    0  501    0  0.00000000000E+00  0.00000000000E+00  0.21153787541E+03  0.21153787542E+03  0.25500000920E-02 0.  1.
       -2   -1    0    0    0  501  0.00000000000E+00  0.00000000000E+00 -0.40974132458E+03  0.40974132459E+03  0.25500000920E-02 0. -1.
    10030    2    1    2    0    0  0.00000000000E+00  0.00000000000E+00 -0.19820344917E+03  0.62127920001E+03  0.58881511284E+03 0.  0.
        2    1    3    3  502    0 -0.72103555699E+02 -0.16056230610E+03 -0.34811490444E+03  0.39008097054E+03  0.25500000920E-02 0. -1.
       -2    1    3    3    0  502  0.72103555699E+02  0.16056230610E+03  0.14991145526E+03  0.23119822947E+03  0.25500000920E-02 0.  1.
</event>
<event>
 5   0  0.8420604E-02  0.5975323E+03  0.7818609E-02  0.9910539E-01
       -2   -1    0    0    0  501  0.00000000000E+00  0.00000000000E+00  0.51197280617E+02  0.51197280681E+02  0.25500000920E-02 0.  1.
        2   -1    0    0  501    0  0.00000000000E+00  0.00000000000E+00 -0.17434756589E+04  0.17434756589E+04  0.25500000920E-02 0. -1.
    10030    2    1    2    0    0  0.00000000000E+00  0.00000000000E+00 -0.16922783783E+04  0.17946729396E+04  0.59753230077E+03 0.  0.
        2    1    3    3  502    0 -0.17404738295E+03  0.98779001857E+02 -0.17985897038E+03  0.26907068207E+03  0.25500000920E-02 0.  1.
       -2    1    3    3    0  502  0.17404738295E+03 -0.98779001857E+02 -0.15124194079E+04  0.15256022575E+04  0.25500000920E-02 0. -1.
</event>
<event>
 5   0  0.8207443E-02  0.6046906E+03  0.7818609E-02  0.9895722E-01
        2   -1    0    0  501    0  0.00000000000E+00  0.00000000000E+00  0.93764353215E+03  0.93764353216E+03  0.25500000920E-02 0. -1.
       -2   -1    0    0    0  501  0.00000000000E+00  0.00000000000E+00 -0.97491933681E+02  0.97491933715E+02  0.25500000920E-02 0.  1.
    10030    2    1    2    0    0  0.00000000000E+00  0.00000000000E+00  0.84015159847E+03  0.10351354659E+04  0.60469060212E+03 0.  0.
        1    1    3    3  502    0  0.32294096204E+02 -0.15390771075E+03  0.86212325328E+03  0.87634867259E+03  0.50400001928E-02 0. -1.
       -1    1    3    3    0  502 -0.32294096204E+02  0.15390771075E+03 -0.21971654811E+02  0.15878679328E+03  0.50400001928E-02 0.  1.
</event>
<event>
 5   0  0.5166903E-02  0.6166700E+03  0.7818609E-02  0.9871412E-01
        1   -1    0    0  501    0  0.00000000000E+00  0.00000000000E+00  0.11468464021E+04  0.11468464021E+04  0.50400001928E-02 0. -1.
       -1   -1    0    0    0  501  0.00000000000E+00  0.00000000000E+00 -0.82897289923E+02  0.82897290076E+02  0.50400001928E-02 0.  1.
    10030    2    1    2    0    0  0.00000000000E+00  0.00000000000E+00  0.10639491122E+04  0.12297436922E+04  0.61666995644E+03 0.  0.
        2    1    3    3  502    0  0.24100536478E+03 -0.19126332102E+03  0.57211706856E+03  0.64960232756E+03  0.25500000920E-02 0.  1.
       -2    1    3    3    0  502 -0.24100536478E+03  0.19126332102E+03  0.49183204364E+03  0.58014136466E+03  0.25500000920E-02 0. -1.
</event>
<event>
 5   0  0.8575590E-02  0.5985744E+03  0.7818609E-02  0.9908368E-01
        2   -1    0    0  501    0  0.00000000000E+00  0.00000000000E+00  0.98901750557E+03  0.98901750558E+03  0.25500000920E-02 0. -1.
       -2   -1    0    0    0  501  0.00000000000E+00  0.00000000000E+00 -0.90567485168E+02  0.90567485204E+02  0.25500000920E-02 0.  1.
    10030    2    1    2    0    0  0.00000000000E+00  0.00000000000E+00  0.89845002040E+03  0.10795849908E+04  0.59857440068E+03 0.  0.
        4    1    3    3  502    0 -0.12460105196E+01  0.11875109908E+03 -0.46247605794E+02  0.12745128488E+03  0.12699999809E+01 0.  1.
       -4    1    3    3    0  502  0.12460105196E+01 -0.11875109908E+03  0.94469762620E+03  0.95213370590E+03  0.12699999809E+01 0. -1.
</event>
<event>
 5   0  0.8817544E-02  0.5884166E+03  0.7818609E-02  0.9929734E-01
       -2   -1    0    0    0  501  0.00000000000E+00  0.00000000000E+00  0.10934260128E+03  0.10934260131E+03  0.25500000920E-02 0. -1.
        2   -1    0    0  501    0  0.00000000000E+00  0.00000000000E+00 -0.79162674994E+03  0.79162674995E+03  0.25500000920E-02 0.  1.
    10030    2    1    2    0    0  0.00000000000E+00  0.00000000000E+00 -0.68228414866E+03  0.90096935126E+03  0.58841661464E+03 0.  0.
        5    1    3    3  502    0 -0.14399476559E+03  0.25180650897E+03 -0.26620156901E+03  0.39373388959E+03  0.46999998093E+01 0. -1.
       -5    1    3    3    0  502  0.14399476559E+03 -0.25180650897E+03 -0.41608257966E+03  0.50723546166E+03  0.46999998093E+01 0.  1.
</event>
<event>
 5   0  0.4881209E-02  0.6008267E+03  0.7818609E-02  0.9903692E-01
        1   -1    0    0  501    0  0.00000000000E+00  0.00000000000E+00  0.10482472668E+04  0.10482472669E+04  0.50400001928E-02 0. -1.
       -1   -1    0    0    0  501  0.00000000000E+00  0.00000000000E+00 -0.86094357596E+02  0.86094357744E+02  0.50400001928E-02 0.  1.
    10030    2    1    2    0    0  0.00000000000E+00  0.00000000000E+00  0.96215290925E+03  0.11343416246E+04  0.60082668094E+03 0.  0.
        3    1    3    3  502    0 -0.11758309541E+03 -0.80407394984E+02 -0.18279628480E+02  0.14361507064E+03  0.10100000352E+00 0.  1.
       -3    1    3    3    0  502  0.11758309541E+03  0.80407394984E+02  0.98043253773E+03  0.99072655397E+03  0.10100000352E+00 0. -1.
</event>
<event>
 5   0  0.8817544E-02  0.5998311E+03  0.7818609E-02  0.9905756E-01
        2   -1    0    0  501    0  0.00000000000E+00  0.00000000000E+00  0.26927722049E+03  0.26927722051E+03  0.25500000920E-02 0. -1.
       -2   -1    0    0    0  501  0.00000000000E+00  0.00000000000E+00 -0.33403992959E+03  0.33403992960E+03  0.25500000920E-02 0.  1.
    10030    2    1    2    0    0  0.00000000000E+00  0.00000000000E+00 -0.64762709096E+02  0.60331715011E+03  0.59983112217E+03 0.  0.
        5    1    3    3  502    0  0.15177822492E+03 -0.19834989087E+03  0.13455897994E+03  0.28373846733E+03  0.46999998093E+01 0. -1.
       -5    1    3    3    0  502 -0.15177822492E+03  0.19834989087E+03 -0.19932168903E+03  0.31957868277E+03  0.46999998093E+01 0.  1.
</event>
<event>
 5   0  0.4881209E-02  0.6019288E+03  0.7818609E-02  0.9901412E-01
       -1   -1    0    0    0  501  0.00000000000E+00  0.00000000000E+00  0.94504588197E+02  0.94504588331E+02  0.50400001928E-02 0. -1.
        1   -1    0    0  501    0  0.00000000000E+00  0.00000000000E+00 -0.95846752417E+03  0.95846752418E+03  0.50400001928E-02 0.  1.
    10030    2    1    2    0    0  0.00000000000E+00  0.00000000000E+00 -0.86396293597E+03  0.10529721125E+04  0.60192882885E+03 0.  0.
        3    1    3    3  502    0 -0.87485686869E+02  0.11234106070E+03 -0.89581889257E+03  0.90706436255E+03  0.10100000352E+00 0.  1.
       -3    1    3    3    0  502  0.87485686869E+02 -0.11234106070E+03  0.31855956596E+02  0.14590774996E+03  0.10100000352E+00 0. -1.
</event>
<event>
 5   0  0.8817544E-02  0.5851482E+03  0.7818609E-02  0.9936707E-01
        2   -1    0    0  501    0  0.00000000000E+00  0.00000000000E+00  0.26472633309E+03  0.26472633310E+03  0.25500000920E-02 0.  1.
       -2   -1    0    0    0  501  0.00000000000E+00  0.00000000000E+00 -0.32335128241E+03  0.32335128242E+03  0.25500000920E-02 0. -1.
    10030    2    1    2    0    0  0.00000000000E+00  0.00000000000E+00 -0.58624949321E+02  0.58807761552E+03  0.58514818396E+03 0.  0.
        5    1    3    3  502    0 -0.59392089744E+02  0.17536367003E+03  0.19831129760E+03  0.27134719060E+03  0.46999998093E+01 0.  1.
       -5    1    3    3    0  502  0.59392089744E+02 -0.17536367003E+03 -0.25693624692E+03  0.31673042492E+03  0.46999998093E+01 0. -1.
</event>
<event>
 5   0  0.8420604E-02  0.6001355E+03  0.7818609E-02  0.9905125E-01
       -2   -1    0    0    0  501  0.00000000000E+00  0.00000000000E+00  0.45967924270E+02  0.45967924340E+02  0.25500000920E-02 0. -1.
        2   -1    0    0  501    0  0.00000000000E+00  0.00000000000E+00 -0.19587716724E+04  0.19587716724E+04  0.25500000920E-02 0.  1.
    10030    2    1    2    0    0  0.00000000000E+00  0.00000000000E+00 -0.19128037482E+04  0.20047395968E+04  0.60013554460E+03 0.  0.
        2    1    3    3  502    0  0.94878607981E+02  0.22444989924E+03 -0.37147510646E+03  0.44426733195E+03  0.25500000920E-02 0. -1.
       -2    1    3    3    0  502 -0.94878607981E+02 -0.22444989924E+03 -0.15413286417E+04  0.15604722648E+04  0.25500000920E-02 0.  1.
</event>
<event>
 5   0  0.5125031E-02  0.5992004E+03  0.7818609E-02  0.9907066E-01
        1   -1    0    0  501    0  0.00000000000E+00  0.00000000000E+00  0.31293753255E+03  0.31293753259E+03  0.50400001928E-02 0. -1.
       -1   -1    0    0    0  501  0.00000000000E+00  0.00000000000E+00 -0.28683127625E+03  0.28683127630E+03  0.50400001928E-02 0.  1.
    10030    2    1    2    0    0  0.00000000000E+00  0.00000000000E+00  0.26106256295E+02  0.59976880889E+03  0.59920037341E+03 0.  0.
        4    1    3    3  502    0  0.22184621621E+03  0.15655030214E+03 -0.11369605697E+03  0.29436736744E+03  0.12699999809E+01 0.  1.
       -4    1    3    3    0  502 -0.22184621621E+03 -0.15655030214E+03  0.13980231326E+03  0.30540144145E+03  0.12699999809E+01 0. -1.
</event>
<event>
 5   0  0.4987389E-02  0.5922017E+03  0.7818609E-02  0.9921719E-01
        1   -1    0    0  501    0  0.00000000000E+00  0.00000000000E+00  0.17269121939E+03  0.17269121947E+03  0.50400001928E-02 0.  1.
       -1   -1    0    0    0  501  0.00000000000E+00  0.00000000000E+00 -0.50770213448E+03  0.50770213450E+03  0.50400001928E-02 0. -1.
    10030    2    1    2    0    0  0.00000000000E+00  0.00000000000E+00 -0.33501091508E+03  0.68039335397E+03  0.59220165729E+03 0.  0.
        1    1    3    3  502    0 -0.27925782837E+03  0.79313055397E+02 -0.23450055303E+03  0.37318360743E+03  0.50400001928E-02 0.  1.
       -1    1    3    3    0  502  0.27925782837E+03 -0.79313055397E+02 -0.10051036205E+03  0.30720974654E+03  0.50400001928E-02 0. -1.
</event>
<event>
 5   0  0.8575590E-02  0.5612952E+03  0.7818609E-02  0.9989128E-01
       -2   -1    0    0    0  501  0.00000000000E+00  0.00000000000E+00  0.37746344048E+02  0.37746344134E+02  0.25500000920E-02 0. -1.
        2   -1    0    0  501    0  0.00000000000E+00  0.00000000000E+00 -0.20866412263E+04  0.20866412263E+04  0.25500000920E-02 0.  1.
    10030    2    1    2    0    0  0.00000000000E+00  0.00000000000E+00 -0.20488948823E+04  0.21243875705E+04  0.56129520834E+03 0.  0.
        4    1    3    3  502    0  0.84531376320E+02 -0.69727596333E+02 -0.46577766459E+02  0.11907389513E+03  0.12699999809E+01 0. -1.
       -4    1    3    3    0  502 -0.84531376320E+02  0.69727596333E+02 -0.20023171158E+04  0.20053136753E+04  0.12699999809E+01 0.  1.
</event>
<event>
 5   0  0.8575590E-02  0.5935967E+03  0.7818609E-02  0.9918781E-01
        2   -1    0    0  501    0  0.00000000000E+00  0.00000000000E+00  0.12396926540E+03  0.12396926543E+03  0.25500000920E-02 0.  1.
       -2   -1    0    0    0  501  0.00000000000E+00  0.00000000000E+00 -0.71057348061E+03  0.71057348061E+03  0.25500000920E-02 0. -1.
    10030    2    1    2    0    0  0.00000000000E+00  0.00000000000E+00 -0.58660421521E+03  0.83454274604E+03  0.59359673994E+03 0.  0.
        4    1    3    3  502    0 -0.52894665065E+02 -0.25851066305E+03 -0.10227409707E+03  0.28299684157E+03  0.12699999809E+01 0.  1.
       -4    1    3    3    0  502  0.52894665065E+02  0.25851066305E+03 -0.48433011814E+03  0.55154590447E+03  0.12699999809E+01 0. -1.
</event>
<event>
 5   0  0.8207443E-02  0.5991824E+03  0.7818609E-02  0.9907104E-01
       -2   -1    0    0    0  501  0.00000000000E+00  0.00000000000E+00  0.25018585678E+03  0.25018585680E+03  0.25500000920E-02 0. -1.
        2   -1    0    0  501    0  0.00000000000E+00  0.00000000000E+00 -0.35875283098E+03  0.35875283099E+03  0.25500000920E-02 0.  1.
    10030    2    1    2    0    0  0.00000000000E+00  0.00000000000E+00 -0.10856697420E+03  0.60893868779E+03  0.59918239093E+03 0.  0.
        1    1    3    3  502    0  0.85300445089E+02  0.23563489104E+03 -0.22113629566E+03  0.33421733811E+03  0.50400001928E-02 0.  1.
       -1    1    3    3    0  502 -0.85300445089E+02 -0.23563489104E+03  0.11256932146E+03  0.27472134968E+03  0.50400001928E-02 0. -1.
</event>
<event>
 5   0  0.8817544E-02  0.5955540E+03  0.7818609E-02  0.9914673E-01
       -2   -1    0    0    0  501  0.00000000000E+00  0.00000000000E+00  0.44848805661E+02  0.44848805734E+02  0.25500000920E-02 0.  1.
        2   -1    0    0  501    0  0.00000000000E+00  0.00000000000E+00 -0.19771125040E+04  0.19771125040E+04  0.25500000920E-02 0. -1.
    10030    2    1    2    0    0  0.00000000000E+00  0.00000000000E+00 -0.19322636983E+04  0.20219613097E+04  0.59555397584E+03 0.  0.
        5    1    3    3  502    0  0.14909696849E+03 -0.20033519276E+03 -0.41569781047E+03  0.48496479779E+03  0.46999998093E+01 0.  1.
       -5    1    3    3    0  502 -0.14909696849E+03  0.20033519276E+03 -0.15165658878E+04  0.15369965119E+04  0.46999998093E+01 0. -1.
</event>
<event>
 5   0  0.4881209E-02  0.5953994E+03  0.7818609E-02  0.9914997E-01
        1   -1    0    0  501    0  0.00000000000E+00  0.00000000000E+00  0.29491626487E+03  0.29491626491E+03  0.50400001928E-02 0. -1.
       -1   -1    0    0    0  501  0.00000000000E+00  0.00000000000E+00 -0.30050936064E+03  0.30050936068E+03  0.50400001928E-02 0.  1.
    10030    2    1    2    0    0  0.00000000000E+00  0.00000000000E+00 -0.55930957687E+01  0.59542562559E+03  0.59539935580E+03 0.  0.
        3    1    3    3  502    0 -0.17047009587E+03  0.14002252809E+03  0.19710906035E+03  0.29583501116E+03  0.10100000352E+00 0. -1.
       -3    1    3    3    0  502  0.17047009587E+03 -0.14002252809E+03 -0.20270215611E+03  0.29959061443E+03  0.10100000352E+00 0.  1.
</event>
<event>
 5   0  0.4987389E-02  0.6040522E+03  0.7818609E-02  0.9897035E-01
        1   -1    0    0  501    0  0.00000000000E+00  0.00000000000E+00  0.61048400729E+03  0.61048400731E+03  0.50400001928E-02 0. -1.
       -1   -1    0    0    0  501  0.00000000000E+00  0.00000000000E+00 -0.14942203413E+03  0.14942203422E+03  0.50400001928E-02 0.  1.
    10030    2    1    2    0    0  0.00000000000E+00  0.00000000000E+00  0.46106197316E+03  0.75990604153E+03  0.60405219051E+03 0.  0.
        1    1    3    3  502    0 -0.11192138554E+03 -0.78646674260E+02 -0.10821846070E+03  0.17442170500E+03  0.50400001928E-02 0.  1.
       -1    1    3    3    0  502  0.11192138554E+03  0.78646674260E+02  0.56928043386E+03  0.58548433653E+03  0.50400001928E-02 0. -1.
</event>
<event>
 5   0  0.8420604E-02  0.6011520E+03  0.7818609E-02  0.9903019E-01
        2   -1    0    0  501    0  0.00000000000E+00  0.00000000000E+00  0.12890807423E+04  0.12890807423E+04  0.25500000920E-02 0. -1.
       -2   -1    0    0    0  501  0.00000000000E+00  0.00000000000E+00 -0.70085552591E+02  0.70085552638E+02  0.25500000920E-02 0.  1.
    10030    2    1    2    0    0  0.00000000000E+00  0.00000000000E+00  0.12189951897E+04  0.13591662949E+04  0.60115201469E+03 0.  0.
        2    1    3    3  502    0  0.24852646688E+03 -0.16680702934E+03  0.67166085651E+03  0.73533549890E+03  0.25500000920E-02 0. -1.
       -2    1    3    3    0  502 -0.24852646688E+03  0.16680702934E+03  0.54733433320E+03  0.62383079604E+03  0.25500000920E-02 0.  1.
</event>
<event>
 5   0  0.5190380E-02  0.5978831E+03  0.7818609E-02  0.9909808E-01
        1   -1    0    0  501    0  0.00000000000E+00  0.00000000000E+00  0.56197906874E+03  0.56197906876E+03  0.50400001928E-02 0.  1.
       -1   -1    0    0    0  501  0.00000000000E+00  0.00000000000E+00 -0.15902024704E+03  0.15902024712E+03  0.50400001928E-02 0. -1.
    10030    2    1    2    0    0  0.00000000000E+00  0.00000000000E+00  0.40295882170E+03  0.72099931588E+03  0.59788310021E+03 0.  0.
        5    1    3    3  502    0 -0.34562347476E+02  0.28001859874E+03  0.82471588136E+02  0.29398745611E+03  0.46999998093E+01 0. -1.
       -5    1    3    3    0  502  0.34562347476E+02 -0.28001859874E+03  0.32048723356E+03  0.42701185976E+03  0.46999998093E+01 0.  1.
</event>
<event>
 5   0  0.4987389E-02  0.6090117E+03  0.7818609E-02  0.9886884E-01
       -1   -1    0    0    0  501  0.00000000000E+00  0.00000000000E+00  0.13194627427E+03  0.13194627436E+03  0.50400001928E-02 0. -1.
        1   -1    0    0  501    0  0.00000000000E+00  0.00000000000E+00 -0.70273909180E+03  0.70273909182E+03  0.50400001928E-02 0.  1.
    10030    2    1    2    0    0  0.00000000000E+00  0.00000000000E+00 -0.57079281753E+03  0.83468536618E+03  0.60901167474E+03 0.  0.
        1    1    3    3  502    0  0.77161317483E+02  0.25787717781E+03 -0.48052303105E+03  0.55077844107E+03  0.50400001928E-02 0.  1.
       -1    1    3    3    0  502 -0.77161317483E+02 -0.25787717781E+03 -0.90269786477E+02  0.28390692511E+03  0.50400001928E-02 0. -1.
</event>
<event>
 5   0  0.5166903E-02  0.5751096E+03  0.7818609E-02  0.9958435E-01
        1   -1    0    0  501    0  0.00000000000E+00  0.00000000000E+00  0.34314150692E+03  0.34314150696E+03  0.50400001928E-02 0. -1.
       -1   -1    0    0    0  501  0.00000000000E+00  0.00000000000E+00 -0.24097274410E+03  0.24097274416E+03  0.50400001928E-02 0.  1.
    10030    2    1    2    0    0  0.00000000000E+00  0.00000000000E+00  0.10216876282E+03  0.58411425111E+03  0.57510955674E+03 0.  0.
        2    1    3    3  502    0  0.43350119287E+02 -0.27978199522E+03  0.10217661922E+03  0.30099378601E+03  0.25500000920E-02 0. -1.
       -2    1    3    3    0  502 -0.43350119287E+02  0.27978199522E+03 -0.78564079069E-02  0.28312046510E+03  0.25500000920E-02 0.  1.
</event>
<event>
 5   0  0.8420604E-02  0.5938330E+03  0.7818609E-02  0.9918284E-01
       -2   -1    0    0    0  501  0.00000000000E+00  0.00000000000E+00  0.34404466598E+02  0.34404466692E+02  0.25500000920E-02 0.  1.
        2   -1    0    0  501    0  0.00000000000E+00  0.00000000000E+00 -0.25624410459E+04  0.25624410459E+04  0.25500000920E-02 0. -1.
    10030    2    1    2    0    0  0.00000000000E+00  0.00000000000E+00 -0.25280365793E+04  0.25968455126E+04  0.59383303208E+03 0.  0.
        2    1    3    3  502    0  0.17255370104E+03 -0.64482910723E+02 -0.22823468347E+04  0.22897685253E+04  0.25500000920E-02 0. -1.
       -2    1    3    3    0  502 -0.17255370104E+03  0.64482910723E+02 -0.24568974455E+03  0.30707698725E+03  0.25500000920E-02 0.  1.
</event>
<event>
 5   0  0.8699746E-02  0.5470201E+03  0.7818609E-02  0.1002186E+00
        2   -1    0    0  501    0  0.00000000000E+00  0.00000000000E+00  0.23620552182E+03  0.23620552183E+03  0.25500000920E-02 0. -1.
       -2   -1    0    0    0  501  0.00000000000E+00  0.00000000000E+00 -0.31670621392E+03  0.31670621393E+03  0.25500000920E-02 0.  1.
    10030    2    1    2    0    0  0.00000000000E+00  0.00000000000E+00 -0.80500692099E+02  0.55291173576E+03  0.54702013318E+03 0.  0.
        3    1    3    3  502    0 -0.82555673733E+02  0.11760706959E+03 -0.27548178771E+03  0.31070418028E+03  0.10100000352E+00 0.  1.
       -3    1    3    3    0  502  0.82555673733E+02 -0.11760706959E+03  0.19498109561E+03  0.24220755548E+03  0.10100000352E+00 0. -1.
</event>
<event>
 5   0  0.5190380E-02  0.5954552E+03  0.7818609E-02  0.9914880E-01
       -1   -1    0    0    0  501  0.00000000000E+00  0.00000000000E+00  0.39660976038E+03  0.39660976041E+03  0.50400001928E-02 0. -1.
        1   -1    0    0  501    0  0.00000000000E+00  0.00000000000E+00 -0.22349859093E+03  0.22349859099E+03  0.50400001928E-02 0.  1.
    10030    2    1    2    0    0  0.00000000000E+00  0.00000000000E+00  0.17311116945E+03  0.62010835140E+03  0.59545519603E+03 0.  0.
        5    1    3    3  502    0  0.62061526703E+00 -0.24868512765E+03 -0.83849623264E+02  0.26248338461E+03  0.46999998093E+01 0.  1.
       -5    1    3    3    0  502 -0.62061526703E+00  0.24868512765E+03  0.25696079271E+03  0.35762496678E+03  0.46999998093E+01 0. -1.
</event>
<event>
 5   0  0.4987389E-02  0.5992697E+03  0.7818609E-02  0.9906922E-01
       -1   -1    0    0    0  501  0.00000000000E+00  0.00000000000E+00  0.37031710540E+03  0.37031710544E+03  0.50400001928E-02 0. -1.
        1   -1    0    0  501    0  0.00000000000E+00  0.00000000000E+00 -0.24244368277E+03  0.24244368282E+03  0.50400001928E-02 0.  1.
    10030    2    1    2    0    0  0.00000000000E+00  0.00000000000E+00  0.12787342264E+03  0.61276078826E+03  0.59926969839E+03 0.  0.
        1    1    3    3  502    0 -0.19420419397E+03 -0.87124613388E+02  0.27957555544E+03  0.35138078838E+03  0.50400001928E-02 0. -1.
       -1    1    3    3    0  502  0.19420419397E+03  0.87124613388E+02 -0.15170213280E+03  0.26137999988E+03  0.50400001928E-02 0.  1.
</event>
<event>
 5   0  0.4881209E-02  0.5944745E+03  0.7818609E-02  0.9916936E-01
       -1   -1    0    0    0  501  0.00000000000E+00  0.00000000000E+00  0.15750638569E+03  0.15750638577E+03  0.50400001928E-02 0.  1.
        1   -1    0    0  501    0  0.00000000000E+00  0.00000000000E+00 -0.56092951388E+03  0.56092951391E+03  0.50400001928E-02 0. -1.
    10030    2    1    2    0    0  0.00000000000E+00  0.00000000000E+00 -0.40342312820E+03  0.71843589967E+03  0.59447449195E+03 0.  0.
        3    1    3    3  502    0  0.22354181743E+03 -0.15859164744E+03 -0.62717189874E+02  0.28116847420E+03  0.10100000352E+00 0.  1.
       -3    1    3    3    0  502 -0.22354181743E+03  0.15859164744E+03 -0.34070593832E+03  0.43726742548E+03  0.10100000352E+00 0. -1.
</event>
<event>
 5   0  0.8817544E-02  0.6030190E+03  0.7818609E-02  0.9899162E-01
        2   -1    0    0  501    0  0.00000000000E+00  0.00000000000E+00  0.27378851193E+03  0.27378851195E+03  0.25500000920E-02 0. -1.
       -2   -1    0    0    0  501  0.00000000000E+00  0.00000000000E+00 -0.33203727115E+03  0.33203727116E+03  0.25500000920E-02 0.  1.
    10030    2    1    2    0    0  0.00000000000E+00  0.00000000000E+00 -0.58248759214E+02  0.60582578310E+03  0.60301903910E+03 0.  0.
        5    1    3    3  502    0  0.23554064750E+03  0.28142037806E+02  0.15779139042E+03  0.28494136907E+03  0.46999998093E+01 0. -1.
       -5    1    3    3    0  502 -0.23554064750E+03 -0.28142037806E+02 -0.21604014964E+03  0.32088441403E+03  0.46999998093E+01 0.  1.
</event>
<event>
 5   0  0.5190380E-02  0.5959618E+03  0.7818609E-02  0.9913820E-01
       -1   -1    0    0    0  501  0.00000000000E+00  0.00000000000E+00  0.60539556213E+02  0.60539556423E+02  0.50400001928E-02 0. -1.
        1   -1    0    0  501    0  0.00000000000E+00  0.00000000000E+00 -0.14666873629E+04  0.14666873629E+04  0.50400001928E-02 0.  1.
    10030    2    1    2    0    0  0.00000000000E+00  0.00000000000E+00 -0.14061478067E+04  0.15272269193E+04  0.59596175119E+03 0.  0.
        5    1    3    3  502    0  0.12833510061E+03  0.98341880454E+02 -0.13443936554E+04  0.13540891456E+04  0.46999998093E+01 0.  1.
       -5    1    3    3    0  502 -0.12833510061E+03 -0.98341880454E+02 -0.61754151291E+02  0.17313777375E+03  0.46999998093E+01 0. -1.
</event>
<event>
 5   0  0.8420604E-02  0.5965773E+03  0.7818609E-02  0.9912533E-01
       -2   -1    0    0    0  501  0.00000000000E+00  0.00000000000E+00  0.20510874201E+03  0.20510874203E+03  0.25500000920E-02 0. -1.
        2   -1    0    0  501    0  0.00000000000E+00  0.00000000000E+00 -0.43379976032E+03  0.43379976033E+03  0.25500000920E-02 0.  1.
    10030    2    1    2    0    0  0.00000000000E+00  0.00000000000E+00 -0.22869101831E+03  0.63890850236E+03  0.59657731480E+03 0.  0.
        2    1    3    3  502    0 -0.43008243076E+02  0.22927412850E+03 -0.31343918655E+03  0.39071787603E+03  0.25500000920E-02 0.  1.
       -2    1    3    3    0  502  0.43008243076E+02 -0.22927412850E+03  0.84748168245E+02  0.24819062633E+03  0.25500000920E-02 0. -1.
</event>
<event>
 5   0  0.8420604E-02  0.6232633E+03  0.7818609E-02  0.9858284E-01
        2   -1    0    0  501    0  0.00000000000E+00  0.00000000000E+00  0.79203383354E+03  0.79203383355E+03  0.25500000920E-02 0. -1.
       -2   -1    0    0    0  501  0.00000000000E+00  0.00000000000E+00 -0.12261379957E+03  0.12261379959E+03  0.25500000920E-02 0.  1.
    10030    2    1    2    0    0  0.00000000000E+00  0.00000000000E+00  0.66942003398E+03  0.91464763314E+03  0.62326327577E+03 0.  0.
        2    1    3    3  502    0 -0.21405605101E+03  0.16758888818E+03  0.55827483862E+03  0.62094832624E+03  0.25500000920E-02 0. -1.
       -2    1    3    3    0  502  0.21405605101E+03 -0.16758888818E+03  0.11114519535E+03  0.29369930690E+03  0.25500000920E-02 0.  1.
</event>
<event>
 5   0  0.8817544E-02  0.4650481E+03  0.7818609E-02  0.1023327E+00
       -2   -1    0    0    0  501  0.00000000000E+00  0.00000000000E+00  0.10060401704E+03  0.10060401708E+03  0.25500000920E-02 0.  1.
        2   -1    0    0  501    0  0.00000000000E+00  0.00000000000E+00 -0.53742810849E+03  0.53742810849E+03  0.25500000920E-02 0. -1.
    10030    2    1    2    0    0  0.00000000000E+00  0.00000000000E+00 -0.43682409144E+03  0.63803212557E+03  0.46504806890E+03 0.  0.
        5    1    3    3  502    0 -0.10740743832E+03 -0.15940377825E+03 -0.39006725318E+02  0.19618750456E+03  0.46999998093E+01 0. -1.
       -5    1    3    3    0  502  0.10740743832E+03  0.15940377825E+03 -0.39781736613E+03  0.44184462101E+03  0.46999998093E+01 0.  1.
</event>
<event>
 5   0  0.8207443E-02  0.6072329E+03  0.7818609E-02  0.9890513E-01
       -2   -1    0    0    0  501  0.00000000000E+00  0.00000000000E+00  0.32583440403E+03  0.32583440404E+03  0.25500000920E-02 0. -1.
        2   -1    0    0  501    0  0.00000000000E+00  0.00000000000E+00 -0.28291345417E+03  0.28291345418E+03  0.25500000920E-02 0.  1.
    10030    2    1    2    0    0  0.00000000000E+00  0.00000000000E+00  0.42920949863E+02  0.60874785822E+03  0.60723286057E+03 0.  0.
        1    1    3    3  502    0 -0.65850331615E+01 -0.12131787974E+03 -0.25748100498E+03  0.28470661840E+03  0.50400001928E-02 0.  1.
       -1    1    3    3    0  502  0.65850331615E+01  0.12131787974E+03  0.30040195485E+03  0.32404123983E+03  0.50400001928E-02 0. -1.
</event>
<event>
 5   0  0.8420604E-02  0.5952144E+03  0.7818609E-02  0.9915385E-01
        2   -1    0    0  501    0  0.00000000000E+00  0.00000000000E+00  0.12447182690E+04  0.12447182690E+04  0.25500000920E-02 0.  1.
       -2   -1    0    0    0  501  0.00000000000E+00  0.00000000000E+00 -0.71156691081E+02  0.71156691127E+02  0.25500000920E-02 0. -1.
    10030    2    1    2    0    0  0.00000000000E+00  0.00000000000E+00  0.11735615779E+04  0.13158749601E+04  0.59521435930E+03 0.  0.
        2    1    3    3  502    0 -0.27361617984E+03 -0.38834017568E+02  0.83092835448E+03  0.87568020709E+03  0.25500000920E-02 0.  1.
       -2    1    3    3    0  502  0.27361617984E+03  0.38834017568E+02  0.34263322340E+03  0.44019475301E+03  0.25500000920E-02 0. -1.
</event>
<event>
 5   0  0.8207443E-02  0.6015872E+03  0.7818609E-02  0.9902119E-01
        2   -1    0    0  501    0  0.00000000000E+00  0.00000000000E+00  0.37949574877E+03  0.37949574878E+03  0.25500000920E-02 0.  1.
       -2   -1    0    0    0  501  0.00000000000E+00  0.00000000000E+00 -0.23841317194E+03  0.23841317196E+03  0.25500000920E-02 0. -1.
    10030    2    1    2    0    0  0.00000000000E+00  0.00000000000E+00  0.14108257682E+03  0.61790892073E+03  0.60158718474E+03 0.  0.
        1    1    3    3  502    0 -0.26879227923E+03  0.11748388078E+03  0.13886700165E+03  0.32455476547E+03  0.50400001928E-02 0.  1.
       -1    1    3    3    0  502  0.26879227923E+03 -0.11748388078E+03  0.22155751760E+01  0.29335415527E+03  0.50400001928E-02 0. -1.
</event>
<event>
 5   0  0.5166903E-02  0.6003882E+03  0.7818609E-02  0.9904601E-01
        1   -1    0    0  501    0  0.00000000000E+00  0.00000000000E+00  0.69033350974E+03  0.69033350976E+03  0.50400001928E-02 0. -1.
       -1   -1    0    0    0  501  0.00000000000E+00  0.00000000000E+00 -0.13054053855E+03  0.13054053865E+03  0.50400001928E-02 0.  1.
    10030    2    1    2    0    0  0.00000000000E+00  0.00000000000E+00  0.55979297119E+03  0.82087404841E+03  0.60038823502E+03 0.  0.
        2    1    3    3  502    0 -0.15487298353E+03  0.21799425218E+03  0.46640996541E+03  0.53762941777E+03  0.25500000920E-02 0. -1.
       -2    1    3    3    0  502  0.15487298353E+03 -0.21799425218E+03  0.93383005783E+02  0.28324463064E+03  0.25500000920E-02 0.  1.
</event>
<event>
 5   0  0.5125031E-02  0.5720804E+03  0.7818609E-02  0.9965086E-01
       -1   -1    0    0    0  501  0.00000000000E+00  0.00000000000E+00  0.46806899935E+03  0.46806899938E+03  0.50400001928E-02 0. -1.
        1   -1    0    0  501    0  0.00000000000E+00  0.00000000000E+00 -0.17480111711E+03  0.17480111719E+03  0.50400001928E-02 0.  1.
    10030    2    1    2    0    0  0.00000000000E+00  0.00000000000E+00  0.29326788224E+03  0.64287011656E+03  0.57208035801E+03 0.  0.
        4    1    3    3  502    0  0.72216539190E+02  0.63294737195E+02 -0.15614265668E+03  0.18331283213E+03  0.12699999809E+01 0.  1.
       -4    1    3    3    0  502 -0.72216539190E+02 -0.63294737195E+02  0.44941053892E+03  0.45955728444E+03  0.12699999809E+01 0. -1.
</event>
<event>
 5   0  0.5125031E-02  0.5907370E+03  0.7818609E-02  0.9924812E-01
        1   -1    0    0  501    0  0.00000000000E+00  0.00000000000E+00  0.51536478683E+03  0.51536478686E+03  0.50400001928E-02 0. -1.
       -1   -1    0    0    0  501  0.00000000000E+00  0.00000000000E+00 -0.16928310983E+03  0.16928310990E+03  0.50400001928E-02 0.  1.
    10030    2    1    2    0    0  0.00000000000E+00  0.00000000000E+00  0.34608167700E+03  0.68464789676E+03  0.59073701033E+03 0.  0.
        4    1    3    3  502    0 -0.97733562263E+02  0.18597689462E+03 -0.67572793685E+02  0.22069651079E+03  0.12699999809E+01 0.  1.
       -4    1    3    3    0  502  0.97733562263E+02 -0.18597689462E+03  0.41365447069E+03  0.46395138597E+03  0.12699999809E+01 0. -1.
</event>
<event>
 5   0  0.8575590E-02  0.6823722E+03  0.7818609E-02  0.9747862E-01
       -2   -1    0    0    0  501  0.00000000000E+00  0.00000000000E+00  0.27212404475E+03  0.27212404476E+03  0.25500000920E-02 0.  1.
        2   -1    0    0  501    0  0.00000000000E+00  0.00000000000E+00 -0.42777538861E+03  0.42777538862E+03  0.25500000920E-02 0. -1.
    10030    2    1    2    0    0  0.00000000000E+00  0.00000000000E+00 -0.15565134386E+03  0.69989943338E+03  0.68237224153E+03 0.  0.
        4    1    3    3  502    0 -0.66808002021E+02  0.27510902492E+03  0.11748080231E+03  0.30651531207E+03  0.12699999809E+01 0.  1.
       -4    1    3    3    0  502  0.66808002021E+02 -0.27510902492E+03 -0.27313214617E+03  0.39338412131E+03  0.12699999809E+01 0. -1.
</event>
<event>
 5   0  0.5190380E-02  0.6282696E+03  0.7818609E-02  0.9848431E-01
        1   -1    0    0  501    0  0.00000000000E+00  0.00000000000E+00  0.53931872756E+03  0.53931872758E+03  0.50400001928E-02 0.  1.
       -1   -1    0    0    0  501  0.00000000000E+00  0.00000000000E+00 -0.18297281535E+03  0.18297281541E+03  0.50400001928E-02 0. -1.
    10030    2    1    2    0    0  0.00000000000E+00  0.00000000000E+00  0.35634591221E+03  0.72229154300E+03  0.62826957903E+03 0.  0.
        5    1    3    3  502    0  0.22363481061E+03  0.12413938321E+03  0.38776140903E+03  0.46454721538E+03  0.46999998093E+01 0. -1.
       -5    1    3    3    0  502 -0.22363481061E+03 -0.12413938321E+03 -0.31415496821E+02  0.25774432762E+03  0.46999998093E+01 0.  1.
</event>
<event>
 5   0  0.5166903E-02  0.6060379E+03  0.7818609E-02  0.9892958E-01
        1   -1    0    0  501    0  0.00000000000E+00  0.00000000000E+00  0.22971628515E+03  0.22971628520E+03  0.50400001928E-02 0. -1.
       -1   -1    0    0    0  501  0.00000000000E+00  0.00000000000E+00 -0.39971254996E+03  0.39971254999E+03  0.50400001928E-02 0.  1.
    10030    2    1    2    0    0  0.00000000000E+00  0.00000000000E+00 -0.16999626481E+03  0.62942883519E+03  0.60603789363E+03 0.  0.
        2    1    3    3  502    0 -0.92833556671E+02 -0.28746385694E+03 -0.10972771987E+03  0.32139338949E+03  0.25500000920E-02 0.  1.
       -2    1    3    3    0  502  0.92833556671E+02  0.28746385694E+03 -0.60268544940E+02  0.30803544570E+03  0.25500000920E-02 0. -1.
</event>
<event>
 5   0  0.5125031E-02  0.5989376E+03  0.7818609E-02  0.9907613E-01
       -1   -1    0    0    0  501  0.00000000000E+00  0.00000000000E+00  0.35213687279E+03  0.35213687282E+03  0.50400001928E-02 0. -1.
        1   -1    0    0  501    0  0.00000000000E+00  0.00000000000E+00 -0.25467813261E+03  0.25467813266E+03  0.50400001928E-02 0.  1.
    10030    2    1    2    0    0  0.00000000000E+00  0.00000000000E+00  0.97458740182E+02  0.60681500548E+03  0.59893759678E+03 0.  0.
        4    1    3    3  502    0 -0.10577794491E+03 -0.10749229869E+03  0.31085280354E+03  0.34550636214E+03  0.12699999809E+01 0. -1.
       -4    1    3    3    0  502  0.10577794491E+03  0.10749229869E+03 -0.21339406336E+03  0.26130864334E+03  0.12699999809E+01 0.  1.
</event>
<event>
 5   0  0.5125031E-02  0.5900939E+03  0.7818609E-02  0.9926174E-01
       -1   -1    0    0    0  501  0.00000000000E+00  0.00000000000E+00  0.20394850687E+03  0.20394850693E+03  0.50400001928E-02 0. -1.
        1   -1    0    0  501    0  0.00000000000E+00  0.00000000000E+00 -0.42683671472E+03  0.42683671475E+03  0.50400001928E-02 0.  1.
    10030    2    1    2    0    0  0.00000000000E+00  0.00000000000E+00 -0.22288820786E+03  0.63078522169E+03  0.59009392701E+03 0.  0.
        4    1    3    3  502    0  0.10611185285E+03 -0.23649002054E+03  0.39213826728E+02  0.26215757139E+03  0.12699999809E+01 0. -1.
       -4    1    3    3    0  502 -0.10611185285E+03  0.23649002054E+03 -0.26210203458E+03  0.36862765030E+03  0.12699999809E+01 0.  1.
</event>
<event>
 5   0  0.8699746E-02  0.5837592E+03  0.7818609E-02  0.9939685E-01
       -2   -1    0    0    0  501  0.00000000000E+00  0.00000000000E+00  0.33920016048E+03  0.33920016049E+03  0.25500000920E-02 0. -1.
        2   -1    0    0  501    0  0.00000000000E+00  0.00000000000E+00 -0.25116059065E+03  0.25116059066E+03  0.25500000920E-02 0.  1.
    10030    2    1    2    0    0  0.00000000000E+00  0.00000000000E+00  0.88039569834E+02  0.59036075115E+03  0.58375924031E+03 0.  0.
        3    1    3    3  502    0  0.94273352710E+02 -0.20298272772E+03  0.23349986342E+03  0.32343724152E+03  0.10100000352E+00 0. -1.
       -3    1    3    3    0  502 -0.94273352710E+02  0.20298272772E+03 -0.14546029359E+03  0.26692350963E+03  0.10100000352E+00 0.  1.
</event>
<event>
 5   0  0.5166903E-02  0.6234870E+03  0.7818609E-02  0.9857842E-01
       -1   -1    0    0    0  501  0.00000000000E+00  0.00000000000E+00  0.71389030812E+02  0.71389030990E+02  0.50400001928E-02 0. -1.
        1   -1    0    0  501    0  0.00000000000E+00  0.00000000000E+00 -0.13613296967E+04  0.13613296967E+04  0.50400001928E-02 0.  1.
    10030    2    1    2    0    0  0.00000000000E+00  0.00000000000E+00 -0.12899406659E+04  0.14327187277E+04  0.62348699360E+03 0.  0.
        2    1    3    3  502    0 -0.99284450654E+02  0.14825605225E+03 -0.57554657782E+02  0.18748279337E+03  0.25500000920E-02 0. -1.
       -2    1    3    3    0  502  0.99284450654E+02 -0.14825605225E+03 -0.12323860081E+04  0.12452359343E+04  0.25500000920E-02 0.  1.
</event>
<event>
 5   0  0.8699746E-02  0.6056990E+03  0.7818609E-02  0.9893653E-01
       -2   -1    0    0    0  501  0.00000000000E+00  0.00000000000E+00  0.70501773005E+02  0.70501773052E+02  0.25500000920E-02 0.  1.
        2   -1    0    0  501    0  0.00000000000E+00  0.00000000000E+00 -0.13009292151E+04  0.13009292151E+04  0.25500000920E-02 0. -1.
    10030    2    1    2    0    0  0.00000000000E+00  0.00000000000E+00 -0.12304274421E+04  0.13714309881E+04  0.60569898877E+03 0.  0.
        3    1    3    3  502    0  0.29186521170E+02 -0.29100458221E+03 -0.79324309370E+03  0.84544079378E+03  0.10100000352E+00 0. -1.
       -3    1    3    3    0  502 -0.29186521170E+02  0.29100458221E+03 -0.43718434836E+03  0.52599019434E+03  0.10100000352E+00 0.  1.
</event>
<event>
 5   0  0.5190380E-02  0.6573517E+03  0.7818609E-02  0.9793081E-01
        1   -1    0    0  501    0  0.00000000000E+00  0.00000000000E+00  0.21494115466E+03  0.21494115472E+03  0.50400001928E-02 0.  1.
       -1   -1    0    0    0  501  0.00000000000E+00  0.00000000000E+00 -0.50259244525E+03  0.50259244528E+03  0.50400001928E-02 0. -1.
    10030    2    1    2    0    0  0.00000000000E+00  0.00000000000E+00 -0.28765129059E+03  0.71753360000E+03  0.65735165791E+03 0.  0.
        5    1    3    3  502    0 -0.60204102120E+02 -0.32233772438E+03 -0.16772959196E+03  0.36834962805E+03  0.46999998093E+01 0.  1.
       -5    1    3    3    0  502  0.60204102120E+02  0.32233772438E+03 -0.11992169863E+03  0.34918397195E+03  0.46999998093E+01 0. -1.
</event>
<event>
 5   0  0.8699746E-02  0.6016698E+03  0.7818609E-02  0.9901948E-01
        2   -1    0    0  501    0  0.00000000000E+00  0.00000000000E+00  0.84127378209E+03  0.84127378209E+03  0.25500000920E-02 0.  1.
       -2   -1    0    0    0  501  0.00000000000E+00  0.00000000000E+00 -0.10757690566E+03  0.10757690569E+03  0.25500000920E-02 0. -1.
    10030    2    1    2    0    0  0.00000000000E+00  0.00000000000E+00  0.73369687643E+03  0.94885068778E+03  0.60166977755E+03 0.  0.
        3    1    3    3  502    0 -0.11684383811E+03 -0.12493167673E+02 -0.69886270585E+02  0.13672111307E+03  0.10100000352E+00 0. -1.
       -3    1    3    3    0  502  0.11684383811E+03  0.12493167673E+02  0.80358314702E+03  0.81212957471E+03  0.10100000352E+00 0.  1.
</event>
<event>
 5   0  0.4987389E-02  0.5969302E+03  0.7818609E-02  0.9911795E-01
       -1   -1    0    0    0  501  0.00000000000E+00  0.00000000000E+00  0.81193069887E+02  0.81193070044E+02  0.50400001928E-02 0.  1.
        1   -1    0    0  501    0  0.00000000000E+00  0.00000000000E+00 -0.10971554209E+04  0.10971554209E+04  0.50400001928E-02 0. -1.
    10030    2    1    2    0    0  0.00000000000E+00  0.00000000000E+00 -0.10159623510E+04  0.11783484909E+04  0.59693020317E+03 0.  0.
        1    1    3    3  502    0 -0.11778228003E+03 -0.11163349403E+03 -0.13504636201E+02  0.16284065126E+03  0.50400001928E-02 0.  1.
       -1    1    3    3    0  502  0.11778228003E+03  0.11163349403E+03 -0.10024577148E+04  0.10155078397E+04  0.50400001928E-02 0. -1.
</event>
<event>
 5   0  0.4881209E-02  0.6070354E+03  0.7818609E-02  0.9890916E-01
       -1   -1    0    0    0  501  0.00000000000E+00  0.00000000000E+00  0.15331659604E+03  0.15331659612E+03  0.50400001928E-02 0. -1.
        1   -1    0    0  501    0  0.00000000000E+00  0.00000000000E+00 -0.60086768398E+03  0.60086768400E+03  0.50400001928E-02 0.  1.
    10030    2    1    2    0    0  0.00000000000E+00  0.00000000000E+00 -0.44755108794E+03  0.75418428012E+03  0.60703537959E+03 0.  0.
        3    1    3    3  502    0  0.12251875952E+03  0.23170460313E+03 -0.33622064883E+02  0.26425049289E+03  0.10100000352E+00 0. -1.
       -3    1    3    3    0  502 -0.12251875952E+03 -0.23170460313E+03 -0.41392902306E+03  0.48993378723E+03  0.10100000352E+00 0.  1.
</event>
<event>
 5   0  0.8817544E-02  0.6024605E+03  0.7818609E-02  0.9900314E-01
       -2   -1    0    0    0  501  0.00000000000E+00  0.00000000000E+00  0.21609425397E+03  0.21609425398E+03  0.25500000920E-02 0. -1.
        2   -1    0    0  501    0  0.00000000000E+00  0.00000000000E+00 -0.41990776152E+03  0.41990776152E+03  0.25500000920E-02 0.  1.
    10030    2    1    2    0    0  0.00000000000E+00  0.00000000000E+00 -0.20381350755E+03  0.63600201551E+03  0.60246046996E+03 0.  0.
        5    1    3    3  502    0  0.84740923716E+02  0.17843122045E+03  0.13812590436E+03  0.24108002828E+03  0.46999998093E+01 0. -1.
       -5    1    3    3    0  502 -0.84740923716E+02 -0.17843122045E+03 -0.34193941191E+03  0.39492198723E+03  0.46999998093E+01 0.  1.
</event>
<event>
 5   0  0.4987389E-02  0.6054687E+03  0.7818609E-02  0.9894125E-01
       -1   -1    0    0    0  501  0.00000000000E+00  0.00000000000E+00  0.11244391757E+03  0.11244391768E+03  0.50400001928E-02 0.  1.
        1   -1    0    0  501    0  0.00000000000E+00  0.00000000000E+00 -0.81505593031E+03  0.81505593033E+03  0.50400001928E-02 0. -1.
    10030    2    1    2    0    0  0.00000000000E+00  0.00000000000E+00 -0.70261201274E+03  0.92749984801E+03  0.60546868426E+03 0.  0.
        1    1    3    3  502    0 -0.89688661019E+02 -0.20265156067E+02 -0.79314746733E+03  0.79845954025E+03  0.50400001928E-02 0. -1.
       -1    1    3    3    0  502  0.89688661019E+02  0.20265156067E+02  0.90535454583E+02  0.12904030776E+03  0.50400001928E-02 0.  1.
</event>
<event>
 5   0  0.5166903E-02  0.5978888E+03  0.7818609E-02  0.9909796E-01
        1   -1    0    0  501    0  0.00000000000E+00  0.00000000000E+00  0.13206668445E+03  0.13206668455E+03  0.50400001928E-02 0.  1.
       -1   -1    0    0    0  501  0.00000000000E+00  0.00000000000E+00 -0.67668652236E+03  0.67668652238E+03  0.50400001928E-02 0. -1.
    10030    2    1    2    0    0  0.00000000000E+00  0.00000000000E+00 -0.54461983791E+03  0.80875320693E+03  0.59788877048E+03 0.  0.
        2    1    3    3  502    0 -0.28606561587E+02 -0.29301801209E+03 -0.20215469290E+03  0.35713360335E+03  0.25500000920E-02 0. -1.
       -2    1    3    3    0  502  0.28606561587E+02  0.29301801209E+03 -0.34246514501E+03  0.45161960357E+03  0.25500000920E-02 0.  1.
</event>
<event>
 5   0  0.8420604E-02  0.6019511E+03  0.7818609E-02  0.9901366E-01
        2   -1    0    0  501    0  0.00000000000E+00  0.00000000000E+00  0.13323911450E+04  0.13323911450E+04  0.25500000920E-02 0.  1.
       -2   -1    0    0    0  501  0.00000000000E+00  0.00000000000E+00 -0.67987758846E+02  0.67987758893E+02  0.25500000920E-02 0. -1.
    10030    2    1    2    0    0  0.00000000000E+00  0.00000000000E+00  0.12644033861E+04  0.14003789039E+04  0.60195112057E+03 0.  0.
        2    1    3    3  502    0  0.54517009663E+02 -0.11244674209E+03 -0.47813011729E+01  0.12505692702E+03  0.25500000920E-02 0. -1.
       -2    1    3    3    0  502 -0.54517009663E+02  0.11244674209E+03  0.12691846873E+04  0.12753219768E+04  0.25500000920E-02 0.  1.
</event>
<event>
 5   0  0.8420604E-02  0.6116788E+03  0.7818609E-02  0.9881468E-01
        2   -1    0    0  501    0  0.00000000000E+00  0.00000000000E+00  0.14210169269E+04  0.14210169269E+04  0.25500000920E-02 0.  1.
       -2   -1    0    0    0  501  0.00000000000E+00  0.00000000000E+00 -0.65824504856E+02  0.65824504906E+02  0.25500000920E-02 0. -1.
    10030    2    1    2    0    0  0.00000000000E+00  0.00000000000E+00  0.13551924220E+04  0.14868414318E+04  0.61167879035E+03 0.  0.
        2    1    3    3  502    0  0.12845147614E+03  0.26566149944E+03  0.87299509364E+03  0.92151844666E+03  0.25500000920E-02 0.  1.
       -2    1    3    3    0  502 -0.12845147614E+03 -0.26566149944E+03  0.48219732836E+03  0.56532298511E+03  0.25500000920E-02 0. -1.
</event>
<event>
 5   0  0.8575590E-02  0.6002739E+03  0.7818609E-02  0.9904838E-01
        2   -1    0    0  501    0  0.00000000000E+00  0.00000000000E+00  0.82753979954E+03  0.82753979955E+03  0.25500000920E-02 0. -1.
       -2   -1    0    0    0  501  0.00000000000E+00  0.00000000000E+00 -0.10885541220E+03  0.10885541223E+03  0.25500000920E-02 0.  1.
    10030    2    1    2    0    0  0.00000000000E+00  0.00000000000E+00  0.71868438735E+03  0.93639521177E+03  0.60027389083E+03 0.  0.
        4    1    3    3  502    0 -0.23155071897E+03  0.18204004999E+03  0.26937427235E+03  0.39914712420E+03  0.12699999809E+01 0.  1.
       -4    1    3    3    0  502  0.23155071897E+03 -0.18204004999E+03  0.44931011500E+03  0.53724808757E+03  0.12699999809E+01 0. -1.
</event>
<event>
 5   0  0.8207443E-02  0.6126334E+03  0.7818609E-02  0.9879537E-01
       -2   -1    0    0    0  501  0.00000000000E+00  0.00000000000E+00  0.34732950609E+03  0.34732950610E+03  0.25500000920E-02 0.  1.
        2   -1    0    0  501    0  0.00000000000E+00  0.00000000000E+00 -0.27014668863E+03  0.27014668864E+03  0.25500000920E-02 0. -1.
    10030    2    1    2    0    0  0.00000000000E+00  0.00000000000E+00  0.77182817457E+02  0.61747619474E+03  0.61263338447E+03 0.  0.
        1    1    3    3  502    0  0.12304749582E+03 -0.93535743863E+02 -0.22796141498E+03  0.27541973124E+03  0.50400001928E-02 0. -1.
       -1    1    3    3    0  502 -0.12304749582E+03  0.93535743863E+02  0.30514423244E+03  0.34205646351E+03  0.50400001928E-02 0.  1.
</event>
<event>
 5   0  0.3437375E-02  0.6366192E+03  0.7818609E-02  0.9832216E-01
        4   -1    0    0  501    0  0.00000000000E+00  0.00000000000E+00  0.41366556785E+03  0.41366751736E+03  0.12699999809E+01 0. -1.
       -4   -1    0    0    0  501  0.00000000000E+00  0.00000000000E+00 -0.24493043101E+03  0.24493372355E+03  0.12699999809E+01 0.  1.
    10030    2    1    2    0    0  0.00000000000E+00  0.00000000000E+00  0.16873513684E+03  0.65860124092E+03  0.63661923324E+03 0.  0.
        2    1    3    3  502    0  0.28680933148E+03  0.45288947378E+02 -0.50559525719E+02  0.29473199186E+03  0.25500000920E-02 0. -1.
       -2    1    3    3    0  502 -0.28680933148E+03 -0.45288947378E+02  0.21929466256E+03  0.36386924906E+03  0.25500000920E-02 0.  1.
</event>
<event>
 5   0  0.8420604E-02  0.6075996E+03  0.7818609E-02  0.9889764E-01
       -2   -1    0    0    0  501  0.00000000000E+00  0.00000000000E+00  0.18167708064E+03  0.18167708066E+03  0.25500000920E-02 0.  1.
        2   -1    0    0  501    0  0.00000000000E+00  0.00000000000E+00 -0.50801296746E+03  0.50801296747E+03  0.25500000920E-02 0. -1.
    10030    2    1    2    0    0  0.00000000000E+00  0.00000000000E+00 -0.32633588682E+03  0.68969004812E+03  0.60759958151E+03 0.  0.
        2    1    3    3  502    0 -0.60401921575E+02 -0.13949197593E+03 -0.46174167588E+03  0.48611909932E+03  0.25500000920E-02 0. -1.
       -2    1    3    3    0  502  0.60401921575E+02  0.13949197593E+03  0.13540578906E+03  0.20357094880E+03  0.25500000920E-02 0.  1.
</event>
<event>
 5   0  0.8207443E-02  0.5969828E+03  0.7818609E-02  0.9911686E-01
        2   -1    0    0  501    0  0.00000000000E+00  0.00000000000E+00  0.55248815510E+03  0.55248815511E+03  0.25500000920E-02 0.  1.
       -2   -1    0    0    0  501  0.00000000000E+00  0.00000000000E+00 -0.16126520867E+03  0.16126520869E+03  0.25500000920E-02 0. -1.
    10030    2    1    2    0    0  0.00000000000E+00  0.00000000000E+00  0.39122294643E+03  0.71375336380E+03  0.59698280588E+03 0.  0.
        1    1    3    3  502    0  0.17041420711E+03  0.24416298108E+03  0.22070640743E+03  0.37063173316E+03  0.50400001928E-02 0.  1.
       -1    1    3    3    0  502 -0.17041420711E+03 -0.24416298108E+03  0.17051653900E+03  0.34312163064E+03  0.50400001928E-02 0. -1.
</event>
<event>
 5   0  0.5190380E-02  0.6108779E+03  0.7818609E-02  0.9883091E-01
        1   -1    0    0  501    0  0.00000000000E+00  0.00000000000E+00  0.30633085175E+03  0.30633085179E+03  0.50400001928E-02 0.  1.
       -1   -1    0    0    0  501  0.00000000000E+00  0.00000000000E+00 -0.30454961085E+03  0.30454961089E+03  0.50400001928E-02 0. -1.
    10030    2    1    2    0    0  0.00000000000E+00  0.00000000000E+00  0.17812408982E+01  0.61088046268E+03  0.61087786575E+03 0.  0.
        5    1    3    3  502    0 -0.89196497012E+02 -0.27596874242E+03 -0.94797245508E+02  0.30516121908E+03  0.46999998093E+01 0. -1.
       -5    1    3    3    0  502  0.89196497012E+02  0.27596874242E+03  0.96578486406E+02  0.30571924360E+03  0.46999998093E+01 0.  1.
</event>
<event>
 5   0  0.5190380E-02  0.5926383E+03  0.7818609E-02  0.9920798E-01
       -1   -1    0    0    0  501  0.00000000000E+00  0.00000000000E+00  0.33015471133E+03  0.33015471137E+03  0.50400001928E-02 0. -1.
        1   -1    0    0  501    0  0.00000000000E+00  0.00000000000E+00 -0.26595122389E+03  0.26595122393E+03  0.50400001928E-02 0.  1.
    10030    2    1    2    0    0  0.00000000000E+00  0.00000000000E+00  0.64203487441E+02  0.59610593530E+03  0.59263833685E+03 0.  0.
        5    1    3    3  502    0  0.10040827094E+03  0.21586471622E+03 -0.14529219431E+03  0.27894678400E+03  0.46999998093E+01 0.  1.
       -5    1    3    3    0  502 -0.10040827094E+03 -0.21586471622E+03  0.20949568175E+03  0.31715915130E+03  0.46999998093E+01 0. -1.
</event>
<event>
 5   0  0.4987389E-02  0.5906237E+03  0.7818609E-02  0.9925052E-01
       -1   -1    0    0    0  501  0.00000000000E+00  0.00000000000E+00  0.29902949421E+03  0.29902949425E+03  0.50400001928E-02 0. -1.
        1   -1    0    0  501    0  0.00000000000E+00  0.00000000000E+00 -0.29164041942E+03  0.29164041946E+03  0.50400001928E-02 0.  1.
    10030    2    1    2    0    0  0.00000000000E+00  0.00000000000E+00  0.73890747922E+01  0.59066991371E+03  0.59062369453E+03 0.  0.
        1    1    3    3  502    0 -0.13964701425E+03  0.19192178491E+03  0.17941778356E+03  0.29753319343E+03  0.50400001928E-02 0. -1.
       -1    1    3    3    0  502  0.13964701425E+03 -0.19192178491E+03 -0.17202870877E+03  0.29313672028E+03  0.50400001928E-02 0.  1.
</event>
<event>
 5   0  0.3437375E-02  0.5996978E+03  0.7818609E-02  0.9906033E-01
       -3   -1    0    0    0  501  0.00000000000E+00  0.00000000000E+00  0.55788970933E+03  0.55788971848E+03  0.10100000352E+00 0.  1.
        3   -1    0    0  501    0  0.00000000000E+00  0.00000000000E+00 -0.16115973137E+03  0.16115976302E+03  0.10100000352E+00 0. -1.
    10030    2    1    2    0    0  0.00000000000E+00  0.00000000000E+00  0.39672997796E+03  0.71904948150E+03  0.59969782510E+03 0.  0.
        1    1    3    3  502    0 -0.15817816064E+03  0.93418596913E+02  0.48251495458E+03  0.51630228178E+03  0.50400001928E-02 0.  1.
       -1    1    3    3    0  502  0.15817816064E+03 -0.93418596913E+02 -0.85784976622E+02  0.20274719972E+03  0.50400001928E-02 0. -1.
</event>
<event>
 5   0  0.8817544E-02  0.6004199E+03  0.7818609E-02  0.9904535E-01
        2   -1    0    0  501    0  0.00000000000E+00  0.00000000000E+00  0.94205590713E+03  0.94205590714E+03  0.25500000920E-02 0.  1.
       -2   -1    0    0    0  501  0.00000000000E+00  0.00000000000E+00 -0.95669489476E+02  0.95669489510E+02  0.25500000920E-02 0. -1.
    10030    2    1    2    0    0  0.00000000000E+00  0.00000000000E+00  0.84638641766E+03  0.10377253966E+04  0.60041987879E+03 0.  0.
        5    1    3    3  502    0 -0.21414449373E+03  0.12970290443E+03  0.13698207210E+03  0.28542404539E+03  0.46999998093E+01 0. -1.
       -5    1    3    3    0  502  0.21414449373E+03 -0.12970290443E+03  0.70940434556E+03  0.75230135126E+03  0.46999998093E+01 0.  1.
</event>
<event>
 5   0  0.5125031E-02  0.6196132E+03  0.7818609E-02  0.9865530E-01
       -1   -1    0    0    0  501  0.00000000000E+00  0.00000000000E+00  0.88218864843E+02  0.88218864987E+02  0.50400001928E-02 0. -1.
        1   -1    0    0  501    0  0.00000000000E+00  0.00000000000E+00 -0.10879772834E+04  0.10879772834E+04  0.50400001928E-02 0.  1.
    10030    2    1    2    0    0  0.00000000000E+00  0.00000000000E+00 -0.99975841856E+03  0.11761961484E+04  0.61961317290E+03 0.  0.
        4    1    3    3  502    0  0.59094406553E+01  0.28446753047E+03 -0.26721999694E+03  0.39033938701E+03  0.12699999809E+01 0. -1.
       -4    1    3    3    0  502 -0.59094406553E+01 -0.28446753047E+03 -0.73253842161E+03  0.78585676139E+03  0.12699999809E+01 0.  1.
</event>
<event>
 5   0  0.8207443E-02  0.5994468E+03  0.7818609E-02  0.9906555E-01
       -2   -1    0    0    0  501  0.00000000000E+00  0.00000000000E+00  0.60305824290E+03  0.60305824290E+03  0.25500000920E-02 0. -1.
        2   -1    0    0  501    0  0.00000000000E+00  0.00000000000E+00 -0.14896422987E+03  0.14896422989E+03  0.25500000920E-02 0.  1.
    10030    2    1    2    0    0  0.00000000000E+00  0.00000000000E+00  0.45409401303E+03  0.75202247280E+03  0.59944676738E+03 0.  0.
        1    1    3    3  502    0  0.14733312814E+03  0.14351729233E+03 -0.46456806627E+02  0.21086132589E+03  0.50400001928E-02 0.  1.
       -1    1    3    3    0  502 -0.14733312814E+03 -0.14351729233E+03  0.50055081965E+03  0.54116114691E+03  0.50400001928E-02 0. -1.
</event>
<event>
 5   0  0.5190380E-02  0.6075279E+03  0.7818609E-02  0.9889910E-01
       -1   -1    0    0    0  501  0.00000000000E+00  0.00000000000E+00  0.59956860254E+03  0.59956860256E+03  0.50400001928E-02 0. -1.
        1   -1    0    0  501    0  0.00000000000E+00  0.00000000000E+00 -0.15389822645E+03  0.15389822653E+03  0.50400001928E-02 0.  1.
    10030    2    1    2    0    0  0.00000000000E+00  0.00000000000E+00  0.44567037609E+03  0.75346682909E+03  0.60752792398E+03 0.  0.
        5    1    3    3  502    0  0.56279041447E+02  0.27847180399E+03  0.89625317699E+02  0.29794070500E+03  0.46999998093E+01 0.  1.
       -5    1    3    3    0  502 -0.56279041447E+02 -0.27847180399E+03  0.35604505839E+03  0.45552612409E+03  0.46999998093E+01 0. -1.
</event>
<event>
 5   0  0.8420604E-02  0.5661691E+03  0.7818609E-02  0.9978192E-01
       -2   -1    0    0    0  501  0.00000000000E+00  0.00000000000E+00  0.20700558101E+03  0.20700558102E+03  0.25500000920E-02 0.  1.
        2   -1    0    0  501    0  0.00000000000E+00  0.00000000000E+00 -0.38712415844E+03  0.38712415844E+03  0.25500000920E-02 0. -1.
    10030    2    1    2    0    0  0.00000000000E+00  0.00000000000E+00 -0.18011857743E+03  0.59412973947E+03  0.56616909610E+03 0.  0.
        2    1    3    3  502    0  0.20990748694E+03  0.18085726328E+03 -0.29173586498E+02  0.27860653422E+03  0.25500000920E-02 0.  1.
       -2    1    3    3    0  502 -0.20990748694E+03 -0.18085726328E+03 -0.15094499093E+03  0.31552320525E+03  0.25500000920E-02 0. -1.
</event>
<event>
 5   0  0.5190380E-02  0.5896066E+03  0.7818609E-02  0.9927207E-01
        1   -1    0    0  501    0  0.00000000000E+00  0.00000000000E+00  0.11093142778E+04  0.11093142778E+04  0.50400001928E-02 0.  1.
       -1   -1    0    0    0  501  0.00000000000E+00  0.00000000000E+00 -0.78344772701E+02  0.78344772864E+02  0.50400001928E-02 0. -1.
    10030    2    1    2    0    0  0.00000000000E+00  0.00000000000E+00  0.10309695051E+04  0.11876590507E+04  0.58960656391E+03 0.  0.
        5    1    3    3  502    0 -0.21795553890E+03  0.14540737277E+03  0.78752274215E+03  0.82997715655E+03  0.46999998093E+01 0.  1.
       -5    1    3    3    0  502  0.21795553890E+03 -0.14540737277E+03  0.24344676293E+03  0.35768189410E+03  0.46999998093E+01 0. -1.
</event>
<event>
 5   0  0.8575590E-02  0.5850844E+03  0.7818609E-02  0.9936844E-01
       -2   -1    0    0    0  501  0.00000000000E+00  0.00000000000E+00  0.26702393742E+03  0.26702393743E+03  0.25500000920E-02 0. -1.
        2   -1    0    0  501    0  0.00000000000E+00  0.00000000000E+00 -0.32049908962E+03  0.32049908963E+03  0.25500000920E-02 0.  1.
    10030    2    1    2    0    0  0.00000000000E+00  0.00000000000E+00 -0.53475152201E+02  0.58752302706E+03  0.58508436607E+03 0.  0.
        4    1    3    3  502    0 -0.24990386213E+03 -0.67536076848E+02 -0.16356354831E+03  0.30621513552E+03  0.12699999809E+01 0.  1.
       -4    1    3    3    0  502  0.24990386213E+03  0.67536076848E+02  0.11008839611E+03  0.28130789154E+03  0.12699999809E+01 0. -1.
</event>
<event>
 5   0  0.8817544E-02  0.6028370E+03  0.7818609E-02  0.9899538E-01
       -2   -1    0    0    0  501  0.00000000000E+00  0.00000000000E+00  0.58152565667E+02  0.58152565723E+02  0.25500000920E-02 0.  1.
        2   -1    0    0  501    0  0.00000000000E+00  0.00000000000E+00 -0.15623235399E+04  0.15623235399E+04  0.25500000920E-02 0. -1.
    10030    2    1    2    0    0  0.00000000000E+00  0.00000000000E+00 -0.15041709742E+04  0.16204761056E+04  0.60283703367E+03 0.  0.
        5    1    3    3  502    0 -0.74570433093E+02  0.26356688388E+03 -0.10900020364E+04  0.11239015887E+04  0.46999998093E+01 0. -1.
       -5    1    3    3    0  502  0.74570433093E+02 -0.26356688388E+03 -0.41416893781E+03  0.49657451688E+03  0.46999998093E+01 0.  1.
</event>
<event>
 5   0  0.5125031E-02  0.5974422E+03  0.7818609E-02  0.9910727E-01
        1   -1    0    0  501    0  0.00000000000E+00  0.00000000000E+00  0.11786281301E+04  0.11786281302E+04  0.50400001928E-02 0. -1.
       -1   -1    0    0    0  501  0.00000000000E+00  0.00000000000E+00 -0.75710306831E+02  0.75710306999E+02  0.50400001928E-02 0.  1.
    10030    2    1    2    0    0  0.00000000000E+00  0.00000000000E+00  0.11029178233E+04  0.12543384372E+04  0.59744220636E+03 0.  0.
        4    1    3    3  502    0 -0.15739704663E+03  0.96277478327E+02  0.58231657732E+02  0.19348313101E+03  0.12699999809E+01 0.  1.
       -4    1    3    3    0  502  0.15739704663E+03 -0.96277478327E+02  0.10446861656E+04  0.10608553061E+04  0.12699999809E+01 0. -1.
</event>
<event>
 5   0  0.8207443E-02  0.5947196E+03  0.7818609E-02  0.9916422E-01
        2   -1    0    0  501    0  0.00000000000E+00  0.00000000000E+00  0.79700880648E+03  0.79700880649E+03  0.25500000920E-02 0. -1.
       -2   -1    0    0    0  501  0.00000000000E+00  0.00000000000E+00 -0.11094336254E+03  0.11094336257E+03  0.25500000920E-02 0.  1.
    10030    2    1    2    0    0  0.00000000000E+00  0.00000000000E+00  0.68606544395E+03  0.90795216905E+03  0.59471955400E+03 0.  0.
        1    1    3    3  502    0 -0.23201982635E+03 -0.96811538027E+02  0.10059574093E+03  0.27078621980E+03  0.50400001928E-02 0.  1.
       -1    1    3    3    0  502  0.23201982635E+03  0.96811538027E+02  0.58546970302E+03  0.63716594926E+03  0.50400001928E-02 0. -1.
</event>
<event>
 5   0  0.5190380E-02  0.6053676E+03  0.7818609E-02  0.9894332E-01
       -1   -1    0    0    0  501  0.00000000000E+00  0.00000000000E+00  0.11533325732E+03  0.11533325743E+03  0.50400001928E-02 0.  1.
        1   -1    0    0  501    0  0.00000000000E+00  0.00000000000E+00 -0.79437166757E+03  0.79437166759E+03  0.50400001928E-02 0. -1.
    10030    2    1    2    0    0  0.00000000000E+00  0.00000000000E+00 -0.67903841025E+03  0.90970492501E+03  0.60536756437E+03 0.  0.
        5    1    3    3  502    0  0.81707435689E+02  0.98221229265E+02 -0.75180440275E+03  0.76259783957E+03  0.46999998093E+01 0. -1.
       -5    1    3    3    0  502 -0.81707435689E+02 -0.98221229265E+02  0.72765992497E+02  0.14710708544E+03  0.46999998093E+01 0.  1.
</event>
<event>
 5   0  0.4987389E-02  0.6003225E+03  0.7818609E-02  0.9904737E-01
        1   -1    0    0  501    0  0.00000000000E+00  0.00000000000E+00  0.23745472539E+03  0.23745472544E+03  0.50400001928E-02 0.  1.
       -1   -1    0    0    0  501  0.00000000000E+00  0.00000000000E+00 -0.37942712689E+03  0.37942712693E+03  0.50400001928E-02 0. -1.
    10030    2    1    2    0    0  0.00000000000E+00  0.00000000000E+00 -0.14197240150E+03  0.61688185237E+03  0.60032246085E+03 0.  0.
        1    1    3    3  502    0 -0.27079641456E+03  0.58500924898E+02  0.47715150918E+02  0.28112237905E+03  0.50400001928E-02 0.  1.
       -1    1    3    3    0  502  0.27079641456E+03 -0.58500924898E+02 -0.18968755242E+03  0.33575947331E+03  0.50400001928E-02 0. -1.
</event>
<event>
 5   0  0.4881209E-02  0.5995004E+03  0.7818609E-02  0.9906443E-01
        1   -1    0    0  501    0  0.00000000000E+00  0.00000000000E+00  0.15029357758E+04  0.15029357758E+04  0.50400001928E-02 0.  1.
       -1   -1    0    0    0  501  0.00000000000E+00  0.00000000000E+00 -0.59783111941E+02  0.59783112153E+02  0.50400001928E-02 0. -1.
    10030    2    1    2    0    0  0.00000000000E+00  0.00000000000E+00  0.14431526638E+04  0.15627188879E+04  0.59950038497E+03 0.  0.
        3    1    3    3  502    0  0.16871207828E+03  0.24341056742E+03  0.60105482008E+03  0.67005923368E+03  0.10100000352E+00 0.  1.
       -3    1    3    3    0  502 -0.16871207828E+03 -0.24341056742E+03  0.84209784375E+03  0.89265965426E+03  0.10100000352E+00 0. -1.
</event>
<event>
 5   0  0.5125031E-02  0.5904200E+03  0.7818609E-02  0.9925483E-01
       -1   -1    0    0    0  501  0.00000000000E+00  0.00000000000E+00  0.14025827119E+03  0.14025827128E+03  0.50400001928E-02 0.  1.
        1   -1    0    0  501    0  0.00000000000E+00  0.00000000000E+00 -0.62134615327E+03  0.62134615329E+03  0.50400001928E-02 0. -1.
    10030    2    1    2    0    0  0.00000000000E+00  0.00000000000E+00 -0.48108788208E+03  0.76160442456E+03  0.59041997699E+03 0.  0.
        4    1    3    3  502    0 -0.11435083024E+03  0.26660964847E+03 -0.17000306423E+03  0.33624317359E+03  0.12699999809E+01 0.  1.
       -4    1    3    3    0  502  0.11435083024E+03 -0.26660964847E+03 -0.31108481785E+03  0.42536125098E+03  0.12699999809E+01 0. -1.
</event>
<event>
 5   0  0.8699746E-02  0.6014957E+03  0.7818609E-02  0.9902308E-01
        2   -1    0    0  501    0  0.00000000000E+00  0.00000000000E+00  0.75487127795E+03  0.75487127796E+03  0.25500000920E-02 0.  1.
       -2   -1    0    0    0  501  0.00000000000E+00  0.00000000000E+00 -0.11982078292E+03  0.11982078295E+03  0.25500000920E-02 0. -1.
    10030    2    1    2    0    0  0.00000000000E+00  0.00000000000E+00  0.63505049503E+03  0.87469206091E+03  0.60149569423E+03 0.  0.
        3    1    3    3  502    0 -0.24962348756E+01  0.29836304808E+03  0.26267842139E+03  0.39752572610E+03  0.10100000352E+00 0.  1.
       -3    1    3    3    0  502  0.24962348756E+01 -0.29836304808E+03  0.37237207364E+03  0.47716633481E+03  0.10100000352E+00 0. -1.
</event>
<event>
 5   0  0.5190380E-02  0.6024551E+03  0.7818609E-02  0.9900326E-01
        1   -1    0    0  501    0  0.00000000000E+00  0.00000000000E+00  0.24253234433E+03  0.24253234438E+03  0.50400001928E-02 0.  1.
       -1   -1    0    0    0  501  0.00000000000E+00  0.00000000000E+00 -0.37412753898E+03  0.37412753902E+03  0.50400001928E-02 0. -1.
    10030    2    1    2    0    0  0.00000000000E+00  0.00000000000E+00 -0.13159519465E+03  0.61665988340E+03  0.60245507429E+03 0.  0.
        5    1    3    3  502    0  0.20465869964E+03 -0.11601139089E+03  0.12671162143E+03  0.26724848205E+03  0.46999998093E+01 0.  1.
       -5    1    3    3    0  502 -0.20465869964E+03  0.11601139089E+03 -0.25830681609E+03  0.34941140135E+03  0.46999998093E+01 0. -1.
</event>
<event>
 5   0  0.8699746E-02  0.6043062E+03  0.7818609E-02  0.9896512E-01
        2   -1    0    0  501    0  0.00000000000E+00  0.00000000000E+00  0.23040919174E+04  0.23040919174E+04  0.25500000920E-02 0.  1.
       -2   -1    0    0    0  501  0.00000000000E+00  0.00000000000E+00 -0.39623631414E+02  0.39623631496E+02  0.25500000920E-02 0. -1.
    10030    2    1    2    0    0  0.00000000000E+00  0.00000000000E+00  0.22644682860E+04  0.23437155489E+04  0.60430617728E+03 0.  0.
        3    1    3    3  502    0 -0.18874984878E+03 -0.17941775547E+03  0.53795579532E+03  0.59767355999E+03  0.10100000352E+00 0. -1.
       -3    1    3    3    0  502  0.18874984878E+03  0.17941775547E+03  0.17265124907E+04  0.17460419889E+04  0.10100000352E+00 0.  1.
</event>
<event>
 5   0  0.8817544E-02  0.5844706E+03  0.7818609E-02  0.9938159E-01
        2   -1    0    0  501    0  0.00000000000E+00  0.00000000000E+00  0.93963938126E+03  0.93963938126E+03  0.25500000920E-02 0.  1.
       -2   -1    0    0    0  501  0.00000000000E+00  0.00000000000E+00 -0.90887511391E+02  0.90887511427E+02  0.25500000920E-02 0. -1.
    10030    2    1    2    0    0  0.00000000000E+00  0.00000000000E+00  0.84875186987E+03  0.10305268927E+04  0.58447064935E+03 0.  0.
        5    1    3    3  502    0  0.10814552369E+03  0.94538995993E+02  0.87302231078E+03  0.88477292068E+03  0.46999998093E+01 0.  1.
       -5    1    3    3    0  502 -0.10814552369E+03 -0.94538995993E+02 -0.24270440906E+02  0.14575397201E+03  0.46999998093E+01 0. -1.
</event>
<event>
 5   0  0.5166903E-02  0.6049065E+03  0.7818609E-02  0.9895279E-01
       -1   -1    0    0    0  501  0.00000000000E+00  0.00000000000E+00  0.12238601716E+03  0.12238601727E+03  0.50400001928E-02 0. -1.
        1   -1    0    0  501    0  0.00000000000E+00  0.00000000000E+00 -0.74745435730E+03  0.74745435731E+03  0.50400001928E-02 0.  1.
    10030    2    1    2    0    0  0.00000000000E+00  0.00000000000E+00 -0.62506834013E+03  0.86984037458E+03  0.60490647824E+03 0.  0.
        2    1    3    3  502    0 -0.19271494709E+03 -0.10842977177E+03 -0.15802553967E+02  0.22168849081E+03  0.25500000920E-02 0. -1.
       -2    1    3    3    0  502  0.19271494709E+03  0.10842977177E+03 -0.60926578617E+03  0.64815188377E+03  0.25500000920E-02 0.  1.
</event>
<event>
 5   0  0.5125031E-02  0.6031153E+03  0.7818609E-02  0.9898964E-01
       -1   -1    0    0    0  501  0.00000000000E+00  0.00000000000E+00  0.39424172598E+03  0.39424172601E+03  0.50400001928E-02 0.  1.
        1   -1    0    0  501    0  0.00000000000E+00  0.00000000000E+00 -0.23066309338E+03  0.23066309344E+03  0.50400001928E-02 0. -1.
    10030    2    1    2    0    0  0.00000000000E+00  0.00000000000E+00  0.16357863260E+03  0.62490481945E+03  0.60311529937E+03 0.  0.
        4    1    3    3  502    0  0.18148383455E+03 -0.11272689392E+03 -0.13871783971E+03  0.25473120494E+03  0.12699999809E+01 0. -1.
       -4    1    3    3    0  502 -0.18148383455E+03  0.11272689392E+03  0.30229647230E+03  0.37017361451E+03  0.12699999809E+01 0.  1.
</event>
<event>
 5   0  0.8420604E-02  0.5620329E+03  0.7818609E-02  0.9987465E-01
       -2   -1    0    0    0  501  0.00000000000E+00  0.00000000000E+00  0.14414683258E+03  0.14414683260E+03  0.25500000920E-02 0.  1.
        2   -1    0    0  501    0  0.00000000000E+00  0.00000000000E+00 -0.54784589102E+03  0.54784589103E+03  0.25500000920E-02 0. -1.
    10030    2    1    2    0    0  0.00000000000E+00  0.00000000000E+00 -0.40369905844E+03  0.69199272363E+03  0.56203291698E+03 0.  0.
        2    1    3    3  502    0 -0.13692334368E+03  0.15300730708E+03 -0.43807605006E+03  0.48380767223E+03  0.25500000920E-02 0. -1.
       -2    1    3    3    0  502  0.13692334368E+03 -0.15300730708E+03  0.34376991622E+02  0.20818505140E+03  0.25500000920E-02 0.  1.
</event>
<event>
 5   0  0.8699746E-02  0.6038236E+03  0.7818609E-02  0.9897505E-01
       -2   -1    0    0    0  501  0.00000000000E+00  0.00000000000E+00  0.15275704558E+03  0.15275704560E+03  0.25500000920E-02 0.  1.
        2   -1    0    0  501    0  0.00000000000E+00  0.00000000000E+00 -0.59670397802E+03  0.59670397802E+03  0.25500000920E-02 0. -1.
    10030    2    1    2    0    0  0.00000000000E+00  0.00000000000E+00 -0.44394693243E+03  0.74946102362E+03  0.60382360596E+03 0.  0.
        3    1    3    3  502    0  0.14518219679E+03 -0.26209495030E+03 -0.17588037919E+03  0.34742704446E+03  0.10100000352E+00 0.  1.
       -3    1    3    3    0  502 -0.14518219679E+03  0.26209495030E+03 -0.26806655324E+03  0.40203397917E+03  0.10100000352E+00 0. -1.
</event>
<event>
 5   0  0.4987389E-02  0.6028029E+03  0.7818609E-02  0.9899608E-01
       -1   -1    0    0    0  501  0.00000000000E+00  0.00000000000E+00  0.74793198829E+02  0.74793198999E+02  0.50400001928E-02 0.  1.
        1   -1    0    0  501    0  0.00000000000E+00  0.00000000000E+00 -0.12145869657E+04  0.12145869657E+04  0.50400001928E-02 0. -1.
    10030    2    1    2    0    0  0.00000000000E+00  0.00000000000E+00 -0.11397937668E+04  0.12893801647E+04  0.60280293474E+03 0.  0.
        1    1    3    3  502    0 -0.15532486348E+01  0.23069437333E+03 -0.98477270755E+03  0.10114344230E+04  0.50400001928E-02 0. -1.
       -1    1    3    3    0  502  0.15532486348E+01 -0.23069437333E+03 -0.15502105927E+03  0.27794574166E+03  0.50400001928E-02 0.  1.
</event>
<event>
 5   0  0.8817544E-02  0.6033022E+03  0.7818609E-02  0.9898579E-01
        2   -1    0    0  501    0  0.00000000000E+00  0.00000000000E+00  0.22174682521E+03  0.22174682523E+03  0.25500000920E-02 0.  1.
       -2   -1    0    0    0  501  0.00000000000E+00  0.00000000000E+00 -0.41034802774E+03  0.41034802775E+03  0.25500000920E-02 0. -1.
    10030    2    1    2    0    0  0.00000000000E+00  0.00000000000E+00 -0.18860120252E+03  0.63209485298E+03  0.60330215445E+03 0.  0.
        5    1    3    3  502    0  0.25252880151E+03  0.14861866409E+03 -0.19382906975E+02  0.29369387122E+03  0.46999998093E+01 0.  1.
       -5    1    3    3    0  502 -0.25252880151E+03 -0.14861866409E+03 -0.16921829555E+03  0.33840098176E+03  0.46999998093E+01 0. -1.
</event>
<event>
 5   0  0.3437375E-02  0.5950541E+03  0.7818609E-02  0.9915721E-01
        3   -1    0    0  501    0  0.00000000000E+00  0.00000000000E+00  0.13505453683E+03  0.13505457460E+03  0.10100000352E+00 0.  1.
       -3   -1    0    0    0  501  0.00000000000E+00  0.00000000000E+00 -0.65545625138E+03  0.65545625916E+03  0.10100000352E+00 0. -1.
    10030    2    1    2    0    0  0.00000000000E+00  0.00000000000E+00 -0.52040171455E+03  0.79051083375E+03  0.59505414357E+03 0.  0.
        5    1    3    3  502    0  0.16916330356E+03 -0.21894752104E+03 -0.40539968513E+03  0.49084135415E+03  0.46999998093E+01 0. -1.
       -5    1    3    3    0  502 -0.16916330356E+03  0.21894752104E+03 -0.11500202941E+03  0.29966947960E+03  0.46999998093E+01 0.  1.
</event>
<event>
 5   0  0.5125031E-02  0.6009192E+03  0.7818609E-02  0.9903501E-01
        1   -1    0    0  501    0  0.00000000000E+00  0.00000000000E+00  0.50147553503E+03  0.50147553506E+03  0.50400001928E-02 0.  1.
       -1   -1    0    0    0  501  0.00000000000E+00  0.00000000000E+00 -0.18002071146E+03  0.18002071153E+03  0.50400001928E-02 0. -1.
    10030    2    1    2    0    0  0.00000000000E+00  0.00000000000E+00  0.32145482357E+03  0.68149624659E+03  0.60091923793E+03 0.  0.
        4    1    3    3  502    0 -0.21975217541E+03  0.18707694264E+03  0.25551429508E+03  0.38545812866E+03  0.12699999809E+01 0.  1.
       -4    1    3    3    0  502  0.21975217541E+03 -0.18707694264E+03  0.65940528493E+02  0.29603811792E+03  0.12699999809E+01 0. -1.
</event>
<event>
 5   0  0.3437375E-02  0.5987766E+03  0.7818609E-02  0.9907947E-01
        3   -1    0    0  501    0  0.00000000000E+00  0.00000000000E+00  0.50886449202E+03  0.50886450204E+03  0.10100000352E+00 0.  1.
       -3   -1    0    0    0  501  0.00000000000E+00  0.00000000000E+00 -0.17614382816E+03  0.17614385712E+03  0.10100000352E+00 0. -1.
    10030    2    1    2    0    0  0.00000000000E+00  0.00000000000E+00  0.33272066385E+03  0.68500835916E+03  0.59877659603E+03 0.  0.
        3    1    3    3  502    0  0.14992454178E+03  0.25881769152E+03  0.15147157561E+03  0.33527244756E+03  0.10100000352E+00 0. -1.
       -3    1    3    3    0  502 -0.14992454178E+03 -0.25881769152E+03  0.18124908824E+03  0.34973591160E+03  0.10100000352E+00 0.  1.
</event>
<event>
 5   0  0.4881209E-02  0.5554131E+03  0.7818609E-02  0.1000249E+00
        1   -1    0    0  501    0  0.00000000000E+00  0.00000000000E+00  0.46694253489E+03  0.46694253491E+03  0.50400001928E-02 0. -1.
       -1   -1    0    0    0  501  0.00000000000E+00  0.00000000000E+00 -0.16516151502E+03  0.16516151510E+03  0.50400001928E-02 0.  1.
    10030    2    1    2    0    0  0.00000000000E+00  0.00000000000E+00  0.30178101986E+03  0.63210405001E+03  0.55541313101E+03 0.  0.
        3    1    3    3  502    0  0.22198240479E+03 -0.58327398761E+02  0.32881945327E+03  0.40099939717E+03  0.10100000352E+00 0. -1.
       -3    1    3    3    0  502 -0.22198240479E+03  0.58327398761E+02 -0.27038433404E+02  0.23110465284E+03  0.10100000352E+00 0.  1.
</event>
<event>
 5   0  0.8420604E-02  0.6069238E+03  0.7818609E-02  0.9891145E-01
        2   -1    0    0  501    0  0.00000000000E+00  0.00000000000E+00  0.20793616187E+04  0.20793616187E+04  0.25500000920E-02 0.  1.
       -2   -1    0    0    0  501  0.00000000000E+00  0.00000000000E+00 -0.44287213267E+02  0.44287213340E+02  0.25500000920E-02 0. -1.
    10030    2    1    2    0    0  0.00000000000E+00  0.00000000000E+00  0.20350744055E+04  0.21236488321E+04  0.60692382239E+03 0.  0.
        2    1    3    3  502    0  0.14892423105E+03  0.24038947275E+03  0.14028065275E+04  0.14310246954E+04  0.25500000920E-02 0. -1.
       -2    1    3    3    0  502 -0.14892423105E+03 -0.24038947275E+03  0.63226787791E+03  0.69262413663E+03  0.25500000920E-02 0.  1.
</event>
<event>
 5   0  0.4987389E-02  0.5717673E+03  0.7818609E-02  0.9965775E-01
       -1   -1    0    0    0  501  0.00000000000E+00  0.00000000000E+00  0.69673819645E+03  0.69673819647E+03  0.50400001928E-02 0.  1.
        1   -1    0    0  501    0  0.00000000000E+00  0.00000000000E+00 -0.11730298615E+03  0.11730298626E+03  0.50400001928E-02 0. -1.
    10030    2    1    2    0    0  0.00000000000E+00  0.00000000000E+00  0.57943521030E+03  0.81404118273E+03  0.57176733400E+03 0.  0.
        1    1    3    3  502    0 -0.83683369424E+02 -0.27267431565E+03  0.26213685485E+03  0.38738858970E+03  0.50400001928E-02 0.  1.
       -1    1    3    3    0  502  0.83683369424E+02  0.27267431565E+03  0.31729835545E+03  0.42665259302E+03  0.50400001928E-02 0. -1.
</event>
<event>
 5   0  0.5166903E-02  0.6046529E+03  0.7818609E-02  0.9895800E-01
       -1   -1    0    0    0  501  0.00000000000E+00  0.00000000000E+00  0.11323988948E+03  0.11323988960E+03  0.50400001928E-02 0. -1.
        1   -1    0    0  501    0  0.00000000000E+00  0.00000000000E+00 -0.80714739537E+03  0.80714739539E+03  0.50400001928E-02 0.  1.
    10030    2    1    2    0    0  0.00000000000E+00  0.00000000000E+00 -0.69390750588E+03  0.92038728498E+03  0.60465289847E+03 0.  0.
        2    1    3    3  502    0  0.28166557580E+03  0.78586280753E+02 -0.23013261099E+03  0.37211868908E+03  0.25500000920E-02 0.  1.
       -2    1    3    3    0  502 -0.28166557580E+03 -0.78586280753E+02 -0.46377489489E+03  0.54826859590E+03  0.25500000920E-02 0. -1.
</event>
<event>
 5   0  0.8817544E-02  0.5998545E+03  0.7818609E-02  0.9905708E-01
       -2   -1    0    0    0  501  0.00000000000E+00  0.00000000000E+00  0.22104891413E+03  0.22104891414E+03  0.25500000920E-02 0. -1.
        2   -1    0    0  501    0  0.00000000000E+00  0.00000000000E+00 -0.40695219580E+03  0.40695219581E+03  0.25500000920E-02 0.  1.
    10030    2    1    2    0    0  0.00000000000E+00  0.00000000000E+00 -0.18590328167E+03  0.62800110995E+03  0.59985445232E+03 0.  0.
        5    1    3    3  502    0  0.10550873537E+03 -0.36486522069E+02  0.19844450373E+03  0.22774035785E+03  0.46999998093E+01 0. -1.
       -5    1    3    3    0  502 -0.10550873537E+03  0.36486522069E+02 -0.38434778540E+03  0.40026075210E+03  0.46999998093E+01 0.  1.
</event>
<event>
 5   0  0.8575590E-02  0.6005950E+03  0.7818609E-02  0.9904172E-01
        2   -1    0    0  501    0  0.00000000000E+00  0.00000000000E+00  0.22710418215E+04  0.22710418215E+04  0.25500000920E-02 0. -1.
       -2   -1    0    0    0  501  0.00000000000E+00  0.00000000000E+00 -0.39708032241E+02  0.39708032323E+02  0.25500000920E-02 0.  1.
    10030    2    1    2    0    0  0.00000000000E+00  0.00000000000E+00  0.22313337892E+04  0.23107498538E+04  0.60059504481E+03 0.  0.
        4    1    3    3  502    0  0.69799917316E+02  0.63225062775E+02  0.22127426874E+04  0.22147463175E+04  0.12699999809E+01 0. -1.
       -4    1    3    3    0  502 -0.69799917316E+02 -0.63225062775E+02  0.18591101782E+02  0.96003536319E+02  0.12699999809E+01 0.  1.
</event>
<event>
 5   0  0.5166903E-02  0.6037031E+03  0.7818609E-02  0.9897753E-01
       -1   -1    0    0    0  501  0.00000000000E+00  0.00000000000E+00  0.42161893689E+03  0.42161893692E+03  0.50400001928E-02 0. -1.
        1   -1    0    0  501    0  0.00000000000E+00  0.00000000000E+00 -0.21610592566E+03  0.21610592572E+03  0.50400001928E-02 0.  1.
    10030    2    1    2    0    0  0.00000000000E+00  0.00000000000E+00  0.20551301123E+03  0.63772486265E+03  0.60370307491E+03 0.  0.
        2    1    3    3  502    0 -0.10345931767E+03  0.25495126987E+03  0.23389086454E+03  0.36112174809E+03  0.25500000920E-02 0. -1.
       -2    1    3    3    0  502  0.10345931767E+03 -0.25495126987E+03 -0.28377853304E+02  0.27660311456E+03  0.25500000920E-02 0.  1.
</event>
<event>
 5   0  0.4881209E-02  0.5917756E+03  0.7818609E-02  0.9922618E-01
        1   -1    0    0  501    0  0.00000000000E+00  0.00000000000E+00  0.63047498698E+03  0.63047498700E+03  0.50400001928E-02 0.  1.
       -1   -1    0    0    0  501  0.00000000000E+00  0.00000000000E+00 -0.13886289073E+03  0.13886289082E+03  0.50400001928E-02 0. -1.
    10030    2    1    2    0    0  0.00000000000E+00  0.00000000000E+00  0.49161209625E+03  0.76933787782E+03  0.59177556309E+03 0.  0.
        3    1    3    3  502    0  0.26232902045E+03 -0.13567128768E+03  0.26929186940E+03  0.39967653721E+03  0.10100000352E+00 0.  1.
       -3    1    3    3    0  502 -0.26232902045E+03  0.13567128768E+03  0.22232022685E+03  0.36966134061E+03  0.10100000352E+00 0. -1.
</event>
<event>
 5   0  0.5166903E-02  0.5962274E+03  0.7818609E-02  0.9913264E-01
        1   -1    0    0  501    0  0.00000000000E+00  0.00000000000E+00  0.67275079700E+03  0.67275079702E+03  0.50400001928E-02 0.  1.
       -1   -1    0    0    0  501  0.00000000000E+00  0.00000000000E+00 -0.13210208573E+03  0.13210208583E+03  0.50400001928E-02 0. -1.
    10030    2    1    2    0    0  0.00000000000E+00  0.00000000000E+00  0.54064871127E+03  0.80485288285E+03  0.59622741804E+03 0.  0.
        2    1    3    3  502    0 -0.24398947617E+03 -0.10213642925E+03  0.45595070849E+03  0.52711835791E+03  0.25500000920E-02 0.  1.
       -2    1    3    3    0  502  0.24398947617E+03  0.10213642925E+03  0.84698002782E+02  0.27773452494E+03  0.25500000920E-02 0. -1.
</event>
<event>
 5   0  0.8699746E-02  0.6002883E+03  0.7818609E-02  0.9904808E-01
       -2   -1    0    0    0  501  0.00000000000E+00  0.00000000000E+00  0.26124953505E+03  0.26124953506E+03  0.25500000920E-02 0.  1.
        2   -1    0    0  501    0  0.00000000000E+00  0.00000000000E+00 -0.34482937912E+03  0.34482937913E+03  0.25500000920E-02 0. -1.
    10030    2    1    2    0    0  0.00000000000E+00  0.00000000000E+00 -0.83579844072E+02  0.60607891420E+03  0.60028831398E+03 0.  0.
        3    1    3    3  502    0 -0.12664207962E+03  0.79235118098E+02  0.22104816619E+03  0.26679340743E+03  0.10100000352E+00 0.  1.
       -3    1    3    3    0  502  0.12664207962E+03 -0.79235118098E+02 -0.30462801026E+03  0.33928550677E+03  0.10100000352E+00 0. -1.
</event>
<event>
 5   0  0.5190380E-02  0.5908059E+03  0.7818609E-02  0.9924667E-01
        1   -1    0    0  501    0  0.00000000000E+00  0.00000000000E+00  0.14766844963E+04  0.14766844963E+04  0.50400001928E-02 0.  1.
       -1   -1    0    0    0  501  0.00000000000E+00  0.00000000000E+00 -0.59093797570E+02  0.59093797785E+02  0.50400001928E-02 0. -1.
    10030    2    1    2    0    0  0.00000000000E+00  0.00000000000E+00  0.14175906988E+04  0.15357782941E+04  0.59080587293E+03 0.  0.
        5    1    3    3  502    0  0.27236799665E+03 -0.54616344046E+02  0.96969569527E+03  0.10087116050E+04  0.46999998093E+01 0.  1.
       -5    1    3    3    0  502 -0.27236799665E+03  0.54616344046E+02  0.44789500348E+03  0.52706668911E+03  0.46999998093E+01 0. -1.
</event>
<event>
 5   0  0.5125031E-02  0.6164281E+03  0.7818609E-02  0.9871897E-01
        1   -1    0    0  501    0  0.00000000000E+00  0.00000000000E+00  0.76400076252E+03  0.76400076254E+03  0.50400001928E-02 0. -1.
       -1   -1    0    0    0  501  0.00000000000E+00  0.00000000000E+00 -0.12434007424E+03  0.12434007434E+03  0.50400001928E-02 0.  1.
    10030    2    1    2    0    0  0.00000000000E+00  0.00000000000E+00  0.63966068828E+03  0.88834083688E+03  0.61642813558E+03 0.  0.
        4    1    3    3  502    0  0.99402590524E+02  0.24879686626E+03  0.10026292889E+03  0.28606821472E+03  0.12699999809E+01 0.  1.
       -4    1    3    3    0  502 -0.99402590524E+02 -0.24879686626E+03  0.53939775939E+03  0.60227262216E+03  0.12699999809E+01 0. -1.
</event>
<event>
 5   0  0.4987389E-02  0.6000944E+03  0.7818609E-02  0.9905210E-01
        1   -1    0    0  501    0  0.00000000000E+00  0.00000000000E+00  0.60757744204E+03  0.60757744206E+03  0.50400001928E-02 0.  1.
       -1   -1    0    0    0  501  0.00000000000E+00  0.00000000000E+00 -0.14817589507E+03  0.14817589515E+03  0.50400001928E-02 0. -1.
    10030    2    1    2    0    0  0.00000000000E+00  0.00000000000E+00  0.45940154697E+03  0.75575333722E+03  0.60009443036E+03 0.  0.
        1    1    3    3  502    0 -0.32730800474E+02 -0.18606212803E+03  0.52327095731E+03  0.55632986220E+03  0.50400001928E-02 0.  1.
       -1    1    3    3    0  502  0.32730800474E+02  0.18606212803E+03 -0.63869410339E+02  0.19942347502E+03  0.50400001928E-02 0. -1.
</event>
<event>
 5   0  0.8207443E-02  0.6038184E+03  0.7818609E-02  0.9897516E-01
       -2   -1    0    0    0  501  0.00000000000E+00  0.00000000000E+00  0.22133357145E+03  0.22133357146E+03  0.25500000920E-02 0.  1.
        2   -1    0    0  501    0  0.00000000000E+00  0.00000000000E+00 -0.41181812945E+03  0.41181812946E+03  0.25500000920E-02 0. -1.
    10030    2    1    2    0    0  0.00000000000E+00  0.00000000000E+00 -0.19048455800E+03  0.63315170092E+03  0.60381844088E+03 0.  0.
        1    1    3    3  502    0 -0.41577318009E+02  0.49739170793E+01 -0.40875839915E+03  0.41089760540E+03  0.50400001928E-02 0. -1.
       -1    1    3    3    0  502  0.41577318009E+02 -0.49739170793E+01  0.21827384115E+03  0.22225409553E+03  0.50400001928E-02 0.  1.
</event>
<event>
 5   0  0.4987389E-02  0.7422335E+03  0.7818609E-02  0.9647614E-01
        1   -1    0    0  501    0  0.00000000000E+00  0.00000000000E+00  0.96350016706E+03  0.96350016708E+03  0.50400001928E-02 0.  1.
       -1   -1    0    0    0  501  0.00000000000E+00  0.00000000000E+00 -0.14294510767E+03  0.14294510776E+03  0.50400001928E-02 0. -1.
    10030    2    1    2    0    0  0.00000000000E+00  0.00000000000E+00  0.82055505939E+03  0.11064452748E+04  0.74223348128E+03 0.  0.
        1    1    3    3  502    0  0.15347373020E+03 -0.11606089166E+03  0.88333215052E+03  0.90404646153E+03  0.50400001928E-02 0.  1.
       -1    1    3    3    0  502 -0.15347373020E+03  0.11606089166E+03 -0.62777091129E+02  0.20239881331E+03  0.50400001928E-02 0. -1.
</event>
<event>
 5   0  0.8699746E-02  0.5457757E+03  0.7818609E-02  0.1002476E+00
       -2   -1    0    0    0  501  0.00000000000E+00  0.00000000000E+00  0.79847848825E+02  0.79847848865E+02  0.25500000920E-02 0.  1.
        2   -1    0    0  501    0  0.00000000000E+00  0.00000000000E+00 -0.93262113157E+03  0.93262113157E+03  0.25500000920E-02 0. -1.
    10030    2    1    2    0    0  0.00000000000E+00  0.00000000000E+00 -0.85277328274E+03  0.10124689804E+04  0.54577574569E+03 0.  0.
        3    1    3    3  502    0 -0.88042657500E+02 -0.15463401789E+03 -0.42579832344E+02  0.18296513699E+03  0.10100000352E+00 0.  1.
       -3    1    3    3    0  502  0.88042657500E+02  0.15463401789E+03 -0.81019345040E+03  0.82950384345E+03  0.10100000352E+00 0. -1.
</event>
<event>
 5   0  0.8699746E-02  0.5980750E+03  0.7818609E-02  0.9909408E-01
       -2   -1    0    0    0  501  0.00000000000E+00  0.00000000000E+00  0.16578066879E+03  0.16578066881E+03  0.25500000920E-02 0.  1.
        2   -1    0    0  501    0  0.00000000000E+00  0.00000000000E+00 -0.53940802735E+03  0.53940802736E+03  0.25500000920E-02 0. -1.
    10030    2    1    2    0    0  0.00000000000E+00  0.00000000000E+00 -0.37362735856E+03  0.70518869617E+03  0.59807499040E+03 0.  0.
        3    1    3    3  502    0  0.10421356983E+03 -0.27890224865E+02  0.14203632594E+03  0.17836104077E+03  0.10100000352E+00 0.  1.
       -3    1    3    3    0  502 -0.10421356983E+03  0.27890224865E+02 -0.51566368450E+03  0.52682765540E+03  0.10100000352E+00 0. -1.
</event>
<event>
 5   0  0.8575590E-02  0.5981636E+03  0.7818609E-02  0.9909223E-01
        2   -1    0    0  501    0  0.00000000000E+00  0.00000000000E+00  0.10934638846E+04  0.10934638846E+04  0.25500000920E-02 0.  1.
       -2   -1    0    0    0  501  0.00000000000E+00  0.00000000000E+00 -0.81804191654E+02  0.81804191694E+02  0.25500000920E-02 0. -1.
    10030    2    1    2    0    0  0.00000000000E+00  0.00000000000E+00  0.10116596930E+04  0.11752680763E+04  0.59816362046E+03 0.  0.
        4    1    3    3  502    0  0.12470607594E+03  0.22217283644E+03  0.81359419435E+03  0.85255469068E+03  0.12699999809E+01 0.  1.
       -4    1    3    3    0  502 -0.12470607594E+03 -0.22217283644E+03  0.19806549864E+03  0.32271338565E+03  0.12699999809E+01 0. -1.
</event>
<event>
 5   0  0.4881209E-02  0.6045883E+03  0.7818609E-02  0.9895932E-01
        1   -1    0    0  501    0  0.00000000000E+00  0.00000000000E+00  0.26528659439E+03  0.26528659444E+03  0.50400001928E-02 0. -1.
       -1   -1    0    0    0  501  0.00000000000E+00  0.00000000000E+00 -0.34446423238E+03  0.34446423241E+03  0.50400001928E-02 0.  1.
    10030    2    1    2    0    0  0.00000000000E+00  0.00000000000E+00 -0.79177637982E+02  0.60975082686E+03  0.60458826692E+03 0.  0.
        3    1    3    3  502    0 -0.12189347211E+03  0.24621103836E+03 -0.16677609559E+03  0.32139099274E+03  0.10100000352E+00 0.  1.
       -3    1    3    3    0  502  0.12189347211E+03 -0.24621103836E+03  0.87598457605E+02  0.28835983411E+03  0.10100000352E+00 0. -1.
</event>
<event>
 5   0  0.8575590E-02  0.6036265E+03  0.7818609E-02  0.9897911E-01
        2   -1    0    0  501    0  0.00000000000E+00  0.00000000000E+00  0.64772097278E+03  0.64772097278E+03  0.25500000920E-02 0.  1.
       -2   -1    0    0    0  501  0.00000000000E+00  0.00000000000E+00 -0.14063347408E+03  0.14063347410E+03  0.25500000920E-02 0. -1.
    10030    2    1    2    0    0  0.00000000000E+00  0.00000000000E+00  0.50708749870E+03  0.78835444688E+03  0.60362654231E+03 0.  0.
        4    1    3    3  502    0 -0.13748753694E+03  0.20527108854E+03  0.47994547480E+03  0.53980395912E+03  0.12699999809E+01 0.  1.
       -4    1    3    3    0  502  0.13748753694E+03 -0.20527108854E+03  0.27142023898E+02  0.24855048776E+03  0.12699999809E+01 0. -1.
</event>
<event>
 5   0  0.5190380E-02  0.5335421E+03  0.7818609E-02  0.1005377E+00
       -1   -1    0    0    0  501  0.00000000000E+00  0.00000000000E+00  0.11461053017E+03  0.11461053028E+03  0.50400001928E-02 0.  1.
        1   -1    0    0  501    0  0.00000000000E+00  0.00000000000E+00 -0.62094469319E+03  0.62094469321E+03  0.50400001928E-02 0. -1.
    10030    2    1    2    0    0  0.00000000000E+00  0.00000000000E+00 -0.50633416302E+03  0.73555522349E+03  0.53354212782E+03 0.  0.
        5    1    3    3  502    0  0.18932069891E+03  0.77887249148E+02 -0.17442297521E+02  0.20551173776E+03  0.46999998093E+01 0.  1.
       -5    1    3    3    0  502 -0.18932069891E+03 -0.77887249148E+02 -0.48889186550E+03  0.53004348573E+03  0.46999998093E+01 0. -1.
</event>
<event>
 5   0  0.8207443E-02  0.5872753E+03  0.7818609E-02  0.9932163E-01
       -2   -1    0    0    0  501  0.00000000000E+00  0.00000000000E+00  0.13016344018E+03  0.13016344020E+03  0.25500000920E-02 0.  1.
        2   -1    0    0  501    0  0.00000000000E+00  0.00000000000E+00 -0.66242158882E+03  0.66242158883E+03  0.25500000920E-02 0. -1.
    10030    2    1    2    0    0  0.00000000000E+00  0.00000000000E+00 -0.53225814864E+03  0.79258502903E+03  0.58727531145E+03 0.  0.
        1    1    3    3  502    0 -0.28939154580E+03  0.27798724453E+02 -0.32182079758E+03  0.43369212772E+03  0.50400001928E-02 0. -1.
       -1    1    3    3    0  502  0.28939154580E+03 -0.27798724453E+02 -0.21043735106E+03  0.35889290131E+03  0.50400001928E-02 0.  1.
</event>
<event>
 5   0  0.5166903E-02  0.5963989E+03  0.7818609E-02  0.9912905E-01
        1   -1    0    0  501    0  0.00000000000E+00  0.00000000000E+00  0.57920497017E+03  0.57920497019E+03  0.50400001928E-02 0. -1.
       -1   -1    0    0    0  501  0.00000000000E+00  0.00000000000E+00 -0.15352581692E+03  0.15352581700E+03  0.50400001928E-02 0.  1.
    10030    2    1    2    0    0  0.00000000000E+00  0.00000000000E+00  0.42567915325E+03  0.73273078719E+03  0.59639891430E+03 0.  0.
        2    1    3    3  502    0 -0.24583519761E+03 -0.14815301625E+03  0.11349324665E+03  0.30865025133E+03  0.25500000920E-02 0. -1.
       -2    1    3    3    0  502  0.24583519761E+03  0.14815301625E+03  0.31218590660E+03  0.42408053585E+03  0.25500000920E-02 0.  1.
</event>
<event>
 5   0  0.8817544E-02  0.5732898E+03  0.7818609E-02  0.9962425E-01
       -2   -1    0    0    0  501  0.00000000000E+00  0.00000000000E+00  0.60074286467E+03  0.60074286468E+03  0.25500000920E-02 0.  1.
        2   -1    0    0  501    0  0.00000000000E+00  0.00000000000E+00 -0.13677284564E+03  0.13677284566E+03  0.25500000920E-02 0. -1.
    10030    2    1    2    0    0  0.00000000000E+00  0.00000000000E+00  0.46397001903E+03  0.73751571034E+03  0.57328984331E+03 0.  0.
        5    1    3    3  502    0 -0.14323923777E+03  0.15731603863E+03  0.47903065875E+03  0.52417389983E+03  0.46999998093E+01 0.  1.
       -5    1    3    3    0  502  0.14323923777E+03 -0.15731603863E+03 -0.15060639711E+02  0.21334181051E+03  0.46999998093E+01 0. -1.
</event>
<event>
 5   0  0.4881209E-02  0.5882939E+03  0.7818609E-02  0.9929995E-01
        1   -1    0    0  501    0  0.00000000000E+00  0.00000000000E+00  0.92452390114E+03  0.92452390116E+03  0.50400001928E-02 0. -1.
       -1   -1    0    0    0  501  0.00000000000E+00  0.00000000000E+00 -0.93585926235E+02  0.93585926370E+02  0.50400001928E-02 0.  1.
    10030    2    1    2    0    0  0.00000000000E+00  0.00000000000E+00  0.83093797491E+03  0.10181098275E+04  0.58829389149E+03 0.  0.
        3    1    3    3  502    0  0.36783399921E+02  0.21844258868E+03  0.75038749376E+03  0.78240116567E+03  0.10100000352E+00 0. -1.
       -3    1    3    3    0  502 -0.36783399921E+02 -0.21844258868E+03  0.80550481150E+02  0.23570866185E+03  0.10100000352E+00 0.  1.
</event>
<event>
 5   0  0.4987389E-02  0.6050456E+03  0.7818609E-02  0.9894993E-01
        1   -1    0    0  501    0  0.00000000000E+00  0.00000000000E+00  0.56398846591E+03  0.56398846593E+03  0.50400001928E-02 0.  1.
       -1   -1    0    0    0  501  0.00000000000E+00  0.00000000000E+00 -0.16227291949E+03  0.16227291957E+03  0.50400001928E-02 0. -1.
    10030    2    1    2    0    0  0.00000000000E+00  0.00000000000E+00  0.40171554642E+03  0.72626138550E+03  0.60504563450E+03 0.  0.
        1    1    3    3  502    0 -0.28591514760E+03 -0.61564889712E+02  0.10801659440E+03  0.31177763224E+03  0.50400001928E-02 0. -1.
       -1    1    3    3    0  502  0.28591514760E+03  0.61564889712E+02  0.29369895202E+03  0.41448375326E+03  0.50400001928E-02 0.  1.
</event>
<event>
 5   0  0.3437375E-02  0.6077784E+03  0.7818609E-02  0.9889398E-01
        3   -1    0    0  501    0  0.00000000000E+00  0.00000000000E+00  0.85123435833E+02  0.85123495752E+02  0.10100000352E+00 0.  1.
       -3   -1    0    0    0  501  0.00000000000E+00  0.00000000000E+00 -0.10848787833E+04  0.10848787880E+04  0.10100000352E+00 0. -1.
    10030    2    1    2    0    0  0.00000000000E+00  0.00000000000E+00 -0.99975534750E+03  0.11700022838E+04  0.60777840469E+03 0.  0.
        1    1    3    3  502    0  0.13457303646E+03 -0.20905541494E+03 -0.83626328452E+03  0.87243931005E+03  0.50400001928E-02 0. -1.
       -1    1    3    3    0  502 -0.13457303646E+03  0.20905541494E+03 -0.16349206298E+03  0.29756297373E+03  0.50400001928E-02 0.  1.
</event>
<event>
 5   0  0.5190380E-02  0.5898652E+03  0.7818609E-02  0.9926658E-01
       -1   -1    0    0    0  501  0.00000000000E+00  0.00000000000E+00  0.16196579256E+03  0.16196579264E+03  0.50400001928E-02 0.  1.
        1   -1    0    0  501    0  0.00000000000E+00  0.00000000000E+00 -0.53705940389E+03  0.53705940391E+03  0.50400001928E-02 0. -1.
    10030    2    1    2    0    0  0.00000000000E+00  0.00000000000E+00 -0.37509361133E+03  0.69902519655E+03  0.58986524576E+03 0.  0.
        5    1    3    3  502    0  0.10540264072E+03 -0.19092609837E+03 -0.42277632809E+03  0.47573564645E+03  0.46999998093E+01 0. -1.
       -5    1    3    3    0  502 -0.10540264072E+03  0.19092609837E+03  0.47682716761E+02  0.22328955010E+03  0.46999998093E+01 0.  1.
</event>
<event>
 5   0  0.4987389E-02  0.6058670E+03  0.7818609E-02  0.9893308E-01
       -1   -1    0    0    0  501  0.00000000000E+00  0.00000000000E+00  0.89694006618E+03  0.89694006619E+03  0.50400001928E-02 0.  1.
        1   -1    0    0  501    0  0.00000000000E+00  0.00000000000E+00 -0.10231308260E+03  0.10231308272E+03  0.50400001928E-02 0. -1.
    10030    2    1    2    0    0  0.00000000000E+00  0.00000000000E+00  0.79462698358E+03  0.99925314892E+03  0.60586699249E+03 0.  0.
        1    1    3    3  502    0 -0.12672818179E+02 -0.17617630396E+03  0.80322098169E+03  0.82241269193E+03  0.50400001928E-02 0.  1.
       -1    1    3    3    0  502  0.12672818179E+02  0.17617630396E+03 -0.85939981091E+01  0.17684045698E+03  0.50400001928E-02 0. -1.
</event>
<event>
 5   0  0.5166903E-02  0.5864505E+03  0.7818609E-02  0.9933923E-01
       -1   -1    0    0    0  501  0.00000000000E+00  0.00000000000E+00  0.44389861177E+02  0.44389861463E+02  0.50400001928E-02 0.  1.
        1   -1    0    0  501    0  0.00000000000E+00  0.00000000000E+00 -0.19369526892E+04  0.19369526892E+04  0.50400001928E-02 0. -1.
    10030    2    1    2    0    0  0.00000000000E+00  0.00000000000E+00 -0.18925628280E+04  0.19813425507E+04  0.58645054786E+03 0.  0.
        2    1    3    3  502    0  0.17922229273E+03  0.19317017937E+03 -0.13808625909E+04  0.14057797990E+04  0.25500000920E-02 0. -1.
       -2    1    3    3    0  502 -0.17922229273E+03 -0.19317017937E+03 -0.51170023720E+03  0.57556275171E+03  0.25500000920E-02 0.  1.
</event>
<event>
 5   0  0.4881209E-02  0.5905964E+03  0.7818609E-02  0.9925110E-01
       -1   -1    0    0    0  501  0.00000000000E+00  0.00000000000E+00  0.58742368483E+02  0.58742368699E+02  0.50400001928E-02 0.  1.
        1   -1    0    0  501    0  0.00000000000E+00  0.00000000000E+00 -0.14844655725E+04  0.14844655725E+04  0.50400001928E-02 0. -1.
    10030    2    1    2    0    0  0.00000000000E+00  0.00000000000E+00 -0.14257232040E+04  0.15432079412E+04  0.59059638953E+03 0.  0.
        3    1    3    3  502    0 -0.29253371833E+03 -0.30121133087E+02 -0.64285779510E+03  0.70692956788E+03  0.10100000352E+00 0. -1.
       -3    1    3    3    0  502  0.29253371833E+03  0.30121133087E+02 -0.78286540890E+03  0.83627837332E+03  0.10100000352E+00 0.  1.
</event>
<event>
 5   0  0.8817544E-02  0.5958391E+03  0.7818609E-02  0.9914076E-01
        2   -1    0    0  501    0  0.00000000000E+00  0.00000000000E+00  0.20056075137E+03  0.20056075139E+03  0.25500000920E-02 0. -1.
       -2   -1    0    0    0  501  0.00000000000E+00  0.00000000000E+00 -0.44253950722E+03  0.44253950723E+03  0.25500000920E-02 0.  1.
    10030    2    1    2    0    0  0.00000000000E+00  0.00000000000E+00 -0.24197875585E+03  0.64310025862E+03  0.59583909267E+03 0.  0.
        5    1    3    3  502    0  0.76772341401E+02  0.23414673759E+03  0.59664449111E+02  0.25357567631E+03  0.46999998093E+01 0. -1.
       -5    1    3    3    0  502 -0.76772341401E+02 -0.23414673759E+03 -0.30164320496E+03  0.38952458231E+03  0.46999998093E+01 0.  1.
</event>
<event>
 5   0  0.5190380E-02  0.6058952E+03  0.7818609E-02  0.9893250E-01
       -1   -1    0    0    0  501  0.00000000000E+00  0.00000000000E+00  0.38674381026E+03  0.38674381029E+03  0.50400001928E-02 0. -1.
        1   -1    0    0  501    0  0.00000000000E+00  0.00000000000E+00 -0.23730761365E+03  0.23730761370E+03  0.50400001928E-02 0.  1.
    10030    2    1    2    0    0  0.00000000000E+00  0.00000000000E+00  0.14943619660E+03  0.62405142399E+03  0.60589520788E+03 0.  0.
        5    1    3    3  502    0 -0.15208413148E+03  0.13122583118E+03  0.30823969895E+03  0.36794510980E+03  0.46999998093E+01 0. -1.
       -5    1    3    3    0  502  0.15208413148E+03 -0.13122583118E+03 -0.15880350235E+03  0.25610631420E+03  0.46999998093E+01 0.  1.
</event>
<event>
 5   0  0.8207443E-02  0.6083990E+03  0.7818609E-02  0.9888132E-01
        2   -1    0    0  501    0  0.00000000000E+00  0.00000000000E+00  0.34920142598E+03  0.34920142599E+03  0.25500000920E-02 0. -1.
       -2   -1    0    0    0  501  0.00000000000E+00  0.00000000000E+00 -0.26499705641E+03  0.26499705643E+03  0.25500000920E-02 0.  1.
    10030    2    1    2    0    0  0.00000000000E+00  0.00000000000E+00  0.84204369572E+02  0.61419848242E+03  0.60839904664E+03 0.  0.
        1    1    3    3  502    0 -0.10286459654E+03  0.10907389445E+03  0.30931207159E+03  0.34373274114E+03  0.50400001928E-02 0. -1.
       -1    1    3    3    0  502  0.10286459654E+03 -0.10907389445E+03 -0.22510770202E+03  0.27046574128E+03  0.50400001928E-02 0.  1.
</event>
<event>
 5   0  0.4987389E-02  0.6849928E+03  0.7818609E-02  0.9743246E-01
       -1   -1    0    0    0  501  0.00000000000E+00  0.00000000000E+00  0.34982417049E+03  0.34982417052E+03  0.50400001928E-02 0. -1.
        1   -1    0    0  501    0  0.00000000000E+00  0.00000000000E+00 -0.33532210631E+03  0.33532210634E+03  0.50400001928E-02 0.  1.
    10030    2    1    2    0    0  0.00000000000E+00  0.00000000000E+00  0.14502064183E+02  0.68514627687E+03  0.68499278160E+03 0.  0.
        1    1    3    3  502    0  0.30475031805E+02  0.21343262705E+03  0.27343387754E+03  0.34820726481E+03  0.50400001928E-02 0. -1.
       -1    1    3    3    0  502 -0.30475031805E+02 -0.21343262705E+03 -0.25893181336E+03  0.33693901206E+03  0.50400001928E-02 0.  1.
</event>
<event>
 5   0  0.8575590E-02  0.5996966E+03  0.7818609E-02  0.9906036E-01
       -2   -1    0    0    0  501  0.00000000000E+00  0.00000000000E+00  0.13610897597E+03  0.13610897599E+03  0.25500000920E-02 0.  1.
        2   -1    0    0  501    0  0.00000000000E+00  0.00000000000E+00 -0.66056622460E+03  0.66056622461E+03  0.25500000920E-02 0. -1.
    10030    2    1    2    0    0  0.00000000000E+00  0.00000000000E+00 -0.52445724863E+03  0.79667520060E+03  0.59969656461E+03 0.  0.
        4    1    3    3  502    0 -0.78078073340E+02 -0.12381010364E+03 -0.60987583945E+03  0.62719636458E+03  0.12699999809E+01 0. -1.
       -4    1    3    3    0  502  0.78078073340E+02  0.12381010364E+03  0.85418590818E+02  0.16947883601E+03  0.12699999809E+01 0.  1.
</event>
<event>
 5   0  0.8699746E-02  0.5978714E+03  0.7818609E-02  0.9909832E-01
       -2   -1    0    0    0  501  0.00000000000E+00  0.00000000000E+00  0.63848453869E+03  0.63848453870E+03  0.25500000920E-02 0. -1.
        2   -1    0    0  501    0  0.00000000000E+00  0.00000000000E+00 -0.13996039704E+03  0.13996039706E+03  0.25500000920E-02 0.  1.
    10030    2    1    2    0    0  0.00000000000E+00  0.00000000000E+00  0.49852414165E+03  0.77844493576E+03  0.59787138935E+03 0.  0.
        3    1    3    3  502    0 -0.13573233027E+03 -0.70984697052E+02 -0.84982456827E+02  0.17516883532E+03  0.10100000352E+00 0.  1.
       -3    1    3    3    0  502  0.13573233027E+03  0.70984697052E+02  0.58350659848E+03  0.60327610044E+03  0.10100000352E+00 0. -1.
</event>
<event>
 5   0  0.4987389E-02  0.5967798E+03  0.7818609E-02  0.9912110E-01
       -1   -1    0    0    0  501  0.00000000000E+00  0.00000000000E+00  0.78976911154E+02  0.78976911315E+02  0.50400001928E-02 0.  1.
        1   -1    0    0  501    0  0.00000000000E+00  0.00000000000E+00 -0.11273741463E+04  0.11273741463E+04  0.50400001928E-02 0. -1.
    10030    2    1    2    0    0  0.00000000000E+00  0.00000000000E+00 -0.10483972352E+04  0.12063510577E+04  0.59677978483E+03 0.  0.
        1    1    3    3  502    0  0.12166079214E+03 -0.17184593160E+03 -0.95159766753E+03  0.97461299675E+03  0.50400001928E-02 0. -1.
       -1    1    3    3    0  502 -0.12166079214E+03  0.17184593160E+03 -0.96799567642E+02  0.23173806091E+03  0.50400001928E-02 0.  1.
</event>
<event>
 5   0  0.5190380E-02  0.5910040E+03  0.7818609E-02  0.9924248E-01
       -1   -1    0    0    0  501  0.00000000000E+00  0.00000000000E+00  0.11903570142E+03  0.11903570153E+03  0.50400001928E-02 0.  1.
        1   -1    0    0  501    0  0.00000000000E+00  0.00000000000E+00 -0.73357340916E+03  0.73357340918E+03  0.50400001928E-02 0. -1.
    10030    2    1    2    0    0  0.00000000000E+00  0.00000000000E+00 -0.61453770774E+03  0.85260911071E+03  0.59100397751E+03 0.  0.
        5    1    3    3  502    0 -0.14502397697E+03  0.32424992849E+02 -0.67568329781E+03  0.69184777444E+03  0.46999998093E+01 0. -1.
       -5    1    3    3    0  502  0.14502397697E+03 -0.32424992849E+02  0.61145590069E+02  0.16076133627E+03  0.46999998093E+01 0.  1.
</event>
<event>
 5   0  0.5190380E-02  0.6079470E+03  0.7818609E-02  0.9889054E-01
        1   -1    0    0  501    0  0.00000000000E+00  0.00000000000E+00  0.68409489885E+03  0.68409489887E+03  0.50400001928E-02 0.  1.
       -1   -1    0    0    0  501  0.00000000000E+00  0.00000000000E+00 -0.13506879741E+03  0.13506879750E+03  0.50400001928E-02 0. -1.
    10030    2    1    2    0    0  0.00000000000E+00  0.00000000000E+00  0.54902610144E+03  0.81916369637E+03  0.60794695606E+03 0.  0.
        5    1    3    3  502    0  0.67159279330E+02 -0.86395440710E+02 -0.10755594376E+03  0.15350867081E+03  0.46999998093E+01 0. -1.
       -5    1    3    3    0  502 -0.67159279330E+02  0.86395440710E+02  0.65658204520E+03  0.66565502556E+03  0.46999998093E+01 0.  1.
</event>
<event>
 5   0  0.5166903E-02  0.5989239E+03  0.7818609E-02  0.9907641E-01
       -1   -1    0    0    0  501  0.00000000000E+00  0.00000000000E+00  0.19060392824E+03  0.19060392831E+03  0.50400001928E-02 0. -1.
        1   -1    0    0  501    0  0.00000000000E+00  0.00000000000E+00 -0.47049118829E+03  0.47049118831E+03  0.50400001928E-02 0.  1.
    10030    2    1    2    0    0  0.00000000000E+00  0.00000000000E+00 -0.27988726004E+03  0.66109511662E+03  0.59892393081E+03 0.  0.
        2    1    3    3  502    0 -0.12684453738E+03 -0.19667545783E+03 -0.34617116792E+03  0.41785793026E+03  0.25500000920E-02 0.  1.
       -2    1    3    3    0  502  0.12684453738E+03  0.19667545783E+03  0.66283907882E+02  0.24323718636E+03  0.25500000920E-02 0. -1.
</event>
<event>
 5   0  0.8699746E-02  0.6120478E+03  0.7818609E-02  0.9880721E-01
       -2   -1    0    0    0  501  0.00000000000E+00  0.00000000000E+00  0.10154956914E+03  0.10154956918E+03  0.25500000920E-02 0.  1.
        2   -1    0    0  501    0  0.00000000000E+00  0.00000000000E+00 -0.92221591533E+03  0.92221591533E+03  0.25500000920E-02 0. -1.
    10030    2    1    2    0    0  0.00000000000E+00  0.00000000000E+00 -0.82066634619E+03  0.10237654845E+04  0.61204780492E+03 0.  0.
        3    1    3    3  502    0  0.70166033319E+02  0.24963283458E+02  0.86160133366E+02  0.11388598042E+03  0.10100000352E+00 0.  1.
       -3    1    3    3    0  502 -0.70166033319E+02 -0.24963283458E+02 -0.90682647955E+03  0.90987950409E+03  0.10100000352E+00 0. -1.
</event>
<event>
 5   0  0.8420604E-02  0.6171942E+03  0.7818609E-02  0.9870362E-01
        2   -1    0    0  501    0  0.00000000000E+00  0.00000000000E+00  0.12873827202E+04  0.12873827202E+04  0.25500000920E-02 0.  1.
       -2   -1    0    0    0  501  0.00000000000E+00  0.00000000000E+00 -0.73973463461E+02  0.73973463505E+02  0.25500000920E-02 0. -1.
    10030    2    1    2    0    0  0.00000000000E+00  0.00000000000E+00  0.12134092567E+04  0.13613561837E+04  0.61719416279E+03 0.  0.
        2    1    3    3  502    0  0.56345001404E+02  0.27718379971E+03  0.87888110093E+03  0.92327547763E+03  0.25500000920E-02 0.  1.
       -2    1    3    3    0  502 -0.56345001404E+02 -0.27718379971E+03  0.33452815580E+03  0.43808070608E+03  0.25500000920E-02 0. -1.
</event>
<event>
 5   0  0.8699746E-02  0.6010078E+03  0.7818609E-02  0.9903317E-01
        2   -1    0    0  501    0  0.00000000000E+00  0.00000000000E+00  0.11662557925E+04  0.11662557925E+04  0.25500000920E-02 0. -1.
       -2   -1    0    0    0  501  0.00000000000E+00  0.00000000000E+00 -0.77429500662E+02  0.77429500704E+02  0.25500000920E-02 0.  1.
    10030    2    1    2    0    0  0.00000000000E+00  0.00000000000E+00  0.10888262918E+04  0.12436852932E+04  0.60100783251E+03 0.  0.
        3    1    3    3  502    0 -0.98064587774E+02 -0.53217695575E+02 -0.32978231384E+02  0.11634586561E+03  0.10100000352E+00 0.  1.
       -3    1    3    3    0  502  0.98064587774E+02  0.53217695575E+02  0.11218045232E+04  0.11273394276E+04  0.10100000352E+00 0. -1.
</event>
<event>
 5   0  0.8420604E-02  0.6042549E+03  0.7818609E-02  0.9896618E-01
        2   -1    0    0  501    0  0.00000000000E+00  0.00000000000E+00  0.84490030136E+03  0.84490030136E+03  0.25500000920E-02 0. -1.
       -2   -1    0    0    0  501  0.00000000000E+00  0.00000000000E+00 -0.10803758845E+03  0.10803758848E+03  0.25500000920E-02 0.  1.
    10030    2    1    2    0    0  0.00000000000E+00  0.00000000000E+00  0.73686271291E+03  0.95293788984E+03  0.60425488349E+03 0.  0.
        2    1    3    3  502    0 -0.87864356240E+02 -0.75688566282E+02  0.80840206502E+03  0.81667790646E+03  0.25500000920E-02 0. -1.
       -2    1    3    3    0  502  0.87864356240E+02  0.75688566282E+02 -0.71539352115E+02  0.13625998338E+03  0.25500000920E-02 0.  1.
</event>
<event>
 5   0  0.8699746E-02  0.5984929E+03  0.7818609E-02  0.9908538E-01
        2   -1    0    0  501    0  0.00000000000E+00  0.00000000000E+00  0.20553600181E+04  0.20553600181E+04  0.25500000920E-02 0.  1.
       -2   -1    0    0    0  501  0.00000000000E+00  0.00000000000E+00 -0.43568254656E+02  0.43568254731E+02  0.25500000920E-02 0. -1.
    10030    2    1    2    0    0  0.00000000000E+00  0.00000000000E+00  0.20117917635E+04  0.20989282729E+04  0.59849293650E+03 0.  0.
        3    1    3    3  502    0  0.12499262173E+03 -0.20770925939E+03  0.16211974468E+04  0.16392216030E+04  0.10100000352E+00 0.  1.
       -3    1    3    3    0  502 -0.12499262173E+03  0.20770925939E+03  0.39059431664E+03  0.45970666986E+03  0.10100000352E+00 0. -1.
</event>
<event>
 5   0  0.8817544E-02  0.5834431E+03  0.7818609E-02  0.9940364E-01
        2   -1    0    0  501    0  0.00000000000E+00  0.00000000000E+00  0.77785809285E+03  0.77785809286E+03  0.25500000920E-02 0.  1.
       -2   -1    0    0    0  501  0.00000000000E+00  0.00000000000E+00 -0.10940487503E+03  0.10940487506E+03  0.25500000920E-02 0. -1.
    10030    2    1    2    0    0  0.00000000000E+00  0.00000000000E+00  0.66845321783E+03  0.88726296791E+03  0.58344311617E+03 0.  0.
        5    1    3    3  502    0 -0.21386272903E+03 -0.15948332207E+02  0.33567591295E+02  0.21711860664E+03  0.46999998093E+01 0. -1.
       -5    1    3    3    0  502  0.21386272903E+03  0.15948332207E+02  0.63488562653E+03  0.67014436127E+03  0.46999998093E+01 0.  1.
</event>
<event>
 5   0  0.8575590E-02  0.6009679E+03  0.7818609E-02  0.9903400E-01
        2   -1    0    0  501    0  0.00000000000E+00  0.00000000000E+00  0.14901012197E+03  0.14901012200E+03  0.25500000920E-02 0. -1.
       -2   -1    0    0    0  501  0.00000000000E+00  0.00000000000E+00 -0.60593606047E+03  0.60593606047E+03  0.25500000920E-02 0.  1.
    10030    2    1    2    0    0  0.00000000000E+00  0.00000000000E+00 -0.45692593849E+03  0.75494618247E+03  0.60096790693E+03 0.  0.
        4    1    3    3  502    0 -0.12149826160E+03 -0.26474114994E+03 -0.13581502355E+03  0.32139856497E+03  0.12699999809E+01 0. -1.
       -4    1    3    3    0  502  0.12149826160E+03  0.26474114994E+03 -0.32111091495E+03  0.43354761750E+03  0.12699999809E+01 0.  1.
</event>
<event>
 5   0  0.8575590E-02  0.5956640E+03  0.7818609E-02  0.9914443E-01
       -2   -1    0    0    0  501  0.00000000000E+00  0.00000000000E+00  0.91801917839E+02  0.91801917874E+02  0.25500000920E-02 0. -1.
        2   -1    0    0  501    0  0.00000000000E+00  0.00000000000E+00 -0.96625335432E+03  0.96625335433E+03  0.25500000920E-02 0.  1.
    10030    2    1    2    0    0  0.00000000000E+00  0.00000000000E+00 -0.87445143648E+03  0.10580552722E+04  0.59566403640E+03 0.  0.
        4    1    3    3  502    0  0.22830380889E+03  0.15272882217E+03 -0.23273504247E+03  0.36002213150E+03  0.12699999809E+01 0.  1.
       -4    1    3    3    0  502 -0.22830380889E+03 -0.15272882217E+03 -0.64171639401E+03  0.69803314070E+03  0.12699999809E+01 0. -1.
</event>
<event>
 5   0  0.4987389E-02  0.6091174E+03  0.7818609E-02  0.9886669E-01
        1   -1    0    0  501    0  0.00000000000E+00  0.00000000000E+00  0.39359391340E+03  0.39359391343E+03  0.50400001928E-02 0.  1.
       -1   -1    0    0    0  501  0.00000000000E+00  0.00000000000E+00 -0.23566419479E+03  0.23566419484E+03  0.50400001928E-02 0. -1.
    10030    2    1    2    0    0  0.00000000000E+00  0.00000000000E+00  0.15792971861E+03  0.62925810828E+03  0.60911737031E+03 0.  0.
        1    1    3    3  502    0 -0.69602908463E+02 -0.26383147617E+03  0.21873208584E+03  0.34970750361E+03  0.50400001928E-02 0.  1.
       -1    1    3    3    0  502  0.69602908463E+02  0.26383147617E+03 -0.60802367225E+02  0.27955060466E+03  0.50400001928E-02 0. -1.
</event>
<event>
 5   0  0.8420604E-02  0.6565552E+03  0.7818609E-02  0.9794556E-01
        2   -1    0    0  501    0  0.00000000000E+00  0.00000000000E+00  0.85958337771E+03  0.85958337772E+03  0.25500000920E-02 0.  1.
       -2   -1    0    0    0  501  0.00000000000E+00  0.00000000000E+00 -0.12537025159E+03  0.12537025162E+03  0.25500000920E-02 0. -1.
    10030    2    1    2    0    0  0.00000000000E+00  0.00000000000E+00  0.73421312612E+03  0.98495362934E+03  0.65655520512E+03 0.  0.
        2    1    3    3  502    0 -0.90733669106E+02 -0.30769444131E+03  0.26254775714E+03  0.41453563503E+03  0.25500000920E-02 0. -1.
       -2    1    3    3    0  502  0.90733669106E+02  0.30769444131E+03  0.47166536899E+03  0.57041799431E+03  0.25500000920E-02 0.  1.
</event>
<event>
 5   0  0.5190380E-02  0.6023496E+03  0.7818609E-02  0.9900543E-01
       -1   -1    0    0    0  501  0.00000000000E+00  0.00000000000E+00  0.35347455608E+03  0.35347455611E+03  0.50400001928E-02 0. -1.
        1   -1    0    0  501    0  0.00000000000E+00  0.00000000000E+00 -0.25661324314E+03  0.25661324319E+03  0.50400001928E-02 0.  1.
    10030    2    1    2    0    0  0.00000000000E+00  0.00000000000E+00  0.96861312937E+02  0.61008779930E+03  0.60234957368E+03 0.  0.
        5    1    3    3  502    0 -0.13664939037E+03  0.84392202523E+02 -0.20957515148E+03  0.26408130159E+03  0.46999998093E+01 0.  1.
       -5    1    3    3    0  502  0.13664939037E+03 -0.84392202523E+02  0.30643646442E+03  0.34600649771E+03  0.46999998093E+01 0. -1.
</event>
<event>
 5   0  0.5125031E-02  0.6009480E+03  0.7818609E-02  0.9903441E-01
        1   -1    0    0  501    0  0.00000000000E+00  0.00000000000E+00  0.25694804142E+03  0.25694804147E+03  0.50400001928E-02 0. -1.
       -1   -1    0    0    0  501  0.00000000000E+00  0.00000000000E+00 -0.35137305255E+03  0.35137305258E+03  0.50400001928E-02 0.  1.
    10030    2    1    2    0    0  0.00000000000E+00  0.00000000000E+00 -0.94425011129E+02  0.60832109405E+03  0.60094797673E+03 0.  0.
        4    1    3    3  502    0 -0.73589084959E+00  0.28473120778E+03  0.49936871558E+02  0.28908079538E+03  0.12699999809E+01 0. -1.
       -4    1    3    3    0  502  0.73589084959E+00 -0.28473120778E+03 -0.14436188269E+03  0.31924029867E+03  0.12699999809E+01 0.  1.
</event>
<event>
 5   0  0.4881209E-02  0.5964392E+03  0.7818609E-02  0.9912821E-01
       -1   -1    0    0    0  501  0.00000000000E+00  0.00000000000E+00  0.94045328241E+02  0.94045328376E+02  0.50400001928E-02 0. -1.
        1   -1    0    0  501    0  0.00000000000E+00  0.00000000000E+00 -0.94566028207E+03  0.94566028209E+03  0.50400001928E-02 0.  1.
    10030    2    1    2    0    0  0.00000000000E+00  0.00000000000E+00 -0.85161495383E+03  0.10397056105E+04  0.59643920632E+03 0.  0.
        3    1    3    3  502    0 -0.26511929878E+03 -0.11056044016E+03 -0.28610134652E+03  0.40542057693E+03  0.10100000352E+00 0. -1.
       -3    1    3    3    0  502  0.26511929878E+03  0.11056044016E+03 -0.56551360731E+03  0.63428503354E+03  0.10100000352E+00 0.  1.
</event>
<event>
 5   0  0.8207443E-02  0.5955098E+03  0.7818609E-02  0.9914766E-01
        2   -1    0    0  501    0  0.00000000000E+00  0.00000000000E+00  0.65031452883E+03  0.65031452883E+03  0.25500000920E-02 0.  1.
       -2   -1    0    0    0  501  0.00000000000E+00  0.00000000000E+00 -0.13633091228E+03  0.13633091230E+03  0.25500000920E-02 0. -1.
    10030    2    1    2    0    0  0.00000000000E+00  0.00000000000E+00  0.51398361655E+03  0.78664544113E+03  0.59550977487E+03 0.  0.
        1    1    3    3  502    0  0.13586830848E+03 -0.25245562891E+03  0.36319522687E+03  0.46271461471E+03  0.50400001928E-02 0. -1.
       -1    1    3    3    0  502 -0.13586830848E+03  0.25245562891E+03  0.15078838968E+03  0.32393082642E+03  0.50400001928E-02 0.  1.
</event>
<event>
 5   0  0.8699746E-02  0.6055267E+03  0.7818609E-02  0.9894006E-01
        2   -1    0    0  501    0  0.00000000000E+00  0.00000000000E+00  0.81121952772E+03  0.81121952773E+03  0.25500000920E-02 0. -1.
       -2   -1    0    0    0  501  0.00000000000E+00  0.00000000000E+00 -0.11299734828E+03  0.11299734831E+03  0.25500000920E-02 0.  1.
    10030    2    1    2    0    0  0.00000000000E+00  0.00000000000E+00  0.69822217945E+03  0.92421687603E+03  0.60552673110E+03 0.  0.
        3    1    3    3  502    0  0.52757610649E+01 -0.19393403836E+03  0.70388167977E+03  0.73012853266E+03  0.10100000352E+00 0. -1.
       -3    1    3    3    0  502 -0.52757610649E+01  0.19393403836E+03 -0.56595003216E+01  0.19408834337E+03  0.10100000352E+00 0.  1.
</event>
<event>
 5   0  0.8817544E-02  0.5987497E+03  0.7818609E-02  0.9908003E-01
       -2   -1    0    0    0  501  0.00000000000E+00  0.00000000000E+00  0.10323824074E+03  0.10323824077E+03  0.25500000920E-02 0. -1.
        2   -1    0    0  501    0  0.00000000000E+00  0.00000000000E+00 -0.86814062693E+03  0.86814062693E+03  0.25500000920E-02 0.  1.
    10030    2    1    2    0    0  0.00000000000E+00  0.00000000000E+00 -0.76490238619E+03  0.97137886771E+03  0.59874973422E+03 0.  0.
        5    1    3    3  502    0 -0.43251030590E+02 -0.12653532266E+03 -0.81692904322E+03  0.82781458744E+03  0.46999998093E+01 0.  1.
       -5    1    3    3    0  502  0.43251030590E+02  0.12653532266E+03  0.52026657030E+02  0.14356428027E+03  0.46999998093E+01 0. -1.
</event>
<event>
 5   0  0.5190380E-02  0.5969075E+03  0.7818609E-02  0.9911843E-01
       -1   -1    0    0    0  501  0.00000000000E+00  0.00000000000E+00  0.19073107443E+03  0.19073107449E+03  0.50400001928E-02 0. -1.
        1   -1    0    0  501    0  0.00000000000E+00  0.00000000000E+00 -0.46701697161E+03  0.46701697163E+03  0.50400001928E-02 0.  1.
    10030    2    1    2    0    0  0.00000000000E+00  0.00000000000E+00 -0.27628589718E+03  0.65774804613E+03  0.59690752651E+03 0.  0.
        5    1    3    3  502    0  0.13695069709E+03 -0.10376905491E+03  0.13071134871E+03  0.21594225355E+03  0.46999998093E+01 0. -1.
       -5    1    3    3    0  502 -0.13695069709E+03  0.10376905491E+03 -0.40699724589E+03  0.44180579257E+03  0.46999998093E+01 0.  1.
</event>
<event>
 5   0  0.8699746E-02  0.5968505E+03  0.7818609E-02  0.9911962E-01
        2   -1    0    0  501    0  0.00000000000E+00  0.00000000000E+00  0.26508094949E+03  0.26508094950E+03  0.25500000920E-02 0. -1.
       -2   -1    0    0    0  501  0.00000000000E+00  0.00000000000E+00 -0.33596394892E+03  0.33596394893E+03  0.25500000920E-02 0.  1.
    10030    2    1    2    0    0  0.00000000000E+00  0.00000000000E+00 -0.70882999433E+02  0.60104489843E+03  0.59685054270E+03 0.  0.
        3    1    3    3  502    0 -0.10694618804E+03  0.54296648438E+02  0.23974065684E+03  0.26806940503E+03  0.10100000352E+00 0. -1.
       -3    1    3    3    0  502  0.10694618804E+03 -0.54296648438E+02 -0.31062365627E+03  0.33297549340E+03  0.10100000352E+00 0.  1.
</event>
<event>
 5   0  0.8575590E-02  0.5991848E+03  0.7818609E-02  0.9907099E-01
       -2   -1    0    0    0  501  0.00000000000E+00  0.00000000000E+00  0.39003204608E+02  0.39003204692E+02  0.25500000920E-02 0.  1.
        2   -1    0    0  501    0  0.00000000000E+00  0.00000000000E+00 -0.23012368257E+04  0.23012368257E+04  0.25500000920E-02 0. -1.
    10030    2    1    2    0    0  0.00000000000E+00  0.00000000000E+00 -0.22622336211E+04  0.23402400304E+04  0.59918481578E+03 0.  0.
        4    1    3    3  502    0  0.17369637450E+03 -0.40328240027E+02 -0.19084524174E+03  0.26119019249E+03  0.12699999809E+01 0.  1.
       -4    1    3    3    0  502 -0.17369637450E+03  0.40328240027E+02 -0.20713883794E+04  0.20790498379E+04  0.12699999809E+01 0. -1.
</event>
<event>
 5   0  0.8817544E-02  0.5984592E+03  0.7818609E-02  0.9908608E-01
       -2   -1    0    0    0  501  0.00000000000E+00  0.00000000000E+00  0.60208708090E+02  0.60208708144E+02  0.25500000920E-02 0. -1.
        2   -1    0    0  501    0  0.00000000000E+00  0.00000000000E+00 -0.14871330346E+04  0.14871330346E+04  0.25500000920E-02 0.  1.
    10030    2    1    2    0    0  0.00000000000E+00  0.00000000000E+00 -0.14269243265E+04  0.15473417427E+04  0.59845921770E+03 0.  0.
        5    1    3    3  502    0  0.25130456375E+03 -0.14527547533E+03 -0.52599122980E+03  0.60078932358E+03  0.46999998093E+01 0. -1.
       -5    1    3    3    0  502 -0.25130456375E+03  0.14527547533E+03 -0.90093309667E+03  0.94655241913E+03  0.46999998093E+01 0.  1.
</event>
<event>
 5   0  0.4881209E-02  0.5990596E+03  0.7818609E-02  0.9907359E-01
       -1   -1    0    0    0  501  0.00000000000E+00  0.00000000000E+00  0.13149658365E+03  0.13149658375E+03  0.50400001928E-02 0.  1.
        1   -1    0    0  501    0  0.00000000000E+00  0.00000000000E+00 -0.68228462314E+03  0.68228462316E+03  0.50400001928E-02 0. -1.
    10030    2    1    2    0    0  0.00000000000E+00  0.00000000000E+00 -0.55078803948E+03  0.81378120691E+03  0.59905958658E+03 0.  0.
        3    1    3    3  502    0  0.29719773907E+03 -0.34114847925E+02 -0.25489260176E+03  0.39301471676E+03  0.10100000352E+00 0. -1.
       -3    1    3    3    0  502 -0.29719773907E+03  0.34114847925E+02 -0.29589543773E+03  0.42076649014E+03  0.10100000352E+00 0.  1.
</event>
<event>
 5   0  0.8699746E-02  0.5962908E+03  0.7818609E-02  0.9913131E-01
        2   -1    0    0  501    0  0.00000000000E+00  0.00000000000E+00  0.42909104226E+03  0.42909104227E+03  0.25500000920E-02 0.  1.
       -2   -1    0    0    0  501  0.00000000000E+00  0.00000000000E+00 -0.20716041155E+03  0.20716041157E+03  0.25500000920E-02 0. -1.
    10030    2    1    2    0    0  0.00000000000E+00  0.00000000000E+00  0.22193063071E+03  0.63625145384E+03  0.59629079119E+03 0.  0.
        3    1    3    3  502    0  0.16675659398E+03  0.10709871602E+03 -0.12670088526E+03  0.23522546872E+03  0.10100000352E+00 0. -1.
       -3    1    3    3    0  502 -0.16675659398E+03 -0.10709871602E+03  0.34863151597E+03  0.40102598512E+03  0.10100000352E+00 0.  1.
</event>
<event>
 5   0  0.8207443E-02  0.5989516E+03  0.7818609E-02  0.9907583E-01
        2   -1    0    0  501    0  0.00000000000E+00  0.00000000000E+00  0.27863800562E+03  0.27863800564E+03  0.25500000920E-02 0.  1.
       -2   -1    0    0    0  501  0.00000000000E+00  0.00000000000E+00 -0.32187197450E+03  0.32187197451E+03  0.25500000920E-02 0. -1.
    10030    2    1    2    0    0  0.00000000000E+00  0.00000000000E+00 -0.43233968879E+02  0.60050998015E+03  0.59895163427E+03 0.  0.
        1    1    3    3  502    0  0.48498624096E+02 -0.13499835071E+03 -0.28518704381E+03  0.31923082748E+03  0.50400001928E-02 0. -1.
       -1    1    3    3    0  502 -0.48498624096E+02  0.13499835071E+03  0.24195307493E+03  0.28127915267E+03  0.50400001928E-02 0.  1.
</event>
<event>
 5   0  0.8575590E-02  0.5852452E+03  0.7818609E-02  0.9936499E-01
        2   -1    0    0  501    0  0.00000000000E+00  0.00000000000E+00  0.95812466296E+03  0.95812466296E+03  0.25500000920E-02 0. -1.
       -2   -1    0    0    0  501  0.00000000000E+00  0.00000000000E+00 -0.89370391699E+02  0.89370391736E+02  0.25500000920E-02 0.  1.
    10030    2    1    2    0    0  0.00000000000E+00  0.00000000000E+00  0.86875427126E+03  0.10474950547E+04  0.58524516725E+03 0.  0.
        4    1    3    3  502    0 -0.82248481076E+02  0.79568379864E+02 -0.47653069307E+02  0.12396922049E+03  0.12699999809E+01 0.  1.
       -4    1    3    3    0  502  0.82248481076E+02 -0.79568379864E+02  0.91640734057E+03  0.92352583421E+03  0.12699999809E+01 0. -1.
</event>
<event>
 5   0  0.8207443E-02  0.6030169E+03  0.7818609E-02  0.9899167E-01
        2   -1    0    0  501    0  0.00000000000E+00  0.00000000000E+00  0.11287738161E+04  0.11287738161E+04  0.25500000920E-02 0. -1.
       -2   -1    0    0    0  501  0.00000000000E+00  0.00000000000E+00 -0.80536359136E+02  0.80536359176E+02  0.25500000920E-02 0.  1.
    10030    2    1    2    0    0  0.00000000000E+00  0.00000000000E+00  0.10482374570E+04  0.12093101753E+04  0.60301686035E+03 0.  0.
        1    1    3    3  502    0  0.19389280051E+03 -0.23051804941E+03  0.49763908949E+03  0.58170237459E+03  0.50400001928E-02 0.  1.
       -1    1    3    3    0  502 -0.19389280051E+03  0.23051804941E+03  0.55059836752E+03  0.62760780073E+03  0.50400001928E-02 0. -1.
</event>
<event>
 5   0  0.8699746E-02  0.5819206E+03  0.7818609E-02  0.9943642E-01
       -2   -1    0    0    0  501  0.00000000000E+00  0.00000000000E+00  0.45086198111E+02  0.45086198183E+02  0.25500000920E-02 0.  1.
        2   -1    0    0  501    0  0.00000000000E+00  0.00000000000E+00 -0.18776895766E+04  0.18776895766E+04  0.25500000920E-02 0. -1.
    10030    2    1    2    0    0  0.00000000000E+00  0.00000000000E+00 -0.18326033785E+04  0.19227757748E+04  0.58192055922E+03 0.  0.
        3    1    3    3  502    0 -0.11723534444E+03  0.32488903982E+02 -0.42981106022E+02  0.12902341083E+03  0.10100000352E+00 0.  1.
       -3    1    3    3    0  502  0.11723534444E+03 -0.32488903982E+02 -0.17896222725E+04  0.17937523639E+04  0.10100000352E+00 0. -1.
</event>
<event>
 5   0  0.8420604E-02  0.6241882E+03  0.7818609E-02  0.9856456E-01
       -2   -1    0    0    0  501  0.00000000000E+00  0.00000000000E+00  0.47133304454E+03  0.47133304454E+03  0.25500000920E-02 0. -1.
        2   -1    0    0  501    0  0.00000000000E+00  0.00000000000E+00 -0.20665370429E+03  0.20665370431E+03  0.25500000920E-02 0.  1.
    10030    2    1    2    0    0  0.00000000000E+00  0.00000000000E+00  0.26467934024E+03  0.67798674885E+03  0.62418817552E+03 0.  0.
        2    1    3    3  502    0  0.79639189519E+01  0.68722621387E+02  0.46289932293E+03  0.46804060280E+03  0.25500000920E-02 0. -1.
       -2    1    3    3    0  502 -0.79639189519E+01 -0.68722621387E+02 -0.19821998269E+03  0.20994614604E+03  0.25500000920E-02 0.  1.
</event>
<event>
 5   0  0.8207443E-02  0.6006017E+03  0.7818609E-02  0.9904159E-01
        2   -1    0    0  501    0  0.00000000000E+00  0.00000000000E+00  0.76794985007E+03  0.76794985008E+03  0.25500000920E-02 0.  1.
       -2   -1    0    0    0  501  0.00000000000E+00  0.00000000000E+00 -0.11743031523E+03  0.11743031526E+03  0.25500000920E-02 0. -1.
    10030    2    1    2    0    0  0.00000000000E+00  0.00000000000E+00  0.65051953484E+03  0.88538016534E+03  0.60060167496E+03 0.  0.
        1    1    3    3  502    0  0.24911994571E+03  0.46130554785E+02  0.56292276706E+03  0.61730933667E+03  0.50400001928E-02 0.  1.
       -1    1    3    3    0  502 -0.24911994571E+03 -0.46130554785E+02  0.87596767781E+02  0.26807082867E+03  0.50400001928E-02 0. -1.
</event>
<event>
 5   0  0.8420604E-02  0.5935789E+03  0.7818609E-02  0.9918818E-01
        2   -1    0    0  501    0  0.00000000000E+00  0.00000000000E+00  0.14884223628E+04  0.14884223628E+04  0.25500000920E-02 0. -1.
       -2   -1    0    0    0  501  0.00000000000E+00  0.00000000000E+00 -0.59179430631E+02  0.59179430686E+02  0.25500000920E-02 0.  1.
    10030    2    1    2    0    0  0.00000000000E+00  0.00000000000E+00  0.14292429322E+04  0.15476017935E+04  0.59357893498E+03 0.  0.
        2    1    3    3  502    0  0.43419368225E+02  0.13742147196E+03  0.38174553117E+02  0.14908789020E+03  0.25500000920E-02 0.  1.
       -2    1    3    3    0  502 -0.43419368225E+02 -0.13742147196E+03  0.13910683791E+04  0.13985139033E+04  0.25500000920E-02 0. -1.
</event>
<event>
 5   0  0.5125031E-02  0.5779016E+03  0.7818609E-02  0.9952344E-01
        1   -1    0    0  501    0  0.00000000000E+00  0.00000000000E+00  0.94010521879E+03  0.94010521881E+03  0.50400001928E-02 0. -1.
       -1   -1    0    0    0  501  0.00000000000E+00  0.00000000000E+00 -0.88811939219E+02  0.88811939362E+02  0.50400001928E-02 0.  1.
    10030    2    1    2    0    0  0.00000000000E+00  0.00000000000E+00  0.85129327957E+03  0.10289171582E+04  0.57790160973E+03 0.  0.
        4    1    3    3  502    0  0.48799233940E+02  0.14425300643E+03  0.86285407281E+03  0.87619008153E+03  0.12699999809E+01 0. -1.
       -4    1    3    3    0  502 -0.48799233940E+02 -0.14425300643E+03 -0.11560793242E+02  0.15272707664E+03  0.12699999809E+01 0.  1.
</event>
<event>
 5   0  0.5166903E-02  0.6064296E+03  0.7818609E-02  0.9892156E-01
       -1   -1    0    0    0  501  0.00000000000E+00  0.00000000000E+00  0.51506360583E+02  0.51506360829E+02  0.50400001928E-02 0.  1.
        1   -1    0    0  501    0  0.00000000000E+00  0.00000000000E+00 -0.17850072317E+04  0.17850072317E+04  0.50400001928E-02 0. -1.
    10030    2    1    2    0    0  0.00000000000E+00  0.00000000000E+00 -0.17335008711E+04  0.18365135926E+04  0.60642963764E+03 0.  0.
        2    1    3    3  502    0  0.23614109478E+03  0.11182423292E+03 -0.40080962362E+03  0.47845128289E+03  0.25500000920E-02 0.  1.
       -2    1    3    3    0  502 -0.23614109478E+03 -0.11182423292E+03 -0.13326912475E+04  0.13580623097E+04  0.25500000920E-02 0. -1.
</event>
<event>
 5   0  0.5125031E-02  0.5973136E+03  0.7818609E-02  0.9910995E-01
        1   -1    0    0  501    0  0.00000000000E+00  0.00000000000E+00  0.24874642360E+03  0.24874642365E+03  0.50400001928E-02 0.  1.
       -1   -1    0    0    0  501  0.00000000000E+00  0.00000000000E+00 -0.35858157365E+03  0.35858157369E+03  0.50400001928E-02 0. -1.
    10030    2    1    2    0    0  0.00000000000E+00  0.00000000000E+00 -0.10983515006E+03  0.60732799734E+03  0.59731359951E+03 0.  0.
        4    1    3    3  502    0  0.24263821436E+03 -0.10878101287E+03  0.83331382168E+02  0.27866170168E+03  0.12699999809E+01 0.  1.
       -4    1    3    3    0  502 -0.24263821436E+03  0.10878101287E+03 -0.19316653222E+03  0.32866629566E+03  0.12699999809E+01 0. -1.
</event>
<event>
 5   0  0.3437375E-02  0.6004596E+03  0.7818609E-02  0.9904453E-01
       -3   -1    0    0    0  501  0.00000000000E+00  0.00000000000E+00  0.11751678112E+03  0.11751682453E+03  0.10100000352E+00 0.  1.
        3   -1    0    0  501    0  0.00000000000E+00  0.00000000000E+00 -0.76702166631E+03  0.76702167296E+03  0.10100000352E+00 0. -1.
    10030    2    1    2    0    0  0.00000000000E+00  0.00000000000E+00 -0.64950488519E+03  0.88453849749E+03  0.60045962200E+03 0.  0.
        3    1    3    3  502    0 -0.95598559405E+01 -0.29761519757E+03 -0.38126531438E+03  0.48376590085E+03  0.10100000352E+00 0.  1.
       -3    1    3    3    0  502  0.95598559405E+01  0.29761519757E+03 -0.26823957080E+03  0.40077259664E+03  0.10100000352E+00 0. -1.
</event>
<event>
 5   0  0.5190380E-02  0.6030741E+03  0.7818609E-02  0.9899049E-01
        1   -1    0    0  501    0  0.00000000000E+00  0.00000000000E+00  0.24658443557E+03  0.24658443562E+03  0.50400001928E-02 0.  1.
       -1   -1    0    0    0  501  0.00000000000E+00  0.00000000000E+00 -0.36873611318E+03  0.36873611321E+03  0.50400001928E-02 0. -1.
    10030    2    1    2    0    0  0.00000000000E+00  0.00000000000E+00 -0.12215167761E+03  0.61532054883E+03  0.60307407959E+03 0.  0.
        5    1    3    3  502    0 -0.17840410997E+03 -0.18182185144E+03 -0.22564370718E+03  0.34032981753E+03  0.46999998093E+01 0. -1.
       -5    1    3    3    0  502  0.17840410997E+03  0.18182185144E+03  0.10349202957E+03  0.27499073130E+03  0.46999998093E+01 0.  1.
</event>
<event>
 5   0  0.8699746E-02  0.6179021E+03  0.7818609E-02  0.9868945E-01
        2   -1    0    0  501    0  0.00000000000E+00  0.00000000000E+00  0.76281387527E+03  0.76281387528E+03  0.25500000920E-02 0.  1.
       -2   -1    0    0    0  501  0.00000000000E+00  0.00000000000E+00 -0.12512982234E+03  0.12512982237E+03  0.25500000920E-02 0. -1.
    10030    2    1    2    0    0  0.00000000000E+00  0.00000000000E+00  0.63768405293E+03  0.88794369765E+03  0.61790214341E+03 0.  0.
        3    1    3    3  502    0 -0.25123268532E+03 -0.11927182620E+03  0.12547141839E+03  0.30510115984E+03  0.10100000352E+00 0.  1.
       -3    1    3    3    0  502  0.25123268532E+03  0.11927182620E+03  0.51221263454E+03  0.58284253781E+03  0.10100000352E+00 0. -1.
</event>
<event>
 5   0  0.5190380E-02  0.6021463E+03  0.7818609E-02  0.9900963E-01
       -1   -1    0    0    0  501  0.00000000000E+00  0.00000000000E+00  0.16411395609E+03  0.16411395617E+03  0.50400001928E-02 0.  1.
        1   -1    0    0  501    0  0.00000000000E+00  0.00000000000E+00 -0.55232984459E+03  0.55232984462E+03  0.50400001928E-02 0. -1.
    10030    2    1    2    0    0  0.00000000000E+00  0.00000000000E+00 -0.38821588850E+03  0.71644380078E+03  0.60214628090E+03 0.  0.
        5    1    3    3  502    0 -0.14441588980E+02  0.65271521906E+02 -0.54334304028E+03  0.54746020904E+03  0.46999998093E+01 0. -1.
       -5    1    3    3    0  502  0.14441588980E+02 -0.65271521906E+02  0.15512715177E+03  0.16898359175E+03  0.46999998093E+01 0.  1.
</event>
<event>
 5   0  0.8699746E-02  0.6070103E+03  0.7818609E-02  0.9890968E-01
        2   -1    0    0  501    0  0.00000000000E+00  0.00000000000E+00  0.95238760493E+02  0.95238760527E+02  0.25500000920E-02 0.  1.
       -2   -1    0    0    0  501  0.00000000000E+00  0.00000000000E+00 -0.96720478859E+03  0.96720478859E+03  0.25500000920E-02 0. -1.
    10030    2    1    2    0    0  0.00000000000E+00  0.00000000000E+00 -0.87196602810E+03  0.10624435491E+04  0.60701033015E+03 0.  0.
        3    1    3    3  502    0 -0.14492110719E+03 -0.26585071758E+03 -0.39940893750E+03  0.50120478939E+03  0.10100000352E+00 0.  1.
       -3    1    3    3    0  502  0.14492110719E+03  0.26585071758E+03 -0.47255709059E+03  0.56123875973E+03  0.10100000352E+00 0. -1.
</event>
<event>
 5   0  0.4881209E-02  0.5973268E+03  0.7818609E-02  0.9910968E-01
       -1   -1    0    0    0  501  0.00000000000E+00  0.00000000000E+00  0.18470065591E+03  0.18470065598E+03  0.50400001928E-02 0.  1.
        1   -1    0    0  501    0  0.00000000000E+00  0.00000000000E+00 -0.48294259509E+03  0.48294259512E+03  0.50400001928E-02 0. -1.
    10030    2    1    2    0    0  0.00000000000E+00  0.00000000000E+00 -0.29824193917E+03  0.66764325110E+03  0.59732675853E+03 0.  0.
        3    1    3    3  502    0  0.18653718223E+03 -0.19280191890E+03 -0.24010635997E+01  0.26828059116E+03  0.10100000352E+00 0.  1.
       -3    1    3    3    0  502 -0.18653718223E+03  0.19280191890E+03 -0.29584087558E+03  0.39936265993E+03  0.10100000352E+00 0. -1.
</event>
<event>
 5   0  0.5166903E-02  0.6032797E+03  0.7818609E-02  0.9898625E-01
       -1   -1    0    0    0  501  0.00000000000E+00  0.00000000000E+00  0.19939571942E+03  0.19939571948E+03  0.50400001928E-02 0. -1.
        1   -1    0    0  501    0  0.00000000000E+00  0.00000000000E+00 -0.45631175211E+03  0.45631175214E+03  0.50400001928E-02 0.  1.
    10030    2    1    2    0    0  0.00000000000E+00  0.00000000000E+00 -0.25691603269E+03  0.65570747162E+03  0.60327973651E+03 0.  0.
        2    1    3    3  502    0  0.12021354078E+03 -0.21302091128E+03  0.63396506375E+02  0.25268225315E+03  0.25500000920E-02 0. -1.
       -2    1    3    3    0  502 -0.12021354078E+03  0.21302091128E+03 -0.32031253907E+03  0.40302521847E+03  0.25500000920E-02 0.  1.
</event>
<event>
 5   0  0.5190380E-02  0.5966648E+03  0.7818609E-02  0.9912350E-01
       -1   -1    0    0    0  501  0.00000000000E+00  0.00000000000E+00  0.83357985530E+02  0.83357985683E+02  0.50400001928E-02 0.  1.
        1   -1    0    0  501    0  0.00000000000E+00  0.00000000000E+00 -0.10677107418E+04  0.10677107418E+04  0.50400001928E-02 0. -1.
    10030    2    1    2    0    0  0.00000000000E+00  0.00000000000E+00 -0.98435275623E+03  0.11510687275E+04  0.59666478581E+03 0.  0.
        5    1    3    3  502    0  0.27835140220E+03 -0.54311748674E+02 -0.67056850459E+03  0.72808892211E+03  0.46999998093E+01 0.  1.
       -5    1    3    3    0  502 -0.27835140220E+03  0.54311748674E+02 -0.31378425163E+03  0.42297980534E+03  0.46999998093E+01 0. -1.
</event>
<event>
 5   0  0.8575590E-02  0.5971007E+03  0.7818609E-02  0.9911440E-01
        2   -1    0    0  501    0  0.00000000000E+00  0.00000000000E+00  0.12818964290E+04  0.12818964290E+04  0.25500000920E-02 0. -1.
       -2   -1    0    0    0  501  0.00000000000E+00  0.00000000000E+00 -0.69531592396E+02  0.69531592442E+02  0.25500000920E-02 0.  1.
    10030    2    1    2    0    0  0.00000000000E+00  0.00000000000E+00  0.12123648366E+04  0.13514280214E+04  0.59710066161E+03 0.  0.
        4    1    3    3  502    0  0.25549600206E+03  0.26647902574E+02  0.26187270279E+03  0.36683408122E+03  0.12699999809E+01 0.  1.
       -4    1    3    3    0  502 -0.25549600206E+03 -0.26647902574E+02  0.95049213377E+03  0.98459394018E+03  0.12699999809E+01 0. -1.
</event>
<event>
 5   0  0.8575590E-02  0.5986062E+03  0.7818609E-02  0.9908302E-01
        2   -1    0    0  501    0  0.00000000000E+00  0.00000000000E+00  0.16010792202E+04  0.16010792202E+04  0.25500000920E-02 0. -1.
       -2   -1    0    0    0  501  0.00000000000E+00  0.00000000000E+00 -0.55951226350E+02  0.55951226408E+02  0.25500000920E-02 0.  1.
    10030    2    1    2    0    0  0.00000000000E+00  0.00000000000E+00  0.15451279939E+04  0.16570304466E+04  0.59860620079E+03 0.  0.
        4    1    3    3  502    0 -0.58603969145E+02 -0.34712909389E+02  0.15793322208E+04  0.15808008375E+04  0.12699999809E+01 0. -1.
       -4    1    3    3    0  502  0.58603969145E+02  0.34712909389E+02 -0.34204226889E+02  0.76229609174E+02  0.12699999809E+01 0.  1.
</event>
<event>
 5   0  0.8699746E-02  0.5948754E+03  0.7818609E-02  0.9916095E-01
       -2   -1    0    0    0  501  0.00000000000E+00  0.00000000000E+00  0.12793867893E+03  0.12793867896E+03  0.25500000920E-02 0.  1.
        2   -1    0    0  501    0  0.00000000000E+00  0.00000000000E+00 -0.69149677834E+03  0.69149677834E+03  0.25500000920E-02 0. -1.
    10030    2    1    2    0    0  0.00000000000E+00  0.00000000000E+00 -0.56355809940E+03  0.81943545730E+03  0.59487539643E+03 0.  0.
        3    1    3    3  502    0 -0.40436256994E+01 -0.26255147641E+02  0.12630130545E+03  0.12906476531E+03  0.10100000352E+00 0.  1.
       -3    1    3    3    0  502  0.40436256994E+01  0.26255147641E+02 -0.68985940485E+03  0.69037069199E+03  0.10100000352E+00 0. -1.
</event>
<event>
 5   0  0.3437375E-02  0.6762353E+03  0.7818609E-02  0.9758759E-01
       -3   -1    0    0    0  501  0.00000000000E+00  0.00000000000E+00  0.20831457278E+03  0.20831459727E+03  0.10100000352E+00 0. -1.
        3   -1    0    0  501    0  0.00000000000E+00  0.00000000000E+00 -0.54880243244E+03  0.54880244173E+03  0.10100000352E+00 0.  1.
    10030    2    1    2    0    0  0.00000000000E+00  0.00000000000E+00 -0.34048785965E+03  0.75711703900E+03  0.67623533490E+03 0.  0.
        5    1    3    3  502    0  0.11147696677E+03  0.13516371155E+03  0.15348507178E+03  0.23297231659E+03  0.46999998093E+01 0. -1.
       -5    1    3    3    0  502 -0.11147696677E+03 -0.13516371155E+03 -0.49397293143E+03  0.52414472241E+03  0.46999998093E+01 0.  1.
</event>
<event>
 5   0  0.5125031E-02  0.5778495E+03  0.7818609E-02  0.9952458E-01
        1   -1    0    0  501    0  0.00000000000E+00  0.00000000000E+00  0.62048308479E+03  0.62048308481E+03  0.50400001928E-02 0.  1.
       -1   -1    0    0    0  501  0.00000000000E+00  0.00000000000E+00 -0.13453629877E+03  0.13453629886E+03  0.50400001928E-02 0. -1.
    10030    2    1    2    0    0  0.00000000000E+00  0.00000000000E+00  0.48594678603E+03  0.75501938368E+03  0.57784945347E+03 0.  0.
        4    1    3    3  502    0 -0.50472259907E+02 -0.14193638296E+03 -0.79157717934E+02  0.17017914983E+03  0.12699999809E+01 0. -1.
       -4    1    3    3    0  502  0.50472259907E+02  0.14193638296E+03  0.56510450396E+03  0.58484023385E+03  0.12699999809E+01 0.  1.
</event>
<event>
 5   0  0.8575590E-02  0.6006002E+03  0.7818609E-02  0.9904162E-01
        2   -1    0    0  501    0  0.00000000000E+00  0.00000000000E+00  0.10169332464E+04  0.10169332464E+04  0.25500000920E-02 0.  1.
       -2   -1    0    0    0  501  0.00000000000E+00  0.00000000000E+00 -0.88678529473E+02  0.88678529509E+02  0.25500000920E-02 0. -1.
    10030    2    1    2    0    0  0.00000000000E+00  0.00000000000E+00  0.92825471696E+03  0.11056117759E+04  0.60060018278E+03 0.  0.
        4    1    3    3  502    0  0.11874569291E+03  0.27457313861E+03  0.51239766582E+03  0.59333289886E+03  0.12699999809E+01 0.  1.
       -4    1    3    3    0  502 -0.11874569291E+03 -0.27457313861E+03  0.41585705114E+03  0.51227887709E+03  0.12699999809E+01 0. -1.
</event>
<event>
 5   0  0.5125031E-02  0.6792530E+03  0.7818609E-02  0.9753385E-01
       -1   -1    0    0    0  501  0.00000000000E+00  0.00000000000E+00  0.82381750870E+02  0.82381751025E+02  0.50400001928E-02 0. -1.
        1   -1    0    0  501    0  0.00000000000E+00  0.00000000000E+00 -0.14001421248E+04  0.14001421248E+04  0.50400001928E-02 0.  1.
    10030    2    1    2    0    0  0.00000000000E+00  0.00000000000E+00 -0.13177603739E+04  0.14825238758E+04  0.67925300096E+03 0.  0.
        4    1    3    3  502    0 -0.28634463600E+03  0.18242759940E+03 -0.67733135757E+03  0.75766249771E+03  0.12699999809E+01 0. -1.
       -4    1    3    3    0  502  0.28634463600E+03 -0.18242759940E+03 -0.64042901633E+03  0.72486137810E+03  0.12699999809E+01 0.  1.
</event>
<event>
 5   0  0.8207443E-02  0.5890902E+03  0.7818609E-02  0.9928303E-01
        2   -1    0    0  501    0  0.00000000000E+00  0.00000000000E+00  0.99877271599E+03  0.99877271599E+03  0.25500000920E-02 0. -1.
       -2   -1    0    0    0  501  0.00000000000E+00  0.00000000000E+00 -0.86863424205E+02  0.86863424242E+02  0.25500000920E-02 0.  1.
    10030    2    1    2    0    0  0.00000000000E+00  0.00000000000E+00  0.91190929179E+03  0.10856361402E+04  0.58909020747E+03 0.  0.
        1    1    3    3  502    0 -0.21853217861E+03  0.11411042853E+03  0.15891368728E+03  0.29331052320E+03  0.50400001928E-02 0.  1.
       -1    1    3    3    0  502  0.21853217861E+03 -0.11411042853E+03  0.75299560450E+03  0.79232561704E+03  0.50400001928E-02 0. -1.
</event>
<event>
 5   0  0.8817544E-02  0.5970829E+03  0.7818609E-02  0.9911477E-01
        2   -1    0    0  501    0  0.00000000000E+00  0.00000000000E+00  0.57764203719E+03  0.57764203720E+03  0.25500000920E-02 0.  1.
       -2   -1    0    0    0  501  0.00000000000E+00  0.00000000000E+00 -0.15429450267E+03  0.15429450269E+03  0.25500000920E-02 0. -1.
    10030    2    1    2    0    0  0.00000000000E+00  0.00000000000E+00  0.42334753452E+03  0.73193653989E+03  0.59708287819E+03 0.  0.
        5    1    3    3  502    0  0.22250598914E+03  0.13477905576E+03  0.32218631011E+02  0.26217253719E+03  0.46999998093E+01 0. -1.
       -5    1    3    3    0  502 -0.22250598914E+03 -0.13477905576E+03  0.39112890351E+03  0.46976400270E+03  0.46999998093E+01 0.  1.
</event>
<event>
 5   0  0.5125031E-02  0.5015786E+03  0.7818609E-02  0.1013368E+00
        1   -1    0    0  501    0  0.00000000000E+00  0.00000000000E+00  0.36109506320E+03  0.36109506324E+03  0.50400001928E-02 0.  1.
       -1   -1    0    0    0  501  0.00000000000E+00  0.00000000000E+00 -0.17417926618E+03  0.17417926626E+03  0.50400001928E-02 0. -1.
    10030    2    1    2    0    0  0.00000000000E+00  0.00000000000E+00  0.18691579702E+03  0.53527432949E+03  0.50157860066E+03 0.  0.
        4    1    3    3  502    0 -0.23601152411E+03  0.90249502305E+01  0.34675852738E+01  0.23621288341E+03  0.12699999809E+01 0. -1.
       -4    1    3    3    0  502  0.23601152411E+03 -0.90249502305E+01  0.18344821175E+03  0.29906144608E+03  0.12699999809E+01 0.  1.
</event>
<event>
 5   0  0.5125031E-02  0.5797394E+03  0.7818609E-02  0.9948355E-01
       -1   -1    0    0    0  501  0.00000000000E+00  0.00000000000E+00  0.32124571805E+03  0.32124571809E+03  0.50400001928E-02 0.  1.
        1   -1    0    0  501    0  0.00000000000E+00  0.00000000000E+00 -0.26155821367E+03  0.26155821372E+03  0.50400001928E-02 0. -1.
    10030    2    1    2    0    0  0.00000000000E+00  0.00000000000E+00  0.59687504373E+02  0.58280393181E+03  0.57973944557E+03 0.  0.
        4    1    3    3  502    0 -0.76701675168E+02 -0.58222127592E+01  0.31079519035E+03  0.32017543375E+03  0.12699999809E+01 0.  1.
       -4    1    3    3    0  502  0.76701675168E+02  0.58222127592E+01 -0.25110768598E+03  0.26262849806E+03  0.12699999809E+01 0. -1.
</event>
<event>
 5   0  0.5125031E-02  0.6103332E+03  0.7818609E-02  0.9884197E-01
       -1   -1    0    0    0  501  0.00000000000E+00  0.00000000000E+00  0.44702060764E+03  0.44702060767E+03  0.50400001928E-02 0.  1.
        1   -1    0    0  501    0  0.00000000000E+00  0.00000000000E+00 -0.20832744124E+03  0.20832744130E+03  0.50400001928E-02 0. -1.
    10030    2    1    2    0    0  0.00000000000E+00  0.00000000000E+00  0.23869316641E+03  0.65534804897E+03  0.61033321849E+03 0.  0.
        4    1    3    3  502    0 -0.22857769419E+03  0.80585000158E+02 -0.79756986396E+02  0.25515582359E+03  0.12699999809E+01 0. -1.
       -4    1    3    3    0  502  0.22857769419E+03 -0.80585000158E+02  0.31845015280E+03  0.40019222538E+03  0.12699999809E+01 0.  1.
</event>
<event>
 5   0  0.8575590E-02  0.5962451E+03  0.7818609E-02  0.9913227E-01
        2   -1    0    0  501    0  0.00000000000E+00  0.00000000000E+00  0.20182677309E+03  0.20182677310E+03  0.25500000920E-02 0.  1.
       -2   -1    0    0    0  501  0.00000000000E+00  0.00000000000E+00 -0.44036298385E+03  0.44036298386E+03  0.25500000920E-02 0. -1.
    10030    2    1    2    0    0  0.00000000000E+00  0.00000000000E+00 -0.23853621077E+03  0.64218975696E+03  0.59624505038E+03 0.  0.
        4    1    3    3  502    0 -0.26798709665E+03 -0.58403602555E+02  0.65557385788E+01  0.27435862547E+03  0.12699999809E+01 0.  1.
       -4    1    3    3    0  502  0.26798709665E+03  0.58403602555E+02 -0.24509194934E+03  0.36783113149E+03  0.12699999809E+01 0. -1.
</event>
<event>
 5   0  0.4987389E-02  0.6069491E+03  0.7818609E-02  0.9891093E-01
        1   -1    0    0  501    0  0.00000000000E+00  0.00000000000E+00  0.82613603229E+03  0.82613603230E+03  0.50400001928E-02 0. -1.
       -1   -1    0    0    0  501  0.00000000000E+00  0.00000000000E+00 -0.11147897719E+03  0.11147897731E+03  0.50400001928E-02 0.  1.
    10030    2    1    2    0    0  0.00000000000E+00  0.00000000000E+00  0.71465705509E+03  0.93761500961E+03  0.60694909165E+03 0.  0.
        1    1    3    3  502    0 -0.16544477664E+02  0.23883886145E+03  0.64542060836E+03  0.68839340729E+03  0.50400001928E-02 0. -1.
       -1    1    3    3    0  502  0.16544477664E+02 -0.23883886145E+03  0.69236446730E+02  0.24922160232E+03  0.50400001928E-02 0.  1.
</event>
<event>
 5   0  0.8207443E-02  0.5922615E+03  0.7818609E-02  0.9921592E-01
       -2   -1    0    0    0  501  0.00000000000E+00  0.00000000000E+00  0.56025539351E+02  0.56025539409E+02  0.25500000920E-02 0. -1.
        2   -1    0    0  501    0  0.00000000000E+00  0.00000000000E+00 -0.15652402412E+04  0.15652402412E+04  0.25500000920E-02 0.  1.
    10030    2    1    2    0    0  0.00000000000E+00  0.00000000000E+00 -0.15092147018E+04  0.16212657806E+04  0.59226152593E+03 0.  0.
        1    1    3    3  502    0  0.12840808070E+03  0.24081099675E+03 -0.43992532630E+03  0.51769958865E+03  0.50400001928E-02 0.  1.
       -1    1    3    3    0  502 -0.12840808070E+03 -0.24081099675E+03 -0.10692893755E+04  0.11035661920E+04  0.50400001928E-02 0. -1.
</event>
<event>
 5   0  0.5190380E-02  0.6140158E+03  0.7818609E-02  0.9876747E-01
        1   -1    0    0  501    0  0.00000000000E+00  0.00000000000E+00  0.83368589833E+03  0.83368589835E+03  0.50400001928E-02 0.  1.
       -1   -1    0    0    0  501  0.00000000000E+00  0.00000000000E+00 -0.11305677761E+03  0.11305677772E+03  0.50400001928E-02 0. -1.
    10030    2    1    2    0    0  0.00000000000E+00  0.00000000000E+00  0.72062912072E+03  0.94674267606E+03  0.61401576938E+03 0.  0.
        5    1    3    3  502    0  0.17573251959E+03  0.25168187237E+03  0.35651640187E+03  0.47048030578E+03  0.46999998093E+01 0. -1.
       -5    1    3    3    0  502 -0.17573251959E+03 -0.25168187237E+03  0.36411271885E+03  0.47626237028E+03  0.46999998093E+01 0.  1.
</event>
<event>
 5   0  0.5190380E-02  0.5961206E+03  0.7818609E-02  0.9913487E-01
        1   -1    0    0  501    0  0.00000000000E+00  0.00000000000E+00  0.11964749298E+03  0.11964749308E+03  0.50400001928E-02 0. -1.
       -1   -1    0    0    0  501  0.00000000000E+00  0.00000000000E+00 -0.74251402091E+03  0.74251402093E+03  0.50400001928E-02 0.  1.
    10030    2    1    2    0    0  0.00000000000E+00  0.00000000000E+00 -0.62286652793E+03  0.86216151401E+03  0.59612059570E+03 0.  0.
        5    1    3    3  502    0  0.19581429599E+03  0.13301342205E+03 -0.49571247269E+02  0.24189916807E+03  0.46999998093E+01 0. -1.
       -5    1    3    3    0  502 -0.19581429599E+03 -0.13301342205E+03 -0.57329528066E+03  0.62026234594E+03  0.46999998093E+01 0.  1.
</event>
<event>
 5   0  0.8699746E-02  0.5958746E+03  0.7818609E-02  0.9914002E-01
        2   -1    0    0  501    0  0.00000000000E+00  0.00000000000E+00  0.15524846852E+04  0.15524846852E+04  0.25500000920E-02 0.  1.
       -2   -1    0    0    0  501  0.00000000000E+00  0.00000000000E+00 -0.57177149723E+02  0.57177149780E+02  0.25500000920E-02 0. -1.
    10030    2    1    2    0    0  0.00000000000E+00  0.00000000000E+00  0.14953075355E+04  0.16096618350E+04  0.59587464902E+03 0.  0.
        3    1    3    3  502    0 -0.61353830164E+02 -0.16703932775E+03  0.13931572498E+04  0.14044762591E+04  0.10100000352E+00 0.  1.
       -3    1    3    3    0  502  0.61353830164E+02  0.16703932775E+03  0.10215028570E+03  0.20518557591E+03  0.10100000352E+00 0. -1.
</event>
<event>
 5   0  0.4987389E-02  0.5973301E+03  0.7818609E-02  0.9910961E-01
       -1   -1    0    0    0  501  0.00000000000E+00  0.00000000000E+00  0.71258024359E+02  0.71258024537E+02  0.50400001928E-02 0. -1.
        1   -1    0    0  501    0  0.00000000000E+00  0.00000000000E+00 -0.12518003966E+04  0.12518003966E+04  0.50400001928E-02 0.  1.
    10030    2    1    2    0    0  0.00000000000E+00  0.00000000000E+00 -0.11805423722E+04  0.13230584212E+04  0.59733013746E+03 0.  0.
        1    1    3    3  502    0  0.14929054900E+03  0.16767787016E+03 -0.15399121712E+03  0.27224406539E+03  0.50400001928E-02 0. -1.
       -1    1    3    3    0  502 -0.14929054900E+03 -0.16767787016E+03 -0.10265511551E+04  0.10508143558E+04  0.50400001928E-02 0.  1.
</event>
<event>
 5   0  0.5190380E-02  0.5861711E+03  0.7818609E-02  0.9934519E-01
       -1   -1    0    0    0  501  0.00000000000E+00  0.00000000000E+00  0.21056423310E+03  0.21056423316E+03  0.50400001928E-02 0. -1.
        1   -1    0    0  501    0  0.00000000000E+00  0.00000000000E+00 -0.40794742890E+03  0.40794742893E+03  0.50400001928E-02 0.  1.
    10030    2    1    2    0    0  0.00000000000E+00  0.00000000000E+00 -0.19738319580E+03  0.61851166209E+03  0.58617109291E+03 0.  0.
        5    1    3    3  502    0  0.27972296117E+03  0.47480258060E+02 -0.17607063132E+03  0.33394949786E+03  0.46999998093E+01 0.  1.
       -5    1    3    3    0  502 -0.27972296117E+03 -0.47480258060E+02 -0.21312564476E+02  0.28456216423E+03  0.46999998093E+01 0. -1.
</event>
<event>
 5   0  0.5190380E-02  0.6008696E+03  0.7818609E-02  0.9903604E-01
        1   -1    0    0  501    0  0.00000000000E+00  0.00000000000E+00  0.56589434642E+03  0.56589434644E+03  0.50400001928E-02 0. -1.
       -1   -1    0    0    0  501  0.00000000000E+00  0.00000000000E+00 -0.15950163529E+03  0.15950163536E+03  0.50400001928E-02 0.  1.
    10030    2    1    2    0    0  0.00000000000E+00  0.00000000000E+00  0.40639271113E+03  0.72539598181E+03  0.60086961544E+03 0.  0.
        5    1    3    3  502    0 -0.29731194069E+03  0.42337906072E+02  0.21190988828E+03  0.36757962283E+03  0.46999998093E+01 0. -1.
       -5    1    3    3    0  502  0.29731194069E+03 -0.42337906072E+02  0.19448282286E+03  0.35781635898E+03  0.46999998093E+01 0.  1.
</event>
<event>
 5   0  0.3437375E-02  0.6018576E+03  0.7818609E-02  0.9901560E-01
        3   -1    0    0  501    0  0.00000000000E+00  0.00000000000E+00  0.77322138136E+03  0.77322138796E+03  0.10100000352E+00 0. -1.
       -3   -1    0    0    0  501  0.00000000000E+00  0.00000000000E+00 -0.11711796490E+03  0.11711800845E+03  0.10100000352E+00 0.  1.
    10030    2    1    2    0    0  0.00000000000E+00  0.00000000000E+00  0.65610341646E+03  0.89033939641E+03  0.60185758092E+03 0.  0.
        3    1    3    3  502    0 -0.17887366932E+03 -0.18903033949E+03  0.10453316674E+03  0.28045579326E+03  0.10100000352E+00 0.  1.
       -3    1    3    3    0  502  0.17887366932E+03  0.18903033949E+03  0.55157024971E+03  0.60988360315E+03  0.10100000352E+00 0. -1.
</event>
<event>
 5   0  0.8817544E-02  0.5708911E+03  0.7818609E-02  0.9967709E-01
       -2   -1    0    0    0  501  0.00000000000E+00  0.00000000000E+00  0.71825770031E+02  0.71825770076E+02  0.25500000920E-02 0.  1.
        2   -1    0    0  501    0  0.00000000000E+00  0.00000000000E+00 -0.11344000973E+04  0.11344000973E+04  0.25500000920E-02 0. -1.
    10030    2    1    2    0    0  0.00000000000E+00  0.00000000000E+00 -0.10625743273E+04  0.12062258674E+04  0.57089109484E+03 0.  0.
        5    1    3    3  502    0 -0.92591400065E+02 -0.61178436096E+02  0.24288889327E+02  0.11370140084E+03  0.46999998093E+01 0.  1.
       -5    1    3    3    0  502  0.92591400065E+02  0.61178436096E+02 -0.10868632166E+04  0.10925244666E+04  0.46999998093E+01 0. -1.
</event>
<event>
 5   0  0.4987389E-02  0.6007400E+03  0.7818609E-02  0.9903872E-01
        1   -1    0    0  501    0  0.00000000000E+00  0.00000000000E+00  0.29532824887E+03  0.29532824892E+03  0.50400001928E-02 0. -1.
       -1   -1    0    0    0  501  0.00000000000E+00  0.00000000000E+00 -0.30549786532E+03  0.30549786536E+03  0.50400001928E-02 0.  1.
    10030    2    1    2    0    0  0.00000000000E+00  0.00000000000E+00 -0.10169616448E+02  0.60082611428E+03  0.60074004237E+03 0.  0.
        1    1    3    3  502    0 -0.13550577123E+03 -0.57073544735E+02  0.25687436004E+03  0.29597912159E+03  0.50400001928E-02 0. -1.
       -1    1    3    3    0  502  0.13550577123E+03  0.57073544735E+02 -0.26704397649E+03  0.30484699269E+03  0.50400001928E-02 0.  1.
</event>
<event>
 5   0  0.5190380E-02  0.5885072E+03  0.7818609E-02  0.9929541E-01
       -1   -1    0    0    0  501  0.00000000000E+00  0.00000000000E+00  0.76194585205E+02  0.76194585371E+02  0.50400001928E-02 0.  1.
        1   -1    0    0  501    0  0.00000000000E+00  0.00000000000E+00 -0.11363693987E+04  0.11363693987E+04  0.50400001928E-02 0. -1.
    10030    2    1    2    0    0  0.00000000000E+00  0.00000000000E+00 -0.10601748135E+04  0.12125639841E+04  0.58850724747E+03 0.  0.
        5    1    3    3  502    0  0.20871780485E+03 -0.14121836985E+03 -0.21722196670E+03  0.33273596568E+03  0.46999998093E+01 0.  1.
       -5    1    3    3    0  502 -0.20871780485E+03  0.14121836985E+03 -0.84295284678E+03  0.87982801839E+03  0.46999998093E+01 0. -1.
</event>
<event>
 5   0  0.4987389E-02  0.6088166E+03  0.7818609E-02  0.9887281E-01
       -1   -1    0    0    0  501  0.00000000000E+00  0.00000000000E+00  0.17756181799E+03  0.17756181806E+03  0.50400001928E-02 0.  1.
        1   -1    0    0  501    0  0.00000000000E+00  0.00000000000E+00 -0.52187122150E+03  0.52187122152E+03  0.50400001928E-02 0. -1.
    10030    2    1    2    0    0  0.00000000000E+00  0.00000000000E+00 -0.34430940351E+03  0.69943303959E+03  0.60881656640E+03 0.  0.
        1    1    3    3  502    0  0.25580559851E+03  0.16499837383E+03 -0.17002538949E+03  0.34866832477E+03  0.50400001928E-02 0.  1.
       -1    1    3    3    0  502 -0.25580559851E+03 -0.16499837383E+03 -0.17428401402E+03  0.35076471482E+03  0.50400001928E-02 0. -1.
</event>
<event>
 5   0  0.8575590E-02  0.6062171E+03  0.7818609E-02  0.9892591E-01
       -2   -1    0    0    0  501  0.00000000000E+00  0.00000000000E+00  0.33800654063E+03  0.33800654064E+03  0.25500000920E-02 0. -1.
        2   -1    0    0  501    0  0.00000000000E+00  0.00000000000E+00 -0.27181362742E+03  0.27181362743E+03  0.25500000920E-02 0.  1.
    10030    2    1    2    0    0  0.00000000000E+00  0.00000000000E+00  0.66192913216E+02  0.60982016807E+03  0.60621706973E+03 0.  0.
        4    1    3    3  502    0 -0.30220143445E+03 -0.23318796613E+02  0.35030838822E+02  0.30512005150E+03  0.12699999809E+01 0. -1.
       -4    1    3    3    0  502  0.30220143445E+03  0.23318796613E+02  0.31162074394E+02  0.30470011657E+03  0.12699999809E+01 0.  1.
</event>
<event>
 5   0  0.5166903E-02  0.5992349E+03  0.7818609E-02  0.9906995E-01
        1   -1    0    0  501    0  0.00000000000E+00  0.00000000000E+00  0.42558270672E+03  0.42558270675E+03  0.50400001928E-02 0.  1.
       -1   -1    0    0    0  501  0.00000000000E+00  0.00000000000E+00 -0.21093577366E+03  0.21093577372E+03  0.50400001928E-02 0. -1.
    10030    2    1    2    0    0  0.00000000000E+00  0.00000000000E+00  0.21464693305E+03  0.63651848047E+03  0.59923490394E+03 0.  0.
        2    1    3    3  502    0  0.14335465165E+03  0.16886726696E+03 -0.10698136718E+03  0.24599130662E+03  0.25500000920E-02 0. -1.
       -2    1    3    3    0  502 -0.14335465165E+03 -0.16886726696E+03  0.32162830023E+03  0.39052717385E+03  0.25500000920E-02 0.  1.
</event>
<event>
 5   0  0.5190380E-02  0.6001576E+03  0.7818609E-02  0.9905079E-01
       -1   -1    0    0    0  501  0.00000000000E+00  0.00000000000E+00  0.14960654694E+03  0.14960654702E+03  0.50400001928E-02 0.  1.
        1   -1    0    0  501    0  0.00000000000E+00  0.00000000000E+00 -0.60189394948E+03  0.60189394950E+03  0.50400001928E-02 0. -1.
    10030    2    1    2    0    0  0.00000000000E+00  0.00000000000E+00 -0.45228740254E+03  0.75150049652E+03  0.60015756413E+03 0.  0.
        5    1    3    3  502    0  0.31465513210E+02 -0.17451816818E+03  0.76919474607E+02  0.19335295477E+03  0.46999998093E+01 0.  1.
       -5    1    3    3    0  502 -0.31465513210E+02  0.17451816818E+03 -0.52920687715E+03  0.55814754175E+03  0.46999998093E+01 0. -1.
</event>
<event>
 5   0  0.8207443E-02  0.6137276E+03  0.7818609E-02  0.9877328E-01
       -2   -1    0    0    0  501  0.00000000000E+00  0.00000000000E+00  0.12941908551E+03  0.12941908553E+03  0.25500000920E-02 0. -1.
        2   -1    0    0  501    0  0.00000000000E+00  0.00000000000E+00 -0.72760050137E+03  0.72760050137E+03  0.25500000920E-02 0.  1.
    10030    2    1    2    0    0  0.00000000000E+00  0.00000000000E+00 -0.59818141586E+03  0.85701958690E+03  0.61372759923E+03 0.  0.
        1    1    3    3  502    0  0.14257753635E+03  0.13406982337E+03  0.30955371547E+02  0.19814466045E+03  0.50400001928E-02 0. -1.
       -1    1    3    3    0  502 -0.14257753635E+03 -0.13406982337E+03 -0.62913678741E+03  0.65887492645E+03  0.50400001928E-02 0.  1.
</event>
<event>
 5   0  0.8575590E-02  0.5999892E+03  0.7818609E-02  0.9905428E-01
       -2   -1    0    0    0  501  0.00000000000E+00  0.00000000000E+00  0.15526690006E+03  0.15526690008E+03  0.25500000920E-02 0. -1.
        2   -1    0    0  501    0  0.00000000000E+00  0.00000000000E+00 -0.57962620398E+03  0.57962620399E+03  0.25500000920E-02 0.  1.
    10030    2    1    2    0    0  0.00000000000E+00  0.00000000000E+00 -0.42435930392E+03  0.73489310407E+03  0.59998921289E+03 0.  0.
        4    1    3    3  502    0  0.25368186091E+02 -0.25570388141E+03 -0.40180166646E+03  0.47694256667E+03  0.12699999809E+01 0.  1.
       -4    1    3    3    0  502 -0.25368186091E+02  0.25570388141E+03 -0.22557637464E+02  0.25795053740E+03  0.12699999809E+01 0. -1.
</event>
<event>
 5   0  0.8575590E-02  0.5992665E+03  0.7818609E-02  0.9906929E-01
        2   -1    0    0  501    0  0.00000000000E+00  0.00000000000E+00  0.12513772660E+04  0.12513772660E+04  0.25500000920E-02 0. -1.
       -2   -1    0    0    0  501  0.00000000000E+00  0.00000000000E+00 -0.71745010395E+02  0.71745010440E+02  0.25500000920E-02 0.  1.
    10030    2    1    2    0    0  0.00000000000E+00  0.00000000000E+00  0.11796322556E+04  0.13231222764E+04  0.59926646824E+03 0.  0.
        4    1    3    3  502    0  0.29134479537E+03 -0.28259191990E+00  0.74431559385E+03  0.79930543961E+03  0.12699999809E+01 0. -1.
       -4    1    3    3    0  502 -0.29134479537E+03  0.28259191990E+00  0.43531666176E+03  0.52381683684E+03  0.12699999809E+01 0.  1.
</event>
<event>
 5   0  0.8420604E-02  0.5933981E+03  0.7818609E-02  0.9919198E-01
       -2   -1    0    0    0  501  0.00000000000E+00  0.00000000000E+00  0.10784564524E+03  0.10784564527E+03  0.25500000920E-02 0.  1.
        2   -1    0    0  501    0  0.00000000000E+00  0.00000000000E+00 -0.81626218030E+03  0.81626218030E+03  0.25500000920E-02 0. -1.
    10030    2    1    2    0    0  0.00000000000E+00  0.00000000000E+00 -0.70841653506E+03  0.92410782557E+03  0.59339808403E+03 0.  0.
        2    1    3    3  502    0 -0.13230125284E+03 -0.16355379392E+03 -0.28372470792E+02  0.21226978615E+03  0.25500000920E-02 0.  1.
       -2    1    3    3    0  502  0.13230125284E+03  0.16355379392E+03 -0.68004406427E+03  0.71183803942E+03  0.25500000920E-02 0. -1.
</event>
<event>
 5   0  0.8699746E-02  0.6029617E+03  0.7818609E-02  0.9899281E-01
       -2   -1    0    0    0  501  0.00000000000E+00  0.00000000000E+00  0.80867862576E+02  0.80867862616E+02  0.25500000920E-02 0.  1.
        2   -1    0    0  501    0  0.00000000000E+00  0.00000000000E+00 -0.11239408077E+04  0.11239408077E+04  0.25500000920E-02 0. -1.
    10030    2    1    2    0    0  0.00000000000E+00  0.00000000000E+00 -0.10430729452E+04  0.12048086703E+04  0.60296165984E+03 0.  0.
        3    1    3    3  502    0  0.13227936054E+03 -0.18175250891E+03 -0.12011747461E+03  0.25487255958E+03  0.10100000352E+00 0.  1.
       -3    1    3    3    0  502 -0.13227936054E+03  0.18175250891E+03 -0.92295547054E+03  0.94993611076E+03  0.10100000352E+00 0. -1.
</event>
<event>
 5   0  0.4881209E-02  0.6053670E+03  0.7818609E-02  0.9894333E-01
        1   -1    0    0  501    0  0.00000000000E+00  0.00000000000E+00  0.98457844331E+02  0.98457844460E+02  0.50400001928E-02 0. -1.
       -1   -1    0    0    0  501  0.00000000000E+00  0.00000000000E+00 -0.93052317604E+03  0.93052317605E+03  0.50400001928E-02 0.  1.
    10030    2    1    2    0    0  0.00000000000E+00  0.00000000000E+00 -0.83206533171E+03  0.10289810205E+04  0.60536701624E+03 0.  0.
        3    1    3    3  502    0  0.21236512432E+03  0.84764447994E+02 -0.75314063019E+03  0.78708625748E+03  0.10100000352E+00 0.  1.
       -3    1    3    3    0  502 -0.21236512432E+03 -0.84764447994E+02 -0.78924701519E+02  0.24189476303E+03  0.10100000352E+00 0. -1.
</event>
<event>
 5   0  0.5125031E-02  0.5966773E+03  0.7818609E-02  0.9912324E-01
       -1   -1    0    0    0  501  0.00000000000E+00  0.00000000000E+00  0.25378351191E+03  0.25378351196E+03  0.50400001928E-02 0. -1.
        1   -1    0    0  501    0  0.00000000000E+00  0.00000000000E+00 -0.35071602203E+03  0.35071602207E+03  0.50400001928E-02 0.  1.
    10030    2    1    2    0    0  0.00000000000E+00  0.00000000000E+00 -0.96932510120E+02  0.60449953403E+03  0.59667727888E+03 0.  0.
        4    1    3    3  502    0 -0.30480789712E+02 -0.35749310707E+02  0.25000975157E+03  0.25438864074E+03  0.12699999809E+01 0. -1.
       -4    1    3    3    0  502  0.30480789712E+02  0.35749310707E+02 -0.34694226169E+03  0.35011089329E+03  0.12699999809E+01 0.  1.
</event>
<event>
 5   0  0.8699746E-02  0.5940793E+03  0.7818609E-02  0.9917766E-01
       -2   -1    0    0    0  501  0.00000000000E+00  0.00000000000E+00  0.24528815140E+03  0.24528815142E+03  0.25500000920E-02 0. -1.
        2   -1    0    0  501    0  0.00000000000E+00  0.00000000000E+00 -0.35970985809E+03  0.35970985810E+03  0.25500000920E-02 0.  1.
    10030    2    1    2    0    0  0.00000000000E+00  0.00000000000E+00 -0.11442170668E+03  0.60499800951E+03  0.59407934197E+03 0.  0.
        3    1    3    3  502    0 -0.13497282922E+03 -0.21726236988E+03  0.96601330372E+02  0.27340890480E+03  0.10100000352E+00 0. -1.
       -3    1    3    3    0  502  0.13497282922E+03  0.21726236988E+03 -0.21102303705E+03  0.33158910471E+03  0.10100000352E+00 0.  1.
</event>
<event>
 5   0  0.8420604E-02  0.6069088E+03  0.7818609E-02  0.9891175E-01
        2   -1    0    0  501    0  0.00000000000E+00  0.00000000000E+00  0.65801744240E+03  0.65801744241E+03  0.25500000920E-02 0. -1.
       -2   -1    0    0    0  501  0.00000000000E+00  0.00000000000E+00 -0.13994246815E+03  0.13994246818E+03  0.25500000920E-02 0.  1.
    10030    2    1    2    0    0  0.00000000000E+00  0.00000000000E+00  0.51807497425E+03  0.79795991058E+03  0.60690883991E+03 0.  0.
        2    1    3    3  502    0 -0.18082522852E+03 -0.15907392562E+03  0.16308240724E+02  0.24138814346E+03  0.25500000920E-02 0.  1.
       -2    1    3    3    0  502  0.18082522852E+03  0.15907392562E+03  0.50176673352E+03  0.55657176712E+03  0.25500000920E-02 0. -1.
</event>
<event>
 5   0  0.4987389E-02  0.6005035E+03  0.7818609E-02  0.9904362E-01
       -1   -1    0    0    0  501  0.00000000000E+00  0.00000000000E+00  0.30385781633E+03  0.30385781637E+03  0.50400001928E-02 0.  1.
        1   -1    0    0  501    0  0.00000000000E+00  0.00000000000E+00 -0.29668843583E+03  0.29668843587E+03  0.50400001928E-02 0. -1.
    10030    2    1    2    0    0  0.00000000000E+00  0.00000000000E+00  0.71693804987E+01  0.60054625225E+03  0.60050345634E+03 0.  0.
        1    1    3    3  502    0  0.20803893952E+03  0.57192497733E+02 -0.20523612470E+03  0.29778020260E+03  0.50400001928E-02 0. -1.
       -1    1    3    3    0  502 -0.20803893952E+03 -0.57192497733E+02  0.21240550520E+03  0.30276604965E+03  0.50400001928E-02 0.  1.
</event>
<event>
 5   0  0.8207443E-02  0.5998640E+03  0.7818609E-02  0.9905688E-01
       -2   -1    0    0    0  501  0.00000000000E+00  0.00000000000E+00  0.81894567011E+02  0.81894567051E+02  0.25500000920E-02 0. -1.
        2   -1    0    0  501    0  0.00000000000E+00  0.00000000000E+00 -0.10984757462E+04  0.10984757462E+04  0.25500000920E-02 0.  1.
    10030    2    1    2    0    0  0.00000000000E+00  0.00000000000E+00 -0.10165811792E+04  0.11803703133E+04  0.59986397003E+03 0.  0.
        1    1    3    3  502    0 -0.74161120804E+01  0.15551374545E+03 -0.10127348605E+04  0.10246323348E+04  0.50400001928E-02 0.  1.
       -1    1    3    3    0  502  0.74161120804E+01 -0.15551374545E+03 -0.38463186609E+01  0.15573797846E+03  0.50400001928E-02 0. -1.
</event>
<event>
 5   0  0.5166903E-02  0.5967012E+03  0.7818609E-02  0.9912274E-01
       -1   -1    0    0    0  501  0.00000000000E+00  0.00000000000E+00  0.25596951318E+03  0.25596951323E+03  0.50400001928E-02 0.  1.
        1   -1    0    0  501    0  0.00000000000E+00  0.00000000000E+00 -0.34774877278E+03  0.34774877281E+03  0.50400001928E-02 0. -1.
    10030    2    1    2    0    0  0.00000000000E+00  0.00000000000E+00 -0.91779259599E+02  0.60371828604E+03  0.59670121201E+03 0.  0.
        2    1    3    3  502    0 -0.46740642829E+01  0.76970439904E+02 -0.33749204776E+03  0.34618951140E+03  0.25500000920E-02 0. -1.
       -2    1    3    3    0  502  0.46740642829E+01 -0.76970439904E+02  0.24571278816E+03  0.25752877464E+03  0.25500000920E-02 0.  1.
</event>
<event>
 5   0  0.8817544E-02  0.5889043E+03  0.7818609E-02  0.9928697E-01
       -2   -1    0    0    0  501  0.00000000000E+00  0.00000000000E+00  0.12099856563E+03  0.12099856566E+03  0.25500000920E-02 0.  1.
        2   -1    0    0  501    0  0.00000000000E+00  0.00000000000E+00 -0.71655443802E+03  0.71655443803E+03  0.25500000920E-02 0. -1.
    10030    2    1    2    0    0  0.00000000000E+00  0.00000000000E+00 -0.59555587239E+03  0.83755300368E+03  0.58890426797E+03 0.  0.
        5    1    3    3  502    0  0.31632941499E+02  0.41741246422E+02 -0.70982261133E+03  0.71176766167E+03  0.46999998093E+01 0. -1.
       -5    1    3    3    0  502 -0.31632941499E+02 -0.41741246422E+02  0.11426673894E+03  0.12578534202E+03  0.46999998093E+01 0.  1.
</event>
<event>
 5   0  0.3437375E-02  0.5957126E+03  0.7818609E-02  0.9914341E-01
       -4   -1    0    0    0  501  0.00000000000E+00  0.00000000000E+00  0.93654682339E+03  0.93654768448E+03  0.12699999809E+01 0.  1.
        4   -1    0    0  501    0  0.00000000000E+00  0.00000000000E+00 -0.94724083876E+02  0.94732597167E+02  0.12699999809E+01 0. -1.
    10030    2    1    2    0    0  0.00000000000E+00  0.00000000000E+00  0.84182273952E+03  0.10312802816E+04  0.59571259392E+03 0.  0.
        5    1    3    3  502    0  0.22667883279E+03  0.37219655473E+02  0.92774851524E+02  0.24778591377E+03  0.46999998093E+01 0. -1.
       -5    1    3    3    0  502 -0.22667883279E+03 -0.37219655473E+02  0.74904788799E+03  0.78349436788E+03  0.46999998093E+01 0.  1.
</event>
<event>
 5   0  0.4987389E-02  0.6046795E+03  0.7818609E-02  0.9895745E-01
        1   -1    0    0  501    0  0.00000000000E+00  0.00000000000E+00  0.18980985613E+03  0.18980985619E+03  0.50400001928E-02 0. -1.
       -1   -1    0    0    0  501  0.00000000000E+00  0.00000000000E+00 -0.48158362070E+03  0.48158362072E+03  0.50400001928E-02 0.  1.
    10030    2    1    2    0    0  0.00000000000E+00  0.00000000000E+00 -0.29177376457E+03  0.67139347692E+03  0.60467947803E+03 0.  0.
        1    1    3    3  502    0  0.21515630304E+02 -0.22505371648E+03  0.77002526218E+02  0.23883359630E+03  0.50400001928E-02 0. -1.
       -1    1    3    3    0  502 -0.21515630304E+02  0.22505371648E+03 -0.36877629079E+03  0.43255988062E+03  0.50400001928E-02 0.  1.
</event>
<event>
 5   0  0.5190380E-02  0.5991023E+03  0.7818609E-02  0.9907270E-01
        1   -1    0    0  501    0  0.00000000000E+00  0.00000000000E+00  0.93411992974E+03  0.93411992975E+03  0.50400001928E-02 0. -1.
       -1   -1    0    0    0  501  0.00000000000E+00  0.00000000000E+00 -0.96059298878E+02  0.96059299010E+02  0.50400001928E-02 0.  1.
    10030    2    1    2    0    0  0.00000000000E+00  0.00000000000E+00  0.83806063086E+03  0.10301792288E+04  0.59910234716E+03 0.  0.
        5    1    3    3  502    0 -0.52696617269E+02  0.17111467279E+03  0.61562135308E+01  0.17921259353E+03  0.46999998093E+01 0.  1.
       -5    1    3    3    0  502  0.52696617269E+02 -0.17111467279E+03  0.83190441733E+03  0.85096663524E+03  0.46999998093E+01 0. -1.
</event>
<event>
 5   0  0.8207443E-02  0.6070408E+03  0.7818609E-02  0.9890905E-01
        2   -1    0    0  501    0  0.00000000000E+00  0.00000000000E+00  0.22317057480E+03  0.22317057482E+03  0.25500000920E-02 0. -1.
       -2   -1    0    0    0  501  0.00000000000E+00  0.00000000000E+00 -0.41279913742E+03  0.41279913743E+03  0.25500000920E-02 0.  1.
    10030    2    1    2    0    0  0.00000000000E+00  0.00000000000E+00 -0.18962856262E+03  0.63596971225E+03  0.60704075904E+03 0.  0.
        1    1    3    3  502    0  0.22081793684E+03  0.71399426238E+02  0.11012544134E+03  0.25687750418E+03  0.50400001928E-02 0. -1.
       -1    1    3    3    0  502 -0.22081793684E+03 -0.71399426238E+02 -0.29975400396E+03  0.37909220806E+03  0.50400001928E-02 0.  1.
</event>
<event>
 5   0  0.4881209E-02  0.5997352E+03  0.7818609E-02  0.9905956E-01
        1   -1    0    0  501    0  0.00000000000E+00  0.00000000000E+00  0.70466171270E+03  0.70466171271E+03  0.50400001928E-02 0. -1.
       -1   -1    0    0    0  501  0.00000000000E+00  0.00000000000E+00 -0.12760815342E+03  0.12760815352E+03  0.50400001928E-02 0.  1.
    10030    2    1    2    0    0  0.00000000000E+00  0.00000000000E+00  0.57705355927E+03  0.83226986624E+03  0.59973520822E+03 0.  0.
        3    1    3    3  502    0 -0.38543744507E+01 -0.65206446984E+02 -0.11761533526E+03  0.13453666496E+03  0.10100000352E+00 0.  1.
       -3    1    3    3    0  502  0.38543744507E+01  0.65206446984E+02  0.69466889453E+03  0.69773320127E+03  0.10100000352E+00 0. -1.
</event>
<event>
 5   0  0.8420604E-02  0.5959907E+03  0.7818609E-02  0.9913759E-01
       -2   -1    0    0    0  501  0.00000000000E+00  0.00000000000E+00  0.52868344454E+02  0.52868344515E+02  0.25500000920E-02 0. -1.
        2   -1    0    0  501    0  0.00000000000E+00  0.00000000000E+00 -0.16796674223E+04  0.16796674223E+04  0.25500000920E-02 0.  1.
    10030    2    1    2    0    0  0.00000000000E+00  0.00000000000E+00 -0.16267990778E+04  0.17325357668E+04  0.59599072444E+03 0.  0.
        2    1    3    3  502    0 -0.42744598045E+02 -0.29384216913E+03 -0.88641722939E+03  0.93482930292E+03  0.25500000920E-02 0. -1.
       -2    1    3    3    0  502  0.42744598045E+02  0.29384216913E+03 -0.74038184845E+03  0.79770646389E+03  0.25500000920E-02 0.  1.
</event>
<event>
 5   0  0.5125031E-02  0.6174189E+03  0.7818609E-02  0.9869912E-01
       -1   -1    0    0    0  501  0.00000000000E+00  0.00000000000E+00  0.65003850630E+02  0.65003850825E+02  0.50400001928E-02 0.  1.
        1   -1    0    0  501    0  0.00000000000E+00  0.00000000000E+00 -0.14660902278E+04  0.14660902278E+04  0.50400001928E-02 0. -1.
    10030    2    1    2    0    0  0.00000000000E+00  0.00000000000E+00 -0.14010863772E+04  0.15310940786E+04  0.61741885405E+03 0.  0.
        4    1    3    3  502    0 -0.13486407581E+03 -0.20801583419E+03 -0.11567308421E+04  0.11829990534E+04  0.12699999809E+01 0. -1.
       -4    1    3    3    0  502  0.13486407581E+03  0.20801583419E+03 -0.24435553506E+03  0.34809502529E+03  0.12699999809E+01 0.  1.
</event>
<event>
 5   0  0.4881209E-02  0.6006447E+03  0.7818609E-02  0.9904069E-01
        1   -1    0    0  501    0  0.00000000000E+00  0.00000000000E+00  0.34018055749E+03  0.34018055753E+03  0.50400001928E-02 0.  1.
       -1   -1    0    0    0  501  0.00000000000E+00  0.00000000000E+00 -0.26513421735E+03  0.26513421740E+03  0.50400001928E-02 0. -1.
    10030    2    1    2    0    0  0.00000000000E+00  0.00000000000E+00  0.75046340142E+02  0.60531477493E+03  0.60064467332E+03 0.  0.
        3    1    3    3  502    0 -0.12043044505E+03  0.19659891812E+03  0.23147438437E+03  0.32670327136E+03  0.10100000352E+00 0.  1.
       -3    1    3    3    0  502  0.12043044505E+03 -0.19659891812E+03 -0.15642804423E+03  0.27861150357E+03  0.10100000352E+00 0. -1.
</event>
<event>
 5   0  0.8817544E-02  0.6014878E+03  0.7818609E-02  0.9902324E-01
        2   -1    0    0  501    0  0.00000000000E+00  0.00000000000E+00  0.19178631330E+03  0.19178631331E+03  0.25500000920E-02 0.  1.
       -2   -1    0    0    0  501  0.00000000000E+00  0.00000000000E+00 -0.47160247464E+03  0.47160247464E+03  0.25500000920E-02 0. -1.
    10030    2    1    2    0    0  0.00000000000E+00  0.00000000000E+00 -0.27981616134E+03  0.66338878795E+03  0.60148782185E+03 0.  0.
        5    1    3    3  502    0 -0.16004744824E+03  0.22000821811E+03  0.13595792034E+01  0.27210795685E+03  0.46999998093E+01 0. -1.
       -5    1    3    3    0  502  0.16004744824E+03 -0.22000821811E+03 -0.28117574054E+03  0.39128083111E+03  0.46999998093E+01 0.  1.
</event>
<event>
 5   0  0.5190380E-02  0.6042363E+03  0.7818609E-02  0.9896656E-01
       -1   -1    0    0    0  501  0.00000000000E+00  0.00000000000E+00  0.13034340245E+03  0.13034340255E+03  0.50400001928E-02 0.  1.
        1   -1    0    0  501    0  0.00000000000E+00  0.00000000000E+00 -0.70026854056E+03  0.70026854057E+03  0.50400001928E-02 0. -1.
    10030    2    1    2    0    0  0.00000000000E+00  0.00000000000E+00 -0.56992513810E+03  0.83061194313E+03  0.60423632547E+03 0.  0.
        5    1    3    3  502    0  0.24479545209E+03 -0.91225553444E+02 -0.76458046942E+02  0.27224040461E+03  0.46999998093E+01 0.  1.
       -5    1    3    3    0  502 -0.24479545209E+03  0.91225553444E+02 -0.49346709116E+03  0.55837153851E+03  0.46999998093E+01 0. -1.
</event>
<event>
 5   0  0.3437375E-02  0.5881800E+03  0.7818609E-02  0.9930237E-01
        4   -1    0    0  501    0  0.00000000000E+00  0.00000000000E+00  0.39018900364E+03  0.39019107045E+03  0.12699999809E+01 0. -1.
       -4   -1    0    0    0  501  0.00000000000E+00  0.00000000000E+00 -0.22165455940E+03  0.22165819769E+03  0.12699999809E+01 0.  1.
    10030    2    1    2    0    0  0.00000000000E+00  0.00000000000E+00  0.16853444424E+03  0.61184926813E+03  0.58817996227E+03 0.  0.
        3    1    3    3  502    0  0.14255590131E+02  0.25065764546E+03  0.24358534266E+03  0.34980895705E+03  0.10100000352E+00 0. -1.
       -3    1    3    3    0  502 -0.14255590131E+02 -0.25065764546E+03 -0.75050898418E+02  0.26204031108E+03  0.10100000352E+00 0.  1.
</event>
<event>
 5   0  0.8207443E-02  0.6006643E+03  0.7818609E-02  0.9904029E-01
       -2   -1    0    0    0  501  0.00000000000E+00  0.00000000000E+00  0.40409111461E+03  0.40409111462E+03  0.25500000920E-02 0. -1.
        2   -1    0    0  501    0  0.00000000000E+00  0.00000000000E+00 -0.22321549752E+03  0.22321549753E+03  0.25500000920E-02 0.  1.
    10030    2    1    2    0    0  0.00000000000E+00  0.00000000000E+00  0.18087561709E+03  0.62730661215E+03  0.60066429624E+03 0.  0.
        1    1    3    3  502    0  0.26188717859E+03  0.13837177908E+03  0.14231770750E+03  0.32861219309E+03  0.50400001928E-02 0.  1.
       -1    1    3    3    0  502 -0.26188717859E+03 -0.13837177908E+03  0.38557909596E+02  0.29869441905E+03  0.50400001928E-02 0. -1.
</event>
<event>
 5   0  0.5125031E-02  0.5658066E+03  0.7818609E-02  0.9979001E-01
       -1   -1    0    0    0  501  0.00000000000E+00  0.00000000000E+00  0.38992141467E+02  0.38992141793E+02  0.50400001928E-02 0. -1.
        1   -1    0    0  501    0  0.00000000000E+00  0.00000000000E+00 -0.20525744296E+04  0.20525744296E+04  0.50400001928E-02 0.  1.
    10030    2    1    2    0    0  0.00000000000E+00  0.00000000000E+00 -0.20135822881E+04  0.20915665714E+04  0.56580658489E+03 0.  0.
        4    1    3    3  502    0  0.23433927265E+03  0.72802207973E+02 -0.48640075728E+03  0.54479571013E+03  0.12699999809E+01 0. -1.
       -4    1    3    3    0  502 -0.23433927265E+03 -0.72802207973E+02 -0.15271815308E+04  0.15467708613E+04  0.12699999809E+01 0.  1.
</event>
<event>
 5   0  0.8207443E-02  0.6003239E+03  0.7818609E-02  0.9904734E-01
        2   -1    0    0  501    0  0.00000000000E+00  0.00000000000E+00  0.10656187165E+04  0.10656187165E+04  0.25500000920E-02 0.  1.
       -2   -1    0    0    0  501  0.00000000000E+00  0.00000000000E+00 -0.84549189597E+02  0.84549189636E+02  0.25500000920E-02 0. -1.
    10030    2    1    2    0    0  0.00000000000E+00  0.00000000000E+00  0.98106952691E+03  0.11501679061E+04  0.60032390898E+03 0.  0.
        1    1    3    3  502    0  0.14324197086E+03 -0.24183294785E+03  0.28871942461E+03  0.40293962706E+03  0.50400001928E-02 0. -1.
       -1    1    3    3    0  502 -0.14324197086E+03  0.24183294785E+03  0.69235010231E+03  0.74722827909E+03  0.50400001928E-02 0.  1.
</event>
<event>
 5   0  0.8207443E-02  0.6461794E+03  0.7818609E-02  0.9813975E-01
       -2   -1    0    0    0  501  0.00000000000E+00  0.00000000000E+00  0.52902929795E+03  0.52902929795E+03  0.25500000920E-02 0.  1.
        2   -1    0    0  501    0  0.00000000000E+00  0.00000000000E+00 -0.19731791056E+03  0.19731791057E+03  0.25500000920E-02 0. -1.
    10030    2    1    2    0    0  0.00000000000E+00  0.00000000000E+00  0.33171138739E+03  0.72634720853E+03  0.64617940451E+03 0.  0.
        1    1    3    3  502    0  0.19367319636E+03  0.13571536086E+02 -0.12443478483E+03  0.23060249192E+03  0.50400001928E-02 0. -1.
       -1    1    3    3    0  502 -0.19367319636E+03 -0.13571536086E+02  0.45614617222E+03  0.49574471660E+03  0.50400001928E-02 0.  1.
</event>
<event>
 5   0  0.5125031E-02  0.5585415E+03  0.7818609E-02  0.9995360E-01
       -1   -1    0    0    0  501  0.00000000000E+00  0.00000000000E+00  0.38008793948E+03  0.38008793951E+03  0.50400001928E-02 0.  1.
        1   -1    0    0  501    0  0.00000000000E+00  0.00000000000E+00 -0.20519505033E+03  0.20519505039E+03  0.50400001928E-02 0. -1.
    10030    2    1    2    0    0  0.00000000000E+00  0.00000000000E+00  0.17489288915E+03  0.58528298990E+03  0.55854154330E+03 0.  0.
        4    1    3    3  502    0  0.21275514110E+02  0.22559696380E+03  0.25849106854E+03  0.34375264797E+03  0.12699999809E+01 0.  1.
       -4    1    3    3    0  502 -0.21275514110E+02 -0.22559696380E+03 -0.83598179391E+02  0.24153034193E+03  0.12699999809E+01 0. -1.
</event>
<event>
 5   0  0.4881209E-02  0.6027753E+03  0.7818609E-02  0.9899665E-01
        1   -1    0    0  501    0  0.00000000000E+00  0.00000000000E+00  0.11041346664E+04  0.11041346664E+04  0.50400001928E-02 0. -1.
       -1   -1    0    0    0  501  0.00000000000E+00  0.00000000000E+00 -0.82267619124E+02  0.82267619279E+02  0.50400001928E-02 0.  1.
    10030    2    1    2    0    0  0.00000000000E+00  0.00000000000E+00  0.10218670472E+04  0.11864022857E+04  0.60277534884E+03 0.  0.
        3    1    3    3  502    0  0.27663788589E+03 -0.87866108408E+02  0.67065834985E+03  0.73077466112E+03  0.10100000352E+00 0.  1.
       -3    1    3    3    0  502 -0.27663788589E+03  0.87866108408E+02  0.35120869740E+03  0.45562762454E+03  0.10100000352E+00 0. -1.
</event>
<event>
 5   0  0.3437375E-02  0.6104730E+03  0.7818609E-02  0.9883913E-01
        3   -1    0    0  501    0  0.00000000000E+00  0.00000000000E+00  0.42709799890E+03  0.42709801084E+03  0.10100000352E+00 0.  1.
       -3   -1    0    0    0  501  0.00000000000E+00  0.00000000000E+00 -0.21814504337E+03  0.21814506675E+03  0.10100000352E+00 0. -1.
    10030    2    1    2    0    0  0.00000000000E+00  0.00000000000E+00  0.20895295553E+03  0.64524307759E+03  0.61047300641E+03 0.  0.
        2    1    3    3  502    0  0.10101384251E+02  0.23435718090E+02 -0.21701549139E+03  0.21851085638E+03  0.25500000920E-02 0. -1.
       -2    1    3    3    0  502 -0.10101384251E+02 -0.23435718090E+02  0.42596844692E+03  0.42673222121E+03  0.25500000920E-02 0.  1.
</event>
<event>
 5   0  0.8575590E-02  0.5870965E+03  0.7818609E-02  0.9932544E-01
        2   -1    0    0  501    0  0.00000000000E+00  0.00000000000E+00  0.92127375439E+03  0.92127375440E+03  0.25500000920E-02 0.  1.
       -2   -1    0    0    0  501  0.00000000000E+00  0.00000000000E+00 -0.93534183643E+02  0.93534183678E+02  0.25500000920E-02 0. -1.
    10030    2    1    2    0    0  0.00000000000E+00  0.00000000000E+00  0.82773957075E+03  0.10148079381E+04  0.58709654589E+03 0.  0.
        4    1    3    3  502    0  0.59440714209E+02 -0.11362660898E+03 -0.42553589972E+02  0.13511708142E+03  0.12699999809E+01 0. -1.
       -4    1    3    3    0  502 -0.59440714209E+02  0.11362660898E+03  0.87029316072E+03  0.87969085665E+03  0.12699999809E+01 0.  1.
</event>
<event>
 5   0  0.5125031E-02  0.5957749E+03  0.7818609E-02  0.9914211E-01
        1   -1    0    0  501    0  0.00000000000E+00  0.00000000000E+00  0.56242022045E+03  0.56242022048E+03  0.50400001928E-02 0.  1.
       -1   -1    0    0    0  501  0.00000000000E+00  0.00000000000E+00 -0.15777693520E+03  0.15777693528E+03  0.50400001928E-02 0. -1.
    10030    2    1    2    0    0  0.00000000000E+00  0.00000000000E+00  0.40464328526E+03  0.72019715575E+03  0.59577491962E+03 0.  0.
        4    1    3    3  502    0  0.98014380560E+02  0.21484411236E+03 -0.17177104991E+02  0.23677305009E+03  0.12699999809E+01 0. -1.
       -4    1    3    3    0  502 -0.98014380560E+02 -0.21484411236E+03  0.42182039025E+03  0.48342410567E+03  0.12699999809E+01 0.  1.
</event>
<event>
 5   0  0.4987389E-02  0.5293273E+03  0.7818609E-02  0.1006395E+00
        1   -1    0    0  501    0  0.00000000000E+00  0.00000000000E+00  0.71057662508E+03  0.71057662510E+03  0.50400001928E-02 0. -1.
       -1   -1    0    0    0  501  0.00000000000E+00  0.00000000000E+00 -0.98577463288E+02  0.98577463417E+02  0.50400001928E-02 0.  1.
    10030    2    1    2    0    0  0.00000000000E+00  0.00000000000E+00  0.61199916179E+03  0.80915408851E+03  0.52932727582E+03 0.  0.
        1    1    3    3  502    0 -0.10582035565E+03 -0.21441938674E+03  0.47944009704E+03  0.53575780699E+03  0.50400001928E-02 0. -1.
       -1    1    3    3    0  502  0.10582035565E+03  0.21441938674E+03  0.13255906475E+03  0.27339628152E+03  0.50400001928E-02 0.  1.
</event>
<event>
 5   0  0.5190380E-02  0.5893027E+03  0.7818609E-02  0.9927851E-01
       -1   -1    0    0    0  501  0.00000000000E+00  0.00000000000E+00  0.13344207966E+03  0.13344207975E+03  0.50400001928E-02 0.  1.
        1   -1    0    0  501    0  0.00000000000E+00  0.00000000000E+00 -0.65061502687E+03  0.65061502689E+03  0.50400001928E-02 0. -1.
    10030    2    1    2    0    0  0.00000000000E+00  0.00000000000E+00 -0.51717294721E+03  0.78405710664E+03  0.58930271435E+03 0.  0.
        5    1    3    3  502    0  0.12682551041E+03  0.15068008708E+03 -0.55010533905E+03  0.58431769850E+03  0.46999998093E+01 0. -1.
       -5    1    3    3    0  502 -0.12682551041E+03 -0.15068008708E+03  0.32932391838E+02  0.19973940814E+03  0.46999998093E+01 0.  1.
</event>
<event>
 5   0  0.8575590E-02  0.6040833E+03  0.7818609E-02  0.9896970E-01
        2   -1    0    0  501    0  0.00000000000E+00  0.00000000000E+00  0.27632920333E+03  0.27632920334E+03  0.25500000920E-02 0. -1.
       -2   -1    0    0    0  501  0.00000000000E+00  0.00000000000E+00 -0.33014667910E+03  0.33014667911E+03  0.25500000920E-02 0.  1.
    10030    2    1    2    0    0  0.00000000000E+00  0.00000000000E+00 -0.53817475775E+02  0.60647588246E+03  0.60408333473E+03 0.  0.
        4    1    3    3  502    0  0.24680156356E+03  0.12697068854E+03 -0.14652334039E+03  0.31385230556E+03  0.12699999809E+01 0.  1.
       -4    1    3    3    0  502 -0.24680156356E+03 -0.12697068854E+03  0.92705864612E+02  0.29262357690E+03  0.12699999809E+01 0. -1.
</event>
<event>
 5   0  0.8420604E-02  0.6019476E+03  0.7818609E-02  0.9901374E-01
       -2   -1    0    0    0  501  0.00000000000E+00  0.00000000000E+00  0.62348091181E+02  0.62348091233E+02  0.25500000920E-02 0. -1.
        2   -1    0    0  501    0  0.00000000000E+00  0.00000000000E+00 -0.14528949699E+04  0.14528949699E+04  0.25500000920E-02 0.  1.
    10030    2    1    2    0    0  0.00000000000E+00  0.00000000000E+00 -0.13905468787E+04  0.15152430612E+04  0.60194759939E+03 0.  0.
        2    1    3    3  502    0 -0.14007984923E+03  0.24515582111E+03 -0.43293117266E+03  0.51686859167E+03  0.25500000920E-02 0. -1.
       -2    1    3    3    0  502  0.14007984923E+03 -0.24515582111E+03 -0.95761570609E+03  0.99837446950E+03  0.25500000920E-02 0.  1.
</event>
<event>
 5   0  0.5190380E-02  0.6034871E+03  0.7818609E-02  0.9898198E-01
        1   -1    0    0  501    0  0.00000000000E+00  0.00000000000E+00  0.95032980891E+03  0.95032980893E+03  0.50400001928E-02 0. -1.
       -1   -1    0    0    0  501  0.00000000000E+00  0.00000000000E+00 -0.95807955017E+02  0.95807955150E+02  0.50400001928E-02 0.  1.
    10030    2    1    2    0    0  0.00000000000E+00  0.00000000000E+00  0.85452185390E+03  0.10461377641E+04  0.60348705259E+03 0.  0.
        5    1    3    3  502    0  0.32867347073E+02 -0.28325346336E+03  0.25640651369E+03  0.38350903154E+03  0.46999998093E+01 0. -1.
       -5    1    3    3    0  502 -0.32867347073E+02  0.28325346336E+03  0.59811534020E+03  0.66262873254E+03  0.46999998093E+01 0.  1.
</event>
<event>
 5   0  0.4987389E-02  0.5945359E+03  0.7818609E-02  0.9916808E-01
       -1   -1    0    0    0  501  0.00000000000E+00  0.00000000000E+00  0.11903073190E+03  0.11903073201E+03  0.50400001928E-02 0. -1.
        1   -1    0    0  501    0  0.00000000000E+00  0.00000000000E+00 -0.74239854512E+03  0.74239854514E+03  0.50400001928E-02 0.  1.
    10030    2    1    2    0    0  0.00000000000E+00  0.00000000000E+00 -0.62336781322E+03  0.86142927715E+03  0.59453592740E+03 0.  0.
        1    1    3    3  502    0 -0.21660269539E+03  0.11262976080E+02 -0.17142627672E+02  0.21757171689E+03  0.50400001928E-02 0. -1.
       -1    1    3    3    0  502  0.21660269539E+03 -0.11262976080E+02 -0.60622518555E+03  0.64385756026E+03  0.50400001928E-02 0.  1.
</event>
<event>
 5   0  0.8699746E-02  0.6267703E+03  0.7818609E-02  0.9851372E-01
        2   -1    0    0  501    0  0.00000000000E+00  0.00000000000E+00  0.77572924059E+03  0.77572924060E+03  0.25500000920E-02 0.  1.
       -2   -1    0    0    0  501  0.00000000000E+00  0.00000000000E+00 -0.12660376337E+03  0.12660376339E+03  0.25500000920E-02 0. -1.
    10030    2    1    2    0    0  0.00000000000E+00  0.00000000000E+00  0.64912547723E+03  0.90233300399E+03  0.62677026486E+03 0.  0.
        3    1    3    3  502    0 -0.53034409973E+02 -0.29069050352E+03  0.17428168460E+03  0.34305645784E+03  0.10100000352E+00 0. -1.
       -3    1    3    3    0  502  0.53034409973E+02  0.29069050352E+03  0.47484379263E+03  0.55927654615E+03  0.10100000352E+00 0.  1.
</event>
<event>
 5   0  0.8575590E-02  0.6000331E+03  0.7818609E-02  0.9905337E-01
        2   -1    0    0  501    0  0.00000000000E+00  0.00000000000E+00  0.19534630192E+04  0.19534630192E+04  0.25500000920E-02 0.  1.
       -2   -1    0    0    0  501  0.00000000000E+00  0.00000000000E+00 -0.46077117490E+02  0.46077117561E+02  0.25500000920E-02 0. -1.
    10030    2    1    2    0    0  0.00000000000E+00  0.00000000000E+00  0.19073859017E+04  0.19995401367E+04  0.60003314948E+03 0.  0.
        4    1    3    3  502    0  0.32904533084E+02 -0.82270942006E+01 -0.39658658151E+02  0.52199764777E+02  0.12699999809E+01 0. -1.
       -4    1    3    3    0  502 -0.32904533084E+02  0.82270942006E+01  0.19470445598E+04  0.19473403719E+04  0.12699999809E+01 0.  1.
</event>
<event>
 5   0  0.8575590E-02  0.5467389E+03  0.7818609E-02  0.1002252E+00
        2   -1    0    0  501    0  0.00000000000E+00  0.00000000000E+00  0.41204850959E+03  0.41204850960E+03  0.25500000920E-02 0. -1.
       -2   -1    0    0    0  501  0.00000000000E+00  0.00000000000E+00 -0.18136424786E+03  0.18136424788E+03  0.25500000920E-02 0.  1.
    10030    2    1    2    0    0  0.00000000000E+00  0.00000000000E+00  0.23068426173E+03  0.59341275748E+03  0.54673894331E+03 0.  0.
        4    1    3    3  502    0  0.16722686779E+02 -0.27013196318E+03  0.73610777551E+02  0.28048366308E+03  0.12699999809E+01 0.  1.
       -4    1    3    3    0  502 -0.16722686779E+02  0.27013196318E+03  0.15707348418E+03  0.31292909440E+03  0.12699999809E+01 0. -1.
</event>
<event>
 5   0  0.4987389E-02  0.5786714E+03  0.7818609E-02  0.9950671E-01
       -1   -1    0    0    0  501  0.00000000000E+00  0.00000000000E+00  0.46583501461E+03  0.46583501463E+03  0.50400001928E-02 0. -1.
        1   -1    0    0  501    0  0.00000000000E+00  0.00000000000E+00 -0.17970988648E+03  0.17970988655E+03  0.50400001928E-02 0.  1.
    10030    2    1    2    0    0  0.00000000000E+00  0.00000000000E+00  0.28612512813E+03  0.64554490118E+03  0.57867143570E+03 0.  0.
        1    1    3    3  502    0  0.26583759781E+03  0.10744845815E+03  0.99851808137E+02  0.30362012973E+03  0.50400001928E-02 0. -1.
       -1    1    3    3    0  502 -0.26583759781E+03 -0.10744845815E+03  0.18627331999E+03  0.34192477145E+03  0.50400001928E-02 0.  1.
</event>
<event>
 5   0  0.4881209E-02  0.5924144E+03  0.7818609E-02  0.9921270E-01
        1   -1    0    0  501    0  0.00000000000E+00  0.00000000000E+00  0.60964782066E+03  0.60964782068E+03  0.50400001928E-02 0.  1.
       -1   -1    0    0    0  501  0.00000000000E+00  0.00000000000E+00 -0.14391701041E+03  0.14391701050E+03  0.50400001928E-02 0. -1.
    10030    2    1    2    0    0  0.00000000000E+00  0.00000000000E+00  0.46573081025E+03  0.75356483118E+03  0.59241435430E+03 0.  0.
        3    1    3    3  502    0 -0.10701433238E+03  0.20408013409E+03 -0.38741941160E+01  0.23046862703E+03  0.10100000352E+00 0. -1.
       -3    1    3    3    0  502  0.10701433238E+03 -0.20408013409E+03  0.46960500436E+03  0.52309620415E+03  0.10100000352E+00 0.  1.
</event>
<event>
 5   0  0.4987389E-02  0.6047661E+03  0.7818609E-02  0.9895567E-01
        1   -1    0    0  501    0  0.00000000000E+00  0.00000000000E+00  0.75888453068E+03  0.75888453070E+03  0.50400001928E-02 0. -1.
       -1   -1    0    0    0  501  0.00000000000E+00  0.00000000000E+00 -0.12048672210E+03  0.12048672221E+03  0.50400001928E-02 0.  1.
    10030    2    1    2    0    0  0.00000000000E+00  0.00000000000E+00  0.63839780858E+03  0.87937125291E+03  0.60476610225E+03 0.  0.
        1    1    3    3  502    0 -0.12431214908E+01  0.25892657415E+03  0.54628971895E+03  0.60454691564E+03  0.50400001928E-02 0. -1.
       -1    1    3    3    0  502  0.12431214908E+01 -0.25892657415E+03  0.92108089633E+02  0.27482433727E+03  0.50400001928E-02 0.  1.
</event>
<event>
 5   0  0.3437375E-02  0.5966697E+03  0.7818609E-02  0.9912340E-01
       -4   -1    0    0    0  501  0.00000000000E+00  0.00000000000E+00  0.10119745522E+04  0.10119753491E+04  0.12699999809E+01 0. -1.
        4   -1    0    0  501    0  0.00000000000E+00  0.00000000000E+00 -0.87945091356E+02  0.87954260804E+02  0.12699999809E+01 0.  1.
    10030    2    1    2    0    0  0.00000000000E+00  0.00000000000E+00  0.92402946083E+03  0.10999296099E+04  0.59666967599E+03 0.  0.
        1    1    3    3  502    0  0.16069886045E+03  0.24986343294E+03  0.51242609997E+03  0.59231441551E+03  0.50400001928E-02 0. -1.
       -1    1    3    3    0  502 -0.16069886045E+03 -0.24986343294E+03  0.41160336086E+03  0.50761519439E+03  0.50400001928E-02 0.  1.
</event>
<event>
 5   0  0.8699746E-02  0.5992901E+03  0.7818609E-02  0.9906880E-01
       -2   -1    0    0    0  501  0.00000000000E+00  0.00000000000E+00  0.13496163639E+03  0.13496163641E+03  0.25500000920E-02 0. -1.
        2   -1    0    0  501    0  0.00000000000E+00  0.00000000000E+00 -0.66527914201E+03  0.66527914202E+03  0.25500000920E-02 0.  1.
    10030    2    1    2    0    0  0.00000000000E+00  0.00000000000E+00 -0.53031750562E+03  0.80024077843E+03  0.59929011897E+03 0.  0.
        3    1    3    3  502    0  0.11272047232E+03  0.15161121431E+03  0.45413943761E+02  0.19430466200E+03  0.10100000352E+00 0. -1.
       -3    1    3    3    0  502 -0.11272047232E+03 -0.15161121431E+03 -0.57573144939E+03  0.60593611643E+03  0.10100000352E+00 0.  1.
</event>
<event>
 5   0  0.8699746E-02  0.6028609E+03  0.7818609E-02  0.9899488E-01
        2   -1    0    0  501    0  0.00000000000E+00  0.00000000000E+00  0.57306740002E+03  0.57306740003E+03  0.25500000920E-02 0.  1.
       -2   -1    0    0    0  501  0.00000000000E+00  0.00000000000E+00 -0.15855081299E+03  0.15855081301E+03  0.25500000920E-02 0. -1.
    10030    2    1    2    0    0  0.00000000000E+00  0.00000000000E+00  0.41451658704E+03  0.73161821303E+03  0.60286085353E+03 0.  0.
        3    1    3    3  502    0 -0.19402352200E+03  0.12099774312E+03  0.44561027410E+03  0.50085337926E+03  0.10100000352E+00 0.  1.
       -3    1    3    3    0  502  0.19402352200E+03 -0.12099774312E+03 -0.31093687068E+02  0.23076483377E+03  0.10100000352E+00 0. -1.
</event>
<event>
 5   0  0.3437375E-02  0.6188006E+03  0.7818609E-02  0.9867151E-01
       -3   -1    0    0    0  501  0.00000000000E+00  0.00000000000E+00  0.83275901346E+02  0.83275962594E+02  0.10100000352E+00 0. -1.
        3   -1    0    0  501    0  0.00000000000E+00  0.00000000000E+00 -0.11495344110E+04  0.11495344155E+04  0.10100000352E+00 0.  1.
    10030    2    1    2    0    0  0.00000000000E+00  0.00000000000E+00 -0.10662585097E+04  0.12328103780E+04  0.61880062926E+03 0.  0.
        4    1    3    3  502    0 -0.71809393043E+02  0.19823752977E+03 -0.82014888362E+02  0.22623607571E+03  0.12699999809E+01 0. -1.
       -4    1    3    3    0  502  0.71809393043E+02 -0.19823752977E+03 -0.98424362131E+03  0.10065743023E+04  0.12699999809E+01 0.  1.
</event>
<event>
 5   0  0.4881209E-02  0.5970437E+03  0.7818609E-02  0.9911559E-01
        1   -1    0    0  501    0  0.00000000000E+00  0.00000000000E+00  0.19120933406E+03  0.19120933412E+03  0.50400001928E-02 0.  1.
       -1   -1    0    0    0  501  0.00000000000E+00  0.00000000000E+00 -0.46606138456E+03  0.46606138459E+03  0.50400001928E-02 0. -1.
    10030    2    1    2    0    0  0.00000000000E+00  0.00000000000E+00 -0.27485205050E+03  0.65727071871E+03  0.59704367345E+03 0.  0.
        3    1    3    3  502    0  0.19342739473E+03 -0.21252024677E+03 -0.22642868654E+03  0.36585375850E+03  0.10100000352E+00 0. -1.
       -3    1    3    3    0  502 -0.19342739473E+03  0.21252024677E+03 -0.48423363965E+02  0.29141696021E+03  0.10100000352E+00 0.  1.
</event>
<event>
 5   0  0.8420604E-02  0.6118877E+03  0.7818609E-02  0.9881045E-01
        2   -1    0    0  501    0  0.00000000000E+00  0.00000000000E+00  0.75761853915E+03  0.75761853916E+03  0.25500000920E-02 0.  1.
       -2   -1    0    0    0  501  0.00000000000E+00  0.00000000000E+00 -0.12354719837E+03  0.12354719840E+03  0.25500000920E-02 0. -1.
    10030    2    1    2    0    0  0.00000000000E+00  0.00000000000E+00  0.63407134078E+03  0.88116573755E+03  0.61188772813E+03 0.  0.
        2    1    3    3  502    0 -0.27113104687E+03  0.32145410884E+02  0.11824093667E+03  0.29753368066E+03  0.25500000920E-02 0. -1.
       -2    1    3    3    0  502  0.27113104687E+03 -0.32145410884E+02  0.51583040411E+03  0.58363205689E+03  0.25500000920E-02 0.  1.
</event>
<event>
 5   0  0.8207443E-02  0.6066425E+03  0.7818609E-02  0.9891720E-01
       -2   -1    0    0    0  501  0.00000000000E+00  0.00000000000E+00  0.52099827371E+02  0.52099827434E+02  0.25500000920E-02 0. -1.
        2   -1    0    0  501    0  0.00000000000E+00  0.00000000000E+00 -0.17659130921E+04  0.17659130921E+04  0.25500000920E-02 0.  1.
    10030    2    1    2    0    0  0.00000000000E+00  0.00000000000E+00 -0.17138132648E+04  0.18180129196E+04  0.60664245585E+03 0.  0.
        1    1    3    3  502    0 -0.21263109579E+03 -0.21646331294E+02 -0.21190095460E+03  0.30096936911E+03  0.50400001928E-02 0. -1.
       -1    1    3    3    0  502  0.21263109579E+03  0.21646331294E+02 -0.15019123102E+04  0.15170435505E+04  0.50400001928E-02 0.  1.
</event>
<event>
 5   0  0.8575590E-02  0.6040489E+03  0.7818609E-02  0.9897041E-01
        2   -1    0    0  501    0  0.00000000000E+00  0.00000000000E+00  0.24819714823E+03  0.24819714824E+03  0.25500000920E-02 0. -1.
       -2   -1    0    0    0  501  0.00000000000E+00  0.00000000000E+00 -0.36752540231E+03  0.36752540232E+03  0.25500000920E-02 0.  1.
    10030    2    1    2    0    0  0.00000000000E+00  0.00000000000E+00 -0.11932825408E+03  0.61572255056E+03  0.60404886147E+03 0.  0.
        4    1    3    3  502    0 -0.25667977653E+03  0.10512672640E+03  0.62148529475E+02  0.28425374034E+03  0.12699999809E+01 0. -1.
       -4    1    3    3    0  502  0.25667977653E+03 -0.10512672640E+03 -0.18147678355E+03  0.33146881022E+03  0.12699999809E+01 0.  1.
</event>
<event>
 5   0  0.3437375E-02  0.5986565E+03  0.7818609E-02  0.9908197E-01
       -3   -1    0    0    0  501  0.00000000000E+00  0.00000000000E+00  0.21700264806E+03  0.21700267157E+03  0.10100000352E+00 0. -1.
        3   -1    0    0  501    0  0.00000000000E+00  0.00000000000E+00 -0.41288612865E+03  0.41288614101E+03  0.10100000352E+00 0.  1.
    10030    2    1    2    0    0  0.00000000000E+00  0.00000000000E+00 -0.19588348059E+03  0.62988881257E+03  0.59865647765E+03 0.  0.
        4    1    3    3  502    0 -0.99248572044E+02  0.18776225537E+03  0.12399106466E+03  0.24592751088E+03  0.12699999809E+01 0. -1.
       -4    1    3    3    0  502  0.99248572044E+02 -0.18776225537E+03 -0.31987454525E+03  0.38396130169E+03  0.12699999809E+01 0.  1.
</event>
<event>
 5   0  0.5190380E-02  0.5923890E+03  0.7818609E-02  0.9921323E-01
       -1   -1    0    0    0  501  0.00000000000E+00  0.00000000000E+00  0.20721338674E+03  0.20721338680E+03  0.50400001928E-02 0.  1.
        1   -1    0    0  501    0  0.00000000000E+00  0.00000000000E+00 -0.42338574133E+03  0.42338574136E+03  0.50400001928E-02 0. -1.
    10030    2    1    2    0    0  0.00000000000E+00  0.00000000000E+00 -0.21617235459E+03  0.63059912817E+03  0.59238903902E+03 0.  0.
        5    1    3    3  502    0  0.28399414678E+03 -0.83753464806E+02 -0.10120508853E+03  0.31294069441E+03  0.46999998093E+01 0. -1.
       -5    1    3    3    0  502 -0.28399414678E+03  0.83753464806E+02 -0.11496726606E+03  0.31765843376E+03  0.46999998093E+01 0.  1.
</event>
<event>
 5   0  0.8207443E-02  0.5954063E+03  0.7818609E-02  0.9914983E-01
       -2   -1    0    0    0  501  0.00000000000E+00  0.00000000000E+00  0.34293410955E+03  0.34293410956E+03  0.25500000920E-02 0.  1.
        2   -1    0    0  501    0  0.00000000000E+00  0.00000000000E+00 -0.25843792354E+03  0.25843792355E+03  0.25500000920E-02 0. -1.
    10030    2    1    2    0    0  0.00000000000E+00  0.00000000000E+00  0.84496186010E+02  0.60137203311E+03  0.59540634592E+03 0.  0.
        1    1    3    3  502    0  0.10525471267E+03  0.26940724684E+00 -0.23901750409E+03  0.26116660278E+03  0.50400001928E-02 0. -1.
       -1    1    3    3    0  502 -0.10525471267E+03 -0.26940724684E+00  0.32351369010E+03  0.34020543033E+03  0.50400001928E-02 0.  1.
</event>
<event>
 5   0  0.8699746E-02  0.4561329E+03  0.7818609E-02  0.1025909E+00
        2   -1    0    0  501    0  0.00000000000E+00  0.00000000000E+00  0.12219193058E+03  0.12219193061E+03  0.25500000920E-02 0.  1.
       -2   -1    0    0    0  501  0.00000000000E+00  0.00000000000E+00 -0.42567708653E+03  0.42567708654E+03  0.25500000920E-02 0. -1.
    10030    2    1    2    0    0  0.00000000000E+00  0.00000000000E+00 -0.30348515595E+03  0.54786901714E+03  0.45613289738E+03 0.  0.
        3    1    3    3  502    0  0.21556289696E+01  0.17481924058E+03 -0.32764731831E+03  0.37137472856E+03  0.10100000352E+00 0. -1.
       -3    1    3    3    0  502 -0.21556289696E+01 -0.17481924058E+03  0.24162162363E+02  0.17649428859E+03  0.10100000352E+00 0.  1.
</event>
<event>
 5   0  0.5125031E-02  0.6010459E+03  0.7818609E-02  0.9903238E-01
       -1   -1    0    0    0  501  0.00000000000E+00  0.00000000000E+00  0.15936591361E+04  0.15936591362E+04  0.50400001928E-02 0.  1.
        1   -1    0    0  501    0  0.00000000000E+00  0.00000000000E+00 -0.56670872792E+02  0.56670873016E+02  0.50400001928E-02 0. -1.
    10030    2    1    2    0    0  0.00000000000E+00  0.00000000000E+00  0.15369882634E+04  0.16503300092E+04  0.60104593625E+03 0.  0.
        4    1    3    3  502    0 -0.10857997890E+03  0.91953931841E+02  0.14953040338E+04  0.15020588883E+04  0.12699999809E+01 0.  1.
       -4    1    3    3    0  502  0.10857997890E+03 -0.91953931841E+02  0.41684229538E+02  0.14827112090E+03  0.12699999809E+01 0. -1.
</event>
<event>
 5   0  0.3437375E-02  0.5959627E+03  0.7818609E-02  0.9913818E-01
       -3   -1    0    0    0  501  0.00000000000E+00  0.00000000000E+00  0.64022554129E+03  0.64022554925E+03  0.10100000352E+00 0.  1.
        3   -1    0    0  501    0  0.00000000000E+00  0.00000000000E+00 -0.13868999010E+03  0.13869002687E+03  0.10100000352E+00 0. -1.
    10030    2    1    2    0    0  0.00000000000E+00  0.00000000000E+00  0.50153555119E+03  0.77891557613E+03  0.59596272168E+03 0.  0.
        3    1    3    3  502    0 -0.27286379833E+03  0.56968284637E+02  0.11311254032E+03  0.30082302916E+03  0.10100000352E+00 0. -1.
       -3    1    3    3    0  502  0.27286379833E+03 -0.56968284637E+02  0.38842301087E+03  0.47809254697E+03  0.10100000352E+00 0.  1.
</event>
<event>
 5   0  0.8817544E-02  0.6324627E+03  0.7818609E-02  0.9840255E-01
       -2   -1    0    0    0  501  0.00000000000E+00  0.00000000000E+00  0.11305720582E+03  0.11305720585E+03  0.25500000920E-02 0.  1.
        2   -1    0    0  501    0  0.00000000000E+00  0.00000000000E+00 -0.88452806322E+03  0.88452806323E+03  0.25500000920E-02 0. -1.
    10030    2    1    2    0    0  0.00000000000E+00  0.00000000000E+00 -0.77147085740E+03  0.99758526907E+03  0.63246271451E+03 0.  0.
        5    1    3    3  502    0  0.21269360708E+03 -0.22775254896E+02 -0.18447660963E+02  0.21475495087E+03  0.46999998093E+01 0.  1.
       -5    1    3    3    0  502 -0.21269360708E+03  0.22775254896E+02 -0.75302319644E+03  0.78283031821E+03  0.46999998093E+01 0. -1.
</event>
<event>
 5   0  0.8420604E-02  0.6078195E+03  0.7818609E-02  0.9889315E-01
        2   -1    0    0  501    0  0.00000000000E+00  0.00000000000E+00  0.25526198056E+03  0.25526198057E+03  0.25500000920E-02 0. -1.
       -2   -1    0    0    0  501  0.00000000000E+00  0.00000000000E+00 -0.36182881925E+03  0.36182881926E+03  0.25500000920E-02 0.  1.
    10030    2    1    2    0    0  0.00000000000E+00  0.00000000000E+00 -0.10656683869E+03  0.61709079984E+03  0.60781951609E+03 0.  0.
        2    1    3    3  502    0 -0.98514779620E+02 -0.17778987739E+03  0.17609810351E+03  0.26893297375E+03  0.25500000920E-02 0. -1.
       -2    1    3    3    0  502  0.98514779620E+02  0.17778987739E+03 -0.28266494220E+03  0.34815782608E+03  0.25500000920E-02 0.  1.
</event>
<event>
 5   0  0.8420604E-02  0.6402822E+03  0.7818609E-02  0.9825187E-01
       -2   -1    0    0    0  501  0.00000000000E+00  0.00000000000E+00  0.14743890606E+03  0.14743890608E+03  0.25500000920E-02 0. -1.
        2   -1    0    0  501    0  0.00000000000E+00  0.00000000000E+00 -0.69513750616E+03  0.69513750616E+03  0.25500000920E-02 0.  1.
    10030    2    1    2    0    0  0.00000000000E+00  0.00000000000E+00 -0.54769860010E+03  0.84257641225E+03  0.64028216742E+03 0.  0.
        2    1    3    3  502    0 -0.29339200324E+03  0.83071294523E+02 -0.40218337491E+03  0.50470899992E+03  0.25500000920E-02 0.  1.
       -2    1    3    3    0  502  0.29339200324E+03 -0.83071294523E+02 -0.14551522519E+03  0.33786741232E+03  0.25500000920E-02 0. -1.
</event>
<event>
 5   0  0.4881209E-02  0.6004685E+03  0.7818609E-02  0.9904435E-01
        1   -1    0    0  501    0  0.00000000000E+00  0.00000000000E+00  0.15096362769E+04  0.15096362769E+04  0.50400001928E-02 0. -1.
       -1   -1    0    0    0  501  0.00000000000E+00  0.00000000000E+00 -0.59710141238E+02  0.59710141451E+02  0.50400001928E-02 0.  1.
    10030    2    1    2    0    0  0.00000000000E+00  0.00000000000E+00  0.14499261357E+04  0.15693464184E+04  0.60046846874E+03 0.  0.
        3    1    3    3  502    0 -0.16688776722E+03 -0.18737691212E+03  0.11558317821E+04  0.11827547306E+04  0.10100000352E+00 0. -1.
       -3    1    3    3    0  502  0.16688776722E+03  0.18737691212E+03  0.29409435355E+03  0.38659168775E+03  0.10100000352E+00 0.  1.
</event>
<event>
 5   0  0.5166903E-02  0.6052694E+03  0.7818609E-02  0.9894534E-01
       -1   -1    0    0    0  501  0.00000000000E+00  0.00000000000E+00  0.14852330175E+03  0.14852330183E+03  0.50400001928E-02 0.  1.
        1   -1    0    0  501    0  0.00000000000E+00  0.00000000000E+00 -0.61665584249E+03  0.61665584251E+03  0.50400001928E-02 0. -1.
    10030    2    1    2    0    0  0.00000000000E+00  0.00000000000E+00 -0.46813254074E+03  0.76517914434E+03  0.60526940055E+03 0.  0.
        2    1    3    3  502    0 -0.19748010373E+03 -0.18492788956E+03 -0.62624113334E+02  0.27770217011E+03  0.25500000920E-02 0.  1.
       -2    1    3    3    0  502  0.19748010373E+03  0.18492788956E+03 -0.40550842740E+03  0.48747697423E+03  0.25500000920E-02 0. -1.
</event>
<event>
 5   0  0.8207443E-02  0.6013796E+03  0.7818609E-02  0.9902548E-01
       -2   -1    0    0    0  501  0.00000000000E+00  0.00000000000E+00  0.30549524036E+03  0.30549524037E+03  0.25500000920E-02 0. -1.
        2   -1    0    0  501    0  0.00000000000E+00  0.00000000000E+00 -0.29595990525E+03  0.29595990526E+03  0.25500000920E-02 0.  1.
    10030    2    1    2    0    0  0.00000000000E+00  0.00000000000E+00  0.95353351138E+01  0.60145514563E+03  0.60137955535E+03 0.  0.
        1    1    3    3  502    0  0.62475706901E+02 -0.28939484425E+03  0.57326652137E+02  0.30156083118E+03  0.50400001928E-02 0. -1.
       -1    1    3    3    0  502 -0.62475706901E+02  0.28939484425E+03 -0.47791317024E+02  0.29989431445E+03  0.50400001928E-02 0.  1.
</event>
<event>
 5   0  0.3437375E-02  0.6037903E+03  0.7818609E-02  0.9897573E-01
       -4   -1    0    0    0  501  0.00000000000E+00  0.00000000000E+00  0.38219913140E+03  0.38220124142E+03  0.12699999809E+01 0. -1.
        4   -1    0    0  501    0  0.00000000000E+00  0.00000000000E+00 -0.23845940432E+03  0.23846278621E+03  0.12699999809E+01 0.  1.
    10030    2    1    2    0    0  0.00000000000E+00  0.00000000000E+00  0.14373972709E+03  0.62066402764E+03  0.60379029974E+03 0.  0.
        4    1    3    3  502    0  0.51569866361E+02 -0.12900629881E+03  0.34738439794E+03  0.37413848917E+03  0.12699999809E+01 0. -1.
       -4    1    3    3    0  502 -0.51569866361E+02  0.12900629881E+03 -0.20364467085E+03  0.24652553846E+03  0.12699999809E+01 0.  1.
</event>
<event>
 5   0  0.5190380E-02  0.5989561E+03  0.7818609E-02  0.9907574E-01
        1   -1    0    0  501    0  0.00000000000E+00  0.00000000000E+00  0.13754739134E+04  0.13754739134E+04  0.50400001928E-02 0. -1.
       -1   -1    0    0    0  501  0.00000000000E+00  0.00000000000E+00 -0.65204501170E+02  0.65204501365E+02  0.50400001928E-02 0.  1.
    10030    2    1    2    0    0  0.00000000000E+00  0.00000000000E+00  0.13102694122E+04  0.14406784148E+04  0.59895606030E+03 0.  0.
        5    1    3    3  502    0 -0.22943233825E+03  0.58782519935E+02  0.21442718662E+03  0.31952416316E+03  0.46999998093E+01 0.  1.
       -5    1    3    3    0  502  0.22943233825E+03 -0.58782519935E+02  0.10958422256E+04  0.11211542516E+04  0.46999998093E+01 0. -1.
</event>
<event>
 5   0  0.8817544E-02  0.6004777E+03  0.7818609E-02  0.9904415E-01
        2   -1    0    0  501    0  0.00000000000E+00  0.00000000000E+00  0.16598496592E+03  0.16598496594E+03  0.25500000920E-02 0. -1.
       -2   -1    0    0    0  501  0.00000000000E+00  0.00000000000E+00 -0.54308154173E+03  0.54308154174E+03  0.25500000920E-02 0.  1.
    10030    2    1    2    0    0  0.00000000000E+00  0.00000000000E+00 -0.37709657581E+03  0.70906650768E+03  0.60047771385E+03 0.  0.
        5    1    3    3  502    0 -0.28918283887E+03 -0.80214917619E+02 -0.19770521551E+03  0.35940310174E+03  0.46999998093E+01 0. -1.
       -5    1    3    3    0  502  0.28918283887E+03  0.80214917619E+02 -0.17939136030E+03  0.34966340594E+03  0.46999998093E+01 0.  1.
</event>
<event>
 5   0  0.3437375E-02  0.6043533E+03  0.7818609E-02  0.9896415E-01
       -4   -1    0    0    0  501  0.00000000000E+00  0.00000000000E+00  0.10807715695E+03  0.10808461849E+03  0.12699999809E+01 0.  1.
        4   -1    0    0  501    0  0.00000000000E+00  0.00000000000E+00 -0.84482904513E+03  0.84482999970E+03  0.12699999809E+01 0. -1.
    10030    2    1    2    0    0  0.00000000000E+00  0.00000000000E+00 -0.73675188818E+03  0.95291461819E+03  0.60435331125E+03 0.  0.
        1    1    3    3  502    0  0.23513669642E+03 -0.18613627349E+03 -0.30991371100E+03  0.43125686848E+03  0.50400001928E-02 0.  1.
       -1    1    3    3    0  502 -0.23513669642E+03  0.18613627349E+03 -0.42683817718E+03  0.52165774971E+03  0.50400001928E-02 0. -1.
</event>
<event>
 5   0  0.4987389E-02  0.6019297E+03  0.7818609E-02  0.9901411E-01
       -1   -1    0    0    0  501  0.00000000000E+00  0.00000000000E+00  0.24316423199E+03  0.24316423204E+03  0.50400001928E-02 0.  1.
        1   -1    0    0  501    0  0.00000000000E+00  0.00000000000E+00 -0.37250481312E+03  0.37250481316E+03  0.50400001928E-02 0. -1.
    10030    2    1    2    0    0  0.00000000000E+00  0.00000000000E+00 -0.12934058113E+03  0.61566904520E+03  0.60192971956E+03 0.  0.
        1    1    3    3  502    0 -0.13325119194E+03 -0.84624356373E+02  0.19742598553E+03  0.25277298438E+03  0.50400001928E-02 0.  1.
       -1    1    3    3    0  502  0.13325119194E+03  0.84624356373E+02 -0.32676656666E+03  0.36289606082E+03  0.50400001928E-02 0. -1.
</event>
<event>
 5   0  0.4881209E-02  0.6048734E+03  0.7818609E-02  0.9895346E-01
       -1   -1    0    0    0  501  0.00000000000E+00  0.00000000000E+00  0.31750064546E+03  0.31750064550E+03  0.50400001928E-02 0.  1.
        1   -1    0    0  501    0  0.00000000000E+00  0.00000000000E+00 -0.28808751226E+03  0.28808751231E+03  0.50400001928E-02 0. -1.
    10030    2    1    2    0    0  0.00000000000E+00  0.00000000000E+00  0.29413133194E+02  0.60558815780E+03  0.60487344500E+03 0.  0.
        3    1    3    3  502    0  0.25454801497E+03  0.69395048553E+02  0.16272440405E+03  0.30998323594E+03  0.10100000352E+00 0.  1.
       -3    1    3    3    0  502 -0.25454801497E+03 -0.69395048553E+02 -0.13331127086E+03  0.29560492186E+03  0.10100000352E+00 0. -1.
</event>
<event>
 5   0  0.8420604E-02  0.6144644E+03  0.7818609E-02  0.9875843E-01
        2   -1    0    0  501    0  0.00000000000E+00  0.00000000000E+00  0.17520380446E+04  0.17520380446E+04  0.25500000920E-02 0. -1.
       -2   -1    0    0    0  501  0.00000000000E+00  0.00000000000E+00 -0.53875325442E+02  0.53875325503E+02  0.25500000920E-02 0.  1.
    10030    2    1    2    0    0  0.00000000000E+00  0.00000000000E+00  0.16981627191E+04  0.18059133701E+04  0.61446438431E+03 0.  0.
        2    1    3    3  502    0 -0.22759915155E+03 -0.20545522529E+03  0.79191062752E+03  0.84919707099E+03  0.25500000920E-02 0.  1.
       -2    1    3    3    0  502  0.22759915155E+03  0.20545522529E+03  0.90625209162E+03  0.95671629910E+03  0.25500000920E-02 0. -1.
</event>
<event>
 5   0  0.8207443E-02  0.5938752E+03  0.7818609E-02  0.9918195E-01
       -2   -1    0    0    0  501  0.00000000000E+00  0.00000000000E+00  0.11691813867E+03  0.11691813870E+03  0.25500000920E-02 0.  1.
        2   -1    0    0  501    0  0.00000000000E+00  0.00000000000E+00 -0.75413399269E+03  0.75413399270E+03  0.25500000920E-02 0. -1.
    10030    2    1    2    0    0  0.00000000000E+00  0.00000000000E+00 -0.63721585402E+03  0.87105213140E+03  0.59387521501E+03 0.  0.
        1    1    3    3  502    0 -0.24181065000E+02  0.26770382715E+03 -0.13353362640E+03  0.30013545672E+03  0.50400001928E-02 0.  1.
       -1    1    3    3    0  502  0.24181065000E+02 -0.26770382715E+03 -0.50368222762E+03  0.57091667468E+03  0.50400001928E-02 0. -1.
</event>
<event>
 5   0  0.4987389E-02  0.6013572E+03  0.7818609E-02  0.9902594E-01
        1   -1    0    0  501    0  0.00000000000E+00  0.00000000000E+00  0.12817372235E+04  0.12817372235E+04  0.50400001928E-02 0.  1.
       -1   -1    0    0    0  501  0.00000000000E+00  0.00000000000E+00 -0.70535220793E+02  0.70535220973E+02  0.50400001928E-02 0. -1.
    10030    2    1    2    0    0  0.00000000000E+00  0.00000000000E+00  0.12112020027E+04  0.13522724445E+04  0.60135719231E+03 0.  0.
        1    1    3    3  502    0  0.13842552373E+03 -0.24673878242E+03  0.37665314870E+03  0.47107244328E+03  0.50400001928E-02 0. -1.
       -1    1    3    3    0  502 -0.13842552373E+03  0.24673878242E+03  0.83454885402E+03  0.88120000121E+03  0.50400001928E-02 0.  1.
</event>
<event>
 5   0  0.8207443E-02  0.6094618E+03  0.7818609E-02  0.9885968E-01
       -2   -1    0    0    0  501  0.00000000000E+00  0.00000000000E+00  0.64919060086E+03  0.64919060086E+03  0.25500000920E-02 0. -1.
        2   -1    0    0  501    0  0.00000000000E+00  0.00000000000E+00 -0.14304106308E+03  0.14304106310E+03  0.25500000920E-02 0.  1.
    10030    2    1    2    0    0  0.00000000000E+00  0.00000000000E+00  0.50614953778E+03  0.79223166397E+03  0.60946177468E+03 0.  0.
        1    1    3    3  502    0 -0.20760073614E+03  0.61075526111E+02  0.53196840837E+03  0.57429841813E+03  0.50400001928E-02 0. -1.
       -1    1    3    3    0  502  0.20760073614E+03 -0.61075526111E+02 -0.25818870594E+02  0.21793324583E+03  0.50400001928E-02 0.  1.
</event>
<event>
 5   0  0.8207443E-02  0.5989127E+03  0.7818609E-02  0.9907664E-01
        2   -1    0    0  501    0  0.00000000000E+00  0.00000000000E+00  0.50420636800E+03  0.50420636800E+03  0.25500000920E-02 0. -1.
       -2   -1    0    0    0  501  0.00000000000E+00  0.00000000000E+00 -0.17785200206E+03  0.17785200208E+03  0.25500000920E-02 0.  1.
    10030    2    1    2    0    0  0.00000000000E+00  0.00000000000E+00  0.32635436594E+03  0.68205837008E+03  0.59891272155E+03 0.  0.
        1    1    3    3  502    0 -0.24570314409E+03  0.17024690913E+03  0.14280308525E+03  0.33128049485E+03  0.50400001928E-02 0.  1.
       -1    1    3    3    0  502  0.24570314409E+03 -0.17024690913E+03  0.18355128068E+03  0.35077787523E+03  0.50400001928E-02 0. -1.
</event>
<event>
 5   0  0.8817544E-02  0.5987752E+03  0.7818609E-02  0.9907950E-01
        2   -1    0    0  501    0  0.00000000000E+00  0.00000000000E+00  0.10844786983E+04  0.10844786983E+04  0.25500000920E-02 0. -1.
       -2   -1    0    0    0  501  0.00000000000E+00  0.00000000000E+00 -0.82650718766E+02  0.82650718806E+02  0.25500000920E-02 0.  1.
    10030    2    1    2    0    0  0.00000000000E+00  0.00000000000E+00  0.10018279796E+04  0.11671294172E+04  0.59877522971E+03 0.  0.
        5    1    3    3  502    0 -0.78869622067E+02  0.15388190119E+02 -0.61163020670E+02  0.10109509768E+03  0.46999998093E+01 0.  1.
       -5    1    3    3    0  502  0.78869622067E+02 -0.15388190119E+02  0.10629910002E+04  0.10660343195E+04  0.46999998093E+01 0. -1.
</event>
<event>
 5   0  0.8207443E-02  0.7020428E+03  0.7818609E-02  0.9713745E-01
        2   -1    0    0  501    0  0.00000000000E+00  0.00000000000E+00  0.57458634672E+03  0.57458634672E+03  0.25500000920E-02 0. -1.
       -2   -1    0    0    0  501  0.00000000000E+00  0.00000000000E+00 -0.21444302038E+03  0.21444302039E+03  0.25500000920E-02 0.  1.
    10030    2    1    2    0    0  0.00000000000E+00  0.00000000000E+00  0.36014332634E+03  0.78902936711E+03  0.70204282395E+03 0.  0.
        1    1    3    3  502    0 -0.96318446460E+02 -0.12442153002E+03  0.53273086917E+03  0.55548189822E+03  0.50400001928E-02 0. -1.
       -1    1    3    3    0  502  0.96318446460E+02  0.12442153002E+03 -0.17258754283E+03  0.23354746889E+03  0.50400001928E-02 0.  1.
</event>
<event>
 5   0  0.5125031E-02  0.5879805E+03  0.7818609E-02  0.9930661E-01
       -1   -1    0    0    0  501  0.00000000000E+00  0.00000000000E+00  0.16212694317E+03  0.16212694325E+03  0.50400001928E-02 0.  1.
        1   -1    0    0  501    0  0.00000000000E+00  0.00000000000E+00 -0.53310234196E+03  0.53310234198E+03  0.50400001928E-02 0. -1.
    10030    2    1    2    0    0  0.00000000000E+00  0.00000000000E+00 -0.37097539878E+03  0.69522928523E+03  0.58798045251E+03 0.  0.
        4    1    3    3  502    0 -0.23706224891E+03 -0.46394985552E+02 -0.38361550839E+03  0.45333594135E+03  0.12699999809E+01 0. -1.
       -4    1    3    3    0  502  0.23706224891E+03  0.46394985552E+02  0.12640109605E+02  0.24189334388E+03  0.12699999809E+01 0.  1.
</event>
<event>
 5   0  0.4987389E-02  0.6012274E+03  0.7818609E-02  0.9902863E-01
       -1   -1    0    0    0  501  0.00000000000E+00  0.00000000000E+00  0.87070948062E+02  0.87070948208E+02  0.50400001928E-02 0.  1.
        1   -1    0    0  501    0  0.00000000000E+00  0.00000000000E+00 -0.10378731439E+04  0.10378731439E+04  0.50400001928E-02 0. -1.
    10030    2    1    2    0    0  0.00000000000E+00  0.00000000000E+00 -0.95080219585E+03  0.11249440921E+04  0.60122740688E+03 0.  0.
        1    1    3    3  502    0  0.54398528223E+02  0.14746339738E+03  0.40625175139E+01  0.15722963306E+03  0.50400001928E-02 0.  1.
       -1    1    3    3    0  502 -0.54398528223E+02 -0.14746339738E+03 -0.95486471336E+03  0.96771445906E+03  0.50400001928E-02 0. -1.
</event>
<event>
 5   0  0.4987389E-02  0.6034223E+03  0.7818609E-02  0.9898331E-01
       -1   -1    0    0    0  501  0.00000000000E+00  0.00000000000E+00  0.63868195227E+02  0.63868195426E+02  0.50400001928E-02 0. -1.
        1   -1    0    0  501    0  0.00000000000E+00  0.00000000000E+00 -0.14252730464E+04  0.14252730464E+04  0.50400001928E-02 0.  1.
    10030    2    1    2    0    0  0.00000000000E+00  0.00000000000E+00 -0.13614048511E+04  0.14891412418E+04  0.60342229767E+03 0.  0.
        1    1    3    3  502    0  0.15040934873E+03  0.18574816749E+03 -0.11351059530E+04  0.11599960683E+04  0.50400001928E-02 0.  1.
       -1    1    3    3    0  502 -0.15040934873E+03 -0.18574816749E+03 -0.22629889813E+03  0.32914517349E+03  0.50400001928E-02 0. -1.
</event>
<event>
 5   0  0.8817544E-02  0.5778572E+03  0.7818609E-02  0.9952441E-01
       -2   -1    0    0    0  501  0.00000000000E+00  0.00000000000E+00  0.11789862672E+03  0.11789862675E+03  0.25500000920E-02 0. -1.
        2   -1    0    0  501    0  0.00000000000E+00  0.00000000000E+00 -0.70806373719E+03  0.70806373720E+03  0.25500000920E-02 0.  1.
    10030    2    1    2    0    0  0.00000000000E+00  0.00000000000E+00 -0.59016511047E+03  0.82596236395E+03  0.57785722202E+03 0.  0.
        5    1    3    3  502    0 -0.24985777241E+03 -0.19427267444E+02 -0.50048882514E+03  0.55974769249E+03  0.46999998093E+01 0. -1.
       -5    1    3    3    0  502  0.24985777241E+03  0.19427267444E+02 -0.89676285327E+02  0.26621467146E+03  0.46999998093E+01 0.  1.
</event>
<event>
 5   0  0.8207443E-02  0.6144864E+03  0.7818609E-02  0.9875799E-01
       -2   -1    0    0    0  501  0.00000000000E+00  0.00000000000E+00  0.19630079561E+03  0.19630079563E+03  0.25500000920E-02 0.  1.
        2   -1    0    0  501    0  0.00000000000E+00  0.00000000000E+00 -0.48088644406E+03  0.48088644406E+03  0.25500000920E-02 0. -1.
    10030    2    1    2    0    0  0.00000000000E+00  0.00000000000E+00 -0.28458564844E+03  0.67718723969E+03  0.61448642483E+03 0.  0.
        1    1    3    3  502    0  0.15068319619E+03 -0.25439605200E+03 -0.23433517755E+03  0.37727410771E+03  0.50400001928E-02 0. -1.
       -1    1    3    3    0  502 -0.15068319619E+03  0.25439605200E+03 -0.50250470895E+02  0.29991313198E+03  0.50400001928E-02 0.  1.
</event>
<event>
 5   0  0.3437375E-02  0.6100018E+03  0.7818609E-02  0.9884870E-01
       -3   -1    0    0    0  501  0.00000000000E+00  0.00000000000E+00  0.28556042560E+03  0.28556044347E+03  0.10100000352E+00 0.  1.
        3   -1    0    0  501    0  0.00000000000E+00  0.00000000000E+00 -0.32576477674E+03  0.32576479240E+03  0.10100000352E+00 0. -1.
    10030    2    1    2    0    0  0.00000000000E+00  0.00000000000E+00 -0.40204351134E+02  0.61132523586E+03  0.61000176570E+03 0.  0.
        5    1    3    3  502    0 -0.16948328463E+03  0.23760424946E+03  0.68537930648E+02  0.29983312203E+03  0.46999998093E+01 0.  1.
       -5    1    3    3    0  502  0.16948328463E+03 -0.23760424946E+03 -0.10874228178E+03  0.31149211383E+03  0.46999998093E+01 0. -1.
</event>
<event>
 5   0  0.4881209E-02  0.6041541E+03  0.7818609E-02  0.9896825E-01
        1   -1    0    0  501    0  0.00000000000E+00  0.00000000000E+00  0.87273215561E+03  0.87273215562E+03  0.50400001928E-02 0.  1.
       -1   -1    0    0    0  501  0.00000000000E+00  0.00000000000E+00 -0.10455732140E+03  0.10455732152E+03  0.50400001928E-02 0. -1.
    10030    2    1    2    0    0  0.00000000000E+00  0.00000000000E+00  0.76817483421E+03  0.97728947714E+03  0.60415407491E+03 0.  0.
        3    1    3    3  502    0 -0.83925932731E+02 -0.28972329860E+03  0.41053801191E+03  0.50943559098E+03  0.10100000352E+00 0.  1.
       -3    1    3    3    0  502  0.83925932731E+02  0.28972329860E+03  0.35763682230E+03  0.46785388616E+03  0.10100000352E+00 0. -1.
</event>
<event>
 5   0  0.4881209E-02  0.5601251E+03  0.7818609E-02  0.9991772E-01
       -1   -1    0    0    0  501  0.00000000000E+00  0.00000000000E+00  0.10554297652E+03  0.10554297664E+03  0.50400001928E-02 0. -1.
        1   -1    0    0  501    0  0.00000000000E+00  0.00000000000E+00 -0.74315716676E+03  0.74315716678E+03  0.50400001928E-02 0.  1.
    10030    2    1    2    0    0  0.00000000000E+00  0.00000000000E+00 -0.63761419024E+03  0.84870014342E+03  0.56012505553E+03 0.  0.
        3    1    3    3  502    0 -0.32929217653E+02  0.27375388488E+03 -0.24443131833E+03  0.36847279743E+03  0.10100000352E+00 0. -1.
       -3    1    3    3    0  502  0.32929217653E+02 -0.27375388488E+03 -0.39318287192E+03  0.48022734599E+03  0.10100000352E+00 0.  1.
</event>
<event>
 5   0  0.8207443E-02  0.4579316E+03  0.7818609E-02  0.1025383E+00
       -2   -1    0    0    0  501  0.00000000000E+00  0.00000000000E+00  0.16841962843E+03  0.16841962845E+03  0.25500000920E-02 0.  1.
        2   -1    0    0  501    0  0.00000000000E+00  0.00000000000E+00 -0.31127805931E+03  0.31127805932E+03  0.25500000920E-02 0. -1.
    10030    2    1    2    0    0  0.00000000000E+00  0.00000000000E+00 -0.14285843088E+03  0.47969768776E+03  0.45793158918E+03 0.  0.
        1    1    3    3  502    0 -0.19012341367E+03 -0.63522833739E+02  0.44479415215E+02  0.20533017614E+03  0.50400001928E-02 0. -1.
       -1    1    3    3    0  502  0.19012341367E+03  0.63522833739E+02 -0.18733784609E+03  0.27436751162E+03  0.50400001928E-02 0.  1.
</event>
<event>
 5   0  0.3437375E-02  0.4678540E+03  0.7818609E-02  0.1022528E+00
       -3   -1    0    0    0  501  0.00000000000E+00  0.00000000000E+00  0.31139671478E+03  0.31139673116E+03  0.10100000352E+00 0.  1.
        3   -1    0    0  501    0  0.00000000000E+00  0.00000000000E+00 -0.17573026464E+03  0.17573029366E+03  0.10100000352E+00 0. -1.
    10030    2    1    2    0    0  0.00000000000E+00  0.00000000000E+00  0.13566645014E+03  0.48712702483E+03  0.46785398643E+03 0.  0.
        3    1    3    3  502    0 -0.14453195141E+03 -0.37561476299E+02 -0.11964390536E+03  0.19135052592E+03  0.10100000352E+00 0. -1.
       -3    1    3    3    0  502  0.14453195141E+03  0.37561476299E+02  0.25531035550E+03  0.29577649891E+03  0.10100000352E+00 0.  1.
</event>
<event>
 5   0  0.4987389E-02  0.6005606E+03  0.7818609E-02  0.9904244E-01
       -1   -1    0    0    0  501  0.00000000000E+00  0.00000000000E+00  0.21060466554E+03  0.21060466560E+03  0.50400001928E-02 0.  1.
        1   -1    0    0  501    0  0.00000000000E+00  0.00000000000E+00 -0.42813990182E+03  0.42813990184E+03  0.50400001928E-02 0. -1.
    10030    2    1    2    0    0  0.00000000000E+00  0.00000000000E+00 -0.21753523627E+03  0.63874456745E+03  0.60056060762E+03 0.  0.
        1    1    3    3  502    0  0.69570304978E+02 -0.61522045114E+02  0.19494612390E+03  0.21593744608E+03  0.50400001928E-02 0.  1.
       -1    1    3    3    0  502 -0.69570304978E+02  0.61522045114E+02 -0.41248136017E+03  0.42280712137E+03  0.50400001928E-02 0. -1.
</event>
<event>
 5   0  0.5166903E-02  0.5911471E+03  0.7818609E-02  0.9923945E-01
        1   -1    0    0  501    0  0.00000000000E+00  0.00000000000E+00  0.23000754775E+03  0.23000754781E+03  0.50400001928E-02 0.  1.
       -1   -1    0    0    0  501  0.00000000000E+00  0.00000000000E+00 -0.37982982699E+03  0.37982982702E+03  0.50400001928E-02 0. -1.
    10030    2    1    2    0    0  0.00000000000E+00  0.00000000000E+00 -0.14982227924E+03  0.60983737483E+03  0.59114711230E+03 0.  0.
        2    1    3    3  502    0  0.15898581421E+03  0.12464043141E+03 -0.29749190976E+03  0.35960139410E+03  0.25500000920E-02 0. -1.
       -2    1    3    3    0  502 -0.15898581421E+03 -0.12464043141E+03  0.14766963052E+03  0.25023598072E+03  0.25500000920E-02 0.  1.
</event>
<event>
 5   0  0.5125031E-02  0.6115434E+03  0.7818609E-02  0.9881742E-01
        1   -1    0    0  501    0  0.00000000000E+00  0.00000000000E+00  0.51090646382E+03  0.51090646385E+03  0.50400001928E-02 0.  1.
       -1   -1    0    0    0  501  0.00000000000E+00  0.00000000000E+00 -0.18300086207E+03  0.18300086214E+03  0.50400001928E-02 0. -1.
    10030    2    1    2    0    0  0.00000000000E+00  0.00000000000E+00  0.32790560176E+03  0.69390732598E+03  0.61154337000E+03 0.  0.
        4    1    3    3  502    0  0.18295345590E+03 -0.21784542186E+03  0.36756425497E+02  0.28684707174E+03  0.12699999809E+01 0. -1.
       -4    1    3    3    0  502 -0.18295345590E+03  0.21784542186E+03  0.29114917626E+03  0.40706025424E+03  0.12699999809E+01 0.  1.
</event>
<event>
 5   0  0.5166903E-02  0.6011923E+03  0.7818609E-02  0.9902935E-01
        1   -1    0    0  501    0  0.00000000000E+00  0.00000000000E+00  0.36241669431E+03  0.36241669434E+03  0.50400001928E-02 0.  1.
       -1   -1    0    0    0  501  0.00000000000E+00  0.00000000000E+00 -0.24932087521E+03  0.24932087526E+03  0.50400001928E-02 0. -1.
    10030    2    1    2    0    0  0.00000000000E+00  0.00000000000E+00  0.11309581910E+03  0.61173756961E+03  0.60119230681E+03 0.  0.
        2    1    3    3  502    0 -0.23410598914E+03 -0.14121892983E+03  0.18367797830E+03  0.32937212998E+03  0.25500000920E-02 0. -1.
       -2    1    3    3    0  502  0.23410598914E+03  0.14121892983E+03 -0.70582159200E+02  0.28236543963E+03  0.25500000920E-02 0.  1.
</event>
<event>
 5   0  0.5125031E-02  0.5964145E+03  0.7818609E-02  0.9912873E-01
        1   -1    0    0  501    0  0.00000000000E+00  0.00000000000E+00  0.38805573789E+03  0.38805573792E+03  0.50400001928E-02 0. -1.
       -1   -1    0    0    0  501  0.00000000000E+00  0.00000000000E+00 -0.22916184303E+03  0.22916184309E+03  0.50400001928E-02 0.  1.
    10030    2    1    2    0    0  0.00000000000E+00  0.00000000000E+00  0.15889389486E+03  0.61721758101E+03  0.59641451398E+03 0.  0.
        4    1    3    3  502    0 -0.60225705538E+02 -0.27493779857E+03  0.18141298946E+03  0.33485849897E+03  0.12699999809E+01 0.  1.
       -4    1    3    3    0  502  0.60225705538E+02  0.27493779857E+03 -0.22519094604E+02  0.28235908204E+03  0.12699999809E+01 0. -1.
</event>
<event>
 5   0  0.4881209E-02  0.6051774E+03  0.7818609E-02  0.9894723E-01
       -1   -1    0    0    0  501  0.00000000000E+00  0.00000000000E+00  0.84950900047E+03  0.84950900049E+03  0.50400001928E-02 0.  1.
        1   -1    0    0  501    0  0.00000000000E+00  0.00000000000E+00 -0.10777980014E+03  0.10777980026E+03  0.50400001928E-02 0. -1.
    10030    2    1    2    0    0  0.00000000000E+00  0.00000000000E+00  0.74172920033E+03  0.95728880075E+03  0.60517736360E+03 0.  0.
        3    1    3    3  502    0  0.16463263537E+03 -0.19862821074E+03  0.12074087848E+03  0.28484283503E+03  0.10100000352E+00 0. -1.
       -3    1    3    3    0  502 -0.16463263537E+03  0.19862821074E+03  0.62098832185E+03  0.67244596572E+03  0.10100000352E+00 0.  1.
</event>
<event>
 5   0  0.5125031E-02  0.6422582E+03  0.7818609E-02  0.9821415E-01
       -1   -1    0    0    0  501  0.00000000000E+00  0.00000000000E+00  0.23841948916E+03  0.23841948921E+03  0.50400001928E-02 0. -1.
        1   -1    0    0  501    0  0.00000000000E+00  0.00000000000E+00 -0.43253136796E+03  0.43253136799E+03  0.50400001928E-02 0.  1.
    10030    2    1    2    0    0  0.00000000000E+00  0.00000000000E+00 -0.19411187880E+03  0.67095085720E+03  0.64225822789E+03 0.  0.
        4    1    3    3  502    0  0.82422816390E+02  0.30302491621E+03 -0.26940648692E+02  0.31519046933E+03  0.12699999809E+01 0. -1.
       -4    1    3    3    0  502 -0.82422816390E+02 -0.30302491621E+03 -0.16717123011E+03  0.35576038787E+03  0.12699999809E+01 0.  1.
</event>
<event>
 5   0  0.8699746E-02  0.6756771E+03  0.7818609E-02  0.9759756E-01
        2   -1    0    0  501    0  0.00000000000E+00  0.00000000000E+00  0.24407769973E+03  0.24407769974E+03  0.25500000920E-02 0.  1.
       -2   -1    0    0    0  501  0.00000000000E+00  0.00000000000E+00 -0.46761703201E+03  0.46761703202E+03  0.25500000920E-02 0. -1.
    10030    2    1    2    0    0  0.00000000000E+00  0.00000000000E+00 -0.22353933229E+03  0.71169473176E+03  0.67567711086E+03 0.  0.
        3    1    3    3  502    0  0.30324368706E+03  0.14810739541E+03 -0.95372394445E+02  0.35069707461E+03  0.10100000352E+00 0. -1.
       -3    1    3    3    0  502 -0.30324368706E+03 -0.14810739541E+03 -0.12816693784E+03  0.36099765716E+03  0.10100000352E+00 0.  1.
</event>
<event>
 5   0  0.5166903E-02  0.5165352E+03  0.7818609E-02  0.1009551E+00
       -1   -1    0    0    0  501  0.00000000000E+00  0.00000000000E+00  0.57200704715E+03  0.57200704717E+03  0.50400001928E-02 0.  1.
        1   -1    0    0  501    0  0.00000000000E+00  0.00000000000E+00 -0.11661072497E+03  0.11661072507E+03  0.50400001928E-02 0. -1.
    10030    2    1    2    0    0  0.00000000000E+00  0.00000000000E+00  0.45539632218E+03  0.68861777224E+03  0.51653521273E+03 0.  0.
        2    1    3    3  502    0 -0.17563136690E+03 -0.15414689574E+03  0.81085152968E+02  0.24735085313E+03  0.25500000920E-02 0. -1.
       -2    1    3    3    0  502  0.17563136690E+03  0.15414689574E+03  0.37431116921E+03  0.44126691912E+03  0.25500000920E-02 0.  1.
</event>
<event>
 5   0  0.4881209E-02  0.6046655E+03  0.7818609E-02  0.9895774E-01
       -1   -1    0    0    0  501  0.00000000000E+00  0.00000000000E+00  0.18960431719E+03  0.18960431725E+03  0.50400001928E-02 0. -1.
        1   -1    0    0  501    0  0.00000000000E+00  0.00000000000E+00 -0.48208337421E+03  0.48208337424E+03  0.50400001928E-02 0.  1.
    10030    2    1    2    0    0  0.00000000000E+00  0.00000000000E+00 -0.29247905703E+03  0.67168769149E+03  0.60466549108E+03 0.  0.
        3    1    3    3  502    0  0.27503229227E+03  0.12346085911E+03 -0.17156412179E+03  0.34687116284E+03  0.10100000352E+00 0.  1.
       -3    1    3    3    0  502 -0.27503229227E+03 -0.12346085911E+03 -0.12091493524E+03  0.32481652866E+03  0.10100000352E+00 0. -1.
</event>
<event>
 5   0  0.3437375E-02  0.5997154E+03  0.7818609E-02  0.9905997E-01
       -4   -1    0    0    0  501  0.00000000000E+00  0.00000000000E+00  0.14122159657E+03  0.14122730698E+03  0.12699999809E+01 0. -1.
        4   -1    0    0  501    0  0.00000000000E+00  0.00000000000E+00 -0.63667271592E+03  0.63667398259E+03  0.12699999809E+01 0.  1.
    10030    2    1    2    0    0  0.00000000000E+00  0.00000000000E+00 -0.49545111935E+03  0.77790128957E+03  0.59971543639E+03 0.  0.
        1    1    3    3  502    0  0.41069870632E+02  0.33812418389E+02  0.13505514484E+03  0.14515476597E+03  0.50400001928E-02 0. -1.
       -1    1    3    3    0  502 -0.41069870632E+02 -0.33812418389E+02 -0.63050626419E+03  0.63274652360E+03  0.50400001928E-02 0.  1.
</event>
<event>
 5   0  0.8207443E-02  0.5943185E+03  0.7818609E-02  0.9917264E-01
       -2   -1    0    0    0  501  0.00000000000E+00  0.00000000000E+00  0.99029519480E+03  0.99029519480E+03  0.25500000920E-02 0. -1.
        2   -1    0    0  501    0  0.00000000000E+00  0.00000000000E+00 -0.89168994583E+02  0.89168994620E+02  0.25500000920E-02 0.  1.
    10030    2    1    2    0    0  0.00000000000E+00  0.00000000000E+00  0.90112620021E+03  0.10794641894E+04  0.59431852363E+03 0.  0.
        1    1    3    3  502    0  0.60967487088E+02 -0.85661871068E+02 -0.54254378602E+02  0.11831537626E+03  0.50400001928E-02 0.  1.
       -1    1    3    3    0  502 -0.60967487088E+02  0.85661871068E+02  0.95538057882E+03  0.96114881316E+03  0.50400001928E-02 0. -1.
</event>
<event>
 5   0  0.3437375E-02  0.5985421E+03  0.7818609E-02  0.9908435E-01
        3   -1    0    0  501    0  0.00000000000E+00  0.00000000000E+00  0.39128752264E+03  0.39128753568E+03  0.10100000352E+00 0. -1.
       -3   -1    0    0    0  501  0.00000000000E+00  0.00000000000E+00 -0.22889341347E+03  0.22889343575E+03  0.10100000352E+00 0.  1.
    10030    2    1    2    0    0  0.00000000000E+00  0.00000000000E+00  0.16239410917E+03  0.62018097143E+03  0.59854205418E+03 0.  0.
        2    1    3    3  502    0 -0.56048103738E+02 -0.27438422018E+03  0.19053477069E+03  0.33872051763E+03  0.25500000920E-02 0. -1.
       -2    1    3    3    0  502  0.56048103738E+02  0.27438422018E+03 -0.28140661517E+02  0.28146045380E+03  0.25500000920E-02 0.  1.
</event>
<event>
 5   0  0.4987389E-02  0.5956260E+03  0.7818609E-02  0.9914522E-01
        1   -1    0    0  501    0  0.00000000000E+00  0.00000000000E+00  0.54855452427E+03  0.54855452429E+03  0.50400001928E-02 0. -1.
       -1   -1    0    0    0  501  0.00000000000E+00  0.00000000000E+00 -0.16168418861E+03  0.16168418869E+03  0.50400001928E-02 0.  1.
    10030    2    1    2    0    0  0.00000000000E+00  0.00000000000E+00  0.38687033566E+03  0.71023871298E+03  0.59562603435E+03 0.  0.
        1    1    3    3  502    0 -0.72606818840E+02  0.16659071525E+03  0.47477741173E+03  0.50836778740E+03  0.50400001928E-02 0. -1.
       -1    1    3    3    0  502  0.72606818840E+02 -0.16659071525E+03 -0.87907076066E+02  0.20187092559E+03  0.50400001928E-02 0.  1.
</event>
<event>
 5   0  0.8420604E-02  0.6118188E+03  0.7818609E-02  0.9881185E-01
        2   -1    0    0  501    0  0.00000000000E+00  0.00000000000E+00  0.15714990626E+04  0.15714990626E+04  0.25500000920E-02 0. -1.
       -2   -1    0    0    0  501  0.00000000000E+00  0.00000000000E+00 -0.59548587274E+02  0.59548587329E+02  0.25500000920E-02 0.  1.
    10030    2    1    2    0    0  0.00000000000E+00  0.00000000000E+00  0.15119504753E+04  0.16310476499E+04  0.61181876115E+03 0.  0.
        2    1    3    3  502    0  0.27713843520E+02  0.27719155963E+02  0.15647767070E+04  0.15652675655E+04  0.25500000920E-02 0. -1.
       -2    1    3    3    0  502 -0.27713843520E+02 -0.27719155963E+02 -0.52826231769E+02  0.65780084368E+02  0.25500000920E-02 0.  1.
</event>
<event>
 5   0  0.5190380E-02  0.5978880E+03  0.7818609E-02  0.9909798E-01
       -1   -1    0    0    0  501  0.00000000000E+00  0.00000000000E+00  0.13588542167E+03  0.13588542177E+03  0.50400001928E-02 0.  1.
        1   -1    0    0  501    0  0.00000000000E+00  0.00000000000E+00 -0.65766814495E+03  0.65766814497E+03  0.50400001928E-02 0. -1.
    10030    2    1    2    0    0  0.00000000000E+00  0.00000000000E+00 -0.52178272328E+03  0.79355356674E+03  0.59788799367E+03 0.  0.
        5    1    3    3  502    0  0.88985898157E+02 -0.64267994090E+01 -0.63953466377E+03  0.64574489544E+03  0.46999998093E+01 0. -1.
       -5    1    3    3    0  502 -0.88985898157E+02  0.64267994090E+01  0.11775194050E+03  0.14780867130E+03  0.46999998093E+01 0.  1.
</event>
<event>
 5   0  0.5125031E-02  0.5855492E+03  0.7818609E-02  0.9935849E-01
        1   -1    0    0  501    0  0.00000000000E+00  0.00000000000E+00  0.50013890996E+03  0.50013890998E+03  0.50400001928E-02 0.  1.
       -1   -1    0    0    0  501  0.00000000000E+00  0.00000000000E+00 -0.17138634271E+03  0.17138634279E+03  0.50400001928E-02 0. -1.
    10030    2    1    2    0    0  0.00000000000E+00  0.00000000000E+00  0.32875256725E+03  0.67152525277E+03  0.58554924186E+03 0.  0.
        4    1    3    3  502    0 -0.25848631829E+03  0.16413129927E+02  0.78401305416E+01  0.25912863239E+03  0.12699999809E+01 0. -1.
       -4    1    3    3    0  502  0.25848631829E+03 -0.16413129927E+02  0.32091243670E+03  0.41239662039E+03  0.12699999809E+01 0.  1.
</event>
<event>
 5   0  0.4987389E-02  0.6001101E+03  0.7818609E-02  0.9905178E-01
       -1   -1    0    0    0  501  0.00000000000E+00  0.00000000000E+00  0.33683071784E+03  0.33683071787E+03  0.50400001928E-02 0.  1.
        1   -1    0    0  501    0  0.00000000000E+00  0.00000000000E+00 -0.26729460589E+03  0.26729460593E+03  0.50400001928E-02 0. -1.
    10030    2    1    2    0    0  0.00000000000E+00  0.00000000000E+00  0.69536111951E+02  0.60412532381E+03  0.60011010323E+03 0.  0.
        1    1    3    3  502    0  0.22769492852E+03 -0.13899620225E+03 -0.10351223786E+03  0.28614630546E+03  0.50400001928E-02 0. -1.
       -1    1    3    3    0  502 -0.22769492852E+03  0.13899620225E+03  0.17304834981E+03  0.31797901835E+03  0.50400001928E-02 0.  1.
</event>
<event>
 5   0  0.5190380E-02  0.6134832E+03  0.7818609E-02  0.9877821E-01
        1   -1    0    0  501    0  0.00000000000E+00  0.00000000000E+00  0.33505041689E+03  0.33505041693E+03  0.50400001928E-02 0. -1.
       -1   -1    0    0    0  501  0.00000000000E+00  0.00000000000E+00 -0.28082460130E+03  0.28082460134E+03  0.50400001928E-02 0.  1.
    10030    2    1    2    0    0  0.00000000000E+00  0.00000000000E+00  0.54225815596E+02  0.61587501827E+03  0.61348316933E+03 0.  0.
        5    1    3    3  502    0 -0.20450846228E+03  0.16423379163E+03  0.18670396136E+03  0.32198898839E+03  0.46999998093E+01 0. -1.
       -5    1    3    3    0  502  0.20450846228E+03 -0.16423379163E+03 -0.13247814577E+03  0.29388602988E+03  0.46999998093E+01 0.  1.
</event>
<event>
 5   0  0.8699746E-02  0.5991383E+03  0.7818609E-02  0.9907195E-01
       -2   -1    0    0    0  501  0.00000000000E+00  0.00000000000E+00  0.14285855401E+03  0.14285855403E+03  0.25500000920E-02 0.  1.
        2   -1    0    0  501    0  0.00000000000E+00  0.00000000000E+00 -0.62818555312E+03  0.62818555312E+03  0.25500000920E-02 0. -1.
    10030    2    1    2    0    0  0.00000000000E+00  0.00000000000E+00 -0.48532699911E+03  0.77104410715E+03  0.59913831384E+03 0.  0.
        3    1    3    3  502    0 -0.73161115462E+02 -0.15734045031E+03 -0.55692836890E+03  0.58333333901E+03  0.10100000352E+00 0. -1.
       -3    1    3    3    0  502  0.73161115462E+02  0.15734045031E+03  0.71601369790E+02  0.18771076814E+03  0.10100000352E+00 0.  1.
</event>
<event>
 5   0  0.8575590E-02  0.5909879E+03  0.7818609E-02  0.9924282E-01
       -2   -1    0    0    0  501  0.00000000000E+00  0.00000000000E+00  0.44632715927E+03  0.44632715927E+03  0.25500000920E-02 0. -1.
        2   -1    0    0  501    0  0.00000000000E+00  0.00000000000E+00 -0.19563381091E+03  0.19563381092E+03  0.25500000920E-02 0.  1.
    10030    2    1    2    0    0  0.00000000000E+00  0.00000000000E+00  0.25069334836E+03  0.64196097020E+03  0.59098792910E+03 0.  0.
        4    1    3    3  502    0 -0.16472764185E+03  0.43427947254E+02 -0.13691904273E+03  0.21856262204E+03  0.12699999809E+01 0.  1.
       -4    1    3    3    0  502  0.16472764185E+03 -0.43427947254E+02  0.38761239109E+03  0.42339834815E+03  0.12699999809E+01 0. -1.
</event>
<event>
 5   0  0.5125031E-02  0.5959373E+03  0.7818609E-02  0.9913871E-01
        1   -1    0    0  501    0  0.00000000000E+00  0.00000000000E+00  0.82294049714E+03  0.82294049716E+03  0.50400001928E-02 0. -1.
       -1   -1    0    0    0  501  0.00000000000E+00  0.00000000000E+00 -0.10788788995E+03  0.10788789007E+03  0.50400001928E-02 0.  1.
    10030    2    1    2    0    0  0.00000000000E+00  0.00000000000E+00  0.71505260719E+03  0.93082838723E+03  0.59593729152E+03 0.  0.
        4    1    3    3  502    0  0.22203161718E+03 -0.19404171227E+03  0.29064470412E+03  0.41403645017E+03  0.12699999809E+01 0.  1.
       -4    1    3    3    0  502 -0.22203161718E+03  0.19404171227E+03  0.42440790306E+03  0.51679193706E+03  0.12699999809E+01 0. -1.
</event>
<event>
 5   0  0.4881209E-02  0.6009517E+03  0.7818609E-02  0.9903433E-01
        1   -1    0    0  501    0  0.00000000000E+00  0.00000000000E+00  0.18237835882E+04  0.18237835882E+04  0.50400001928E-02 0. -1.
       -1   -1    0    0    0  501  0.00000000000E+00  0.00000000000E+00 -0.49504639372E+02  0.49504639628E+02  0.50400001928E-02 0.  1.
    10030    2    1    2    0    0  0.00000000000E+00  0.00000000000E+00  0.17742789489E+04  0.18732882279E+04  0.60095174207E+03 0.  0.
        3    1    3    3  502    0 -0.22524909354E+03  0.17695345239E+03  0.60424480283E+03  0.66870133124E+03  0.10100000352E+00 0.  1.
       -3    1    3    3    0  502  0.22524909354E+03 -0.17695345239E+03  0.11700341460E+04  0.12045868966E+04  0.10100000352E+00 0. -1.
</event>
<event>
 5   0  0.8699746E-02  0.6030123E+03  0.7818609E-02  0.9899176E-01
       -2   -1    0    0    0  501  0.00000000000E+00  0.00000000000E+00  0.15097913265E+03  0.15097913267E+03  0.25500000920E-02 0.  1.
        2   -1    0    0  501    0  0.00000000000E+00  0.00000000000E+00 -0.60210943043E+03  0.60210943043E+03  0.25500000920E-02 0. -1.
    10030    2    1    2    0    0  0.00000000000E+00  0.00000000000E+00 -0.45113029778E+03  0.75308856311E+03  0.60301230362E+03 0.  0.
        3    1    3    3  502    0  0.63843326026E+01 -0.70980341582E+02 -0.59143935777E+03  0.59571762834E+03  0.10100000352E+00 0. -1.
       -3    1    3    3    0  502 -0.63843326026E+01  0.70980341582E+02  0.14030905999E+03  0.15737093477E+03  0.10100000352E+00 0.  1.
</event>
<event>
 5   0  0.5166903E-02  0.5890477E+03  0.7818609E-02  0.9928393E-01
        1   -1    0    0  501    0  0.00000000000E+00  0.00000000000E+00  0.95604685334E+03  0.95604685335E+03  0.50400001928E-02 0. -1.
       -1   -1    0    0    0  501  0.00000000000E+00  0.00000000000E+00 -0.90732281761E+02  0.90732281900E+02  0.50400001928E-02 0.  1.
    10030    2    1    2    0    0  0.00000000000E+00  0.00000000000E+00  0.86531457158E+03  0.10467791353E+04  0.58904774867E+03 0.  0.
        2    1    3    3  502    0  0.21365162155E+03  0.19483460045E+03  0.53218551659E+03  0.60566406613E+03  0.25500000920E-02 0. -1.
       -2    1    3    3    0  502 -0.21365162155E+03 -0.19483460045E+03  0.33312905499E+03  0.44111506912E+03  0.25500000920E-02 0.  1.
</event>
<event>
 5   0  0.8699746E-02  0.6014754E+03  0.7818609E-02  0.9902350E-01
        2   -1    0    0  501    0  0.00000000000E+00  0.00000000000E+00  0.17582768632E+03  0.17582768634E+03  0.25500000920E-02 0. -1.
       -2   -1    0    0    0  501  0.00000000000E+00  0.00000000000E+00 -0.51438521895E+03  0.51438521895E+03  0.25500000920E-02 0.  1.
    10030    2    1    2    0    0  0.00000000000E+00  0.00000000000E+00 -0.33855753263E+03  0.69021290529E+03  0.60147539578E+03 0.  0.
        3    1    3    3  502    0  0.14835012586E+03  0.15801900556E+03  0.69962990519E+02  0.22775556240E+03  0.10100000352E+00 0. -1.
       -3    1    3    3    0  502 -0.14835012586E+03 -0.15801900556E+03 -0.40852052315E+03  0.46245734289E+03  0.10100000352E+00 0.  1.
</event>
<event>
 5   0  0.5190380E-02  0.5974713E+03  0.7818609E-02  0.9910666E-01
       -1   -1    0    0    0  501  0.00000000000E+00  0.00000000000E+00  0.15869596179E+03  0.15869596187E+03  0.50400001928E-02 0.  1.
        1   -1    0    0  501    0  0.00000000000E+00  0.00000000000E+00 -0.56235193861E+03  0.56235193863E+03  0.50400001928E-02 0. -1.
    10030    2    1    2    0    0  0.00000000000E+00  0.00000000000E+00 -0.40365597682E+03  0.72104790051E+03  0.59747127731E+03 0.  0.
        5    1    3    3  502    0 -0.29486699176E+03  0.47183692592E+02 -0.19346261538E+03  0.35584085941E+03  0.46999998093E+01 0. -1.
       -5    1    3    3    0  502  0.29486699176E+03 -0.47183692592E+02 -0.21019336144E+03  0.36520704110E+03  0.46999998093E+01 0.  1.
</event>
<event>
 5   0  0.5166903E-02  0.5920301E+03  0.7818609E-02  0.9922080E-01
        1   -1    0    0  501    0  0.00000000000E+00  0.00000000000E+00  0.10606416954E+03  0.10606416966E+03  0.50400001928E-02 0.  1.
       -1   -1    0    0    0  501  0.00000000000E+00  0.00000000000E+00 -0.82614986432E+03  0.82614986433E+03  0.50400001928E-02 0. -1.
    10030    2    1    2    0    0  0.00000000000E+00  0.00000000000E+00 -0.72008569478E+03  0.93221403399E+03  0.59203006457E+03 0.  0.
        2    1    3    3  502    0  0.21167873542E+03 -0.15459388266E+03 -0.14346873447E+03  0.29881504875E+03  0.25500000920E-02 0.  1.
       -2    1    3    3    0  502 -0.21167873542E+03  0.15459388266E+03 -0.57661696031E+03  0.63339898525E+03  0.25500000920E-02 0. -1.
</event>
<event>
 5   0  0.8817544E-02  0.5941863E+03  0.7818609E-02  0.9917541E-01
       -2   -1    0    0    0  501  0.00000000000E+00  0.00000000000E+00  0.63719319064E+02  0.63719319115E+02  0.25500000920E-02 0.  1.
        2   -1    0    0  501    0  0.00000000000E+00  0.00000000000E+00 -0.13852055299E+04  0.13852055299E+04  0.25500000920E-02 0. -1.
    10030    2    1    2    0    0  0.00000000000E+00  0.00000000000E+00 -0.13214862109E+04  0.14489248490E+04  0.59418634508E+03 0.  0.
        5    1    3    3  502    0  0.28214662960E+03  0.55891846748E+02 -0.47970759346E+03  0.55934969773E+03  0.46999998093E+01 0.  1.
       -5    1    3    3    0  502 -0.28214662960E+03 -0.55891846748E+02 -0.84177861740E+03  0.88957515131E+03  0.46999998093E+01 0. -1.
</event>
<event>
 5   0  0.4987389E-02  0.5954013E+03  0.7818609E-02  0.9914993E-01
       -1   -1    0    0    0  501  0.00000000000E+00  0.00000000000E+00  0.45639743160E+03  0.45639743163E+03  0.50400001928E-02 0.  1.
        1   -1    0    0  501    0  0.00000000000E+00  0.00000000000E+00 -0.19418529494E+03  0.19418529501E+03  0.50400001928E-02 0. -1.
    10030    2    1    2    0    0  0.00000000000E+00  0.00000000000E+00  0.26221213666E+03  0.65058272664E+03  0.59540127610E+03 0.  0.
        1    1    3    3  502    0 -0.21033212691E+03 -0.32461593379E+02  0.35856274738E+03  0.41696594884E+03  0.50400001928E-02 0.  1.
       -1    1    3    3    0  502  0.21033212691E+03  0.32461593379E+02 -0.96350610719E+02  0.23361677780E+03  0.50400001928E-02 0. -1.
</event>
<event>
 5   0  0.4987389E-02  0.5978974E+03  0.7818609E-02  0.9909778E-01
       -1   -1    0    0    0  501  0.00000000000E+00  0.00000000000E+00  0.19193755072E+03  0.19193755079E+03  0.50400001928E-02 0. -1.
        1   -1    0    0  501    0  0.00000000000E+00  0.00000000000E+00 -0.46562189625E+03  0.46562189627E+03  0.50400001928E-02 0.  1.
    10030    2    1    2    0    0  0.00000000000E+00  0.00000000000E+00 -0.27368434553E+03  0.65755944706E+03  0.59789740377E+03 0.  0.
        1    1    3    3  502    0 -0.18139462711E+03  0.22934441886E+03 -0.68447719357E+02  0.30031310914E+03  0.50400001928E-02 0. -1.
       -1    1    3    3    0  502  0.18139462711E+03 -0.22934441886E+03 -0.20523662617E+03  0.35724633792E+03  0.50400001928E-02 0.  1.
</event>
<event>
 5   0  0.8699746E-02  0.6158055E+03  0.7818609E-02  0.9873147E-01
       -2   -1    0    0    0  501  0.00000000000E+00  0.00000000000E+00  0.19330756306E+03  0.19330756307E+03  0.25500000920E-02 0.  1.
        2   -1    0    0  501    0  0.00000000000E+00  0.00000000000E+00 -0.49043139317E+03  0.49043139318E+03  0.25500000920E-02 0. -1.
    10030    2    1    2    0    0  0.00000000000E+00  0.00000000000E+00 -0.29712383011E+03  0.68373895625E+03  0.61580548055E+03 0.  0.
        3    1    3    3  502    0  0.24729919891E+03  0.15359828276E+03 -0.37226674628E+02  0.29348792438E+03  0.10100000352E+00 0.  1.
       -3    1    3    3    0  502 -0.24729919891E+03 -0.15359828276E+03 -0.25989715548E+03  0.39025103188E+03  0.10100000352E+00 0. -1.
</event>
<event>
 5   0  0.5166903E-02  0.5518424E+03  0.7818609E-02  0.1001068E+00
       -1   -1    0    0    0  501  0.00000000000E+00  0.00000000000E+00  0.16885229654E+03  0.16885229661E+03  0.50400001928E-02 0.  1.
        1   -1    0    0  501    0  0.00000000000E+00  0.00000000000E+00 -0.45088232078E+03  0.45088232081E+03  0.50400001928E-02 0. -1.
    10030    2    1    2    0    0  0.00000000000E+00  0.00000000000E+00 -0.28203002425E+03  0.61973461743E+03  0.55184242448E+03 0.  0.
        2    1    3    3  502    0 -0.10784833389E+02  0.19390981770E+02 -0.44987879314E+03  0.45042563352E+03  0.25500000920E-02 0. -1.
       -2    1    3    3    0  502  0.10784833389E+02 -0.19390981770E+02  0.16784876890E+03  0.16930898391E+03  0.25500000920E-02 0.  1.
</event>
<event>
 5   0  0.4987389E-02  0.6003437E+03  0.7818609E-02  0.9904693E-01
       -1   -1    0    0    0  501  0.00000000000E+00  0.00000000000E+00  0.17545847298E+03  0.17545847305E+03  0.50400001928E-02 0. -1.
        1   -1    0    0  501    0  0.00000000000E+00  0.00000000000E+00 -0.51352964452E+03  0.51352964454E+03  0.50400001928E-02 0.  1.
    10030    2    1    2    0    0  0.00000000000E+00  0.00000000000E+00 -0.33807117154E+03  0.68898811760E+03  0.60034365922E+03 0.  0.
        1    1    3    3  502    0  0.16070745353E+03  0.86543032140E+02 -0.44252122603E+03  0.47868739021E+03  0.50400001928E-02 0.  1.
       -1    1    3    3    0  502 -0.16070745353E+03 -0.86543032140E+02  0.10445005449E+03  0.21030072739E+03  0.50400001928E-02 0. -1.
</event>
<event>
 5   0  0.8817544E-02  0.5829449E+03  0.7818609E-02  0.9941436E-01
       -2   -1    0    0    0  501  0.00000000000E+00  0.00000000000E+00  0.69481632216E+02  0.69481632263E+02  0.25500000920E-02 0.  1.
        2   -1    0    0  501    0  0.00000000000E+00  0.00000000000E+00 -0.12227145325E+04  0.12227145325E+04  0.25500000920E-02 0. -1.
    10030    2    1    2    0    0  0.00000000000E+00  0.00000000000E+00 -0.11532329003E+04  0.12921961648E+04  0.58294494246E+03 0.  0.
        5    1    3    3  502    0  0.17506814026E+03  0.21426966774E+03 -0.37377283068E+03  0.46506834251E+03  0.46999998093E+01 0.  1.
       -5    1    3    3    0  502 -0.17506814026E+03 -0.21426966774E+03 -0.77946006960E+03  0.82712782226E+03  0.46999998093E+01 0. -1.
</event>
<event>
 5   0  0.5190380E-02  0.5804950E+03  0.7818609E-02  0.9946720E-01
        1   -1    0    0  501    0  0.00000000000E+00  0.00000000000E+00  0.11212166822E+03  0.11212166833E+03  0.50400001928E-02 0.  1.
       -1   -1    0    0    0  501  0.00000000000E+00  0.00000000000E+00 -0.75135894718E+03  0.75135894720E+03  0.50400001928E-02 0. -1.
    10030    2    1    2    0    0  0.00000000000E+00  0.00000000000E+00 -0.63923727896E+03  0.86348061553E+03  0.58049502545E+03 0.  0.
        5    1    3    3  502    0  0.74662617401E+01  0.17243080230E+03  0.27427189361E+02  0.17482124402E+03  0.46999998093E+01 0.  1.
       -5    1    3    3    0  502 -0.74662617401E+01 -0.17243080230E+03 -0.66666446832E+03  0.68865937151E+03  0.46999998093E+01 0. -1.
</event>
<event>
 5   0  0.8699746E-02  0.6022297E+03  0.7818609E-02  0.9900791E-01
       -2   -1    0    0    0  501  0.00000000000E+00  0.00000000000E+00  0.36721011226E+02  0.36721011314E+02  0.25500000920E-02 0.  1.
        2   -1    0    0  501    0  0.00000000000E+00  0.00000000000E+00 -0.24691627054E+04  0.24691627054E+04  0.25500000920E-02 0. -1.
    10030    2    1    2    0    0  0.00000000000E+00  0.00000000000E+00 -0.24324416942E+04  0.25058837167E+04  0.60222969550E+03 0.  0.
        3    1    3    3  502    0  0.18610692877E+03 -0.15846035046E+03 -0.19479515578E+04  0.19632271273E+04  0.10100000352E+00 0. -1.
       -3    1    3    3    0  502 -0.18610692877E+03  0.15846035046E+03 -0.48449013642E+03  0.54265658946E+03  0.10100000352E+00 0.  1.
</event>
<event>
 5   0  0.5166903E-02  0.5918890E+03  0.7818609E-02  0.9922378E-01
        1   -1    0    0  501    0  0.00000000000E+00  0.00000000000E+00  0.14908318895E+04  0.14908318895E+04  0.50400001928E-02 0. -1.
       -1   -1    0    0    0  501  0.00000000000E+00  0.00000000000E+00 -0.58747830175E+02  0.58747830391E+02  0.50400001928E-02 0.  1.
    10030    2    1    2    0    0  0.00000000000E+00  0.00000000000E+00  0.14320840593E+04  0.15495797199E+04  0.59188897214E+03 0.  0.
        2    1    3    3  502    0  0.32351751511E+02 -0.37966191848E+01 -0.54040326270E+02  0.63098391524E+02  0.25500000920E-02 0.  1.
       -2    1    3    3    0  502 -0.32351751511E+02  0.37966191848E+01  0.14861243856E+04  0.14864813283E+04  0.25500000920E-02 0. -1.
</event>
<event>
 5   0  0.5166903E-02  0.5974896E+03  0.7818609E-02  0.9910628E-01
        1   -1    0    0  501    0  0.00000000000E+00  0.00000000000E+00  0.27542309647E+04  0.27542309647E+04  0.50400001928E-02 0. -1.
       -1   -1    0    0    0  501  0.00000000000E+00  0.00000000000E+00 -0.32404128046E+02  0.32404128438E+02  0.50400001928E-02 0.  1.
    10030    2    1    2    0    0  0.00000000000E+00  0.00000000000E+00  0.27218268366E+04  0.27866350931E+04  0.59748959288E+03 0.  0.
        2    1    3    3  502    0  0.89323655164E+02 -0.20894091671E+03  0.45638704494E+03  0.50982757560E+03  0.25500000920E-02 0.  1.
       -2    1    3    3    0  502 -0.89323655164E+02  0.20894091671E+03  0.22654397917E+04  0.22768075175E+04  0.25500000920E-02 0. -1.
</event>
<event>
 5   0  0.5125031E-02  0.5998520E+03  0.7818609E-02  0.9905713E-01
        1   -1    0    0  501    0  0.00000000000E+00  0.00000000000E+00  0.16811673912E+04  0.16811673912E+04  0.50400001928E-02 0.  1.
       -1   -1    0    0    0  501  0.00000000000E+00  0.00000000000E+00 -0.53507822822E+02  0.53507823059E+02  0.50400001928E-02 0. -1.
    10030    2    1    2    0    0  0.00000000000E+00  0.00000000000E+00  0.16276595684E+04  0.17346752142E+04  0.59985200546E+03 0.  0.
        4    1    3    3  502    0  0.23971523145E+03 -0.17730525217E+03  0.71996970100E+03  0.77926794358E+03  0.12699999809E+01 0. -1.
       -4    1    3    3    0  502 -0.23971523145E+03  0.17730525217E+03  0.90768986737E+03  0.95540727067E+03  0.12699999809E+01 0.  1.
</event>
<event>
 5   0  0.5125031E-02  0.5974149E+03  0.7818609E-02  0.9910784E-01
       -1   -1    0    0    0  501  0.00000000000E+00  0.00000000000E+00  0.53228441435E+03  0.53228441437E+03  0.50400001928E-02 0.  1.
        1   -1    0    0  501    0  0.00000000000E+00  0.00000000000E+00 -0.16762870678E+03  0.16762870685E+03  0.50400001928E-02 0. -1.
    10030    2    1    2    0    0  0.00000000000E+00  0.00000000000E+00  0.36465570757E+03  0.69991312123E+03  0.59741492466E+03 0.  0.
        4    1    3    3  502    0 -0.13875996498E+03  0.22481040534E+03  0.19018924418E+02  0.26487238176E+03  0.12699999809E+01 0. -1.
       -4    1    3    3    0  502  0.13875996498E+03 -0.22481040534E+03  0.34563678315E+03  0.43504073947E+03  0.12699999809E+01 0.  1.
</event>
<event>
 5   0  0.8420604E-02  0.6002780E+03  0.7818609E-02  0.9904830E-01
       -2   -1    0    0    0  501  0.00000000000E+00  0.00000000000E+00  0.16322675894E+03  0.16322675896E+03  0.25500000920E-02 0.  1.
        2   -1    0    0  501    0  0.00000000000E+00  0.00000000000E+00 -0.55189121157E+03  0.55189121157E+03  0.25500000920E-02 0. -1.
    10030    2    1    2    0    0  0.00000000000E+00  0.00000000000E+00 -0.38866445263E+03  0.71511797053E+03  0.60027798147E+03 0.  0.
        2    1    3    3  502    0 -0.75914116009E+02  0.93217715586E+02 -0.52195566546E+03  0.53562133286E+03  0.25500000920E-02 0. -1.
       -2    1    3    3    0  502  0.75914116009E+02 -0.93217715586E+02  0.13329121283E+03  0.17949663767E+03  0.25500000920E-02 0.  1.
</event>
<event>
 5   0  0.8207443E-02  0.5469241E+03  0.7818609E-02  0.1002208E+00
       -2   -1    0    0    0  501  0.00000000000E+00  0.00000000000E+00  0.60663781453E+02  0.60663781506E+02  0.25500000920E-02 0.  1.
        2   -1    0    0  501    0  0.00000000000E+00  0.00000000000E+00 -0.12327204053E+04  0.12327204053E+04  0.25500000920E-02 0. -1.
    10030    2    1    2    0    0  0.00000000000E+00  0.00000000000E+00 -0.11720566239E+04  0.12933841868E+04  0.54692405797E+03 0.  0.
        1    1    3    3  502    0  0.23570090491E+03  0.40819663528E+01 -0.91379370497E+03  0.94371103325E+03  0.50400001928E-02 0.  1.
       -1    1    3    3    0  502 -0.23570090491E+03 -0.40819663528E+01 -0.25826291889E+03  0.34967315356E+03  0.50400001928E-02 0. -1.
</event>
<event>
 5   0  0.8699746E-02  0.6010027E+03  0.7818609E-02  0.9903328E-01
        2   -1    0    0  501    0  0.00000000000E+00  0.00000000000E+00  0.37309448403E+03  0.37309448404E+03  0.25500000920E-02 0.  1.
       -2   -1    0    0    0  501  0.00000000000E+00  0.00000000000E+00 -0.24203271205E+03  0.24203271206E+03  0.25500000920E-02 0. -1.
    10030    2    1    2    0    0  0.00000000000E+00  0.00000000000E+00  0.13106177198E+03  0.61512719610E+03  0.60100272820E+03 0.  0.
        3    1    3    3  502    0  0.75809333869E+01 -0.27086824847E+03  0.19848361727E+03  0.33589110602E+03  0.10100000352E+00 0.  1.
       -3    1    3    3    0  502 -0.75809333869E+01  0.27086824847E+03 -0.67421845287E+02  0.27923609008E+03  0.10100000352E+00 0. -1.
</event>
<event>
 5   0  0.8207443E-02  0.6039284E+03  0.7818609E-02  0.9897289E-01
       -2   -1    0    0    0  501  0.00000000000E+00  0.00000000000E+00  0.15852917497E+03  0.15852917499E+03  0.25500000920E-02 0. -1.
        2   -1    0    0  501    0  0.00000000000E+00  0.00000000000E+00 -0.57517733153E+03  0.57517733153E+03  0.25500000920E-02 0.  1.
    10030    2    1    2    0    0  0.00000000000E+00  0.00000000000E+00 -0.41664815656E+03  0.73370650652E+03  0.60392843231E+03 0.  0.
        1    1    3    3  502    0  0.47320465202E+02 -0.13127855075E+03  0.11700586744E+03  0.18210891618E+03  0.50400001928E-02 0. -1.
       -1    1    3    3    0  502 -0.47320465202E+02  0.13127855075E+03 -0.53365402400E+03  0.55159759034E+03  0.50400001928E-02 0.  1.
</event>
<event>
 5   0  0.8575590E-02  0.5855811E+03  0.7818609E-02  0.9935781E-01
        2   -1    0    0  501    0  0.00000000000E+00  0.00000000000E+00  0.41987141730E+03  0.41987141731E+03  0.25500000920E-02 0.  1.
       -2   -1    0    0    0  501  0.00000000000E+00  0.00000000000E+00 -0.20417277262E+03  0.20417277263E+03  0.25500000920E-02 0. -1.
    10030    2    1    2    0    0  0.00000000000E+00  0.00000000000E+00  0.21569864468E+03  0.62404418994E+03  0.58558111793E+03 0.  0.
        4    1    3    3  502    0  0.96813394921E+02  0.94590587798E+02 -0.16882743661E+03  0.21638976174E+03  0.12699999809E+01 0. -1.
       -4    1    3    3    0  502 -0.96813394921E+02 -0.94590587798E+02  0.38452608129E+03  0.40765442820E+03  0.12699999809E+01 0.  1.
</event>
<event>
 5   0  0.4987389E-02  0.5866617E+03  0.7818609E-02  0.9933472E-01
        1   -1    0    0  501    0  0.00000000000E+00  0.00000000000E+00  0.29487988108E+03  0.29487988113E+03  0.50400001928E-02 0. -1.
       -1   -1    0    0    0  501  0.00000000000E+00  0.00000000000E+00 -0.29178993147E+03  0.29178993151E+03  0.50400001928E-02 0.  1.
    10030    2    1    2    0    0  0.00000000000E+00  0.00000000000E+00  0.30899496155E+01  0.58666981264E+03  0.58666167531E+03 0.  0.
        1    1    3    3  502    0  0.10032180932E+03 -0.45710252154E+02  0.27337421808E+03  0.29476661228E+03  0.50400001928E-02 0. -1.
       -1    1    3    3    0  502 -0.10032180932E+03  0.45710252154E+02 -0.27028426846E+03  0.29190320036E+03  0.50400001928E-02 0.  1.
</event>
<event>
 5   0  0.4987389E-02  0.5873596E+03  0.7818609E-02  0.9931983E-01
       -1   -1    0    0    0  501  0.00000000000E+00  0.00000000000E+00  0.37553166532E+03  0.37553166535E+03  0.50400001928E-02 0. -1.
        1   -1    0    0  501    0  0.00000000000E+00  0.00000000000E+00 -0.22966859596E+03  0.22966859602E+03  0.50400001928E-02 0.  1.
    10030    2    1    2    0    0  0.00000000000E+00  0.00000000000E+00  0.14586306935E+03  0.60520026137E+03  0.58735961843E+03 0.  0.
        1    1    3    3  502    0  0.11736900320E+03  0.32385417060E+02 -0.20243786883E+03  0.23623164249E+03  0.50400001928E-02 0.  1.
       -1    1    3    3    0  502 -0.11736900320E+03 -0.32385417060E+02  0.34830093818E+03  0.36896861888E+03  0.50400001928E-02 0. -1.
</event>
<event>
 5   0  0.5190380E-02  0.5922812E+03  0.7818609E-02  0.9921551E-01
       -1   -1    0    0    0  501  0.00000000000E+00  0.00000000000E+00  0.10992581999E+03  0.10992582011E+03  0.50400001928E-02 0. -1.
        1   -1    0    0  501    0  0.00000000000E+00  0.00000000000E+00 -0.79780404764E+03  0.79780404766E+03  0.50400001928E-02 0.  1.
    10030    2    1    2    0    0  0.00000000000E+00  0.00000000000E+00 -0.68787822765E+03  0.90772986777E+03  0.59228123114E+03 0.  0.
        5    1    3    3  502    0 -0.17418414531E+03 -0.11212332908E+03 -0.66820403642E+03  0.69959308293E+03  0.46999998093E+01 0.  1.
       -5    1    3    3    0  502  0.17418414531E+03  0.11212332908E+03 -0.19674191227E+02  0.20813678483E+03  0.46999998093E+01 0. -1.
</event>
<event>
 5   0  0.5125031E-02  0.5837225E+03  0.7818609E-02  0.9939764E-01
        1   -1    0    0  501    0  0.00000000000E+00  0.00000000000E+00  0.40334103833E+03  0.40334103836E+03  0.50400001928E-02 0.  1.
       -1   -1    0    0    0  501  0.00000000000E+00  0.00000000000E+00 -0.21119345598E+03  0.21119345604E+03  0.50400001928E-02 0. -1.
    10030    2    1    2    0    0  0.00000000000E+00  0.00000000000E+00  0.19214758235E+03  0.61453449439E+03  0.58372249520E+03 0.  0.
        4    1    3    3  502    0 -0.11056850640E+03  0.78722248027E+01 -0.18816657326E+03  0.21839331200E+03  0.12699999809E+01 0. -1.
       -4    1    3    3    0  502  0.11056850640E+03 -0.78722248027E+01  0.38031415561E+03  0.39614118240E+03  0.12699999809E+01 0.  1.
</event>
<event>
 5   0  0.5125031E-02  0.6004369E+03  0.7818609E-02  0.9904500E-01
        1   -1    0    0  501    0  0.00000000000E+00  0.00000000000E+00  0.33029079091E+03  0.33029079094E+03  0.50400001928E-02 0. -1.
       -1   -1    0    0    0  501  0.00000000000E+00  0.00000000000E+00 -0.27288412566E+03  0.27288412570E+03  0.50400001928E-02 0.  1.
    10030    2    1    2    0    0  0.00000000000E+00  0.00000000000E+00  0.57406665249E+02  0.60317491665E+03  0.60043688666E+03 0.  0.
        4    1    3    3  502    0 -0.16535513824E+03  0.15558484747E+03 -0.16861163358E+03  0.28280817241E+03  0.12699999809E+01 0.  1.
       -4    1    3    3    0  502  0.16535513824E+03 -0.15558484747E+03  0.22601829883E+03  0.32036674423E+03  0.12699999809E+01 0. -1.
</event>
<event>
 5   0  0.4987389E-02  0.5899081E+03  0.7818609E-02  0.9926568E-01
        1   -1    0    0  501    0  0.00000000000E+00  0.00000000000E+00  0.22302541962E+03  0.22302541967E+03  0.50400001928E-02 0.  1.
       -1   -1    0    0    0  501  0.00000000000E+00  0.00000000000E+00 -0.39008059700E+03  0.39008059703E+03  0.50400001928E-02 0. -1.
    10030    2    1    2    0    0  0.00000000000E+00  0.00000000000E+00 -0.16705517739E+03  0.61310601671E+03  0.58990809066E+03 0.  0.
        1    1    3    3  502    0  0.24009502674E+03  0.61717151291E+02 -0.24963514502E+03  0.35181292512E+03  0.50400001928E-02 0. -1.
       -1    1    3    3    0  502 -0.24009502674E+03 -0.61717151291E+02  0.82579967633E+02  0.26129309158E+03  0.50400001928E-02 0.  1.
</event>
<event>
 5   0  0.8575590E-02  0.5964037E+03  0.7818609E-02  0.9912895E-01
        2   -1    0    0  501    0  0.00000000000E+00  0.00000000000E+00  0.85355965836E+03  0.85355965836E+03  0.25500000920E-02 0.  1.
       -2   -1    0    0    0  501  0.00000000000E+00  0.00000000000E+00 -0.10418057764E+03  0.10418057767E+03  0.25500000920E-02 0. -1.
    10030    2    1    2    0    0  0.00000000000E+00  0.00000000000E+00  0.74937908072E+03  0.95774023603E+03  0.59640368299E+03 0.  0.
        4    1    3    3  502    0  0.67059470599E+02 -0.28475547538E+03  0.28188155791E+03  0.40625297408E+03  0.12699999809E+01 0.  1.
       -4    1    3    3    0  502 -0.67059470599E+02  0.28475547538E+03  0.46749752281E+03  0.55148726195E+03  0.12699999809E+01 0. -1.
</event>
<event>
 5   0  0.5166903E-02  0.6112173E+03  0.7818609E-02  0.9882403E-01
        1   -1    0    0  501    0  0.00000000000E+00  0.00000000000E+00  0.87040122142E+03  0.87040122144E+03  0.50400001928E-02 0.  1.
       -1   -1    0    0    0  501  0.00000000000E+00  0.00000000000E+00 -0.10730299584E+03  0.10730299596E+03  0.50400001928E-02 0. -1.
    10030    2    1    2    0    0  0.00000000000E+00  0.00000000000E+00  0.76309822558E+03  0.97770421739E+03  0.61121733845E+03 0.  0.
        2    1    3    3  502    0  0.34459446420E+01 -0.11301139202E+03 -0.72617211804E+02  0.13437525337E+03  0.25500000920E-02 0. -1.
       -2    1    3    3    0  502 -0.34459446420E+01  0.11301139202E+03  0.83571543739E+03  0.84332896402E+03  0.25500000920E-02 0.  1.
</event>
<event>
 5   0  0.4881209E-02  0.6000393E+03  0.7818609E-02  0.9905324E-01
       -1   -1    0    0    0  501  0.00000000000E+00  0.00000000000E+00  0.10137535130E+03  0.10137535143E+03  0.50400001928E-02 0.  1.
        1   -1    0    0  501    0  0.00000000000E+00  0.00000000000E+00 -0.88790619403E+03  0.88790619405E+03  0.50400001928E-02 0. -1.
    10030    2    1    2    0    0  0.00000000000E+00  0.00000000000E+00 -0.78653084273E+03  0.98928154547E+03  0.60003934008E+03 0.  0.
        3    1    3    3  502    0 -0.13591461073E+03 -0.50052799262E+02  0.39917022056E+02  0.15023795451E+03  0.10100000352E+00 0.  1.
       -3    1    3    3    0  502  0.13591461073E+03  0.50052799262E+02 -0.82644786479E+03  0.83904359096E+03  0.10100000352E+00 0. -1.
</event>
<event>
 5   0  0.8817544E-02  0.6180297E+03  0.7818609E-02  0.9868690E-01
        2   -1    0    0  501    0  0.00000000000E+00  0.00000000000E+00  0.10485299927E+04  0.10485299927E+04  0.25500000920E-02 0. -1.
       -2   -1    0    0    0  501  0.00000000000E+00  0.00000000000E+00 -0.91070532988E+02  0.91070533024E+02  0.25500000920E-02 0.  1.
    10030    2    1    2    0    0  0.00000000000E+00  0.00000000000E+00  0.95745945974E+03  0.11396005258E+04  0.61802972522E+03 0.  0.
        5    1    3    3  502    0  0.33536490489E+02  0.10458826660E+03  0.10112529173E+04  0.10172108702E+04  0.46999998093E+01 0. -1.
       -5    1    3    3    0  502 -0.33536490489E+02 -0.10458826660E+03 -0.53793457582E+02  0.12238965553E+03  0.46999998093E+01 0.  1.
</event>
<event>
 5   0  0.5166903E-02  0.5952841E+03  0.7818609E-02  0.9915239E-01
        1   -1    0    0  501    0  0.00000000000E+00  0.00000000000E+00  0.41174380280E+03  0.41174380283E+03  0.50400001928E-02 0.  1.
       -1   -1    0    0    0  501  0.00000000000E+00  0.00000000000E+00 -0.21515998261E+03  0.21515998267E+03  0.50400001928E-02 0. -1.
    10030    2    1    2    0    0  0.00000000000E+00  0.00000000000E+00  0.19658382019E+03  0.62690378550E+03  0.59528409849E+03 0.  0.
        2    1    3    3  502    0 -0.21954425331E+03  0.20094760628E+03  0.10181156558E+03  0.31455558256E+03  0.25500000920E-02 0.  1.
       -2    1    3    3    0  502  0.21954425331E+03 -0.20094760628E+03  0.94772254610E+02  0.31234820294E+03  0.25500000920E-02 0. -1.
</event>
<event>
 5   0  0.4881209E-02  0.6318319E+03  0.7818609E-02  0.9841480E-01
        1   -1    0    0  501    0  0.00000000000E+00  0.00000000000E+00  0.66939877493E+03  0.66939877495E+03  0.50400001928E-02 0. -1.
       -1   -1    0    0    0  501  0.00000000000E+00  0.00000000000E+00 -0.14909334362E+03  0.14909334370E+03  0.50400001928E-02 0.  1.
    10030    2    1    2    0    0  0.00000000000E+00  0.00000000000E+00  0.52030543131E+03  0.81849211865E+03  0.63183194478E+03 0.  0.
        3    1    3    3  502    0  0.57518931939E+02  0.31000933216E+03  0.23461348441E+03  0.39301108232E+03  0.10100000352E+00 0.  1.
       -3    1    3    3    0  502 -0.57518931939E+02 -0.31000933216E+03  0.28569194690E+03  0.42548103634E+03  0.10100000352E+00 0. -1.
</event>
<event>
 5   0  0.5190380E-02  0.5986366E+03  0.7818609E-02  0.9908239E-01
        1   -1    0    0  501    0  0.00000000000E+00  0.00000000000E+00  0.34143624845E+03  0.34143624849E+03  0.50400001928E-02 0.  1.
       -1   -1    0    0    0  501  0.00000000000E+00  0.00000000000E+00 -0.26239580004E+03  0.26239580009E+03  0.50400001928E-02 0. -1.
    10030    2    1    2    0    0  0.00000000000E+00  0.00000000000E+00  0.79040448408E+02  0.60383204858E+03  0.59863657624E+03 0.  0.
        5    1    3    3  502    0 -0.21066733674E+03 -0.12247714421E+03 -0.13573455336E+03  0.27897551254E+03  0.46999998093E+01 0. -1.
       -5    1    3    3    0  502  0.21066733674E+03  0.12247714421E+03  0.21477500177E+03  0.32485653604E+03  0.46999998093E+01 0.  1.
</event>
<event>
 5   0  0.3437375E-02  0.5910581E+03  0.7818609E-02  0.9924133E-01
        3   -1    0    0  501    0  0.00000000000E+00  0.00000000000E+00  0.15230361618E+03  0.15230364967E+03  0.10100000352E+00 0. -1.
       -3   -1    0    0    0  501  0.00000000000E+00  0.00000000000E+00 -0.57344274981E+03  0.57344275871E+03  0.10100000352E+00 0.  1.
    10030    2    1    2    0    0  0.00000000000E+00  0.00000000000E+00 -0.42113913363E+03  0.72574640838E+03  0.59105810154E+03 0.  0.
        3    1    3    3  502    0 -0.13582773623E+03 -0.26246315828E+03 -0.21198363350E+03  0.36369376467E+03  0.10100000352E+00 0. -1.
       -3    1    3    3    0  502  0.13582773623E+03  0.26246315828E+03 -0.20915550013E+03  0.36205264372E+03  0.10100000352E+00 0.  1.
</event>
<event>
 5   0  0.8420604E-02  0.5900947E+03  0.7818609E-02  0.9926172E-01
       -2   -1    0    0    0  501  0.00000000000E+00  0.00000000000E+00  0.10175438925E+03  0.10175438928E+03  0.25500000920E-02 0. -1.
        2   -1    0    0  501    0  0.00000000000E+00  0.00000000000E+00 -0.85552026220E+03  0.85552026220E+03  0.25500000920E-02 0.  1.
    10030    2    1    2    0    0  0.00000000000E+00  0.00000000000E+00 -0.75376587295E+03  0.95727465148E+03  0.59009471032E+03 0.  0.
        2    1    3    3  502    0  0.12382056587E+03 -0.43547604818E+02  0.51784365359E+02  0.14110119390E+03  0.25500000920E-02 0. -1.
       -2    1    3    3    0  502 -0.12382056587E+03  0.43547604818E+02 -0.80555023831E+03  0.81617345758E+03  0.25500000920E-02 0.  1.
</event>
<event>
 5   0  0.8420604E-02  0.6015532E+03  0.7818609E-02  0.9902189E-01
        2   -1    0    0  501    0  0.00000000000E+00  0.00000000000E+00  0.11727885945E+04  0.11727885945E+04  0.25500000920E-02 0.  1.
       -2   -1    0    0    0  501  0.00000000000E+00  0.00000000000E+00 -0.77137991819E+02  0.77137991861E+02  0.25500000920E-02 0. -1.
    10030    2    1    2    0    0  0.00000000000E+00  0.00000000000E+00  0.10956506027E+04  0.12499265864E+04  0.60155317982E+03 0.  0.
        2    1    3    3  502    0 -0.26322717805E+02  0.33070139511E+02 -0.70936382739E+02  0.82574148512E+02  0.25500000920E-02 0. -1.
       -2    1    3    3    0  502  0.26322717805E+02 -0.33070139511E+02  0.11665869854E+04  0.11673524379E+04  0.25500000920E-02 0.  1.
</event>
<event>
 5   0  0.8699746E-02  0.5978848E+03  0.7818609E-02  0.9909804E-01
        2   -1    0    0  501    0  0.00000000000E+00  0.00000000000E+00  0.14056643494E+04  0.14056643494E+04  0.25500000920E-02 0. -1.
       -2   -1    0    0    0  501  0.00000000000E+00  0.00000000000E+00 -0.63576038454E+02  0.63576038505E+02  0.25500000920E-02 0.  1.
    10030    2    1    2    0    0  0.00000000000E+00  0.00000000000E+00  0.13420883109E+04  0.14692403879E+04  0.59788484098E+03 0.  0.
        3    1    3    3  502    0  0.59730585048E+02 -0.28036951434E+03  0.46264656003E+03  0.54425789574E+03  0.10100000352E+00 0. -1.
       -3    1    3    3    0  502 -0.59730585048E+02  0.28036951434E+03  0.87944175088E+03  0.92498249214E+03  0.10100000352E+00 0.  1.
</event>
<event>
 5   0  0.8575590E-02  0.6020582E+03  0.7818609E-02  0.9901145E-01
        2   -1    0    0  501    0  0.00000000000E+00  0.00000000000E+00  0.60361703659E+03  0.60361703660E+03  0.25500000920E-02 0. -1.
       -2   -1    0    0    0  501  0.00000000000E+00  0.00000000000E+00 -0.15012586641E+03  0.15012586643E+03  0.25500000920E-02 0.  1.
    10030    2    1    2    0    0  0.00000000000E+00  0.00000000000E+00  0.45349117018E+03  0.75374290302E+03  0.60205823840E+03 0.  0.
        4    1    3    3  502    0 -0.34095437836E+02 -0.28577735665E+02  0.59947532791E+03  0.60112516794E+03  0.12699999809E+01 0. -1.
       -4    1    3    3    0  502  0.34095437836E+02  0.28577735665E+02 -0.14598415772E+03  0.15261773509E+03  0.12699999809E+01 0.  1.
</event>
<event>
 5   0  0.4987389E-02  0.6069350E+03  0.7818609E-02  0.9891122E-01
       -1   -1    0    0    0  501  0.00000000000E+00  0.00000000000E+00  0.30291421333E+03  0.30291421337E+03  0.50400001928E-02 0. -1.
        1   -1    0    0  501    0  0.00000000000E+00  0.00000000000E+00 -0.30402175192E+03  0.30402175196E+03  0.50400001928E-02 0.  1.
    10030    2    1    2    0    0  0.00000000000E+00  0.00000000000E+00 -0.11075385909E+01  0.60693596534E+03  0.60693495482E+03 0.  0.
        1    1    3    3  502    0 -0.27488761227E+03 -0.11363438647E+03  0.59583978370E+02  0.30335824312E+03  0.50400001928E-02 0. -1.
       -1    1    3    3    0  502  0.27488761227E+03  0.11363438647E+03 -0.60691516960E+02  0.30357772221E+03  0.50400001928E-02 0.  1.
</event>
<event>
 5   0  0.8575590E-02  0.6016082E+03  0.7818609E-02  0.9902075E-01
        2   -1    0    0  501    0  0.00000000000E+00  0.00000000000E+00  0.52042674472E+03  0.52042674472E+03  0.25500000920E-02 0.  1.
       -2   -1    0    0    0  501  0.00000000000E+00  0.00000000000E+00 -0.17386327137E+03  0.17386327139E+03  0.25500000920E-02 0. -1.
    10030    2    1    2    0    0  0.00000000000E+00  0.00000000000E+00  0.34656347335E+03  0.69429001611E+03  0.60160816601E+03 0.  0.
        4    1    3    3  502    0  0.43557103286E+02  0.89622521233E+02  0.50082263750E+03  0.51064111144E+03  0.12699999809E+01 0.  1.
       -4    1    3    3    0  502 -0.43557103286E+02 -0.89622521233E+02 -0.15425916416E+03  0.18364890467E+03  0.12699999809E+01 0. -1.
</event>
<event>
 5   0  0.5125031E-02  0.5675763E+03  0.7818609E-02  0.9975056E-01
       -1   -1    0    0    0  501  0.00000000000E+00  0.00000000000E+00  0.73922653631E+02  0.73922653802E+02  0.50400001928E-02 0.  1.
        1   -1    0    0  501    0  0.00000000000E+00  0.00000000000E+00 -0.10894592590E+04  0.10894592590E+04  0.50400001928E-02 0. -1.
    10030    2    1    2    0    0  0.00000000000E+00  0.00000000000E+00 -0.10155366053E+04  0.11633819128E+04  0.56757631928E+03 0.  0.
        4    1    3    3  502    0  0.21765854870E+03  0.17380400621E+03 -0.61911693096E+03  0.67888913933E+03  0.12699999809E+01 0.  1.
       -4    1    3    3    0  502 -0.21765854870E+03 -0.17380400621E+03 -0.39641967438E+03  0.48449277346E+03  0.12699999809E+01 0. -1.
</event>
<event>
 5   0  0.8207443E-02  0.5930075E+03  0.7818609E-02  0.9920020E-01
        2   -1    0    0  501    0  0.00000000000E+00  0.00000000000E+00  0.38278189627E+03  0.38278189628E+03  0.25500000920E-02 0.  1.
       -2   -1    0    0    0  501  0.00000000000E+00  0.00000000000E+00 -0.22967246032E+03  0.22967246034E+03  0.25500000920E-02 0. -1.
    10030    2    1    2    0    0  0.00000000000E+00  0.00000000000E+00  0.15310943595E+03  0.61245435662E+03  0.59300745321E+03 0.  0.
        1    1    3    3  502    0  0.55099800619E+02  0.25560601347E+03  0.22093926758E+03  0.34232233660E+03  0.50400001928E-02 0.  1.
       -1    1    3    3    0  502 -0.55099800619E+02 -0.25560601347E+03 -0.67829831634E+02  0.27013202001E+03  0.50400001928E-02 0. -1.
</event>
<event>
 5   0  0.4881209E-02  0.6020303E+03  0.7818609E-02  0.9901203E-01
       -1   -1    0    0    0  501  0.00000000000E+00  0.00000000000E+00  0.16544214852E+03  0.16544214860E+03  0.50400001928E-02 0. -1.
        1   -1    0    0  501    0  0.00000000000E+00  0.00000000000E+00 -0.54768465818E+03  0.54768465820E+03  0.50400001928E-02 0.  1.
    10030    2    1    2    0    0  0.00000000000E+00  0.00000000000E+00 -0.38224250966E+03  0.71312680680E+03  0.60203032016E+03 0.  0.
        3    1    3    3  502    0  0.39665925567E+02 -0.76650631059E+02  0.15047202944E+03  0.17346626974E+03  0.10100000352E+00 0. -1.
       -3    1    3    3    0  502 -0.39665925567E+02  0.76650631059E+02 -0.53271453910E+03  0.53966053706E+03  0.10100000352E+00 0.  1.
</event>
<event>
 5   0  0.8699746E-02  0.5943633E+03  0.7818609E-02  0.9917170E-01
        2   -1    0    0  501    0  0.00000000000E+00  0.00000000000E+00  0.80658440460E+03  0.80658440461E+03  0.25500000920E-02 0. -1.
       -2   -1    0    0    0  501  0.00000000000E+00  0.00000000000E+00 -0.10949495569E+03  0.10949495572E+03  0.25500000920E-02 0.  1.
    10030    2    1    2    0    0  0.00000000000E+00  0.00000000000E+00  0.69708944891E+03  0.91607936032E+03  0.59436326824E+03 0.  0.
        3    1    3    3  502    0 -0.19729477224E+02  0.11286351508E+03 -0.74084670924E+02  0.13644036783E+03  0.10100000352E+00 0.  1.
       -3    1    3    3    0  502  0.19729477224E+02 -0.11286351508E+03  0.77117411984E+03  0.77963899249E+03  0.10100000352E+00 0. -1.
</event>
<event>
 5   0  0.5190380E-02  0.6177265E+03  0.7818609E-02  0.9869297E-01
       -1   -1    0    0    0  501  0.00000000000E+00  0.00000000000E+00  0.19705075414E+03  0.19705075421E+03  0.50400001928E-02 0.  1.
        1   -1    0    0  501    0  0.00000000000E+00  0.00000000000E+00 -0.48412148821E+03  0.48412148824E+03  0.50400001928E-02 0. -1.
    10030    2    1    2    0    0  0.00000000000E+00  0.00000000000E+00 -0.28707073407E+03  0.68117224245E+03  0.61772649087E+03 0.  0.
        5    1    3    3  502    0  0.79505053923E+02  0.18752810066E+03 -0.39951239682E+03  0.44846414277E+03  0.46999998093E+01 0. -1.
       -5    1    3    3    0  502 -0.79505053923E+02 -0.18752810066E+03  0.11244166275E+03  0.23270809968E+03  0.46999998093E+01 0.  1.
</event>
<event>
 5   0  0.8207443E-02  0.6077772E+03  0.7818609E-02  0.9889401E-01
        2   -1    0    0  501    0  0.00000000000E+00  0.00000000000E+00  0.13564548515E+04  0.13564548515E+04  0.25500000920E-02 0. -1.
       -2   -1    0    0    0  501  0.00000000000E+00  0.00000000000E+00 -0.68080618182E+02  0.68080618230E+02  0.25500000920E-02 0.  1.
    10030    2    1    2    0    0  0.00000000000E+00  0.00000000000E+00  0.12883742333E+04  0.14245354697E+04  0.60777721201E+03 0.  0.
        1    1    3    3  502    0  0.18138894484E+03  0.13322838220E+02  0.12148006389E+04  0.12283403598E+04  0.50400001928E-02 0. -1.
       -1    1    3    3    0  502 -0.18138894484E+03 -0.13322838220E+02  0.73573594445E+02  0.19619510991E+03  0.50400001928E-02 0.  1.
</event>
<event>
 5   0  0.8699746E-02  0.5754958E+03  0.7818609E-02  0.9957591E-01
       -2   -1    0    0    0  501  0.00000000000E+00  0.00000000000E+00  0.74401695783E+03  0.74401695783E+03  0.25500000920E-02 0. -1.
        2   -1    0    0  501    0  0.00000000000E+00  0.00000000000E+00 -0.11128622994E+03  0.11128622997E+03  0.25500000920E-02 0.  1.
    10030    2    1    2    0    0  0.00000000000E+00  0.00000000000E+00  0.63273072789E+03  0.85530318780E+03  0.57549575937E+03 0.  0.
        3    1    3    3  502    0  0.79882238628E+02 -0.69825456202E+02  0.71388510488E+03  0.72172620817E+03  0.10100000352E+00 0. -1.
       -3    1    3    3    0  502 -0.79882238628E+02  0.69825456202E+02 -0.81154376995E+02  0.13357697963E+03  0.10100000352E+00 0.  1.
</event>
<event>
 5   0  0.5190380E-02  0.6007854E+03  0.7818609E-02  0.9903778E-01
       -1   -1    0    0    0  501  0.00000000000E+00  0.00000000000E+00  0.39494286977E+03  0.39494286980E+03  0.50400001928E-02 0.  1.
        1   -1    0    0  501    0  0.00000000000E+00  0.00000000000E+00 -0.22847801591E+03  0.22847801596E+03  0.50400001928E-02 0. -1.
    10030    2    1    2    0    0  0.00000000000E+00  0.00000000000E+00  0.16646485386E+03  0.62342088576E+03  0.60078536370E+03 0.  0.
        5    1    3    3  502    0  0.20757372343E+03 -0.90049517897E+02  0.28820416723E+03  0.36644167113E+03  0.46999998093E+01 0.  1.
       -5    1    3    3    0  502 -0.20757372343E+03  0.90049517897E+02 -0.12173931337E+03  0.25697921463E+03  0.46999998093E+01 0. -1.
</event>
<event>
 5   0  0.5125031E-02  0.5979487E+03  0.7818609E-02  0.9909671E-01
       -1   -1    0    0    0  501  0.00000000000E+00  0.00000000000E+00  0.13165970628E+03  0.13165970638E+03  0.50400001928E-02 0.  1.
        1   -1    0    0  501    0  0.00000000000E+00  0.00000000000E+00 -0.67891428905E+03  0.67891428907E+03  0.50400001928E-02 0. -1.
    10030    2    1    2    0    0  0.00000000000E+00  0.00000000000E+00 -0.54725458277E+03  0.81057399545E+03  0.59794867985E+03 0.  0.
        4    1    3    3  502    0  0.17665514579E+03  0.16155842832E+03 -0.51641015147E+03  0.56920051277E+03  0.12699999809E+01 0. -1.
       -4    1    3    3    0  502 -0.17665514579E+03 -0.16155842832E+03 -0.30844431301E+02  0.24137348268E+03  0.12699999809E+01 0.  1.
</event>
<event>
 5   0  0.5166903E-02  0.6048190E+03  0.7818609E-02  0.9895458E-01
        1   -1    0    0  501    0  0.00000000000E+00  0.00000000000E+00  0.11207220065E+04  0.11207220065E+04  0.50400001928E-02 0. -1.
       -1   -1    0    0    0  501  0.00000000000E+00  0.00000000000E+00 -0.81600513053E+02  0.81600513209E+02  0.50400001928E-02 0.  1.
    10030    2    1    2    0    0  0.00000000000E+00  0.00000000000E+00  0.10391214934E+04  0.12023225197E+04  0.60481895082E+03 0.  0.
        2    1    3    3  502    0 -0.46491249479E+02 -0.10544026780E+03 -0.36244095805E+02  0.12080033460E+03  0.25500000920E-02 0.  1.
       -2    1    3    3    0  502  0.46491249479E+02  0.10544026780E+03  0.10753655892E+04  0.10815221851E+04  0.25500000920E-02 0. -1.
</event>
<event>
 5   0  0.8575590E-02  0.6093854E+03  0.7818609E-02  0.9886123E-01
       -2   -1    0    0    0  501  0.00000000000E+00  0.00000000000E+00  0.62459641619E+03  0.62459641619E+03  0.25500000920E-02 0.  1.
        2   -1    0    0  501    0  0.00000000000E+00  0.00000000000E+00 -0.14863619664E+03  0.14863619666E+03  0.25500000920E-02 0. -1.
    10030    2    1    2    0    0  0.00000000000E+00  0.00000000000E+00  0.47596021955E+03  0.77323261285E+03  0.60938538133E+03 0.  0.
        4    1    3    3  502    0  0.11598302936E+03 -0.93060834983E+02  0.57542311963E+03  0.59432799161E+03  0.12699999809E+01 0.  1.
       -4    1    3    3    0  502 -0.11598302936E+03  0.93060834983E+02 -0.99462900083E+02  0.17890462124E+03  0.12699999809E+01 0. -1.
</event>
<event>
 5   0  0.8207443E-02  0.5939454E+03  0.7818609E-02  0.9918048E-01
        2   -1    0    0  501    0  0.00000000000E+00  0.00000000000E+00  0.10902807522E+04  0.10902807522E+04  0.25500000920E-02 0.  1.
       -2   -1    0    0    0  501  0.00000000000E+00  0.00000000000E+00 -0.80889975777E+02  0.80889975818E+02  0.25500000920E-02 0. -1.
    10030    2    1    2    0    0  0.00000000000E+00  0.00000000000E+00  0.10093907765E+04  0.11711707281E+04  0.59394539703E+03 0.  0.
        1    1    3    3  502    0  0.19252043020E+03  0.22218656352E+03  0.58746135968E+03  0.65691843801E+03  0.50400001928E-02 0. -1.
       -1    1    3    3    0  502 -0.19252043020E+03 -0.22218656352E+03  0.42192941677E+03  0.51425229004E+03  0.50400001928E-02 0.  1.
</event>
<event>
 5   0  0.5125031E-02  0.5990694E+03  0.7818609E-02  0.9907339E-01
       -1   -1    0    0    0  501  0.00000000000E+00  0.00000000000E+00  0.46514722547E+02  0.46514722820E+02  0.50400001928E-02 0. -1.
        1   -1    0    0  501    0  0.00000000000E+00  0.00000000000E+00 -0.19288741285E+04  0.19288741285E+04  0.50400001928E-02 0.  1.
    10030    2    1    2    0    0  0.00000000000E+00  0.00000000000E+00 -0.18823594060E+04  0.19753888513E+04  0.59906942901E+03 0.  0.
        4    1    3    3  502    0  0.75229122473E+02 -0.52938040460E+02 -0.18811353689E+04  0.18833835897E+04  0.12699999809E+01 0.  1.
       -4    1    3    3    0  502 -0.75229122473E+02  0.52938040460E+02 -0.12240370467E+01  0.92005261602E+02  0.12699999809E+01 0. -1.
</event>
<event>
 5   0  0.8817544E-02  0.5987923E+03  0.7818609E-02  0.9907915E-01
        2   -1    0    0  501    0  0.00000000000E+00  0.00000000000E+00  0.10382320029E+04  0.10382320029E+04  0.25500000920E-02 0. -1.
       -2   -1    0    0    0  501  0.00000000000E+00  0.00000000000E+00 -0.86337211415E+02  0.86337211452E+02  0.25500000920E-02 0.  1.
    10030    2    1    2    0    0  0.00000000000E+00  0.00000000000E+00  0.95189479150E+03  0.11245692144E+04  0.59879230441E+03 0.  0.
        5    1    3    3  502    0 -0.53574559678E+02 -0.14816072376E+02  0.10283857682E+04  0.10298976297E+04  0.46999998093E+01 0. -1.
       -5    1    3    3    0  502  0.53574559678E+02  0.14816072376E+02 -0.76490976648E+02  0.94671584713E+02  0.46999998093E+01 0.  1.
</event>
<event>
 5   0  0.5125031E-02  0.6003866E+03  0.7818609E-02  0.9904604E-01
       -1   -1    0    0    0  501  0.00000000000E+00  0.00000000000E+00  0.11399416304E+03  0.11399416315E+03  0.50400001928E-02 0. -1.
        1   -1    0    0  501    0  0.00000000000E+00  0.00000000000E+00 -0.79053173952E+03  0.79053173954E+03  0.50400001928E-02 0.  1.
    10030    2    1    2    0    0  0.00000000000E+00  0.00000000000E+00 -0.67653757648E+03  0.90452590269E+03  0.60038655569E+03 0.  0.
        4    1    3    3  502    0  0.22228233032E+03 -0.19587106684E+03 -0.41113897801E+03  0.50676600254E+03  0.12699999809E+01 0. -1.
       -4    1    3    3    0  502 -0.22228233032E+03  0.19587106684E+03 -0.26539859847E+03  0.39775990015E+03  0.12699999809E+01 0.  1.
</event>
<event>
 5   0  0.4881209E-02  0.5965836E+03  0.7818609E-02  0.9912519E-01
       -1   -1    0    0    0  501  0.00000000000E+00  0.00000000000E+00  0.24209752769E+03  0.24209752774E+03  0.50400001928E-02 0. -1.
        1   -1    0    0  501    0  0.00000000000E+00  0.00000000000E+00 -0.36752960137E+03  0.36752960141E+03  0.50400001928E-02 0.  1.
    10030    2    1    2    0    0  0.00000000000E+00  0.00000000000E+00 -0.12543207368E+03  0.60962712915E+03  0.59658363327E+03 0.  0.
        3    1    3    3  502    0  0.24562828779E+02 -0.29207569440E+03 -0.61297538373E+01  0.29317081693E+03  0.10100000352E+00 0.  1.
       -3    1    3    3    0  502 -0.24562828779E+02  0.29207569440E+03 -0.11930231985E+03  0.31645631221E+03  0.10100000352E+00 0. -1.
</event>
<event>
 5   0  0.5190380E-02  0.5975255E+03  0.7818609E-02  0.9910553E-01
        1   -1    0    0  501    0  0.00000000000E+00  0.00000000000E+00  0.96372895049E+03  0.96372895050E+03  0.50400001928E-02 0. -1.
       -1   -1    0    0    0  501  0.00000000000E+00  0.00000000000E+00 -0.92618543244E+02  0.92618543381E+02  0.50400001928E-02 0.  1.
    10030    2    1    2    0    0  0.00000000000E+00  0.00000000000E+00  0.87111040724E+03  0.10563474939E+04  0.59752546910E+03 0.  0.
        5    1    3    3  502    0 -0.29166651521E+01 -0.12842940289E+03 -0.41227512608E+02  0.13499783796E+03  0.46999998093E+01 0.  1.
       -5    1    3    3    0  502  0.29166651521E+01  0.12842940289E+03  0.91233791985E+03  0.92134965592E+03  0.46999998093E+01 0. -1.
</event>
<event>
 5   0  0.5166903E-02  0.6471253E+03  0.7818609E-02  0.9812188E-01
       -1   -1    0    0    0  501  0.00000000000E+00  0.00000000000E+00  0.23578554696E+03  0.23578554701E+03  0.50400001928E-02 0. -1.
        1   -1    0    0  501    0  0.00000000000E+00  0.00000000000E+00 -0.44401699187E+03  0.44401699190E+03  0.50400001928E-02 0.  1.
    10030    2    1    2    0    0  0.00000000000E+00  0.00000000000E+00 -0.20823144491E+03  0.67980253891E+03  0.64712530260E+03 0.  0.
        2    1    3    3  502    0  0.23120249932E+03 -0.20893168648E+03 -0.19560990734E+03  0.36792700521E+03  0.25500000920E-02 0. -1.
       -2    1    3    3    0  502 -0.23120249932E+03  0.20893168648E+03 -0.12621537568E+02  0.31187553370E+03  0.25500000920E-02 0.  1.
</event>
<event>
 5   0  0.3437375E-02  0.5986197E+03  0.7818609E-02  0.9908274E-01
        3   -1    0    0  501    0  0.00000000000E+00  0.00000000000E+00  0.20530409154E+03  0.20530411638E+03  0.10100000352E+00 0. -1.
       -3   -1    0    0    0  501  0.00000000000E+00  0.00000000000E+00 -0.43635935092E+03  0.43635936261E+03  0.10100000352E+00 0.  1.
    10030    2    1    2    0    0  0.00000000000E+00  0.00000000000E+00 -0.23105525939E+03  0.64166347899E+03  0.59861965168E+03 0.  0.
        2    1    3    3  502    0  0.25714204276E+03 -0.19636059132E+02 -0.27836821389E+03  0.37946866469E+03  0.25500000920E-02 0.  1.
       -2    1    3    3    0  502 -0.25714204276E+03  0.19636059132E+02  0.47312954506E+02  0.26219481430E+03  0.25500000920E-02 0. -1.
</event>
<event>
 5   0  0.8575590E-02  0.6019898E+03  0.7818609E-02  0.9901286E-01
        2   -1    0    0  501    0  0.00000000000E+00  0.00000000000E+00  0.16104594525E+04  0.16104594525E+04  0.25500000920E-02 0.  1.
       -2   -1    0    0    0  501  0.00000000000E+00  0.00000000000E+00 -0.56255952350E+02  0.56255952408E+02  0.25500000920E-02 0. -1.
    10030    2    1    2    0    0  0.00000000000E+00  0.00000000000E+00  0.15542035002E+04  0.16667154049E+04  0.60198980148E+03 0.  0.
        4    1    3    3  502    0 -0.25556195390E+03 -0.73713236957E+02  0.38701524485E+03  0.46960405261E+03  0.12699999809E+01 0. -1.
       -4    1    3    3    0  502  0.25556195390E+03  0.73713236957E+02  0.11671882553E+04  0.11971113523E+04  0.12699999809E+01 0.  1.
</event>
<event>
 5   0  0.4987389E-02  0.5898312E+03  0.7818609E-02  0.9926731E-01
        1   -1    0    0  501    0  0.00000000000E+00  0.00000000000E+00  0.45904469588E+03  0.45904469591E+03  0.50400001928E-02 0. -1.
       -1   -1    0    0    0  501  0.00000000000E+00  0.00000000000E+00 -0.18947000917E+03  0.18947000924E+03  0.50400001928E-02 0.  1.
    10030    2    1    2    0    0  0.00000000000E+00  0.00000000000E+00  0.26957468671E+03  0.64851470515E+03  0.58983117168E+03 0.  0.
        1    1    3    3  502    0 -0.15158952516E+03  0.19827250003E+02 -0.14249989315E+03  0.20899455389E+03  0.50400001928E-02 0.  1.
       -1    1    3    3    0  502  0.15158952516E+03 -0.19827250003E+02  0.41207457985E+03  0.43952015126E+03  0.50400001928E-02 0. -1.
</event>
<event>
 5   0  0.4881209E-02  0.5978005E+03  0.7818609E-02  0.9909980E-01
       -1   -1    0    0    0  501  0.00000000000E+00  0.00000000000E+00  0.10927241940E+03  0.10927241951E+03  0.50400001928E-02 0. -1.
        1   -1    0    0  501    0  0.00000000000E+00  0.00000000000E+00 -0.81760205411E+03  0.81760205412E+03  0.50400001928E-02 0.  1.
    10030    2    1    2    0    0  0.00000000000E+00  0.00000000000E+00 -0.70832963471E+03  0.92687447364E+03  0.59780048383E+03 0.  0.
        3    1    3    3  502    0  0.34664601007E+02  0.29157599888E+03 -0.26751635628E+03  0.39721934591E+03  0.10100000352E+00 0. -1.
       -3    1    3    3    0  502 -0.34664601007E+02 -0.29157599888E+03 -0.44081327843E+03  0.52965512773E+03  0.10100000352E+00 0.  1.
</event>
<event>
 5   0  0.8420604E-02  0.5955085E+03  0.7818609E-02  0.9914768E-01
        2   -1    0    0  501    0  0.00000000000E+00  0.00000000000E+00  0.79161491433E+03  0.79161491434E+03  0.25500000920E-02 0.  1.
       -2   -1    0    0    0  501  0.00000000000E+00  0.00000000000E+00 -0.11199587278E+03  0.11199587281E+03  0.25500000920E-02 0. -1.
    10030    2    1    2    0    0  0.00000000000E+00  0.00000000000E+00  0.67961904155E+03  0.90361078715E+03  0.59550853311E+03 0.  0.
        2    1    3    3  502    0  0.28342404502E+03 -0.65418881130E+02  0.43636028571E+03  0.52442265231E+03  0.25500000920E-02 0.  1.
       -2    1    3    3    0  502 -0.28342404502E+03  0.65418881130E+02  0.24325875584E+03  0.37918813484E+03  0.25500000920E-02 0. -1.
</event>
<event>
 5   0  0.8575590E-02  0.5985083E+03  0.7818609E-02  0.9908506E-01
        2   -1    0    0  501    0  0.00000000000E+00  0.00000000000E+00  0.56182746768E+03  0.56182746769E+03  0.25500000920E-02 0.  1.
       -2   -1    0    0    0  501  0.00000000000E+00  0.00000000000E+00 -0.15939598078E+03  0.15939598080E+03  0.25500000920E-02 0. -1.
    10030    2    1    2    0    0  0.00000000000E+00  0.00000000000E+00  0.40243148690E+03  0.72122344849E+03  0.59850827981E+03 0.  0.
        4    1    3    3  502    0  0.16738703154E+03  0.14693588777E+03 -0.39619045271E+02  0.22622965122E+03  0.12699999809E+01 0. -1.
       -4    1    3    3    0  502 -0.16738703154E+03 -0.14693588777E+03  0.44205053218E+03  0.49499379727E+03  0.12699999809E+01 0.  1.
</event>
<event>
 5   0  0.5190380E-02  0.5767751E+03  0.7818609E-02  0.9954797E-01
        1   -1    0    0  501    0  0.00000000000E+00  0.00000000000E+00  0.11993008839E+03  0.11993008849E+03  0.50400001928E-02 0. -1.
       -1   -1    0    0    0  501  0.00000000000E+00  0.00000000000E+00 -0.69346538587E+03  0.69346538589E+03  0.50400001928E-02 0.  1.
    10030    2    1    2    0    0  0.00000000000E+00  0.00000000000E+00 -0.57353529749E+03  0.81339547438E+03  0.57677505172E+03 0.  0.
        5    1    3    3  502    0 -0.70031227024E+02  0.20013167260E+03 -0.11179860250E+02  0.21237734909E+03  0.46999998093E+01 0. -1.
       -5    1    3    3    0  502  0.70031227024E+02 -0.20013167260E+03 -0.56235543724E+03  0.60101812529E+03  0.46999998093E+01 0.  1.
</event>
<event>
 5   0  0.8575590E-02  0.6011287E+03  0.7818609E-02  0.9903067E-01
       -2   -1    0    0    0  501  0.00000000000E+00  0.00000000000E+00  0.90394175308E+02  0.90394175344E+02  0.25500000920E-02 0.  1.
        2   -1    0    0  501    0  0.00000000000E+00  0.00000000000E+00 -0.99938878538E+03  0.99938878539E+03  0.25500000920E-02 0. -1.
    10030    2    1    2    0    0  0.00000000000E+00  0.00000000000E+00 -0.90899461008E+03  0.10897829607E+04  0.60112868868E+03 0.  0.
        4    1    3    3  502    0 -0.11176929435E+03  0.15273851418E+02  0.50554591899E+02  0.12362461470E+03  0.12699999809E+01 0.  1.
       -4    1    3    3    0  502  0.11176929435E+03 -0.15273851418E+02 -0.95954920197E+03  0.96615834603E+03  0.12699999809E+01 0. -1.
</event>
<event>
 5   0  0.5166903E-02  0.5972434E+03  0.7818609E-02  0.9911142E-01
        1   -1    0    0  501    0  0.00000000000E+00  0.00000000000E+00  0.15375921135E+03  0.15375921143E+03  0.50400001928E-02 0.  1.
       -1   -1    0    0    0  501  0.00000000000E+00  0.00000000000E+00 -0.57996480299E+03  0.57996480302E+03  0.50400001928E-02 0. -1.
    10030    2    1    2    0    0  0.00000000000E+00  0.00000000000E+00 -0.42620559165E+03  0.73372401445E+03  0.59724343699E+03 0.  0.
        2    1    3    3  502    0 -0.17551458235E+02 -0.24122613821E+03 -0.42827519797E+03  0.49185134812E+03  0.25500000920E-02 0.  1.
       -2    1    3    3    0  502  0.17551458235E+02  0.24122613821E+03  0.20696063223E+01  0.24187266633E+03  0.25500000920E-02 0. -1.
</event>
<event>
 5   0  0.8817544E-02  0.6258461E+03  0.7818609E-02  0.9853189E-01
       -2   -1    0    0    0  501  0.00000000000E+00  0.00000000000E+00  0.56843388097E+03  0.56843388098E+03  0.25500000920E-02 0.  1.
        2   -1    0    0  501    0  0.00000000000E+00  0.00000000000E+00 -0.17226423431E+03  0.17226423432E+03  0.25500000920E-02 0. -1.
    10030    2    1    2    0    0  0.00000000000E+00  0.00000000000E+00  0.39616964667E+03  0.74069811530E+03  0.62584607458E+03 0.  0.
        5    1    3    3  502    0 -0.29360467164E+03 -0.10174179256E+03  0.24146741022E+03  0.39355265945E+03  0.46999998093E+01 0.  1.
       -5    1    3    3    0  502  0.29360467164E+03  0.10174179256E+03  0.15470223644E+03  0.34714545585E+03  0.46999998093E+01 0. -1.
</event>
<event>
 5   0  0.5166903E-02  0.5985932E+03  0.7818609E-02  0.9908329E-01
       -1   -1    0    0    0  501  0.00000000000E+00  0.00000000000E+00  0.25643708517E+03  0.25643708522E+03  0.50400001928E-02 0. -1.
        1   -1    0    0  501    0  0.00000000000E+00  0.00000000000E+00 -0.34931945092E+03  0.34931945096E+03  0.50400001928E-02 0.  1.
    10030    2    1    2    0    0  0.00000000000E+00  0.00000000000E+00 -0.92882365747E+02  0.60575653618E+03  0.59859322353E+03 0.  0.
        2    1    3    3  502    0 -0.16705780124E+03  0.20588188246E+03 -0.18696547257E+03  0.32442525552E+03  0.25500000920E-02 0.  1.
       -2    1    3    3    0  502  0.16705780124E+03 -0.20588188246E+03  0.94083106827E+02  0.28133128066E+03  0.25500000920E-02 0. -1.
</event>
<event>
 5   0  0.8699746E-02  0.5983340E+03  0.7818609E-02  0.9908868E-01
       -2   -1    0    0    0  501  0.00000000000E+00  0.00000000000E+00  0.12441860369E+03  0.12441860372E+03  0.25500000920E-02 0. -1.
        2   -1    0    0  501    0  0.00000000000E+00  0.00000000000E+00 -0.71935307235E+03  0.71935307236E+03  0.25500000920E-02 0.  1.
    10030    2    1    2    0    0  0.00000000000E+00  0.00000000000E+00 -0.59493446866E+03  0.84377167608E+03  0.59833403659E+03 0.  0.
        3    1    3    3  502    0  0.25085167903E+03  0.12585611847E+03 -0.44357506877E+03  0.52490492402E+03  0.10100000352E+00 0.  1.
       -3    1    3    3    0  502 -0.25085167903E+03 -0.12585611847E+03 -0.15135939990E+03  0.31886675205E+03  0.10100000352E+00 0. -1.
</event>
<event>
 5   0  0.3437375E-02  0.5995575E+03  0.7818609E-02  0.9906324E-01
       -4   -1    0    0    0  501  0.00000000000E+00  0.00000000000E+00  0.46024186914E+03  0.46024362137E+03  0.12699999809E+01 0.  1.
        4   -1    0    0  501    0  0.00000000000E+00  0.00000000000E+00 -0.19525685454E+03  0.19526098470E+03  0.12699999809E+01 0. -1.
    10030    2    1    2    0    0  0.00000000000E+00  0.00000000000E+00  0.26498501460E+03  0.65550460607E+03  0.59955752903E+03 0.  0.
        2    1    3    3  502    0 -0.47670806785E+02  0.28129538535E+03  0.31885594269E+02  0.28708237628E+03  0.25500000920E-02 0.  1.
       -2    1    3    3    0  502  0.47670806785E+02 -0.28129538535E+03  0.23309942033E+03  0.36842222979E+03  0.25500000920E-02 0. -1.
</event>
<event>
 5   0  0.8420604E-02  0.6001171E+03  0.7818609E-02  0.9905163E-01
       -2   -1    0    0    0  501  0.00000000000E+00  0.00000000000E+00  0.12140409710E+03  0.12140409712E+03  0.25500000920E-02 0. -1.
        2   -1    0    0  501    0  0.00000000000E+00  0.00000000000E+00 -0.74161537864E+03  0.74161537865E+03  0.25500000920E-02 0.  1.
    10030    2    1    2    0    0  0.00000000000E+00  0.00000000000E+00 -0.62021128154E+03  0.86301947577E+03  0.60011714007E+03 0.  0.
        2    1    3    3  502    0 -0.20127429949E+03  0.56967548132E+02 -0.73848549085E+00  0.20918219461E+03  0.25500000920E-02 0. -1.
       -2    1    3    3    0  502  0.20127429949E+03 -0.56967548132E+02 -0.61947279605E+03  0.65383728116E+03  0.25500000920E-02 0.  1.
</event>
<event>
 5   0  0.5190380E-02  0.6037915E+03  0.7818609E-02  0.9897571E-01
       -1   -1    0    0    0  501  0.00000000000E+00  0.00000000000E+00  0.53702342732E+03  0.53702342735E+03  0.50400001928E-02 0.  1.
        1   -1    0    0  501    0  0.00000000000E+00  0.00000000000E+00 -0.16971520179E+03  0.16971520187E+03  0.50400001928E-02 0. -1.
    10030    2    1    2    0    0  0.00000000000E+00  0.00000000000E+00  0.36730822553E+03  0.70673862921E+03  0.60379148510E+03 0.  0.
        5    1    3    3  502    0 -0.57484680032E+01 -0.29142953360E+03  0.27548238205E+03  0.40109456586E+03  0.46999998093E+01 0.  1.
       -5    1    3    3    0  502  0.57484680032E+01  0.29142953360E+03  0.91825843477E+02  0.30564406336E+03  0.46999998093E+01 0. -1.
</event>
<event>
 5   0  0.8575590E-02  0.5110080E+03  0.7818609E-02  0.1010945E+00
        2   -1    0    0  501    0  0.00000000000E+00  0.00000000000E+00  0.78420842709E+03  0.78420842709E+03  0.25500000920E-02 0.  1.
       -2   -1    0    0    0  501  0.00000000000E+00  0.00000000000E+00 -0.83246110138E+02  0.83246110177E+02  0.25500000920E-02 0. -1.
    10030    2    1    2    0    0  0.00000000000E+00  0.00000000000E+00  0.70096231695E+03  0.86745453727E+03  0.51100802777E+03 0.  0.
        4    1    3    3  502    0  0.95391791924E+02 -0.58096120674E+02 -0.39604845666E+02  0.11851122269E+03  0.12699999809E+01 0. -1.
       -4    1    3    3    0  502 -0.95391791924E+02  0.58096120674E+02  0.74056716262E+03  0.74894331458E+03  0.12699999809E+01 0.  1.
</event>
<event>
 5   0  0.8817544E-02  0.5993534E+03  0.7818609E-02  0.9906748E-01
       -2   -1    0    0    0  501  0.00000000000E+00  0.00000000000E+00  0.78169917725E+02  0.78169917766E+02  0.25500000920E-02 0.  1.
        2   -1    0    0  501    0  0.00000000000E+00  0.00000000000E+00 -0.11488579410E+04  0.11488579410E+04  0.25500000920E-02 0. -1.
    10030    2    1    2    0    0  0.00000000000E+00  0.00000000000E+00 -0.10706880232E+04  0.12270278587E+04  0.59935342078E+03 0.  0.
        5    1    3    3  502    0  0.29832470715E+03  0.69194355330E+01 -0.59098000896E+03  0.66206115312E+03  0.46999998093E+01 0. -1.
       -5    1    3    3    0  502 -0.29832470715E+03 -0.69194355330E+01 -0.47970801428E+03  0.56496670561E+03  0.46999998093E+01 0.  1.
</event>
<event>
 5   0  0.5125031E-02  0.5811083E+03  0.7818609E-02  0.9945394E-01
        1   -1    0    0  501    0  0.00000000000E+00  0.00000000000E+00  0.63451777284E+02  0.63451777484E+02  0.50400001928E-02 0. -1.
       -1   -1    0    0    0  501  0.00000000000E+00  0.00000000000E+00 -0.13304863387E+04  0.13304863387E+04  0.50400001928E-02 0.  1.
    10030    2    1    2    0    0  0.00000000000E+00  0.00000000000E+00 -0.12670345614E+04  0.13939381162E+04  0.58110833065E+03 0.  0.
        4    1    3    3  502    0 -0.16258248180E+03 -0.20267326709E+03 -0.32158105192E+03  0.41343137573E+03  0.12699999809E+01 0. -1.
       -4    1    3    3    0  502  0.16258248180E+03  0.20267326709E+03 -0.94545350948E+03  0.98050674045E+03  0.12699999809E+01 0.  1.
</event>
<event>
 5   0  0.3437375E-02  0.5979333E+03  0.7818609E-02  0.9909703E-01
        4   -1    0    0  501    0  0.00000000000E+00  0.00000000000E+00  0.60558259874E+03  0.60558393043E+03  0.12699999809E+01 0.  1.
       -4   -1    0    0    0  501  0.00000000000E+00  0.00000000000E+00 -0.14759091566E+03  0.14759637965E+03  0.12699999809E+01 0. -1.
    10030    2    1    2    0    0  0.00000000000E+00  0.00000000000E+00  0.45799168308E+03  0.75318031007E+03  0.59793327196E+03 0.  0.
        4    1    3    3  502    0  0.41038781412E+02  0.22093350089E+03  0.47738332757E+03  0.52762889206E+03  0.12699999809E+01 0.  1.
       -4    1    3    3    0  502 -0.41038781412E+02 -0.22093350089E+03 -0.19391644487E+02  0.22555141802E+03  0.12699999809E+01 0. -1.
</event>
<event>
 5   0  0.8817544E-02  0.6008414E+03  0.7818609E-02  0.9903662E-01
        2   -1    0    0  501    0  0.00000000000E+00  0.00000000000E+00  0.14910472521E+03  0.14910472524E+03  0.25500000920E-02 0. -1.
       -2   -1    0    0    0  501  0.00000000000E+00  0.00000000000E+00 -0.60529666281E+03  0.60529666282E+03  0.25500000920E-02 0.  1.
    10030    2    1    2    0    0  0.00000000000E+00  0.00000000000E+00 -0.45619193760E+03  0.75440138805E+03  0.60084138536E+03 0.  0.
        5    1    3    3  502    0  0.23890652754E+03  0.17633008596E+03 -0.28510895012E+03  0.41167685331E+03  0.46999998093E+01 0.  1.
       -5    1    3    3    0  502 -0.23890652754E+03 -0.17633008596E+03 -0.17108298748E+03  0.34272453474E+03  0.46999998093E+01 0. -1.
</event>
<event>
 5   0  0.4881209E-02  0.6097853E+03  0.7818609E-02  0.9885310E-01
       -1   -1    0    0    0  501  0.00000000000E+00  0.00000000000E+00  0.92272462051E+02  0.92272462188E+02  0.50400001928E-02 0. -1.
        1   -1    0    0  501    0  0.00000000000E+00  0.00000000000E+00 -0.10074461368E+04  0.10074461368E+04  0.50400001928E-02 0.  1.
    10030    2    1    2    0    0  0.00000000000E+00  0.00000000000E+00 -0.91517367475E+03  0.10997185990E+04  0.60978532455E+03 0.  0.
        3    1    3    3  502    0 -0.20474187279E+03  0.88144339314E+02 -0.82439043467E+02  0.23766544788E+03  0.10100000352E+00 0. -1.
       -3    1    3    3    0  502  0.20474187279E+03 -0.88144339314E+02 -0.83273463128E+03  0.86205315112E+03  0.10100000352E+00 0.  1.
</event>
<event>
 5   0  0.8207443E-02  0.6414676E+03  0.7818609E-02  0.9822923E-01
       -2   -1    0    0    0  501  0.00000000000E+00  0.00000000000E+00  0.37612533622E+03  0.37612533623E+03  0.25500000920E-02 0.  1.
        2   -1    0    0  501    0  0.00000000000E+00  0.00000000000E+00 -0.27349968586E+03  0.27349968587E+03  0.25500000920E-02 0. -1.
    10030    2    1    2    0    0  0.00000000000E+00  0.00000000000E+00  0.10262565036E+03  0.64962502210E+03  0.64146757146E+03 0.  0.
        1    1    3    3  502    0 -0.98573744793E+02 -0.30990583944E+02  0.35880702080E+03  0.37338944503E+03  0.50400001928E-02 0.  1.
       -1    1    3    3    0  502  0.98573744793E+02  0.30990583944E+02 -0.25618137044E+03  0.27623557707E+03  0.50400001928E-02 0. -1.
</event>
<event>
 5   0  0.4987389E-02  0.5765830E+03  0.7818609E-02  0.9955216E-01
        1   -1    0    0  501    0  0.00000000000E+00  0.00000000000E+00  0.11287470325E+04  0.11287470325E+04  0.50400001928E-02 0. -1.
       -1   -1    0    0    0  501  0.00000000000E+00  0.00000000000E+00 -0.73632073818E+02  0.73632073991E+02  0.50400001928E-02 0.  1.
    10030    2    1    2    0    0  0.00000000000E+00  0.00000000000E+00  0.10551149587E+04  0.12023791065E+04  0.57658298597E+03 0.  0.
        1    1    3    3  502    0  0.34099129752E+02  0.99792066355E+02  0.10870805918E+04  0.10921837850E+04  0.50400001928E-02 0. -1.
       -1    1    3    3    0  502 -0.34099129752E+02 -0.99792066355E+02 -0.31965633098E+02  0.11019532151E+03  0.50400001928E-02 0.  1.
</event>
<event>
 5   0  0.8207443E-02  0.5933008E+03  0.7818609E-02  0.9919403E-01
       -2   -1    0    0    0  501  0.00000000000E+00  0.00000000000E+00  0.34729724331E+02  0.34729724425E+02  0.25500000920E-02 0.  1.
        2   -1    0    0  501    0  0.00000000000E+00  0.00000000000E+00 -0.25338948452E+04  0.25338948452E+04  0.25500000920E-02 0. -1.
    10030    2    1    2    0    0  0.00000000000E+00  0.00000000000E+00 -0.24991651208E+04  0.25686245696E+04  0.59330083289E+03 0.  0.
        1    1    3    3  502    0 -0.17923294202E+03 -0.92464675424E+01 -0.22721919832E+04  0.22792688198E+04  0.50400001928E-02 0. -1.
       -1    1    3    3    0  502  0.17923294202E+03  0.92464675424E+01 -0.22697313765E+03  0.28935574975E+03  0.50400001928E-02 0.  1.
</event>
<event>
 5   0  0.8207443E-02  0.5978155E+03  0.7818609E-02  0.9909949E-01
       -2   -1    0    0    0  501  0.00000000000E+00  0.00000000000E+00  0.12309346680E+04  0.12309346680E+04  0.25500000920E-02 0. -1.
        2   -1    0    0  501    0  0.00000000000E+00  0.00000000000E+00 -0.72583749712E+02  0.72583749757E+02  0.25500000920E-02 0.  1.
    10030    2    1    2    0    0  0.00000000000E+00  0.00000000000E+00  0.11583509183E+04  0.13035184177E+04  0.59781553637E+03 0.  0.
        1    1    3    3  502    0  0.34789109137E+02  0.13473615034E+03  0.23527535965E+01  0.13917488206E+03  0.50400001928E-02 0.  1.
       -1    1    3    3    0  502 -0.34789109137E+02 -0.13473615034E+03  0.11559981647E+04  0.11643435357E+04  0.50400001928E-02 0. -1.
</event>
<event>
 5   0  0.8817544E-02  0.5837522E+03  0.7818609E-02  0.9939701E-01
       -2   -1    0    0    0  501  0.00000000000E+00  0.00000000000E+00  0.20939027407E+03  0.20939027409E+03  0.25500000920E-02 0. -1.
        2   -1    0    0  501    0  0.00000000000E+00  0.00000000000E+00 -0.40685580928E+03  0.40685580929E+03  0.25500000920E-02 0.  1.
    10030    2    1    2    0    0  0.00000000000E+00  0.00000000000E+00 -0.19746553521E+03  0.61624608338E+03  0.58375217146E+03 0.  0.
        5    1    3    3  502    0 -0.18269511687E+03 -0.10170714784E+03  0.11618678713E+03  0.23925574006E+03  0.46999998093E+01 0. -1.
       -5    1    3    3    0  502  0.18269511687E+03  0.10170714784E+03 -0.31365232234E+03  0.37699034332E+03  0.46999998093E+01 0.  1.
</event>
<event>
 5   0  0.8699746E-02  0.5972098E+03  0.7818609E-02  0.9911212E-01
       -2   -1    0    0    0  501  0.00000000000E+00  0.00000000000E+00  0.61749620427E+03  0.61749620428E+03  0.25500000920E-02 0. -1.
        2   -1    0    0  501    0  0.00000000000E+00  0.00000000000E+00 -0.14439744167E+03  0.14439744169E+03  0.25500000920E-02 0.  1.
    10030    2    1    2    0    0  0.00000000000E+00  0.00000000000E+00  0.47309876260E+03  0.76189364597E+03  0.59720975260E+03 0.  0.
        3    1    3    3  502    0 -0.38424268669E+02 -0.11737689712E+03  0.58338388703E+03  0.59631412045E+03  0.10100000352E+00 0. -1.
       -3    1    3    3    0  502  0.38424268669E+02  0.11737689712E+03 -0.11028512443E+03  0.16557952552E+03  0.10100000352E+00 0.  1.
</event>
<event>
 5   0  0.5166903E-02  0.5919005E+03  0.7818609E-02  0.9922354E-01
        1   -1    0    0  501    0  0.00000000000E+00  0.00000000000E+00  0.11100563759E+04  0.11100563759E+04  0.50400001928E-02 0. -1.
       -1   -1    0    0    0  501  0.00000000000E+00  0.00000000000E+00 -0.78902789919E+02  0.78902790080E+02  0.50400001928E-02 0.  1.
    10030    2    1    2    0    0  0.00000000000E+00  0.00000000000E+00  0.10311535859E+04  0.11889591660E+04  0.59190048193E+03 0.  0.
        2    1    3    3  502    0  0.19877381213E+03  0.83487861277E+02  0.92283244828E+03  0.94768189757E+03  0.25500000920E-02 0. -1.
       -2    1    3    3    0  502 -0.19877381213E+03 -0.83487861277E+02  0.10832113767E+03  0.24127726839E+03  0.25500000920E-02 0.  1.
</event>
<event>
 5   0  0.4881209E-02  0.5953478E+03  0.7818609E-02  0.9915105E-01
       -1   -1    0    0    0  501  0.00000000000E+00  0.00000000000E+00  0.32834394968E+03  0.32834394972E+03  0.50400001928E-02 0.  1.
        1   -1    0    0  501    0  0.00000000000E+00  0.00000000000E+00 -0.26986865485E+03  0.26986865490E+03  0.50400001928E-02 0. -1.
    10030    2    1    2    0    0  0.00000000000E+00  0.00000000000E+00  0.58475294833E+02  0.59821260462E+03  0.59534776410E+03 0.  0.
        3    1    3    3  502    0  0.72655547768E+02 -0.14380722555E+03 -0.22226739591E+03  0.27452167897E+03  0.10100000352E+00 0. -1.
       -3    1    3    3    0  502 -0.72655547768E+02  0.14380722555E+03  0.28074269074E+03  0.32369092565E+03  0.10100000352E+00 0.  1.
</event>
<event>
 5   0  0.5190380E-02  0.4926447E+03  0.7818609E-02  0.1015717E+00
        1   -1    0    0  501    0  0.00000000000E+00  0.00000000000E+00  0.73885783111E+03  0.73885783113E+03  0.50400001928E-02 0. -1.
       -1   -1    0    0    0  501  0.00000000000E+00  0.00000000000E+00 -0.82119599169E+02  0.82119599324E+02  0.50400001928E-02 0.  1.
    10030    2    1    2    0    0  0.00000000000E+00  0.00000000000E+00  0.65673823194E+03  0.82097743045E+03  0.49264473611E+03 0.  0.
        5    1    3    3  502    0  0.42652991726E+02  0.16264846846E+03  0.28502678566E+02  0.17061153150E+03  0.46999998093E+01 0.  1.
       -5    1    3    3    0  502 -0.42652991726E+02 -0.16264846846E+03  0.62823555338E+03  0.65036589895E+03  0.46999998093E+01 0. -1.
</event>
<event>
 5   0  0.3437375E-02  0.6009727E+03  0.7818609E-02  0.9903390E-01
       -3   -1    0    0    0  501  0.00000000000E+00  0.00000000000E+00  0.12541983890E+04  0.12541983930E+04  0.10100000352E+00 0.  1.
        3   -1    0    0  501    0  0.00000000000E+00  0.00000000000E+00 -0.71991798526E+02  0.71991869375E+02  0.10100000352E+00 0. -1.
    10030    2    1    2    0    0  0.00000000000E+00  0.00000000000E+00  0.11822065904E+04  0.13261902624E+04  0.60097270289E+03 0.  0.
        2    1    3    3  502    0  0.29984292777E+03 -0.19604078342E+02  0.59418181796E+03  0.66583942060E+03  0.25500000920E-02 0.  1.
       -2    1    3    3    0  502 -0.29984292777E+03  0.19604078342E+02  0.58802477247E+03  0.66035084180E+03  0.25500000920E-02 0. -1.
</event>
<event>
 5   0  0.5166903E-02  0.5966296E+03  0.7818609E-02  0.9912423E-01
        1   -1    0    0  501    0  0.00000000000E+00  0.00000000000E+00  0.14145174312E+03  0.14145174321E+03  0.50400001928E-02 0. -1.
       -1   -1    0    0    0  501  0.00000000000E+00  0.00000000000E+00 -0.62913137375E+03  0.62913137377E+03  0.50400001928E-02 0.  1.
    10030    2    1    2    0    0  0.00000000000E+00  0.00000000000E+00 -0.48767963063E+03  0.77058311698E+03  0.59662963222E+03 0.  0.
        2    1    3    3  502    0 -0.90071425215E+02  0.89582125351E+02  0.10477119934E+03  0.16466579196E+03  0.25500000920E-02 0. -1.
       -2    1    3    3    0  502  0.90071425215E+02 -0.89582125351E+02 -0.59245082997E+03  0.60591732502E+03  0.25500000920E-02 0.  1.
</event>
<event>
 5   0  0.3437375E-02  0.6165388E+03  0.7818609E-02  0.9871675E-01
        3   -1    0    0  501    0  0.00000000000E+00  0.00000000000E+00  0.11768942101E+03  0.11768946435E+03  0.10100000352E+00 0.  1.
       -3   -1    0    0    0  501  0.00000000000E+00  0.00000000000E+00 -0.80746423520E+03  0.80746424152E+03  0.10100000352E+00 0. -1.
    10030    2    1    2    0    0  0.00000000000E+00  0.00000000000E+00 -0.68977481419E+03  0.92515370587E+03  0.61653879456E+03 0.  0.
        5    1    3    3  502    0  0.29495782385E+03  0.23015933355E+02 -0.21512510404E+03  0.36582885537E+03  0.46999998093E+01 0. -1.
       -5    1    3    3    0  502 -0.29495782385E+03 -0.23015933355E+02 -0.47464971015E+03  0.55932485050E+03  0.46999998093E+01 0.  1.
</event>
<event>
 5   0  0.4987389E-02  0.6068287E+03  0.7818609E-02  0.9891339E-01
        1   -1    0    0  501    0  0.00000000000E+00  0.00000000000E+00  0.11924467089E+04  0.11924467089E+04  0.50400001928E-02 0.  1.
       -1   -1    0    0    0  501  0.00000000000E+00  0.00000000000E+00 -0.77202829691E+02  0.77202829856E+02  0.50400001928E-02 0. -1.
    10030    2    1    2    0    0  0.00000000000E+00  0.00000000000E+00  0.11152438792E+04  0.12696495388E+04  0.60682867531E+03 0.  0.
        1    1    3    3  502    0  0.21234759720E+03  0.10110167160E+03  0.95870096535E+03  0.98712744416E+03  0.50400001928E-02 0.  1.
       -1    1    3    3    0  502 -0.21234759720E+03 -0.10110167160E+03  0.15654291387E+03  0.28252209461E+03  0.50400001928E-02 0. -1.
</event>
<event>
 5   0  0.8207443E-02  0.6029284E+03  0.7818609E-02  0.9899349E-01
       -2   -1    0    0    0  501  0.00000000000E+00  0.00000000000E+00  0.59156509580E+02  0.59156509635E+02  0.25500000920E-02 0.  1.
        2   -1    0    0  501    0  0.00000000000E+00  0.00000000000E+00 -0.15362749677E+04  0.15362749677E+04  0.25500000920E-02 0. -1.
    10030    2    1    2    0    0  0.00000000000E+00  0.00000000000E+00 -0.14771184582E+04  0.15954314774E+04  0.60292840335E+03 0.  0.
        1    1    3    3  502    0  0.13239287366E+03 -0.26685463933E+03 -0.61610870826E+03  0.68434582774E+03  0.50400001928E-02 0.  1.
       -1    1    3    3    0  502 -0.13239287366E+03  0.26685463933E+03 -0.86100974991E+03  0.91108564964E+03  0.50400001928E-02 0. -1.
</event>
<event>
 5   0  0.4881209E-02  0.6033961E+03  0.7818609E-02  0.9898385E-01
       -1   -1    0    0    0  501  0.00000000000E+00  0.00000000000E+00  0.77951054750E+03  0.77951054751E+03  0.50400001928E-02 0. -1.
        1   -1    0    0  501    0  0.00000000000E+00  0.00000000000E+00 -0.11676776837E+03  0.11676776848E+03  0.50400001928E-02 0.  1.
    10030    2    1    2    0    0  0.00000000000E+00  0.00000000000E+00  0.66274277913E+03  0.89627831599E+03  0.60339607923E+03 0.  0.
        3    1    3    3  502    0 -0.14715906094E+03 -0.20788985284E+03  0.57156270007E+03  0.62574588328E+03  0.10100000352E+00 0. -1.
       -3    1    3    3    0  502  0.14715906094E+03  0.20788985284E+03  0.91180079057E+02  0.27053243271E+03  0.10100000352E+00 0.  1.
</event>
<event>
 5   0  0.8420604E-02  0.5670585E+03  0.7818609E-02  0.9976209E-01
       -2   -1    0    0    0  501  0.00000000000E+00  0.00000000000E+00  0.16352928625E+03  0.16352928627E+03  0.25500000920E-02 0. -1.
        2   -1    0    0  501    0  0.00000000000E+00  0.00000000000E+00 -0.49158679897E+03  0.49158679897E+03  0.25500000920E-02 0.  1.
    10030    2    1    2    0    0  0.00000000000E+00  0.00000000000E+00 -0.32805751272E+03  0.65511608524E+03  0.56705850976E+03 0.  0.
        2    1    3    3  502    0 -0.15929363909E+03 -0.19088348968E+03 -0.65621998641E+01  0.24870470956E+03  0.25500000920E-02 0.  1.
       -2    1    3    3    0  502  0.15929363909E+03  0.19088348968E+03 -0.32149531285E+03  0.40641137568E+03  0.25500000920E-02 0. -1.
</event>
<event>
 5   0  0.5190380E-02  0.4867713E+03  0.7818609E-02  0.1017291E+00
        1   -1    0    0  501    0  0.00000000000E+00  0.00000000000E+00  0.63899163617E+03  0.63899163619E+03  0.50400001928E-02 0.  1.
       -1   -1    0    0    0  501  0.00000000000E+00  0.00000000000E+00 -0.92703218996E+02  0.92703219133E+02  0.50400001928E-02 0. -1.
    10030    2    1    2    0    0  0.00000000000E+00  0.00000000000E+00  0.54628841718E+03  0.73169485532E+03  0.48677132883E+03 0.  0.
        5    1    3    3  502    0  0.51957308110E+02 -0.31793104629E+02  0.62727823273E+03  0.63024632853E+03  0.46999998093E+01 0.  1.
       -5    1    3    3    0  502 -0.51957308110E+02  0.31793104629E+02 -0.80989815552E+02  0.10144852680E+03  0.46999998093E+01 0. -1.
</event>
<event>
 5   0  0.8575590E-02  0.5928861E+03  0.7818609E-02  0.9920276E-01
        2   -1    0    0  501    0  0.00000000000E+00  0.00000000000E+00  0.38445650547E+03  0.38445650548E+03  0.25500000920E-02 0.  1.
       -2   -1    0    0    0  501  0.00000000000E+00  0.00000000000E+00 -0.22857847054E+03  0.22857847055E+03  0.25500000920E-02 0. -1.
    10030    2    1    2    0    0  0.00000000000E+00  0.00000000000E+00  0.15587803493E+03  0.61303497603E+03  0.59288609366E+03 0.  0.
        4    1    3    3  502    0  0.17243433182E+03  0.13636455322E+03  0.28356411706E+03  0.35880232935E+03  0.12699999809E+01 0.  1.
       -4    1    3    3    0  502 -0.17243433182E+03 -0.13636455322E+03 -0.12768608213E+03  0.25423264667E+03  0.12699999809E+01 0. -1.
</event>
<event>
 5   0  0.8207443E-02  0.6131661E+03  0.7818609E-02  0.9878461E-01
        2   -1    0    0  501    0  0.00000000000E+00  0.00000000000E+00  0.32848234668E+03  0.32848234669E+03  0.25500000920E-02 0.  1.
       -2   -1    0    0    0  501  0.00000000000E+00  0.00000000000E+00 -0.28614376383E+03  0.28614376384E+03  0.25500000920E-02 0. -1.
    10030    2    1    2    0    0  0.00000000000E+00  0.00000000000E+00  0.42338582848E+02  0.61462611053E+03  0.61316612769E+03 0.  0.
        1    1    3    3  502    0 -0.14405324899E+03  0.85120862181E+02  0.27867838077E+03  0.32505159537E+03  0.50400001928E-02 0.  1.
       -1    1    3    3    0  502  0.14405324899E+03 -0.85120862181E+02 -0.23633979792E+03  0.28957451516E+03  0.50400001928E-02 0. -1.
</event>
<event>
 5   0  0.8207443E-02  0.5896637E+03  0.7818609E-02  0.9927086E-01
       -2   -1    0    0    0  501  0.00000000000E+00  0.00000000000E+00  0.13183633835E+03  0.13183633837E+03  0.25500000920E-02 0.  1.
        2   -1    0    0  501    0  0.00000000000E+00  0.00000000000E+00 -0.65934633569E+03  0.65934633570E+03  0.25500000920E-02 0. -1.
    10030    2    1    2    0    0  0.00000000000E+00  0.00000000000E+00 -0.52750999734E+03  0.79118267407E+03  0.58966365536E+03 0.  0.
        1    1    3    3  502    0 -0.74579139708E+02  0.27349504454E+02  0.11720764562E+03  0.14158981493E+03  0.50400001928E-02 0.  1.
       -1    1    3    3    0  502  0.74579139708E+02 -0.27349504454E+02 -0.64471764297E+03  0.64959285914E+03  0.50400001928E-02 0. -1.
</event>
<event>
 5   0  0.5166903E-02  0.5895041E+03  0.7818609E-02  0.9927424E-01
       -1   -1    0    0    0  501  0.00000000000E+00  0.00000000000E+00  0.62247244476E+03  0.62247244478E+03  0.50400001928E-02 0. -1.
        1   -1    0    0  501    0  0.00000000000E+00  0.00000000000E+00 -0.13957045217E+03  0.13957045226E+03  0.50400001928E-02 0.  1.
    10030    2    1    2    0    0  0.00000000000E+00  0.00000000000E+00  0.48290199259E+03  0.76204289704E+03  0.58950406486E+03 0.  0.
        2    1    3    3  502    0 -0.18311611800E+03  0.23043772914E+03  0.22118835683E+03  0.36818113597E+03  0.25500000920E-02 0.  1.
       -2    1    3    3    0  502  0.18311611800E+03 -0.23043772914E+03  0.26171363576E+03  0.39386176107E+03  0.25500000920E-02 0. -1.
</event>
<event>
 5   0  0.8575590E-02  0.5970864E+03  0.7818609E-02  0.9911469E-01
       -2   -1    0    0    0  501  0.00000000000E+00  0.00000000000E+00  0.64182479006E+02  0.64182479056E+02  0.25500000920E-02 0.  1.
        2   -1    0    0  501    0  0.00000000000E+00  0.00000000000E+00 -0.13886664525E+04  0.13886664525E+04  0.25500000920E-02 0. -1.
    10030    2    1    2    0    0  0.00000000000E+00  0.00000000000E+00 -0.13244839735E+04  0.14528489315E+04  0.59708644423E+03 0.  0.
        4    1    3    3  502    0  0.15128777711E+03  0.19804127759E+03 -0.10621965691E+04  0.10910414765E+04  0.12699999809E+01 0. -1.
       -4    1    3    3    0  502 -0.15128777711E+03 -0.19804127759E+03 -0.26228740438E+03  0.36180745505E+03  0.12699999809E+01 0.  1.
</event>
<event>
 5   0  0.8575590E-02  0.5966235E+03  0.7818609E-02  0.9912436E-01
        2   -1    0    0  501    0  0.00000000000E+00  0.00000000000E+00  0.30364791163E+03  0.30364791164E+03  0.25500000920E-02 0.  1.
       -2   -1    0    0    0  501  0.00000000000E+00  0.00000000000E+00 -0.29306939258E+03  0.29306939259E+03  0.25500000920E-02 0. -1.
    10030    2    1    2    0    0  0.00000000000E+00  0.00000000000E+00  0.10578519054E+02  0.59671730423E+03  0.59662352963E+03 0.  0.
        4    1    3    3  502    0  0.18574670007E+03 -0.58651035395E+02 -0.22068101146E+03  0.29435268346E+03  0.12699999809E+01 0. -1.
       -4    1    3    3    0  502 -0.18574670007E+03  0.58651035395E+02  0.23125953052E+03  0.30236462077E+03  0.12699999809E+01 0.  1.
</event>
<event>
 5   0  0.3437375E-02  0.6110459E+03  0.7818609E-02  0.9882751E-01
        4   -1    0    0  501    0  0.00000000000E+00  0.00000000000E+00  0.64839916681E+03  0.64840041056E+03  0.12699999809E+01 0. -1.
       -4   -1    0    0    0  501  0.00000000000E+00  0.00000000000E+00 -0.14395693408E+03  0.14396253599E+03  0.12699999809E+01 0.  1.
    10030    2    1    2    0    0  0.00000000000E+00  0.00000000000E+00  0.50444223273E+03  0.79236294655E+03  0.61104588445E+03 0.  0.
        1    1    3    3  502    0 -0.26151305949E+03  0.32785078800E+02  0.45260854172E+03  0.52375417301E+03  0.50400001928E-02 0.  1.
       -1    1    3    3    0  502  0.26151305949E+03 -0.32785078800E+02  0.51833691012E+02  0.26860877355E+03  0.50400001928E-02 0. -1.
</event>
<event>
 5   0  0.8207443E-02  0.5966108E+03  0.7818609E-02  0.9912463E-01
        2   -1    0    0  501    0  0.00000000000E+00  0.00000000000E+00  0.22842516818E+03  0.22842516820E+03  0.25500000920E-02 0.  1.
       -2   -1    0    0    0  501  0.00000000000E+00  0.00000000000E+00 -0.38956352605E+03  0.38956352606E+03  0.25500000920E-02 0. -1.
    10030    2    1    2    0    0  0.00000000000E+00  0.00000000000E+00 -0.16113835787E+03  0.61798869426E+03  0.59661080769E+03 0.  0.
        1    1    3    3  502    0 -0.27185156146E+03  0.91977805331E+01 -0.20742476931E+03  0.34207149192E+03  0.50400001928E-02 0.  1.
       -1    1    3    3    0  502  0.27185156146E+03 -0.91977805331E+01  0.46286411441E+02  0.27591720234E+03  0.50400001928E-02 0. -1.
</event>
<event>
 5   0  0.4881209E-02  0.6046202E+03  0.7818609E-02  0.9895867E-01
       -1   -1    0    0    0  501  0.00000000000E+00  0.00000000000E+00  0.93277917821E+02  0.93277917957E+02  0.50400001928E-02 0. -1.
        1   -1    0    0  501    0  0.00000000000E+00  0.00000000000E+00 -0.97977533429E+03  0.97977533431E+03  0.50400001928E-02 0.  1.
    10030    2    1    2    0    0  0.00000000000E+00  0.00000000000E+00 -0.88649741647E+03  0.10730532523E+04  0.60462022194E+03 0.  0.
        3    1    3    3  502    0 -0.14467414556E+02  0.28347368275E+03 -0.62789802576E+03  0.68907370857E+03  0.10100000352E+00 0.  1.
       -3    1    3    3    0  502  0.14467414556E+02 -0.28347368275E+03 -0.25859939071E+03  0.38397954369E+03  0.10100000352E+00 0. -1.
</event>
<event>
 5   0  0.4881209E-02  0.6008444E+03  0.7818609E-02  0.9903656E-01
        1   -1    0    0  501    0  0.00000000000E+00  0.00000000000E+00  0.33973478062E+03  0.33973478065E+03  0.50400001928E-02 0.  1.
       -1   -1    0    0    0  501  0.00000000000E+00  0.00000000000E+00 -0.26565865838E+03  0.26565865843E+03  0.50400001928E-02 0. -1.
    10030    2    1    2    0    0  0.00000000000E+00  0.00000000000E+00  0.74076122233E+02  0.60539343908E+03  0.60084435938E+03 0.  0.
        3    1    3    3  502    0  0.23258532137E+03  0.17627324309E+03 -0.34813050938E+02  0.29390499598E+03  0.10100000352E+00 0. -1.
       -3    1    3    3    0  502 -0.23258532137E+03 -0.17627324309E+03  0.10888917317E+03  0.31148844310E+03  0.10100000352E+00 0.  1.
</event>
<event>
 5   0  0.4881209E-02  0.6245737E+03  0.7818609E-02  0.9855695E-01
       -1   -1    0    0    0  501  0.00000000000E+00  0.00000000000E+00  0.19517167302E+03  0.19517167309E+03  0.50400001928E-02 0.  1.
        1   -1    0    0  501    0  0.00000000000E+00  0.00000000000E+00 -0.49967841599E+03  0.49967841601E+03  0.50400001928E-02 0. -1.
    10030    2    1    2    0    0  0.00000000000E+00  0.00000000000E+00 -0.30450674297E+03  0.69485008910E+03  0.62457368646E+03 0.  0.
        3    1    3    3  502    0  0.13989203936E+03 -0.27294569654E+03 -0.21763623973E+03  0.37607802247E+03  0.10100000352E+00 0.  1.
       -3    1    3    3    0  502 -0.13989203936E+03  0.27294569654E+03 -0.86870503233E+02  0.31877206664E+03  0.10100000352E+00 0. -1.
</event>
<event>
 5   0  0.3437375E-02  0.6119176E+03  0.7818609E-02  0.9880985E-01
        4   -1    0    0  501    0  0.00000000000E+00  0.00000000000E+00  0.16172997813E+03  0.16173496445E+03  0.12699999809E+01 0. -1.
       -4   -1    0    0    0  501  0.00000000000E+00  0.00000000000E+00 -0.57879458683E+03  0.57879598015E+03  0.12699999809E+01 0.  1.
    10030    2    1    2    0    0  0.00000000000E+00  0.00000000000E+00 -0.41706460870E+03  0.74053094460E+03  0.61191763505E+03 0.  0.
        3    1    3    3  502    0  0.25160573543E+03  0.16335464432E+03 -0.28135061999E+03  0.41127650978E+03  0.10100000352E+00 0.  1.
       -3    1    3    3    0  502 -0.25160573543E+03 -0.16335464432E+03 -0.13571398871E+03  0.32925443483E+03  0.10100000352E+00 0. -1.
</event>
<event>
 5   0  0.8699746E-02  0.6004649E+03  0.7818609E-02  0.9904442E-01
       -2   -1    0    0    0  501  0.00000000000E+00  0.00000000000E+00  0.74502186637E+02  0.74502186681E+02  0.25500000920E-02 0.  1.
        2   -1    0    0  501    0  0.00000000000E+00  0.00000000000E+00 -0.12098909390E+04  0.12098909390E+04  0.25500000920E-02 0. -1.
    10030    2    1    2    0    0  0.00000000000E+00  0.00000000000E+00 -0.11353887523E+04  0.12843931256E+04  0.60046488848E+03 0.  0.
        3    1    3    3  502    0 -0.88375667312E+02  0.27311992350E+03 -0.37957490318E+03  0.47590111211E+03  0.10100000352E+00 0.  1.
       -3    1    3    3    0  502  0.88375667312E+02 -0.27311992350E+03 -0.75581384915E+03  0.80849201354E+03  0.10100000352E+00 0. -1.
</event>
<event>
 5   0  0.8817544E-02  0.6153223E+03  0.7818609E-02  0.9874117E-01
       -2   -1    0    0    0  501  0.00000000000E+00  0.00000000000E+00  0.38826786431E+03  0.38826786432E+03  0.25500000920E-02 0. -1.
        2   -1    0    0  501    0  0.00000000000E+00  0.00000000000E+00 -0.24378889566E+03  0.24378889567E+03  0.25500000920E-02 0.  1.
    10030    2    1    2    0    0  0.00000000000E+00  0.00000000000E+00  0.14447896865E+03  0.63205675999E+03  0.61532233461E+03 0.  0.
        5    1    3    3  502    0 -0.11194827104E+03 -0.18823979867E+03 -0.14966025495E+03  0.26530533184E+03  0.46999998093E+01 0.  1.
       -5    1    3    3    0  502  0.11194827104E+03  0.18823979867E+03  0.29413922361E+03  0.36675142815E+03  0.46999998093E+01 0. -1.
</event>
<event>
 5   0  0.8420604E-02  0.6028331E+03  0.7818609E-02  0.9899546E-01
        2   -1    0    0  501    0  0.00000000000E+00  0.00000000000E+00  0.14247844557E+04  0.14247844557E+04  0.25500000920E-02 0.  1.
       -2   -1    0    0    0  501  0.00000000000E+00  0.00000000000E+00 -0.63765396375E+02  0.63765396426E+02  0.25500000920E-02 0. -1.
    10030    2    1    2    0    0  0.00000000000E+00  0.00000000000E+00  0.13610190594E+04  0.14885498522E+04  0.60283312984E+03 0.  0.
        2    1    3    3  502    0  0.14978165996E+03 -0.25186111381E+03  0.85482191417E+03  0.90365318085E+03  0.25500000920E-02 0.  1.
       -2    1    3    3    0  502 -0.14978165996E+03  0.25186111381E+03  0.50619714519E+03  0.58489667131E+03  0.25500000920E-02 0. -1.
</event>
<event>
 5   0  0.5166903E-02  0.5882547E+03  0.7818609E-02  0.9930078E-01
        1   -1    0    0  501    0  0.00000000000E+00  0.00000000000E+00  0.15968255603E+03  0.15968255611E+03  0.50400001928E-02 0. -1.
       -1   -1    0    0    0  501  0.00000000000E+00  0.00000000000E+00 -0.54176796825E+03  0.54176796827E+03  0.50400001928E-02 0.  1.
    10030    2    1    2    0    0  0.00000000000E+00  0.00000000000E+00 -0.38208541223E+03  0.70145052438E+03  0.58825468627E+03 0.  0.
        2    1    3    3  502    0  0.20568112892E+03 -0.94101435061E+02  0.33155965667E+02  0.22860254797E+03  0.25500000920E-02 0. -1.
       -2    1    3    3    0  502 -0.20568112892E+03  0.94101435061E+02 -0.41524137789E+03  0.47284797641E+03  0.25500000920E-02 0.  1.
</event>
<event>
 5   0  0.8207443E-02  0.5899985E+03  0.7818609E-02  0.9926376E-01
        2   -1    0    0  501    0  0.00000000000E+00  0.00000000000E+00  0.16840406679E+03  0.16840406681E+03  0.25500000920E-02 0.  1.
       -2   -1    0    0    0  501  0.00000000000E+00  0.00000000000E+00 -0.51676047341E+03  0.51676047341E+03  0.25500000920E-02 0. -1.
    10030    2    1    2    0    0  0.00000000000E+00  0.00000000000E+00 -0.34835640661E+03  0.68516454022E+03  0.58999852640E+03 0.  0.
        1    1    3    3  502    0  0.15311470282E+03 -0.13976109076E+03  0.69548745244E+02  0.21866481816E+03  0.50400001928E-02 0.  1.
       -1    1    3    3    0  502 -0.15311470282E+03  0.13976109076E+03 -0.41790515186E+03  0.46649972206E+03  0.50400001928E-02 0. -1.
</event>
<event>
 5   0  0.5190380E-02  0.6039226E+03  0.7818609E-02  0.9897301E-01
       -1   -1    0    0    0  501  0.00000000000E+00  0.00000000000E+00  0.29507029837E+03  0.29507029842E+03  0.50400001928E-02 0. -1.
        1   -1    0    0  501    0  0.00000000000E+00  0.00000000000E+00 -0.30901325336E+03  0.30901325340E+03  0.50400001928E-02 0.  1.
    10030    2    1    2    0    0  0.00000000000E+00  0.00000000000E+00 -0.13942954986E+02  0.60408355182E+03  0.60392262053E+03 0.  0.
        5    1    3    3  502    0  0.11762123182E+03  0.15834109943E+03  0.22167614764E+03  0.29676432127E+03  0.46999998093E+01 0. -1.
       -5    1    3    3    0  502 -0.11762123182E+03 -0.15834109943E+03 -0.23561910263E+03  0.30731923055E+03  0.46999998093E+01 0.  1.
</event>
<event>
 5   0  0.3437375E-02  0.5898795E+03  0.7818609E-02  0.9926628E-01
       -4   -1    0    0    0  501  0.00000000000E+00  0.00000000000E+00  0.85704216972E+02  0.85713626143E+02  0.12699999809E+01 0.  1.
        4   -1    0    0  501    0  0.00000000000E+00  0.00000000000E+00 -0.10149307591E+04  0.10149315537E+04  0.12699999809E+01 0. -1.
    10030    2    1    2    0    0  0.00000000000E+00  0.00000000000E+00 -0.92922654214E+03  0.11006451798E+04  0.58987951761E+03 0.  0.
        4    1    3    3  502    0  0.83818382080E+02 -0.40914451027E+02 -0.98668785111E+03  0.99108730287E+03  0.12699999809E+01 0. -1.
       -4    1    3    3    0  502 -0.83818382080E+02  0.40914451027E+02  0.57461308973E+02  0.10955787697E+03  0.12699999809E+01 0.  1.
</event>
<event>
 5   0  0.4987389E-02  0.6024940E+03  0.7818609E-02  0.9900245E-01
        1   -1    0    0  501    0  0.00000000000E+00  0.00000000000E+00  0.47006592568E+03  0.47006592570E+03  0.50400001928E-02 0.  1.
       -1   -1    0    0    0  501  0.00000000000E+00  0.00000000000E+00 -0.19305747586E+03  0.19305747592E+03  0.50400001928E-02 0. -1.
    10030    2    1    2    0    0  0.00000000000E+00  0.00000000000E+00  0.27700844982E+03  0.66312340163E+03  0.60249395392E+03 0.  0.
        1    1    3    3  502    0  0.49143105831E+02  0.10778399813E+03 -0.16634727295E+03  0.20421520597E+03  0.50400001928E-02 0. -1.
       -1    1    3    3    0  502 -0.49143105831E+02 -0.10778399813E+03  0.44335572277E+03  0.45890819566E+03  0.50400001928E-02 0.  1.
</event>
<event>
 5   0  0.3437375E-02  0.5990919E+03  0.7818609E-02  0.9907292E-01
       -3   -1    0    0    0  501  0.00000000000E+00  0.00000000000E+00  0.18966589225E+03  0.18966591914E+03  0.10100000352E+00 0. -1.
        3   -1    0    0  501    0  0.00000000000E+00  0.00000000000E+00 -0.47308336326E+03  0.47308337404E+03  0.10100000352E+00 0.  1.
    10030    2    1    2    0    0  0.00000000000E+00  0.00000000000E+00 -0.28341747102E+03  0.66274929318E+03  0.59909194848E+03 0.  0.
        4    1    3    3  502    0 -0.17075426287E+03 -0.20404226919E+03 -0.29393826401E+03  0.39647393591E+03  0.12699999809E+01 0.  1.
       -4    1    3    3    0  502  0.17075426287E+03  0.20404226919E+03  0.10520792997E+02  0.26627535727E+03  0.12699999809E+01 0. -1.
</event>
<event>
 5   0  0.4881209E-02  0.6007828E+03  0.7818609E-02  0.9903783E-01
       -1   -1    0    0    0  501  0.00000000000E+00  0.00000000000E+00  0.31694004477E+03  0.31694004481E+03  0.50400001928E-02 0.  1.
        1   -1    0    0  501    0  0.00000000000E+00  0.00000000000E+00 -0.28470678879E+03  0.28470678883E+03  0.50400001928E-02 0. -1.
    10030    2    1    2    0    0  0.00000000000E+00  0.00000000000E+00  0.32233255985E+02  0.60164683364E+03  0.60078276410E+03 0.  0.
        3    1    3    3  502    0  0.30891912447E+02  0.20252922034E+03  0.23612004386E+03  0.31261010965E+03  0.10100000352E+00 0.  1.
       -3    1    3    3    0  502 -0.30891912447E+02 -0.20252922034E+03 -0.20388678787E+03  0.28903672399E+03  0.10100000352E+00 0. -1.
</event>
<event>
 5   0  0.5166903E-02  0.6072469E+03  0.7818609E-02  0.9890484E-01
       -1   -1    0    0    0  501  0.00000000000E+00  0.00000000000E+00  0.16992009914E+03  0.16992009921E+03  0.50400001928E-02 0.  1.
        1   -1    0    0  501    0  0.00000000000E+00  0.00000000000E+00 -0.54253262551E+03  0.54253262553E+03  0.50400001928E-02 0. -1.
    10030    2    1    2    0    0  0.00000000000E+00  0.00000000000E+00 -0.37261252637E+03  0.71245272475E+03  0.60724689393E+03 0.  0.
        2    1    3    3  502    0 -0.69348230095E+02  0.22362751127E+03 -0.41310732014E+03  0.47484323600E+03  0.25500000920E-02 0. -1.
       -2    1    3    3    0  502  0.69348230095E+02 -0.22362751127E+03  0.40494793772E+02  0.23760948875E+03  0.25500000920E-02 0.  1.
</event>
<event>
 5   0  0.4881209E-02  0.6023090E+03  0.7818609E-02  0.9900627E-01
       -1   -1    0    0    0  501  0.00000000000E+00  0.00000000000E+00  0.24340487016E+03  0.24340487021E+03  0.50400001928E-02 0.  1.
        1   -1    0    0  501    0  0.00000000000E+00  0.00000000000E+00 -0.37260564210E+03  0.37260564214E+03  0.50400001928E-02 0. -1.
    10030    2    1    2    0    0  0.00000000000E+00  0.00000000000E+00 -0.12920077194E+03  0.61601051235E+03  0.60230898371E+03 0.  0.
        3    1    3    3  502    0  0.41147673657E+02 -0.46937942208E+02  0.23671612642E+03  0.24480775350E+03  0.10100000352E+00 0.  1.
       -3    1    3    3    0  502 -0.41147673657E+02  0.46937942208E+02 -0.36591689836E+03  0.37120275885E+03  0.10100000352E+00 0. -1.
</event>
<event>
 5   0  0.5125031E-02  0.6030555E+03  0.7818609E-02  0.9899087E-01
       -1   -1    0    0    0  501  0.00000000000E+00  0.00000000000E+00  0.18175348763E+03  0.18175348770E+03  0.50400001928E-02 0.  1.
        1   -1    0    0  501    0  0.00000000000E+00  0.00000000000E+00 -0.50023232828E+03  0.50023232831E+03  0.50400001928E-02 0. -1.
    10030    2    1    2    0    0  0.00000000000E+00  0.00000000000E+00 -0.31847884065E+03  0.68198581601E+03  0.60305545458E+03 0.  0.
        4    1    3    3  502    0  0.34046024277E+02 -0.27066903011E+03 -0.13990129179E+02  0.27316330692E+03  0.12699999809E+01 0.  1.
       -4    1    3    3    0  502 -0.34046024277E+02  0.27066903011E+03 -0.30448871147E+03  0.40882250910E+03  0.12699999809E+01 0. -1.
</event>
<event>
 5   0  0.3437375E-02  0.6139837E+03  0.7818609E-02  0.9876812E-01
       -4   -1    0    0    0  501  0.00000000000E+00  0.00000000000E+00  0.89811037789E+03  0.89811127584E+03  0.12699999809E+01 0. -1.
        4   -1    0    0  501    0  0.00000000000E+00  0.00000000000E+00 -0.10493108197E+03  0.10493876720E+03  0.12699999809E+01 0.  1.
    10030    2    1    2    0    0  0.00000000000E+00  0.00000000000E+00  0.79317929593E+03  0.10030500430E+04  0.61398370772E+03 0.  0.
        3    1    3    3  502    0 -0.18910406041E+02 -0.10644130142E+03  0.86598819681E+03  0.87271010153E+03  0.10100000352E+00 0. -1.
       -3    1    3    3    0  502  0.18910406041E+02  0.10644130142E+03 -0.72808900876E+02  0.13033994151E+03  0.10100000352E+00 0.  1.
</event>
<event>
 5   0  0.8420604E-02  0.6032694E+03  0.7818609E-02  0.9898646E-01
        2   -1    0    0  501    0  0.00000000000E+00  0.00000000000E+00  0.23435716920E+03  0.23435716922E+03  0.25500000920E-02 0.  1.
       -2   -1    0    0    0  501  0.00000000000E+00  0.00000000000E+00 -0.38822577456E+03  0.38822577457E+03  0.25500000920E-02 0. -1.
    10030    2    1    2    0    0  0.00000000000E+00  0.00000000000E+00 -0.15386860536E+03  0.62258294379E+03  0.60326940431E+03 0.  0.
        2    1    3    3  502    0  0.29970705293E+03  0.33797772292E+02 -0.72693418440E+02  0.31024335622E+03  0.25500000920E-02 0.  1.
       -2    1    3    3    0  502 -0.29970705293E+03 -0.33797772292E+02 -0.81175186922E+02  0.31233958757E+03  0.25500000920E-02 0. -1.
</event>
<event>
 5   0  0.5166903E-02  0.5967971E+03  0.7818609E-02  0.9912073E-01
        1   -1    0    0  501    0  0.00000000000E+00  0.00000000000E+00  0.98558839903E+03  0.98558839905E+03  0.50400001928E-02 0.  1.
       -1   -1    0    0    0  501  0.00000000000E+00  0.00000000000E+00 -0.90343680575E+02  0.90343680715E+02  0.50400001928E-02 0. -1.
    10030    2    1    2    0    0  0.00000000000E+00  0.00000000000E+00  0.89524471846E+03  0.10759320798E+04  0.59679706294E+03 0.  0.
        2    1    3    3  502    0  0.46954350783E+02  0.28002034799E+03  0.28213759664E+03  0.40027206972E+03  0.25500000920E-02 0.  1.
       -2    1    3    3    0  502 -0.46954350783E+02 -0.28002034799E+03  0.61310712181E+03  0.67566001005E+03  0.25500000920E-02 0. -1.
</event>
<event>
 5   0  0.4881209E-02  0.5917629E+03  0.7818609E-02  0.9922644E-01
       -1   -1    0    0    0  501  0.00000000000E+00  0.00000000000E+00  0.58629738226E+02  0.58629738443E+02  0.50400001928E-02 0. -1.
        1   -1    0    0  501    0  0.00000000000E+00  0.00000000000E+00 -0.14931982718E+04  0.14931982718E+04  0.50400001928E-02 0.  1.
    10030    2    1    2    0    0  0.00000000000E+00  0.00000000000E+00 -0.14345685336E+04  0.15518280102E+04  0.59176287132E+03 0.  0.
        3    1    3    3  502    0  0.76438494958E+02  0.27048258515E+02  0.28926645594E+02  0.86088401231E+02  0.10100000352E+00 0. -1.
       -3    1    3    3    0  502 -0.76438494958E+02 -0.27048258515E+02 -0.14634951792E+04  0.14657396090E+04  0.10100000352E+00 0.  1.
</event>
<event>
 5   0  0.5190380E-02  0.5967660E+03  0.7818609E-02  0.9912138E-01
       -1   -1    0    0    0  501  0.00000000000E+00  0.00000000000E+00  0.46459100843E+02  0.46459101116E+02  0.50400001928E-02 0. -1.
        1   -1    0    0  501    0  0.00000000000E+00  0.00000000000E+00 -0.19163609664E+04  0.19163609664E+04  0.50400001928E-02 0.  1.
    10030    2    1    2    0    0  0.00000000000E+00  0.00000000000E+00 -0.18699018655E+04  0.19628200675E+04  0.59676597645E+03 0.  0.
        5    1    3    3  502    0  0.17247453419E+03 -0.17722495174E+03 -0.38601515246E+03  0.45846039784E+03  0.46999998093E+01 0. -1.
       -5    1    3    3    0  502 -0.17247453419E+03  0.17722495174E+03 -0.14838867130E+04  0.15043596696E+04  0.46999998093E+01 0.  1.
</event>
<event>
 5   0  0.8699746E-02  0.6116506E+03  0.7818609E-02  0.9881525E-01
       -2   -1    0    0    0  501  0.00000000000E+00  0.00000000000E+00  0.13273245764E+03  0.13273245767E+03  0.25500000920E-02 0.  1.
        2   -1    0    0  501    0  0.00000000000E+00  0.00000000000E+00 -0.70464390757E+03  0.70464390757E+03  0.25500000920E-02 0. -1.
    10030    2    1    2    0    0  0.00000000000E+00  0.00000000000E+00 -0.57191144992E+03  0.83737636524E+03  0.61165061146E+03 0.  0.
        3    1    3    3  502    0  0.22198708159E+03  0.40516401588E+02 -0.33575829839E+01  0.22567925637E+03  0.10100000352E+00 0.  1.
       -3    1    3    3    0  502 -0.22198708159E+03 -0.40516401588E+02 -0.56855386694E+03  0.61169710887E+03  0.10100000352E+00 0. -1.
</event>
<event>
 5   0  0.8699746E-02  0.5915724E+03  0.7818609E-02  0.9923047E-01
        2   -1    0    0  501    0  0.00000000000E+00  0.00000000000E+00  0.13709066465E+04  0.13709066465E+04  0.25500000920E-02 0.  1.
       -2   -1    0    0    0  501  0.00000000000E+00  0.00000000000E+00 -0.63818695681E+02  0.63818695732E+02  0.25500000920E-02 0. -1.
    10030    2    1    2    0    0  0.00000000000E+00  0.00000000000E+00  0.13070879509E+04  0.14347253423E+04  0.59157239328E+03 0.  0.
        3    1    3    3  502    0 -0.13408565669E+03  0.91007728979E+02  0.12536614050E+04  0.12640918870E+04  0.10100000352E+00 0.  1.
       -3    1    3    3    0  502  0.13408565669E+03 -0.91007728979E+02  0.53426545823E+02  0.17063345529E+03  0.10100000352E+00 0. -1.
</event>
<event>
 5   0  0.8575590E-02  0.6016896E+03  0.7818609E-02  0.9901907E-01
       -2   -1    0    0    0  501  0.00000000000E+00  0.00000000000E+00  0.14397870367E+03  0.14397870369E+03  0.25500000920E-02 0. -1.
        2   -1    0    0  501    0  0.00000000000E+00  0.00000000000E+00 -0.62861783268E+03  0.62861783268E+03  0.25500000920E-02 0.  1.
    10030    2    1    2    0    0  0.00000000000E+00  0.00000000000E+00 -0.48463912901E+03  0.77259653637E+03  0.60168955670E+03 0.  0.
        4    1    3    3  502    0 -0.10547544610E+03  0.14734146491E+03  0.66042181060E+02  0.19286720714E+03  0.12699999809E+01 0. -1.
       -4    1    3    3    0  502  0.10547544610E+03 -0.14734146491E+03 -0.55068131007E+03  0.57972932923E+03  0.12699999809E+01 0.  1.
</event>
<event>
 5   0  0.8699746E-02  0.6013901E+03  0.7818609E-02  0.9902526E-01
        2   -1    0    0  501    0  0.00000000000E+00  0.00000000000E+00  0.16490568984E+04  0.16490568984E+04  0.25500000920E-02 0.  1.
       -2   -1    0    0    0  501  0.00000000000E+00  0.00000000000E+00 -0.54829828007E+02  0.54829828067E+02  0.25500000920E-02 0. -1.
    10030    2    1    2    0    0  0.00000000000E+00  0.00000000000E+00  0.15942270704E+04  0.17038867265E+04  0.60139007697E+03 0.  0.
        3    1    3    3  502    0  0.14655318547E+03 -0.21914729949E+03  0.38737739764E+03  0.46857724384E+03  0.10100000352E+00 0. -1.
       -3    1    3    3    0  502 -0.14655318547E+03  0.21914729949E+03  0.12068496728E+04  0.12353094827E+04  0.10100000352E+00 0.  1.
</event>
<event>
 5   0  0.8207443E-02  0.5987572E+03  0.7818609E-02  0.9907988E-01
       -2   -1    0    0    0  501  0.00000000000E+00  0.00000000000E+00  0.14369537541E+03  0.14369537544E+03  0.25500000920E-02 0. -1.
        2   -1    0    0  501    0  0.00000000000E+00  0.00000000000E+00 -0.62373296899E+03  0.62373296899E+03  0.25500000920E-02 0.  1.
    10030    2    1    2    0    0  0.00000000000E+00  0.00000000000E+00 -0.48003759357E+03  0.76742834443E+03  0.59875719001E+03 0.  0.
        1    1    3    3  502    0  0.21551854349E+03  0.20705459481E+02  0.24988677102E+02  0.21794814211E+03  0.50400001928E-02 0. -1.
       -1    1    3    3    0  502 -0.21551854349E+03 -0.20705459481E+02 -0.50502627068E+03  0.54948020232E+03  0.50400001928E-02 0.  1.
</event>
<event>
 5   0  0.8699746E-02  0.5734431E+03  0.7818609E-02  0.9962088E-01
        2   -1    0    0  501    0  0.00000000000E+00  0.00000000000E+00  0.28020841373E+03  0.28020841374E+03  0.25500000920E-02 0.  1.
       -2   -1    0    0    0  501  0.00000000000E+00  0.00000000000E+00 -0.29338612139E+03  0.29338612140E+03  0.25500000920E-02 0. -1.
    10030    2    1    2    0    0  0.00000000000E+00  0.00000000000E+00 -0.13177707654E+02  0.57359453514E+03  0.57344314344E+03 0.  0.
        3    1    3    3  502    0 -0.71408992129E+02  0.14587260011E+03  0.22975977248E+03  0.28136741615E+03  0.10100000352E+00 0.  1.
       -3    1    3    3    0  502  0.71408992129E+02 -0.14587260011E+03 -0.24293748013E+03  0.29222711899E+03  0.10100000352E+00 0. -1.
</event>
<event>
 5   0  0.8817544E-02  0.5966219E+03  0.7818609E-02  0.9912439E-01
        2   -1    0    0  501    0  0.00000000000E+00  0.00000000000E+00  0.69297963137E+03  0.69297963137E+03  0.25500000920E-02 0.  1.
       -2   -1    0    0    0  501  0.00000000000E+00  0.00000000000E+00 -0.12841564771E+03  0.12841564773E+03  0.25500000920E-02 0. -1.
    10030    2    1    2    0    0  0.00000000000E+00  0.00000000000E+00  0.56456398366E+03  0.82139527910E+03  0.59662191787E+03 0.  0.
        5    1    3    3  502    0  0.20252877509E+03  0.17206573230E+03  0.95821846566E+02  0.28253926674E+03  0.46999998093E+01 0. -1.
       -5    1    3    3    0  502 -0.20252877509E+03 -0.17206573230E+03  0.46874213709E+03  0.53885601236E+03  0.46999998093E+01 0.  1.
</event>
<event>
 5   0  0.4881209E-02  0.5407224E+03  0.7818609E-02  0.1003664E+00
       -1   -1    0    0    0  501  0.00000000000E+00  0.00000000000E+00  0.36412970748E+02  0.36412971097E+02  0.50400001928E-02 0. -1.
        1   -1    0    0  501    0  0.00000000000E+00  0.00000000000E+00 -0.20073938829E+04  0.20073938829E+04  0.50400001928E-02 0.  1.
    10030    2    1    2    0    0  0.00000000000E+00  0.00000000000E+00 -0.19709809122E+04  0.20438068540E+04  0.54072238756E+03 0.  0.
        3    1    3    3  502    0  0.14703165362E+03 -0.20715617065E+03 -0.13352608158E+04  0.13592105954E+04  0.10100000352E+00 0.  1.
       -3    1    3    3    0  502 -0.14703165362E+03  0.20715617065E+03 -0.63572009637E+03  0.68459625863E+03  0.10100000352E+00 0. -1.
</event>
<event>
 5   0  0.3437375E-02  0.5894113E+03  0.7818609E-02  0.9927621E-01
       -3   -1    0    0    0  501  0.00000000000E+00  0.00000000000E+00  0.21881273260E+03  0.21881275591E+03  0.10100000352E+00 0. -1.
        3   -1    0    0  501    0  0.00000000000E+00  0.00000000000E+00 -0.39692113112E+03  0.39692114397E+03  0.10100000352E+00 0.  1.
    10030    2    1    2    0    0  0.00000000000E+00  0.00000000000E+00 -0.17810839852E+03  0.61573389989E+03  0.58941126037E+03 0.  0.
        4    1    3    3  502    0  0.17848369675E+03 -0.12849393263E+03  0.11587661319E+03  0.24858826021E+03  0.12699999809E+01 0.  1.
       -4    1    3    3    0  502 -0.17848369675E+03  0.12849393263E+03 -0.29398501170E+03  0.36714563968E+03  0.12699999809E+01 0. -1.
</event>
<event>
 5   0  0.4987389E-02  0.6022651E+03  0.7818609E-02  0.9900718E-01
       -1   -1    0    0    0  501  0.00000000000E+00  0.00000000000E+00  0.25435430589E+03  0.25435430594E+03  0.50400001928E-02 0. -1.
        1   -1    0    0  501    0  0.00000000000E+00  0.00000000000E+00 -0.35651372562E+03  0.35651372566E+03  0.50400001928E-02 0.  1.
    10030    2    1    2    0    0  0.00000000000E+00  0.00000000000E+00 -0.10215941973E+03  0.61086803160E+03  0.60226506207E+03 0.  0.
        1    1    3    3  502    0 -0.23966716238E+03  0.16504883056E+03  0.27482071378E+02  0.29229561999E+03  0.50400001928E-02 0. -1.
       -1    1    3    3    0  502  0.23966716238E+03 -0.16504883056E+03 -0.12964149111E+03  0.31857241160E+03  0.50400001928E-02 0.  1.
</event>
<event>
 5   0  0.4881209E-02  0.6031802E+03  0.7818609E-02  0.9898830E-01
        1   -1    0    0  501    0  0.00000000000E+00  0.00000000000E+00  0.24399347933E+03  0.24399347938E+03  0.50400001928E-02 0. -1.
       -1   -1    0    0    0  501  0.00000000000E+00  0.00000000000E+00 -0.37278286218E+03  0.37278286222E+03  0.50400001928E-02 0.  1.
    10030    2    1    2    0    0  0.00000000000E+00  0.00000000000E+00 -0.12878938285E+03  0.61677634160E+03  0.60318019730E+03 0.  0.
        3    1    3    3  502    0 -0.17151857832E+03  0.19475292957E+03 -0.22151117022E+03  0.34119574297E+03  0.10100000352E+00 0.  1.
       -3    1    3    3    0  502  0.17151857832E+03 -0.19475292957E+03  0.92721787368E+02  0.27558059863E+03  0.10100000352E+00 0. -1.
</event>
<event>
 5   0  0.5125031E-02  0.6716306E+03  0.7818609E-02  0.9767017E-01
        1   -1    0    0  501    0  0.00000000000E+00  0.00000000000E+00  0.33627302577E+03  0.33627302581E+03  0.50400001928E-02 0. -1.
       -1   -1    0    0    0  501  0.00000000000E+00  0.00000000000E+00 -0.33535817580E+03  0.33535817584E+03  0.50400001928E-02 0.  1.
    10030    2    1    2    0    0  0.00000000000E+00  0.00000000000E+00  0.91484996516E+00  0.67163120165E+03  0.67163057858E+03 0.  0.
        4    1    3    3  502    0  0.10862998999E+03  0.41781038724E+02  0.31545639292E+03  0.33624467082E+03  0.12699999809E+01 0. -1.
       -4    1    3    3    0  502 -0.10862998999E+03 -0.41781038724E+02 -0.31454154295E+03  0.33538653083E+03  0.12699999809E+01 0.  1.
</event>
<event>
 5   0  0.5125031E-02  0.6043219E+03  0.7818609E-02  0.9896480E-01
       -1   -1    0    0    0  501  0.00000000000E+00  0.00000000000E+00  0.34152248848E+03  0.34152248852E+03  0.50400001928E-02 0.  1.
        1   -1    0    0  501    0  0.00000000000E+00  0.00000000000E+00 -0.26733597119E+03  0.26733597124E+03  0.50400001928E-02 0. -1.
    10030    2    1    2    0    0  0.00000000000E+00  0.00000000000E+00  0.74186517294E+02  0.60885845976E+03  0.60432192139E+03 0.  0.
        4    1    3    3  502    0  0.26489559425E+03 -0.14521603204E+03  0.30543576560E+02  0.30363118216E+03  0.12699999809E+01 0. -1.
       -4    1    3    3    0  502 -0.26489559425E+03  0.14521603204E+03  0.43642940734E+02  0.30522727760E+03  0.12699999809E+01 0.  1.
</event>
<event>
 5   0  0.8575590E-02  0.6085530E+03  0.7818609E-02  0.9887819E-01
       -2   -1    0    0    0  501  0.00000000000E+00  0.00000000000E+00  0.16692545279E+03  0.16692545281E+03  0.25500000920E-02 0. -1.
        2   -1    0    0  501    0  0.00000000000E+00  0.00000000000E+00 -0.55464387616E+03  0.55464387617E+03  0.25500000920E-02 0.  1.
    10030    2    1    2    0    0  0.00000000000E+00  0.00000000000E+00 -0.38771842337E+03  0.72156932898E+03  0.60855297280E+03 0.  0.
        4    1    3    3  502    0 -0.86019906845E+02 -0.26479269292E+03 -0.48310928012E+02  0.28257769420E+03  0.12699999809E+01 0. -1.
       -4    1    3    3    0  502  0.86019906845E+02  0.26479269292E+03 -0.33940749536E+03  0.43899163477E+03  0.12699999809E+01 0.  1.
</event>
<event>
 5   0  0.8817544E-02  0.6422971E+03  0.7818609E-02  0.9821341E-01
       -2   -1    0    0    0  501  0.00000000000E+00  0.00000000000E+00  0.94028418240E+02  0.94028418275E+02  0.25500000920E-02 0. -1.
        2   -1    0    0  501    0  0.00000000000E+00  0.00000000000E+00 -0.10968640941E+04  0.10968640941E+04  0.25500000920E-02 0.  1.
    10030    2    1    2    0    0  0.00000000000E+00  0.00000000000E+00 -0.10028356758E+04  0.11908925124E+04  0.64229711447E+03 0.  0.
        5    1    3    3  502    0  0.68580122895E+02 -0.23225624342E+03 -0.11043208801E+03  0.26620205094E+03  0.46999998093E+01 0. -1.
       -5    1    3    3    0  502 -0.68580122895E+02  0.23225624342E+03 -0.89240358783E+03  0.92469046142E+03  0.46999998093E+01 0.  1.
</event>
<event>
 5   0  0.5125031E-02  0.5896680E+03  0.7818609E-02  0.9927076E-01
       -1   -1    0    0    0  501  0.00000000000E+00  0.00000000000E+00  0.47308246899E+03  0.47308246902E+03  0.50400001928E-02 0. -1.
        1   -1    0    0  501    0  0.00000000000E+00  0.00000000000E+00 -0.18374618782E+03  0.18374618789E+03  0.50400001928E-02 0.  1.
    10030    2    1    2    0    0  0.00000000000E+00  0.00000000000E+00  0.28933628117E+03  0.65682865691E+03  0.58966804300E+03 0.  0.
        4    1    3    3  502    0  0.11238587947E+03  0.11674531693E+03  0.41902457453E+03  0.44926969838E+03  0.12699999809E+01 0. -1.
       -4    1    3    3    0  502 -0.11238587947E+03 -0.11674531693E+03 -0.12968829336E+03  0.20755895852E+03  0.12699999809E+01 0.  1.
</event>
<event>
 5   0  0.8699746E-02  0.5915766E+03  0.7818609E-02  0.9923038E-01
        2   -1    0    0  501    0  0.00000000000E+00  0.00000000000E+00  0.44434980608E+03  0.44434980609E+03  0.25500000920E-02 0.  1.
       -2   -1    0    0    0  501  0.00000000000E+00  0.00000000000E+00 -0.19689603484E+03  0.19689603485E+03  0.25500000920E-02 0. -1.
    10030    2    1    2    0    0  0.00000000000E+00  0.00000000000E+00  0.24745377124E+03  0.64124584094E+03  0.59157658813E+03 0.  0.
        3    1    3    3  502    0 -0.96346700554E+02  0.27626452450E+03  0.76653392687E+02  0.30245747969E+03  0.10100000352E+00 0.  1.
       -3    1    3    3    0  502  0.96346700554E+02 -0.27626452450E+03  0.17080037856E+03  0.33878836126E+03  0.10100000352E+00 0. -1.
</event>
<event>
 5   0  0.8207443E-02  0.5781458E+03  0.7818609E-02  0.9951813E-01
       -2   -1    0    0    0  501  0.00000000000E+00  0.00000000000E+00  0.25144242247E+03  0.25144242248E+03  0.25500000920E-02 0. -1.
        2   -1    0    0  501    0  0.00000000000E+00  0.00000000000E+00 -0.33233504980E+03  0.33233504981E+03  0.25500000920E-02 0.  1.
    10030    2    1    2    0    0  0.00000000000E+00  0.00000000000E+00 -0.80892627334E+02  0.58377747229E+03  0.57814576016E+03 0.  0.
        1    1    3    3  502    0  0.14980681578E+03 -0.48262718611E+02 -0.28527833025E+03  0.32581451440E+03  0.50400001928E-02 0.  1.
       -1    1    3    3    0  502 -0.14980681578E+03  0.48262718611E+02  0.20438570291E+03  0.25796295789E+03  0.50400001928E-02 0. -1.
</event>
<event>
 5   0  0.3437375E-02  0.5961272E+03  0.7818609E-02  0.9913474E-01
        3   -1    0    0  501    0  0.00000000000E+00  0.00000000000E+00  0.31752204536E+03  0.31752206143E+03  0.10100000352E+00 0.  1.
       -3   -1    0    0    0  501  0.00000000000E+00  0.00000000000E+00 -0.27979759115E+03  0.27979760938E+03  0.10100000352E+00 0. -1.
    10030    2    1    2    0    0  0.00000000000E+00  0.00000000000E+00  0.37724454213E+02  0.59731967081E+03  0.59612721351E+03 0.  0.
        1    1    3    3  502    0  0.16959572847E+03 -0.17451626044E+03 -0.15359620028E+03  0.28776801254E+03  0.50400001928E-02 0. -1.
       -1    1    3    3    0  502 -0.16959572847E+03  0.17451626044E+03  0.19132065449E+03  0.30955165827E+03  0.50400001928E-02 0.  1.
</event>
<event>
 5   0  0.8420604E-02  0.5242611E+03  0.7818609E-02  0.1007633E+00
       -2   -1    0    0    0  501  0.00000000000E+00  0.00000000000E+00  0.47148696636E+02  0.47148696705E+02  0.25500000920E-02 0.  1.
        2   -1    0    0  501    0  0.00000000000E+00  0.00000000000E+00 -0.14573555487E+04  0.14573555487E+04  0.25500000920E-02 0. -1.
    10030    2    1    2    0    0  0.00000000000E+00  0.00000000000E+00 -0.14102068521E+04  0.15045042455E+04  0.52426105982E+03 0.  0.
        2    1    3    3  502    0  0.24913413762E+03 -0.37241164034E+02 -0.91318967523E+03  0.94729620805E+03  0.25500000920E-02 0. -1.
       -2    1    3    3    0  502 -0.24913413762E+03  0.37241164034E+02 -0.49701717687E+03  0.55720803740E+03  0.25500000920E-02 0.  1.
</event>
<event>
 5   0  0.3437375E-02  0.6027932E+03  0.7818609E-02  0.9899628E-01
       -4   -1    0    0    0  501  0.00000000000E+00  0.00000000000E+00  0.75049460418E+03  0.75049567874E+03  0.12699999809E+01 0. -1.
        4   -1    0    0  501    0  0.00000000000E+00  0.00000000000E+00 -0.12103558327E+03  0.12104224601E+03  0.12699999809E+01 0.  1.
    10030    2    1    2    0    0  0.00000000000E+00  0.00000000000E+00  0.62945902091E+03  0.87153792475E+03  0.60279324421E+03 0.  0.
        4    1    3    3  502    0  0.44566494146E+02 -0.21258532043E+03  0.12624526740E+02  0.21757684260E+03  0.12699999809E+01 0.  1.
       -4    1    3    3    0  502 -0.44566494146E+02  0.21258532043E+03  0.61683449417E+03  0.65396108214E+03  0.12699999809E+01 0. -1.
</event>
<event>
 5   0  0.5125031E-02  0.5994256E+03  0.7818609E-02  0.9906599E-01
        1   -1    0    0  501    0  0.00000000000E+00  0.00000000000E+00  0.96575650107E+03  0.96575650108E+03  0.50400001928E-02 0.  1.
       -1   -1    0    0    0  501  0.00000000000E+00  0.00000000000E+00 -0.93012836965E+02  0.93012837102E+02  0.50400001928E-02 0. -1.
    10030    2    1    2    0    0  0.00000000000E+00  0.00000000000E+00  0.87274366411E+03  0.10587693382E+04  0.59942556523E+03 0.  0.
        4    1    3    3  502    0 -0.21134721751E+03  0.19744767140E+03  0.29759688758E+03  0.41499246944E+03  0.12699999809E+01 0. -1.
       -4    1    3    3    0  502  0.21134721751E+03 -0.19744767140E+03  0.57514677653E+03  0.64377686875E+03  0.12699999809E+01 0.  1.
</event>
<event>
 5   0  0.8817544E-02  0.5930981E+03  0.7818609E-02  0.9919830E-01
        2   -1    0    0  501    0  0.00000000000E+00  0.00000000000E+00  0.19165092820E+03  0.19165092822E+03  0.25500000920E-02 0.  1.
       -2   -1    0    0    0  501  0.00000000000E+00  0.00000000000E+00 -0.45886202536E+03  0.45886202537E+03  0.25500000920E-02 0. -1.
    10030    2    1    2    0    0  0.00000000000E+00  0.00000000000E+00 -0.26721109715E+03  0.65051295359E+03  0.59309807987E+03 0.  0.
        5    1    3    3  502    0 -0.61561826095E+02 -0.25497179199E+03 -0.28526148141E+03  0.38755215896E+03  0.46999998093E+01 0. -1.
       -5    1    3    3    0  502  0.61561826095E+02  0.25497179199E+03  0.18050384257E+02  0.26296079463E+03  0.46999998093E+01 0.  1.
</event>
<event>
 5   0  0.3437375E-02  0.6011956E+03  0.7818609E-02  0.9902929E-01
       -4   -1    0    0    0  501  0.00000000000E+00  0.00000000000E+00  0.23142060687E+03  0.23142409162E+03  0.12699999809E+01 0.  1.
        4   -1    0    0  501    0  0.00000000000E+00  0.00000000000E+00 -0.39044629831E+03  0.39044836377E+03  0.12699999809E+01 0. -1.
    10030    2    1    2    0    0  0.00000000000E+00  0.00000000000E+00 -0.15902569144E+03  0.62187245539E+03  0.60119562559E+03 0.  0.
        2    1    3    3  502    0 -0.22992614903E+03 -0.10463464140E+03  0.89015758999E+02  0.26783996630E+03  0.25500000920E-02 0.  1.
       -2    1    3    3    0  502  0.22992614903E+03  0.10463464140E+03 -0.24804145044E+03  0.35403248909E+03  0.25500000920E-02 0. -1.
</event>
<event>
 5   0  0.5190380E-02  0.5988543E+03  0.7818609E-02  0.9907786E-01
       -1   -1    0    0    0  501  0.00000000000E+00  0.00000000000E+00  0.43436561431E+03  0.43436561434E+03  0.50400001928E-02 0. -1.
        1   -1    0    0  501    0  0.00000000000E+00  0.00000000000E+00 -0.20640820047E+03  0.20640820053E+03  0.50400001928E-02 0.  1.
    10030    2    1    2    0    0  0.00000000000E+00  0.00000000000E+00  0.22795741384E+03  0.64077381488E+03  0.59885432227E+03 0.  0.
        5    1    3    3  502    0  0.26696443856E+03  0.56574080016E+02 -0.17782929008E+02  0.27351226763E+03  0.46999998093E+01 0.  1.
       -5    1    3    3    0  502 -0.26696443856E+03 -0.56574080016E+02  0.24574034285E+03  0.36726154725E+03  0.46999998093E+01 0. -1.
</event>
<event>
 5   0  0.5125031E-02  0.5879645E+03  0.7818609E-02  0.9930695E-01
       -1   -1    0    0    0  501  0.00000000000E+00  0.00000000000E+00  0.12814597132E+03  0.12814597142E+03  0.50400001928E-02 0.  1.
        1   -1    0    0  501    0  0.00000000000E+00  0.00000000000E+00 -0.67443058462E+03  0.67443058464E+03  0.50400001928E-02 0. -1.
    10030    2    1    2    0    0  0.00000000000E+00  0.00000000000E+00 -0.54628461330E+03  0.80257655606E+03  0.58796449688E+03 0.  0.
        4    1    3    3  502    0  0.20235388955E+03 -0.21108548251E+03 -0.23174467958E+03  0.37311042194E+03  0.12699999809E+01 0. -1.
       -4    1    3    3    0  502 -0.20235388955E+03  0.21108548251E+03 -0.31453993372E+03  0.42946613412E+03  0.12699999809E+01 0.  1.
</event>
<event>
 5   0  0.4881209E-02  0.6043473E+03  0.7818609E-02  0.9896428E-01
       -1   -1    0    0    0  501  0.00000000000E+00  0.00000000000E+00  0.10383190581E+04  0.10383190581E+04  0.50400001928E-02 0.  1.
        1   -1    0    0  501    0  0.00000000000E+00  0.00000000000E+00 -0.87939166082E+02  0.87939166227E+02  0.50400001928E-02 0. -1.
    10030    2    1    2    0    0  0.00000000000E+00  0.00000000000E+00  0.95037989198E+03  0.11262582243E+04  0.60434729149E+03 0.  0.
        3    1    3    3  502    0 -0.69947429848E+02 -0.13616228519E+03  0.96071294529E+03  0.97283204322E+03  0.10100000352E+00 0.  1.
       -3    1    3    3    0  502  0.69947429848E+02  0.13616228519E+03 -0.10333053318E+02  0.15342618108E+03  0.10100000352E+00 0. -1.
</event>
<event>
 5   0  0.3437375E-02  0.6189816E+03  0.7818609E-02  0.9866789E-01
       -3   -1    0    0    0  501  0.00000000000E+00  0.00000000000E+00  0.22607459846E+03  0.22607462102E+03  0.10100000352E+00 0. -1.
        3   -1    0    0  501    0  0.00000000000E+00  0.00000000000E+00 -0.42368556362E+03  0.42368557566E+03  0.10100000352E+00 0.  1.
    10030    2    1    2    0    0  0.00000000000E+00  0.00000000000E+00 -0.19761096516E+03  0.64976019669E+03  0.61898159879E+03 0.  0.
        4    1    3    3  502    0 -0.26847674193E+03 -0.10307160345E+03  0.21246600839E+02  0.28836876971E+03  0.12699999809E+01 0. -1.
       -4    1    3    3    0  502  0.26847674193E+03  0.10307160345E+03 -0.21885756600E+03  0.36139142698E+03  0.12699999809E+01 0.  1.
</event>
<event>
 5   0  0.5190380E-02  0.6014794E+03  0.7818609E-02  0.9902342E-01
       -1   -1    0    0    0  501  0.00000000000E+00  0.00000000000E+00  0.24398515850E+03  0.24398515855E+03  0.50400001928E-02 0.  1.
        1   -1    0    0  501    0  0.00000000000E+00  0.00000000000E+00 -0.37069617977E+03  0.37069617980E+03  0.50400001928E-02 0. -1.
    10030    2    1    2    0    0  0.00000000000E+00  0.00000000000E+00 -0.12671102127E+03  0.61468133835E+03  0.60147939683E+03 0.  0.
        5    1    3    3  502    0 -0.52769350460E+02  0.19021973730E+03  0.16845833117E+03  0.25955433371E+03  0.46999998093E+01 0.  1.
       -5    1    3    3    0  502  0.52769350460E+02 -0.19021973730E+03 -0.29516935244E+03  0.35512700464E+03  0.46999998093E+01 0. -1.
</event>
<event>
 5   0  0.4881209E-02  0.6118340E+03  0.7818609E-02  0.9881154E-01
       -1   -1    0    0    0  501  0.00000000000E+00  0.00000000000E+00  0.94232938508E+02  0.94232938643E+02  0.50400001928E-02 0. -1.
        1   -1    0    0  501    0  0.00000000000E+00  0.00000000000E+00 -0.99312635914E+03  0.99312635916E+03  0.50400001928E-02 0.  1.
    10030    2    1    2    0    0  0.00000000000E+00  0.00000000000E+00 -0.89889342064E+03  0.10873592978E+04  0.61183401413E+03 0.  0.
        3    1    3    3  502    0 -0.19815870266E+03 -0.71009186373E+02 -0.54937355235E+02  0.21754838357E+03  0.10100000352E+00 0. -1.
       -3    1    3    3    0  502  0.19815870266E+03  0.71009186373E+02 -0.84395606540E+03  0.86981091423E+03  0.10100000352E+00 0.  1.
</event>
<event>
 5   0  0.5125031E-02  0.6005884E+03  0.7818609E-02  0.9904186E-01
        1   -1    0    0  501    0  0.00000000000E+00  0.00000000000E+00  0.40607490095E+03  0.40607490098E+03  0.50400001928E-02 0.  1.
       -1   -1    0    0    0  501  0.00000000000E+00  0.00000000000E+00 -0.22206886416E+03  0.22206886422E+03  0.50400001928E-02 0. -1.
    10030    2    1    2    0    0  0.00000000000E+00  0.00000000000E+00  0.18400603678E+03  0.62814376520E+03  0.60058835169E+03 0.  0.
        4    1    3    3  502    0  0.27994463891E+03 -0.23416039786E+02  0.20297321483E+03  0.34657906834E+03  0.12699999809E+01 0.  1.
       -4    1    3    3    0  502 -0.27994463891E+03  0.23416039786E+02 -0.18967178050E+02  0.28156469686E+03  0.12699999809E+01 0. -1.
</event>
<event>
 5   0  0.5190380E-02  0.5958947E+03  0.7818609E-02  0.9913960E-01
        1   -1    0    0  501    0  0.00000000000E+00  0.00000000000E+00  0.79037868015E+03  0.79037868017E+03  0.50400001928E-02 0.  1.
       -1   -1    0    0    0  501  0.00000000000E+00  0.00000000000E+00 -0.11231656741E+03  0.11231656752E+03  0.50400001928E-02 0. -1.
    10030    2    1    2    0    0  0.00000000000E+00  0.00000000000E+00  0.67806211274E+03  0.90269524769E+03  0.59589468991E+03 0.  0.
        5    1    3    3  502    0 -0.17165625538E+03  0.76844573077E+02  0.68902391593E+03  0.71424575963E+03  0.46999998093E+01 0.  1.
       -5    1    3    3    0  502  0.17165625538E+03 -0.76844573077E+02 -0.10961803193E+02  0.18844948806E+03  0.46999998093E+01 0. -1.
</event>
<event>
 5   0  0.8207443E-02  0.6021373E+03  0.7818609E-02  0.9900982E-01
       -2   -1    0    0    0  501  0.00000000000E+00  0.00000000000E+00  0.61827336468E+02  0.61827336520E+02  0.25500000920E-02 0. -1.
        2   -1    0    0  501    0  0.00000000000E+00  0.00000000000E+00 -0.14660557464E+04  0.14660557464E+04  0.25500000920E-02 0.  1.
    10030    2    1    2    0    0  0.00000000000E+00  0.00000000000E+00 -0.14042284099E+04  0.15278830829E+04  0.60213726660E+03 0.  0.
        1    1    3    3  502    0 -0.21160532117E+03 -0.17718955305E+03 -0.10073387540E+04  0.10444636495E+04  0.50400001928E-02 0.  1.
       -1    1    3    3    0  502  0.21160532117E+03  0.17718955305E+03 -0.39688965591E+03  0.48341943346E+03  0.50400001928E-02 0. -1.
</event>
<event>
 5   0  0.4987389E-02  0.5350242E+03  0.7818609E-02  0.1005021E+00
        1   -1    0    0  501    0  0.00000000000E+00  0.00000000000E+00  0.10750128872E+04  0.10750128872E+04  0.50400001928E-02 0. -1.
       -1   -1    0    0    0  501  0.00000000000E+00  0.00000000000E+00 -0.66569180240E+02  0.66569180431E+02  0.50400001928E-02 0.  1.
    10030    2    1    2    0    0  0.00000000000E+00  0.00000000000E+00  0.10084437070E+04  0.11415820677E+04  0.53502421166E+03 0.  0.
        1    1    3    3  502    0 -0.16665622829E+03 -0.41149818829E+02  0.66448239178E+02  0.18407328577E+03  0.50400001928E-02 0.  1.
       -1    1    3    3    0  502  0.16665622829E+03  0.41149818829E+02  0.94199546779E+03  0.95750878188E+03  0.50400001928E-02 0. -1.
</event>
<event>
 5   0  0.8575590E-02  0.6037486E+03  0.7818609E-02  0.9897659E-01
        2   -1    0    0  501    0  0.00000000000E+00  0.00000000000E+00  0.75921865602E+03  0.75921865602E+03  0.25500000920E-02 0.  1.
       -2   -1    0    0    0  501  0.00000000000E+00  0.00000000000E+00 -0.12002877067E+03  0.12002877070E+03  0.25500000920E-02 0. -1.
    10030    2    1    2    0    0  0.00000000000E+00  0.00000000000E+00  0.63918988535E+03  0.87924742672E+03  0.60374856345E+03 0.  0.
        4    1    3    3  502    0  0.99894717514E+02  0.24056588762E+03  0.97414851141E+02  0.27810459722E+03  0.12699999809E+01 0. -1.
       -4    1    3    3    0  502 -0.99894717514E+02 -0.24056588762E+03  0.54177503421E+03  0.60114282950E+03  0.12699999809E+01 0.  1.
</event>
<event>
 5   0  0.8817544E-02  0.5803681E+03  0.7818609E-02  0.9946994E-01
       -2   -1    0    0    0  501  0.00000000000E+00  0.00000000000E+00  0.61457729573E+02  0.61457729626E+02  0.25500000920E-02 0. -1.
        2   -1    0    0  501    0  0.00000000000E+00  0.00000000000E+00 -0.13701575506E+04  0.13701575506E+04  0.25500000920E-02 0.  1.
    10030    2    1    2    0    0  0.00000000000E+00  0.00000000000E+00 -0.13086998211E+04  0.14316152803E+04  0.58036806342E+03 0.  0.
        5    1    3    3  502    0 -0.99604374468E+02  0.15244886222E+03 -0.12115430932E+04  0.12251613949E+04  0.46999998093E+01 0.  1.
       -5    1    3    3    0  502  0.99604374468E+02 -0.15244886222E+03 -0.97156727917E+02  0.20645388537E+03  0.46999998093E+01 0. -1.
</event>
<event>
 5   0  0.3437375E-02  0.6123141E+03  0.7818609E-02  0.9880183E-01
        4   -1    0    0  501    0  0.00000000000E+00  0.00000000000E+00  0.29226267708E+03  0.29226543640E+03  0.12699999809E+01 0. -1.
       -4   -1    0    0    0  501  0.00000000000E+00  0.00000000000E+00 -0.32070642164E+03  0.32070893623E+03  0.12699999809E+01 0.  1.
    10030    2    1    2    0    0  0.00000000000E+00  0.00000000000E+00 -0.28443744564E+02  0.61297437263E+03  0.61231408190E+03 0.  0.
        3    1    3    3  502    0  0.20403627921E+03  0.22566711254E+03  0.20103214126E+02  0.30489440522E+03  0.10100000352E+00 0.  1.
       -3    1    3    3    0  502 -0.20403627921E+03 -0.22566711254E+03 -0.48546958689E+02  0.30807996741E+03  0.10100000352E+00 0. -1.
</event>
<event>
 5   0  0.4987389E-02  0.6261155E+03  0.7818609E-02  0.9852659E-01
        1   -1    0    0  501    0  0.00000000000E+00  0.00000000000E+00  0.10687010770E+04  0.10687010770E+04  0.50400001928E-02 0. -1.
       -1   -1    0    0    0  501  0.00000000000E+00  0.00000000000E+00 -0.91704917689E+02  0.91704917827E+02  0.50400001928E-02 0.  1.
    10030    2    1    2    0    0  0.00000000000E+00  0.00000000000E+00  0.97699615932E+03  0.11604059948E+04  0.62611546663E+03 0.  0.
        1    1    3    3  502    0 -0.26104705970E+03  0.82774894300E+02  0.76961951676E+03  0.81689133372E+03  0.50400001928E-02 0. -1.
       -1    1    3    3    0  502  0.26104705970E+03 -0.82774894300E+02  0.20737664256E+03  0.34351466113E+03  0.50400001928E-02 0.  1.
</event>
<event>
 5   0  0.8420604E-02  0.6063285E+03  0.7818609E-02  0.9892363E-01
        2   -1    0    0  501    0  0.00000000000E+00  0.00000000000E+00  0.14026516335E+04  0.14026516335E+04  0.25500000920E-02 0.  1.
       -2   -1    0    0    0  501  0.00000000000E+00  0.00000000000E+00 -0.65524869501E+02  0.65524869551E+02  0.25500000920E-02 0. -1.
    10030    2    1    2    0    0  0.00000000000E+00  0.00000000000E+00  0.13371267640E+04  0.14681765030E+04  0.60632850923E+03 0.  0.
        2    1    3    3  502    0  0.60874888925E+02 -0.15382962753E+03  0.53411627236E+02  0.17384506993E+03  0.25500000920E-02 0. -1.
       -2    1    3    3    0  502 -0.60874888925E+02  0.15382962753E+03  0.12837151367E+04  0.12943314331E+04  0.25500000920E-02 0.  1.
</event>
<event>
 5   0  0.4881209E-02  0.6059234E+03  0.7818609E-02  0.9893192E-01
        1   -1    0    0  501    0  0.00000000000E+00  0.00000000000E+00  0.58795177167E+03  0.58795177169E+03  0.50400001928E-02 0.  1.
       -1   -1    0    0    0  501  0.00000000000E+00  0.00000000000E+00 -0.15611110708E+03  0.15611110716E+03  0.50400001928E-02 0. -1.
    10030    2    1    2    0    0  0.00000000000E+00  0.00000000000E+00  0.43184066459E+03  0.74406287885E+03  0.60592343419E+03 0.  0.
        3    1    3    3  502    0  0.16597372496E+03  0.92625010987E+02 -0.73787384724E+02  0.20389030968E+03  0.10100000352E+00 0. -1.
       -3    1    3    3    0  502 -0.16597372496E+03 -0.92625010987E+02  0.50562804931E+03  0.54017256917E+03  0.10100000352E+00 0.  1.
</event>
<event>
 5   0  0.4881209E-02  0.6099716E+03  0.7818609E-02  0.9884931E-01
        1   -1    0    0  501    0  0.00000000000E+00  0.00000000000E+00  0.63977076239E+03  0.63977076241E+03  0.50400001928E-02 0. -1.
       -1   -1    0    0    0  501  0.00000000000E+00  0.00000000000E+00 -0.14539009368E+03  0.14539009377E+03  0.50400001928E-02 0.  1.
    10030    2    1    2    0    0  0.00000000000E+00  0.00000000000E+00  0.49438066871E+03  0.78516085618E+03  0.60997157678E+03 0.  0.
        3    1    3    3  502    0  0.13735249741E+03 -0.93998577358E+02  0.57615943506E+03  0.59971755510E+03  0.10100000352E+00 0. -1.
       -3    1    3    3    0  502 -0.13735249741E+03  0.93998577358E+02 -0.81778766345E+02  0.18544330108E+03  0.10100000352E+00 0.  1.
</event>
<event>
 5   0  0.8420604E-02  0.6926626E+03  0.7818609E-02  0.9729863E-01
       -2   -1    0    0    0  501  0.00000000000E+00  0.00000000000E+00  0.19264255764E+03  0.19264255766E+03  0.25500000920E-02 0. -1.
        2   -1    0    0  501    0  0.00000000000E+00  0.00000000000E+00 -0.62263174775E+03  0.62263174776E+03  0.25500000920E-02 0.  1.
    10030    2    1    2    0    0  0.00000000000E+00  0.00000000000E+00 -0.42998919011E+03  0.81527430542E+03  0.69266260868E+03 0.  0.
        2    1    3    3  502    0  0.54995449489E+02  0.13943127504E+03 -0.58247933448E+03  0.60145469907E+03  0.25500000920E-02 0.  1.
       -2    1    3    3    0  502 -0.54995449489E+02 -0.13943127504E+03  0.15249014437E+03  0.21381960635E+03  0.25500000920E-02 0. -1.
</event>
<event>
 5   0  0.4881209E-02  0.5791218E+03  0.7818609E-02  0.9949694E-01
        1   -1    0    0  501    0  0.00000000000E+00  0.00000000000E+00  0.41442032430E+03  0.41442032433E+03  0.50400001928E-02 0.  1.
       -1   -1    0    0    0  501  0.00000000000E+00  0.00000000000E+00 -0.20231998638E+03  0.20231998644E+03  0.50400001928E-02 0. -1.
    10030    2    1    2    0    0  0.00000000000E+00  0.00000000000E+00  0.21210033792E+03  0.61674031077E+03  0.57912179857E+03 0.  0.
        3    1    3    3  502    0  0.14998817592E+03 -0.42963163256E+02  0.36582833662E+03  0.39770927622E+03  0.10100000352E+00 0.  1.
       -3    1    3    3    0  502 -0.14998817592E+03  0.42963163256E+02 -0.15372799870E+03  0.21903103455E+03  0.10100000352E+00 0. -1.
</event>
<event>
 5   0  0.8699746E-02  0.5959198E+03  0.7818609E-02  0.9913908E-01
        2   -1    0    0  501    0  0.00000000000E+00  0.00000000000E+00  0.12431396061E+03  0.12431396063E+03  0.25500000920E-02 0. -1.
       -2   -1    0    0    0  501  0.00000000000E+00  0.00000000000E+00 -0.71416025279E+03  0.71416025280E+03  0.25500000920E-02 0.  1.
    10030    2    1    2    0    0  0.00000000000E+00  0.00000000000E+00 -0.58984629218E+03  0.83847421343E+03  0.59591975818E+03 0.  0.
        3    1    3    3  502    0 -0.23027444837E+03  0.17589283728E+03 -0.39256165915E+03  0.48792343479E+03  0.10100000352E+00 0.  1.
       -3    1    3    3    0  502  0.23027444837E+03 -0.17589283728E+03 -0.19728463303E+03  0.35055077864E+03  0.10100000352E+00 0. -1.
</event>
<event>
 5   0  0.8699746E-02  0.5927446E+03  0.7818609E-02  0.9920574E-01
        2   -1    0    0  501    0  0.00000000000E+00  0.00000000000E+00  0.15764335426E+03  0.15764335428E+03  0.25500000920E-02 0. -1.
       -2   -1    0    0    0  501  0.00000000000E+00  0.00000000000E+00 -0.55718514267E+03  0.55718514268E+03  0.25500000920E-02 0.  1.
    10030    2    1    2    0    0  0.00000000000E+00  0.00000000000E+00 -0.39954178841E+03  0.71482849696E+03  0.59274458191E+03 0.  0.
        3    1    3    3  502    0  0.23008216791E+02 -0.20907477544E+03  0.52026964304E+02  0.21667592155E+03  0.10100000352E+00 0. -1.
       -3    1    3    3    0  502 -0.23008216791E+02  0.20907477544E+03 -0.45156875271E+03  0.49815257541E+03  0.10100000352E+00 0.  1.
</event>
<event>
 5   0  0.8420604E-02  0.5982253E+03  0.7818609E-02  0.9909095E-01
        2   -1    0    0  501    0  0.00000000000E+00  0.00000000000E+00  0.15021301038E+03  0.15021301040E+03  0.25500000920E-02 0. -1.
       -2   -1    0    0    0  501  0.00000000000E+00  0.00000000000E+00 -0.59561008921E+03  0.59561008922E+03  0.25500000920E-02 0.  1.
    10030    2    1    2    0    0  0.00000000000E+00  0.00000000000E+00 -0.44539707883E+03  0.74582309962E+03  0.59822532384E+03 0.  0.
        2    1    3    3  502    0 -0.24678918932E+03 -0.16705011474E+03 -0.19072445850E+03  0.35381699207E+03  0.25500000920E-02 0. -1.
       -2    1    3    3    0  502  0.24678918932E+03  0.16705011474E+03 -0.25467262033E+03  0.39200610754E+03  0.25500000920E-02 0.  1.
</event>
<event>
 5   0  0.5125031E-02  0.6042758E+03  0.7818609E-02  0.9896575E-01
        1   -1    0    0  501    0  0.00000000000E+00  0.00000000000E+00  0.77391681778E+03  0.77391681780E+03  0.50400001928E-02 0. -1.
       -1   -1    0    0    0  501  0.00000000000E+00  0.00000000000E+00 -0.11795493089E+03  0.11795493100E+03  0.50400001928E-02 0.  1.
    10030    2    1    2    0    0  0.00000000000E+00  0.00000000000E+00  0.65596188689E+03  0.89187174880E+03  0.60427578079E+03 0.  0.
        4    1    3    3  502    0  0.49914927625E+01 -0.24004247378E+02  0.77244221598E+03  0.77283226435E+03  0.12699999809E+01 0. -1.
       -4    1    3    3    0  502 -0.49914927625E+01  0.24004247378E+02 -0.11648032909E+03  0.11903948445E+03  0.12699999809E+01 0.  1.
</event>
<event>
 5   0  0.8207443E-02  0.6014583E+03  0.7818609E-02  0.9902385E-01
       -2   -1    0    0    0  501  0.00000000000E+00  0.00000000000E+00  0.72108974157E+02  0.72108974202E+02  0.25500000920E-02 0. -1.
        2   -1    0    0  501    0  0.00000000000E+00  0.00000000000E+00 -0.12541853815E+04  0.12541853815E+04  0.25500000920E-02 0.  1.
    10030    2    1    2    0    0  0.00000000000E+00  0.00000000000E+00 -0.11820764074E+04  0.13262943557E+04  0.60145829879E+03 0.  0.
        1    1    3    3  502    0  0.15887915839E+03  0.87285045430E+02 -0.61913555533E+02  0.19155822747E+03  0.50400001928E-02 0. -1.
       -1    1    3    3    0  502 -0.15887915839E+03 -0.87285045430E+02 -0.11201628518E+04  0.11347361283E+04  0.50400001928E-02 0.  1.
</event>
<event>
 5   0  0.8420604E-02  0.6045654E+03  0.7818609E-02  0.9895979E-01
       -2   -1    0    0    0  501  0.00000000000E+00  0.00000000000E+00  0.81472352978E+02  0.81472353017E+02  0.25500000920E-02 0. -1.
        2   -1    0    0  501    0  0.00000000000E+00  0.00000000000E+00 -0.11215441606E+04  0.11215441606E+04  0.25500000920E-02 0.  1.
    10030    2    1    2    0    0  0.00000000000E+00  0.00000000000E+00 -0.10400718076E+04  0.12030165136E+04  0.60456543651E+03 0.  0.
        2    1    3    3  502    0  0.23735815993E+03  0.68845396032E+02 -0.17367986572E+03  0.30206502678E+03  0.25500000920E-02 0. -1.
       -2    1    3    3    0  502 -0.23735815993E+03 -0.68845396032E+02 -0.86639194186E+03  0.90095148680E+03  0.25500000920E-02 0.  1.
</event>
<event>
 5   0  0.8207443E-02  0.6032560E+03  0.7818609E-02  0.9898674E-01
       -2   -1    0    0    0  501  0.00000000000E+00  0.00000000000E+00  0.38597746466E+03  0.38597746467E+03  0.25500000920E-02 0. -1.
        2   -1    0    0  501    0  0.00000000000E+00  0.00000000000E+00 -0.23571185193E+03  0.23571185194E+03  0.25500000920E-02 0.  1.
    10030    2    1    2    0    0  0.00000000000E+00  0.00000000000E+00  0.15026561273E+03  0.62168931661E+03  0.60325604184E+03 0.  0.
        1    1    3    3  502    0  0.24864915343E+03 -0.12373476038E+03  0.19638322152E+03  0.34015152822E+03  0.50400001928E-02 0. -1.
       -1    1    3    3    0  502 -0.24864915343E+03  0.12373476038E+03 -0.46117608790E+02  0.28153778839E+03  0.50400001928E-02 0.  1.
</event>
<event>
 5   0  0.8699746E-02  0.5971379E+03  0.7818609E-02  0.9911362E-01
        2   -1    0    0  501    0  0.00000000000E+00  0.00000000000E+00  0.17349079447E+03  0.17349079449E+03  0.25500000920E-02 0.  1.
       -2   -1    0    0    0  501  0.00000000000E+00  0.00000000000E+00 -0.51382215405E+03  0.51382215406E+03  0.25500000920E-02 0. -1.
    10030    2    1    2    0    0  0.00000000000E+00  0.00000000000E+00 -0.34033135958E+03  0.68731294855E+03  0.59713788603E+03 0.  0.
        3    1    3    3  502    0  0.23456880287E+03  0.13632326103E+03 -0.31363576907E+03  0.41469743261E+03  0.10100000352E+00 0. -1.
       -3    1    3    3    0  502 -0.23456880287E+03 -0.13632326103E+03 -0.26695590519E+02  0.27261551594E+03  0.10100000352E+00 0.  1.
</event>
<event>
 5   0  0.3437375E-02  0.6027523E+03  0.7818609E-02  0.9899712E-01
       -4   -1    0    0    0  501  0.00000000000E+00  0.00000000000E+00  0.15919187391E+03  0.15919693972E+03  0.12699999809E+01 0.  1.
        4   -1    0    0  501    0  0.00000000000E+00  0.00000000000E+00 -0.57053937303E+03  0.57054078652E+03  0.12699999809E+01 0. -1.
    10030    2    1    2    0    0  0.00000000000E+00  0.00000000000E+00 -0.41134749913E+03  0.72973772624E+03  0.60275234057E+03 0.  0.
        1    1    3    3  502    0  0.13499955354E+03  0.22029013270E+03 -0.17823919379E+02  0.25897937012E+03  0.50400001928E-02 0.  1.
       -1    1    3    3    0  502 -0.13499955354E+03 -0.22029013270E+03 -0.39352357975E+03  0.47075835613E+03  0.50400001928E-02 0. -1.
</event>
<event>
 5   0  0.8207443E-02  0.6081300E+03  0.7818609E-02  0.9888681E-01
        2   -1    0    0  501    0  0.00000000000E+00  0.00000000000E+00  0.15832139164E+04  0.15832139164E+04  0.25500000920E-02 0.  1.
       -2   -1    0    0    0  501  0.00000000000E+00  0.00000000000E+00 -0.58397375953E+02  0.58397376009E+02  0.25500000920E-02 0. -1.
    10030    2    1    2    0    0  0.00000000000E+00  0.00000000000E+00  0.15248165405E+04  0.16416112924E+04  0.60813004642E+03 0.  0.
        1    1    3    3  502    0  0.29709353714E+03  0.53991740243E+02  0.85883012108E+03  0.91036742842E+03  0.50400001928E-02 0.  1.
       -1    1    3    3    0  502 -0.29709353714E+03 -0.53991740243E+02  0.66598641938E+03  0.73124386400E+03  0.50400001928E-02 0. -1.
</event>
<event>
 5   0  0.8575590E-02  0.6014873E+03  0.7818609E-02  0.9902325E-01
        2   -1    0    0  501    0  0.00000000000E+00  0.00000000000E+00  0.45687272919E+03  0.45687272920E+03  0.25500000920E-02 0.  1.
       -2   -1    0    0    0  501  0.00000000000E+00  0.00000000000E+00 -0.19796920801E+03  0.19796920803E+03  0.25500000920E-02 0. -1.
    10030    2    1    2    0    0  0.00000000000E+00  0.00000000000E+00  0.25890352118E+03  0.65484193723E+03  0.60148726460E+03 0.  0.
        4    1    3    3  502    0 -0.92096857327E+02 -0.24011394236E+03 -0.40290456435E+02  0.26031033446E+03  0.12699999809E+01 0. -1.
       -4    1    3    3    0  502  0.92096857327E+02  0.24011394236E+03  0.29919397762E+03  0.39453160277E+03  0.12699999809E+01 0.  1.
</event>
<event>
 5   0  0.4987389E-02  0.6016812E+03  0.7818609E-02  0.9901924E-01
       -1   -1    0    0    0  501  0.00000000000E+00  0.00000000000E+00  0.16715412489E+03  0.16715412496E+03  0.50400001928E-02 0. -1.
        1   -1    0    0  501    0  0.00000000000E+00  0.00000000000E+00 -0.54144678712E+03  0.54144678714E+03  0.50400001928E-02 0.  1.
    10030    2    1    2    0    0  0.00000000000E+00  0.00000000000E+00 -0.37429266223E+03  0.70860091210E+03  0.60168119102E+03 0.  0.
        1    1    3    3  502    0 -0.21365427084E+03  0.13756753267E+03 -0.37679684990E+03  0.45447644560E+03  0.50400001928E-02 0.  1.
       -1    1    3    3    0  502  0.21365427084E+03 -0.13756753267E+03  0.25041876636E+01  0.25412446650E+03  0.50400001928E-02 0. -1.
</event>
<event>
 5   0  0.5166903E-02  0.5954205E+03  0.7818609E-02  0.9914953E-01
       -1   -1    0    0    0  501  0.00000000000E+00  0.00000000000E+00  0.12766680140E+03  0.12766680149E+03  0.50400001928E-02 0.  1.
        1   -1    0    0  501    0  0.00000000000E+00  0.00000000000E+00 -0.69423984327E+03  0.69423984329E+03  0.50400001928E-02 0. -1.
    10030    2    1    2    0    0  0.00000000000E+00  0.00000000000E+00 -0.56657304188E+03  0.82190664479E+03  0.59542045729E+03 0.  0.
        2    1    3    3  502    0 -0.27396805191E+02 -0.29298905953E+03 -0.34560585568E+03  0.45391252618E+03  0.25500000920E-02 0. -1.
       -2    1    3    3    0  502  0.27396805191E+02  0.29298905953E+03 -0.22096718620E+03  0.36799411860E+03  0.25500000920E-02 0.  1.
</event>
<event>
 5   0  0.4881209E-02  0.5792230E+03  0.7818609E-02  0.9949475E-01
       -1   -1    0    0    0  501  0.00000000000E+00  0.00000000000E+00  0.16125368094E+03  0.16125368102E+03  0.50400001928E-02 0.  1.
        1   -1    0    0  501    0  0.00000000000E+00  0.00000000000E+00 -0.52014204560E+03  0.52014204562E+03  0.50400001928E-02 0. -1.
    10030    2    1    2    0    0  0.00000000000E+00  0.00000000000E+00 -0.35888836466E+03  0.68139572664E+03  0.57922299505E+03 0.  0.
        3    1    3    3  502    0  0.11285536075E+03  0.19319614273E+03 -0.39576590533E+03  0.45463363716E+03  0.10100000352E+00 0. -1.
       -3    1    3    3    0  502 -0.11285536075E+03 -0.19319614273E+03  0.36877540672E+02  0.22676208948E+03  0.10100000352E+00 0.  1.
</event>
<event>
 5   0  0.5190380E-02  0.5914996E+03  0.7818609E-02  0.9923200E-01
        1   -1    0    0  501    0  0.00000000000E+00  0.00000000000E+00  0.53240319766E+03  0.53240319769E+03  0.50400001928E-02 0.  1.
       -1   -1    0    0    0  501  0.00000000000E+00  0.00000000000E+00 -0.16428890711E+03  0.16428890719E+03  0.50400001928E-02 0. -1.
    10030    2    1    2    0    0  0.00000000000E+00  0.00000000000E+00  0.36811429055E+03  0.69669210488E+03  0.59149958419E+03 0.  0.
        5    1    3    3  502    0  0.15304438118E+03 -0.14237676077E+03 -0.62311831878E+02  0.21817098572E+03  0.46999998093E+01 0. -1.
       -5    1    3    3    0  502 -0.15304438118E+03  0.14237676077E+03  0.43042612243E+03  0.47852111916E+03  0.46999998093E+01 0.  1.
</event>
<event>
 5   0  0.4987389E-02  0.5811873E+03  0.7818609E-02  0.9945224E-01
       -1   -1    0    0    0  501  0.00000000000E+00  0.00000000000E+00  0.81033263883E+02  0.81033264040E+02  0.50400001928E-02 0. -1.
        1   -1    0    0  501    0  0.00000000000E+00  0.00000000000E+00 -0.10420986999E+04  0.10420986999E+04  0.50400001928E-02 0.  1.
    10030    2    1    2    0    0  0.00000000000E+00  0.00000000000E+00 -0.96106543603E+03  0.11231319640E+04  0.58118726427E+03 0.  0.
        1    1    3    3  502    0  0.87620382724E+02 -0.20399146349E+03 -0.84286504085E+03  0.87161420695E+03  0.50400001928E-02 0.  1.
       -1    1    3    3    0  502 -0.87620382724E+02  0.20399146349E+03 -0.11820039518E+03  0.25151775701E+03  0.50400001928E-02 0. -1.
</event>
<event>
 5   0  0.8575590E-02  0.5992500E+03  0.7818609E-02  0.9906963E-01
        2   -1    0    0  501    0  0.00000000000E+00  0.00000000000E+00  0.21512484194E+03  0.21512484195E+03  0.25500000920E-02 0.  1.
       -2   -1    0    0    0  501  0.00000000000E+00  0.00000000000E+00 -0.41731643809E+03  0.41731643809E+03  0.25500000920E-02 0. -1.
    10030    2    1    2    0    0  0.00000000000E+00  0.00000000000E+00 -0.20219159615E+03  0.63244128005E+03  0.59924997385E+03 0.  0.
        4    1    3    3  502    0 -0.97503056819E+02  0.18604604121E+03 -0.32659729816E+03  0.38831351200E+03  0.12699999809E+01 0. -1.
       -4    1    3    3    0  502  0.97503056819E+02 -0.18604604121E+03  0.12440570201E+03  0.24412776805E+03  0.12699999809E+01 0.  1.
</event>
<event>
 5   0  0.4987389E-02  0.5988871E+03  0.7818609E-02  0.9907718E-01
        1   -1    0    0  501    0  0.00000000000E+00  0.00000000000E+00  0.49452399972E+03  0.49452399975E+03  0.50400001928E-02 0.  1.
       -1   -1    0    0    0  501  0.00000000000E+00  0.00000000000E+00 -0.18131870209E+03  0.18131870216E+03  0.50400001928E-02 0. -1.
    10030    2    1    2    0    0  0.00000000000E+00  0.00000000000E+00  0.31320529763E+03  0.67584270191E+03  0.59888713400E+03 0.  0.
        1    1    3    3  502    0 -0.10855836802E+03 -0.11485041171E+02  0.47126863108E+03  0.48374678097E+03  0.50400001928E-02 0.  1.
       -1    1    3    3    0  502  0.10855836802E+03  0.11485041171E+02 -0.15806333345E+03  0.19209592094E+03  0.50400001928E-02 0. -1.
</event>
<event>
 5   0  0.8817544E-02  0.5906373E+03  0.7818609E-02  0.9925023E-01
        2   -1    0    0  501    0  0.00000000000E+00  0.00000000000E+00  0.32293035464E+03  0.32293035465E+03  0.25500000920E-02 0.  1.
       -2   -1    0    0    0  501  0.00000000000E+00  0.00000000000E+00 -0.27006781523E+03  0.27006781524E+03  0.25500000920E-02 0. -1.
    10030    2    1    2    0    0  0.00000000000E+00  0.00000000000E+00  0.52862539417E+02  0.59299816989E+03  0.59063726722E+03 0.  0.
        5    1    3    3  502    0  0.17207061208E+03 -0.22161426368E+03  0.11883080803E+03  0.30473599778E+03  0.46999998093E+01 0. -1.
       -5    1    3    3    0  502 -0.17207061208E+03  0.22161426368E+03 -0.65968268609E+02  0.28826217211E+03  0.46999998093E+01 0.  1.
</event>
<event>
 5   0  0.8817544E-02  0.6116798E+03  0.7818609E-02  0.9881466E-01
       -2   -1    0    0    0  501  0.00000000000E+00  0.00000000000E+00  0.90232558777E+02  0.90232558813E+02  0.25500000920E-02 0. -1.
        2   -1    0    0  501    0  0.00000000000E+00  0.00000000000E+00 -0.10366328556E+04  0.10366328556E+04  0.25500000920E-02 0.  1.
    10030    2    1    2    0    0  0.00000000000E+00  0.00000000000E+00 -0.94640029685E+03  0.11268654144E+04  0.61167976948E+03 0.  0.
        5    1    3    3  502    0  0.16454641002E+03  0.30222962684E+02 -0.16172318479E+01  0.16737279934E+03  0.46999998093E+01 0. -1.
       -5    1    3    3    0  502 -0.16454641002E+03 -0.30222962684E+02 -0.94478306500E+03  0.95949261510E+03  0.46999998093E+01 0.  1.
</event>
<event>
 5   0  0.8817544E-02  0.5925637E+03  0.7818609E-02  0.9920955E-01
        2   -1    0    0  501    0  0.00000000000E+00  0.00000000000E+00  0.22651759718E+04  0.22651759718E+04  0.25500000920E-02 0. -1.
       -2   -1    0    0    0  501  0.00000000000E+00  0.00000000000E+00 -0.38753245461E+02  0.38753245545E+02  0.25500000920E-02 0.  1.
    10030    2    1    2    0    0  0.00000000000E+00  0.00000000000E+00  0.22264227264E+04  0.23039292174E+04  0.59256365244E+03 0.  0.
        5    1    3    3  502    0 -0.25655791119E+03  0.13777337831E+03  0.13246510891E+04  0.13562912900E+04  0.46999998093E+01 0. -1.
       -5    1    3    3    0  502  0.25655791119E+03 -0.13777337831E+03  0.90177163732E+03  0.94763792739E+03  0.46999998093E+01 0.  1.
</event>
<event>
 5   0  0.3437375E-02  0.6080851E+03  0.7818609E-02  0.9888772E-01
        3   -1    0    0  501    0  0.00000000000E+00  0.00000000000E+00  0.91612795292E+02  0.91612850966E+02  0.10100000352E+00 0. -1.
       -3   -1    0    0    0  501  0.00000000000E+00  0.00000000000E+00 -0.10090495724E+04  0.10090495775E+04  0.10100000352E+00 0.  1.
    10030    2    1    2    0    0  0.00000000000E+00  0.00000000000E+00 -0.91743677715E+03  0.11006624285E+04  0.60808514319E+03 0.  0.
        3    1    3    3  502    0 -0.94808588038E+02  0.14536179978E+03 -0.91058937867E+03  0.92697990698E+03  0.10100000352E+00 0.  1.
       -3    1    3    3    0  502  0.94808588038E+02 -0.14536179978E+03 -0.68473984838E+01  0.17368252148E+03  0.10100000352E+00 0. -1.
</event>
<event>
 5   0  0.8420604E-02  0.5895200E+03  0.7818609E-02  0.9927390E-01
       -2   -1    0    0    0  501  0.00000000000E+00  0.00000000000E+00  0.83782412862E+02  0.83782412901E+02  0.25500000920E-02 0. -1.
        2   -1    0    0  501    0  0.00000000000E+00  0.00000000000E+00 -0.10370131158E+04  0.10370131158E+04  0.25500000920E-02 0.  1.
    10030    2    1    2    0    0  0.00000000000E+00  0.00000000000E+00 -0.95323070290E+03  0.11207955287E+04  0.58952001164E+03 0.  0.
        2    1    3    3  502    0  0.71700405617E+02  0.73094149555E+00  0.66948303823E+02  0.98099734109E+02  0.25500000920E-02 0. -1.
       -2    1    3    3    0  502 -0.71700405617E+02 -0.73094149555E+00 -0.10201790067E+04  0.10226957946E+04  0.25500000920E-02 0.  1.
</event>
<event>
 5   0  0.5125031E-02  0.5953703E+03  0.7818609E-02  0.9915058E-01
       -1   -1    0    0    0  501  0.00000000000E+00  0.00000000000E+00  0.73517485492E+02  0.73517485665E+02  0.50400001928E-02 0.  1.
        1   -1    0    0  501    0  0.00000000000E+00  0.00000000000E+00 -0.12053790995E+04  0.12053790996E+04  0.50400001928E-02 0. -1.
    10030    2    1    2    0    0  0.00000000000E+00  0.00000000000E+00 -0.11318616140E+04  0.12788965852E+04  0.59537027329E+03 0.  0.
        4    1    3    3  502    0 -0.18128614952E+02  0.16602128911E+03 -0.36602287968E+02  0.17097676890E+03  0.12699999809E+01 0.  1.
       -4    1    3    3    0  502  0.18128614952E+02 -0.16602128911E+03 -0.10952593261E+04  0.11079198163E+04  0.12699999809E+01 0. -1.
</event>
<event>
 5   0  0.8207443E-02  0.5833673E+03  0.7818609E-02  0.9940527E-01
        2   -1    0    0  501    0  0.00000000000E+00  0.00000000000E+00  0.37836877111E+03  0.37836877112E+03  0.25500000920E-02 0.  1.
       -2   -1    0    0    0  501  0.00000000000E+00  0.00000000000E+00 -0.22485829721E+03  0.22485829722E+03  0.25500000920E-02 0. -1.
    10030    2    1    2    0    0  0.00000000000E+00  0.00000000000E+00  0.15351047390E+03  0.60322706834E+03  0.58336732029E+03 0.  0.
        1    1    3    3  502    0  0.28757926805E+03  0.45326255039E+02  0.95340788552E+02  0.30634322384E+03  0.50400001928E-02 0.  1.
       -1    1    3    3    0  502 -0.28757926805E+03 -0.45326255039E+02  0.58169685348E+02  0.29688384450E+03  0.50400001928E-02 0. -1.
</event>
<event>
 5   0  0.8817544E-02  0.6126850E+03  0.7818609E-02  0.9879433E-01
        2   -1    0    0  501    0  0.00000000000E+00  0.00000000000E+00  0.48405000040E+03  0.48405000041E+03  0.25500000920E-02 0. -1.
       -2   -1    0    0    0  501  0.00000000000E+00  0.00000000000E+00 -0.19387608813E+03  0.19387608815E+03  0.25500000920E-02 0.  1.
    10030    2    1    2    0    0  0.00000000000E+00  0.00000000000E+00  0.29017391227E+03  0.67792608856E+03  0.61268497794E+03 0.  0.
        5    1    3    3  502    0 -0.20194633775E+03 -0.80793980006E+02  0.38372258126E+03  0.44110667633E+03  0.46999998093E+01 0. -1.
       -5    1    3    3    0  502  0.20194633775E+03  0.80793980006E+02 -0.93548668995E+02  0.23681941222E+03  0.46999998093E+01 0.  1.
</event>
<event>
 5   0  0.8575590E-02  0.6077619E+03  0.7818609E-02  0.9889432E-01
        2   -1    0    0  501    0  0.00000000000E+00  0.00000000000E+00  0.74820822131E+03  0.74820822132E+03  0.25500000920E-02 0. -1.
       -2   -1    0    0    0  501  0.00000000000E+00  0.00000000000E+00 -0.12341971091E+03  0.12341971093E+03  0.25500000920E-02 0.  1.
    10030    2    1    2    0    0  0.00000000000E+00  0.00000000000E+00  0.62478851040E+03  0.87162793225E+03  0.60776193493E+03 0.  0.
        4    1    3    3  502    0 -0.30597986858E+02 -0.24271256596E+03  0.53861669841E+02  0.25049614539E+03  0.12699999809E+01 0.  1.
       -4    1    3    3    0  502  0.30597986858E+02  0.24271256596E+03  0.57092684056E+03  0.62113178686E+03  0.12699999809E+01 0. -1.
</event>
<event>
 5   0  0.8699746E-02  0.6045114E+03  0.7818609E-02  0.9896090E-01
       -2   -1    0    0    0  501  0.00000000000E+00  0.00000000000E+00  0.55085433874E+02  0.55085433933E+02  0.25500000920E-02 0. -1.
        2   -1    0    0  501    0  0.00000000000E+00  0.00000000000E+00 -0.16584878580E+04  0.16584878580E+04  0.25500000920E-02 0.  1.
    10030    2    1    2    0    0  0.00000000000E+00  0.00000000000E+00 -0.16034024241E+04  0.17135732919E+04  0.60451144996E+03 0.  0.
        3    1    3    3  502    0 -0.62876660015E+01  0.28231338871E+03 -0.49616249650E+03  0.57089194890E+03  0.10100000352E+00 0. -1.
       -3    1    3    3    0  502  0.62876660015E+01 -0.28231338871E+03 -0.11072399276E+04  0.11426813430E+04  0.10100000352E+00 0.  1.
</event>
<event>
 5   0  0.8817544E-02  0.6029572E+03  0.7818609E-02  0.9899290E-01
        2   -1    0    0  501    0  0.00000000000E+00  0.00000000000E+00  0.12773971736E+04  0.12773971736E+04  0.25500000920E-02 0. -1.
       -2   -1    0    0    0  501  0.00000000000E+00  0.00000000000E+00 -0.71151997230E+02  0.71151997276E+02  0.25500000920E-02 0.  1.
    10030    2    1    2    0    0  0.00000000000E+00  0.00000000000E+00  0.12062451764E+04  0.13485491709E+04  0.60295724621E+03 0.  0.
        5    1    3    3  502    0 -0.80590287688E+02 -0.26514471091E+03  0.33782151032E+03  0.43696907788E+03  0.46999998093E+01 0.  1.
       -5    1    3    3    0  502  0.80590287688E+02  0.26514471091E+03  0.86842366605E+03  0.91158009300E+03  0.46999998093E+01 0. -1.
</event>
<event>
 5   0  0.5125031E-02  0.5980108E+03  0.7818609E-02  0.9909542E-01
       -1   -1    0    0    0  501  0.00000000000E+00  0.00000000000E+00  0.11126779131E+03  0.11126779142E+03  0.50400001928E-02 0.  1.
        1   -1    0    0  501    0  0.00000000000E+00  0.00000000000E+00 -0.80350493338E+03  0.80350493339E+03  0.50400001928E-02 0. -1.
    10030    2    1    2    0    0  0.00000000000E+00  0.00000000000E+00 -0.69223714207E+03  0.91477272481E+03  0.59801076679E+03 0.  0.
        4    1    3    3  502    0  0.22746054141E+03 -0.71213474584E+02 -0.69955225077E+02  0.24840491798E+03  0.12699999809E+01 0.  1.
       -4    1    3    3    0  502 -0.22746054141E+03  0.71213474584E+02 -0.62228191699E+03  0.66636780683E+03  0.12699999809E+01 0. -1.
</event>
<event>
 5   0  0.4881209E-02  0.5945595E+03  0.7818609E-02  0.9916758E-01
       -1   -1    0    0    0  501  0.00000000000E+00  0.00000000000E+00  0.13845533042E+03  0.13845533051E+03  0.50400001928E-02 0. -1.
        1   -1    0    0  501    0  0.00000000000E+00  0.00000000000E+00 -0.63829439246E+03  0.63829439248E+03  0.50400001928E-02 0.  1.
    10030    2    1    2    0    0  0.00000000000E+00  0.00000000000E+00 -0.49983906204E+03  0.77674972299E+03  0.59455953800E+03 0.  0.
        3    1    3    3  502    0  0.13601439432E+03 -0.21251933759E+02  0.94303247227E+02  0.16686723102E+03  0.10100000352E+00 0. -1.
       -3    1    3    3    0  502 -0.13601439432E+03  0.21251933759E+02 -0.59414230927E+03  0.60988249197E+03  0.10100000352E+00 0.  1.
</event>
<event>
 5   0  0.5190380E-02  0.5836427E+03  0.7818609E-02  0.9939936E-01
       -1   -1    0    0    0  501  0.00000000000E+00  0.00000000000E+00  0.79601459973E+03  0.79601459975E+03  0.50400001928E-02 0.  1.
        1   -1    0    0  501    0  0.00000000000E+00  0.00000000000E+00 -0.10698257477E+03  0.10698257488E+03  0.50400001928E-02 0. -1.
    10030    2    1    2    0    0  0.00000000000E+00  0.00000000000E+00  0.68903202497E+03  0.90299717463E+03  0.58364266976E+03 0.  0.
        5    1    3    3  502    0  0.29000833543E+03  0.18763177147E+02  0.30414957346E+03  0.42069697464E+03  0.46999998093E+01 0. -1.
       -5    1    3    3    0  502 -0.29000833543E+03 -0.18763177147E+02  0.38488245151E+03  0.48230020000E+03  0.46999998093E+01 0.  1.
</event>
<event>
 5   0  0.8207443E-02  0.6101134E+03  0.7818609E-02  0.9884643E-01
        2   -1    0    0  501    0  0.00000000000E+00  0.00000000000E+00  0.22755456499E+03  0.22755456500E+03  0.25500000920E-02 0. -1.
       -2   -1    0    0    0  501  0.00000000000E+00  0.00000000000E+00 -0.40895504372E+03  0.40895504373E+03  0.25500000920E-02 0.  1.
    10030    2    1    2    0    0  0.00000000000E+00  0.00000000000E+00 -0.18140047873E+03  0.63650960873E+03  0.61011338972E+03 0.  0.
        1    1    3    3  502    0  0.25341611435E+03  0.65950205408E+02  0.72564581862E+02  0.27172555119E+03  0.50400001928E-02 0. -1.
       -1    1    3    3    0  502 -0.25341611435E+03 -0.65950205408E+02 -0.25396506059E+03  0.36478405754E+03  0.50400001928E-02 0.  1.
</event>
<event>
 5   0  0.8817544E-02  0.5978993E+03  0.7818609E-02  0.9909774E-01
        2   -1    0    0  501    0  0.00000000000E+00  0.00000000000E+00  0.14575956722E+04  0.14575956722E+04  0.25500000920E-02 0. -1.
       -2   -1    0    0    0  501  0.00000000000E+00  0.00000000000E+00 -0.61313915010E+02  0.61313915063E+02  0.25500000920E-02 0.  1.
    10030    2    1    2    0    0  0.00000000000E+00  0.00000000000E+00  0.13962817572E+04  0.15189095872E+04  0.59789931328E+03 0.  0.
        5    1    3    3  502    0 -0.26512283467E+03 -0.24620963387E+02  0.35305161233E+03  0.44222600587E+03  0.46999998093E+01 0.  1.
       -5    1    3    3    0  502  0.26512283467E+03  0.24620963387E+02  0.10432301448E+04  0.10766835814E+04  0.46999998093E+01 0. -1.
</event>
<event>
 5   0  0.5190380E-02  0.6020752E+03  0.7818609E-02  0.9901110E-01
       -1   -1    0    0    0  501  0.00000000000E+00  0.00000000000E+00  0.12814424075E+03  0.12814424085E+03  0.50400001928E-02 0.  1.
        1   -1    0    0  501    0  0.00000000000E+00  0.00000000000E+00 -0.70720019356E+03  0.70720019358E+03  0.50400001928E-02 0. -1.
    10030    2    1    2    0    0  0.00000000000E+00  0.00000000000E+00 -0.57905595282E+03  0.83534443443E+03  0.60207518437E+03 0.  0.
        5    1    3    3  502    0  0.11937561054E+03  0.10206993994E+03  0.66730654664E+02  0.17071578516E+03  0.46999998093E+01 0.  1.
       -5    1    3    3    0  502 -0.11937561054E+03 -0.10206993994E+03 -0.64578660748E+03  0.66462864927E+03  0.46999998093E+01 0. -1.
</event>
<event>
 5   0  0.4987389E-02  0.6265208E+03  0.7818609E-02  0.9851862E-01
       -1   -1    0    0    0  501  0.00000000000E+00  0.00000000000E+00  0.75338720642E+03  0.75338720643E+03  0.50400001928E-02 0. -1.
        1   -1    0    0  501    0  0.00000000000E+00  0.00000000000E+00 -0.13025449861E+03  0.13025449871E+03  0.50400001928E-02 0.  1.
    10030    2    1    2    0    0  0.00000000000E+00  0.00000000000E+00  0.62313270780E+03  0.88364170514E+03  0.62652078300E+03 0.  0.
        1    1    3    3  502    0  0.32115703381E+02  0.20021579102E+03  0.64833572730E+03  0.67930626134E+03  0.50400001928E-02 0. -1.
       -1    1    3    3    0  502 -0.32115703381E+02 -0.20021579102E+03 -0.25203019499E+02  0.20433544380E+03  0.50400001928E-02 0.  1.
</event>
<event>
 5   0  0.3437375E-02  0.6089389E+03  0.7818609E-02  0.9887032E-01
       -3   -1    0    0    0  501  0.00000000000E+00  0.00000000000E+00  0.11046140505E+03  0.11046145123E+03  0.10100000352E+00 0. -1.
        3   -1    0    0  501    0  0.00000000000E+00  0.00000000000E+00 -0.83922174143E+03  0.83922174750E+03  0.10100000352E+00 0.  1.
    10030    2    1    2    0    0  0.00000000000E+00  0.00000000000E+00 -0.72876033637E+03  0.94968319873E+03  0.60893887220E+03 0.  0.
        3    1    3    3  502    0  0.36051628032E+02 -0.28555931428E+03 -0.20953604136E+03  0.35601854542E+03  0.10100000352E+00 0. -1.
       -3    1    3    3    0  502 -0.36051628032E+02  0.28555931428E+03 -0.51922429501E+03  0.59366465331E+03  0.10100000352E+00 0.  1.
</event>
<event>
 5   0  0.8575590E-02  0.6027168E+03  0.7818609E-02  0.9899786E-01
       -2   -1    0    0    0  501  0.00000000000E+00  0.00000000000E+00  0.37412356502E+03  0.37412356503E+03  0.25500000920E-02 0. -1.
        2   -1    0    0  501    0  0.00000000000E+00  0.00000000000E+00 -0.24274568207E+03  0.24274568208E+03  0.25500000920E-02 0.  1.
    10030    2    1    2    0    0  0.00000000000E+00  0.00000000000E+00  0.13137788295E+03  0.61686924711E+03  0.60271678250E+03 0.  0.
        4    1    3    3  502    0 -0.88249560447E+02  0.13058693483E+02  0.36029643526E+03  0.37117872859E+03  0.12699999809E+01 0. -1.
       -4    1    3    3    0  502  0.88249560447E+02 -0.13058693483E+02 -0.22891855232E+03  0.24569051852E+03  0.12699999809E+01 0.  1.
</event>
<event>
 5   0  0.5125031E-02  0.5961560E+03  0.7818609E-02  0.9913413E-01
       -1   -1    0    0    0  501  0.00000000000E+00  0.00000000000E+00  0.10281846952E+03  0.10281846965E+03  0.50400001928E-02 0. -1.
        1   -1    0    0  501    0  0.00000000000E+00  0.00000000000E+00 -0.86414929931E+03  0.86414929933E+03  0.50400001928E-02 0.  1.
    10030    2    1    2    0    0  0.00000000000E+00  0.00000000000E+00 -0.76133082979E+03  0.96696776897E+03  0.59615604824E+03 0.  0.
        4    1    3    3  502    0  0.44611080605E+02  0.16113605116E+03 -0.78092248352E+03  0.79862163361E+03  0.12699999809E+01 0.  1.
       -4    1    3    3    0  502 -0.44611080605E+02 -0.16113605116E+03  0.19591653735E+02  0.16834613537E+03  0.12699999809E+01 0. -1.
</event>
<event>
 5   0  0.8575590E-02  0.5998023E+03  0.7818609E-02  0.9905816E-01
        2   -1    0    0  501    0  0.00000000000E+00  0.00000000000E+00  0.43764666104E+03  0.43764666105E+03  0.25500000920E-02 0. -1.
       -2   -1    0    0    0  501  0.00000000000E+00  0.00000000000E+00 -0.20550985995E+03  0.20550985996E+03  0.25500000920E-02 0.  1.
    10030    2    1    2    0    0  0.00000000000E+00  0.00000000000E+00  0.23213680110E+03  0.64315652101E+03  0.59980231418E+03 0.  0.
        4    1    3    3  502    0  0.24804581519E+03 -0.16801602266E+03  0.10156361444E+03  0.31634299578E+03  0.12699999809E+01 0.  1.
       -4    1    3    3    0  502 -0.24804581519E+03  0.16801602266E+03  0.13057318666E+03  0.32681352523E+03  0.12699999809E+01 0. -1.
</event>
<event>
 5   0  0.8207443E-02  0.6027772E+03  0.7818609E-02  0.9899661E-01
       -2   -1    0    0    0  501  0.00000000000E+00  0.00000000000E+00  0.16955247519E+03  0.16955247521E+03  0.25500000920E-02 0. -1.
        2   -1    0    0  501    0  0.00000000000E+00  0.00000000000E+00 -0.53573445155E+03  0.53573445156E+03  0.25500000920E-02 0.  1.
    10030    2    1    2    0    0  0.00000000000E+00  0.00000000000E+00 -0.36618197636E+03  0.70528692677E+03  0.60277724680E+03 0.  0.
        1    1    3    3  502    0 -0.45352243022E+02 -0.15693474726E+02  0.16505315975E+03  0.17188850068E+03  0.50400001928E-02 0. -1.
       -1    1    3    3    0  502  0.45352243022E+02  0.15693474726E+02 -0.53123513611E+03  0.53339842609E+03  0.50400001928E-02 0.  1.
</event>
<event>
 5   0  0.3437375E-02  0.5800359E+03  0.7818609E-02  0.9947713E-01
       -4   -1    0    0    0  501  0.00000000000E+00  0.00000000000E+00  0.67109539654E+03  0.67109659823E+03  0.12699999809E+01 0.  1.
        4   -1    0    0  501    0  0.00000000000E+00  0.00000000000E+00 -0.12532848845E+03  0.12533492297E+03  0.12699999809E+01 0. -1.
    10030    2    1    2    0    0  0.00000000000E+00  0.00000000000E+00  0.54576690809E+03  0.79643152120E+03  0.58003590406E+03 0.  0.
        2    1    3    3  502    0 -0.14409609259E+03  0.76283008955E+02 -0.56446936119E+02  0.17253706256E+03  0.25500000920E-02 0. -1.
       -2    1    3    3    0  502  0.14409609259E+03 -0.76283008955E+02  0.60221384421E+03  0.62389445864E+03  0.25500000920E-02 0.  1.
</event>
<event>
 5   0  0.4987389E-02  0.5958510E+03  0.7818609E-02  0.9914052E-01
       -1   -1    0    0    0  501  0.00000000000E+00  0.00000000000E+00  0.56120543291E+03  0.56120543293E+03  0.50400001928E-02 0. -1.
        1   -1    0    0  501    0  0.00000000000E+00  0.00000000000E+00 -0.15815882377E+03  0.15815882385E+03  0.50400001928E-02 0.  1.
    10030    2    1    2    0    0  0.00000000000E+00  0.00000000000E+00  0.40304660914E+03  0.71936425678E+03  0.59585095854E+03 0.  0.
        1    1    3    3  502    0 -0.19631984945E+03  0.92849470715E+02  0.44775426252E+03  0.49764082140E+03  0.50400001928E-02 0. -1.
       -1    1    3    3    0  502  0.19631984945E+03 -0.92849470715E+02 -0.44707653375E+02  0.22172343538E+03  0.50400001928E-02 0.  1.
</event>
<event>
 5   0  0.5190380E-02  0.5993792E+03  0.7818609E-02  0.9906695E-01
       -1   -1    0    0    0  501  0.00000000000E+00  0.00000000000E+00  0.60239787924E+02  0.60239788135E+02  0.50400001928E-02 0.  1.
        1   -1    0    0  501    0  0.00000000000E+00  0.00000000000E+00 -0.14909392315E+04  0.14909392315E+04  0.50400001928E-02 0. -1.
    10030    2    1    2    0    0  0.00000000000E+00  0.00000000000E+00 -0.14306994435E+04  0.15511790196E+04  0.59937922313E+03 0.  0.
        5    1    3    3  502    0  0.22701501870E+03 -0.15873818776E+03 -0.10110835031E+04  0.10483537433E+04  0.46999998093E+01 0. -1.
       -5    1    3    3    0  502 -0.22701501870E+03  0.15873818776E+03 -0.41961594045E+03  0.50282527626E+03  0.46999998093E+01 0.  1.
</event>
<event>
 5   0  0.8575590E-02  0.6057530E+03  0.7818609E-02  0.9893542E-01
       -2   -1    0    0    0  501  0.00000000000E+00  0.00000000000E+00  0.29511491320E+03  0.29511491321E+03  0.25500000920E-02 0.  1.
        2   -1    0    0  501    0  0.00000000000E+00  0.00000000000E+00 -0.31084220740E+03  0.31084220741E+03  0.25500000920E-02 0. -1.
    10030    2    1    2    0    0  0.00000000000E+00  0.00000000000E+00 -0.15727294197E+02  0.60595712062E+03  0.60575298946E+03 0.  0.
        4    1    3    3  502    0  0.83712783521E+02  0.21100762869E+01 -0.29902920923E+03  0.31053560733E+03  0.12699999809E+01 0. -1.
       -4    1    3    3    0  502 -0.83712783521E+02 -0.21100762869E+01  0.28330191504E+03  0.29542151328E+03  0.12699999809E+01 0.  1.
</event>
<event>
 5   0  0.3437375E-02  0.6048381E+03  0.7818609E-02  0.9895419E-01
        3   -1    0    0  501    0  0.00000000000E+00  0.00000000000E+00  0.68815065358E+03  0.68815066099E+03  0.10100000352E+00 0.  1.
       -3   -1    0    0    0  501  0.00000000000E+00  0.00000000000E+00 -0.13290296317E+03  0.13290300155E+03  0.10100000352E+00 0. -1.
    10030    2    1    2    0    0  0.00000000000E+00  0.00000000000E+00  0.55524769041E+03  0.82105366254E+03  0.60483809327E+03 0.  0.
        4    1    3    3  502    0  0.24907652504E+03 -0.12756511716E+03  0.12199463952E+03  0.30528065680E+03  0.12699999809E+01 0. -1.
       -4    1    3    3    0  502 -0.24907652504E+03  0.12756511716E+03  0.43325305089E+03  0.51577300574E+03  0.12699999809E+01 0.  1.
</event>
<event>
 5   0  0.5125031E-02  0.5959104E+03  0.7818609E-02  0.9913927E-01
        1   -1    0    0  501    0  0.00000000000E+00  0.00000000000E+00  0.14252499450E+03  0.14252499459E+03  0.50400001928E-02 0.  1.
       -1   -1    0    0    0  501  0.00000000000E+00  0.00000000000E+00 -0.62288927479E+03  0.62288927481E+03  0.50400001928E-02 0. -1.
    10030    2    1    2    0    0  0.00000000000E+00  0.00000000000E+00 -0.48036428029E+03  0.76541426939E+03  0.59591036408E+03 0.  0.
        4    1    3    3  502    0 -0.10853283544E+03 -0.19995614659E+03 -0.48729633398E+03  0.53779286620E+03  0.12699999809E+01 0. -1.
       -4    1    3    3    0  502  0.10853283544E+03  0.19995614659E+03  0.69320536885E+01  0.22762140320E+03  0.12699999809E+01 0.  1.
</event>
<event>
 5   0  0.8575590E-02  0.5986560E+03  0.7818609E-02  0.9908198E-01
       -2   -1    0    0    0  501  0.00000000000E+00  0.00000000000E+00  0.18102656256E+03  0.18102656258E+03  0.25500000920E-02 0.  1.
        2   -1    0    0  501    0  0.00000000000E+00  0.00000000000E+00 -0.49493987116E+03  0.49493987117E+03  0.25500000920E-02 0. -1.
    10030    2    1    2    0    0  0.00000000000E+00  0.00000000000E+00 -0.31391330860E+03  0.67596643374E+03  0.59865604000E+03 0.  0.
        4    1    3    3  502    0 -0.53016392383E+02 -0.79126904483E+02  0.16345626325E+03  0.18918606653E+03  0.12699999809E+01 0.  1.
       -4    1    3    3    0  502  0.53016392383E+02  0.79126904483E+02 -0.47736957185E+03  0.48678036721E+03  0.12699999809E+01 0. -1.
</event>
<event>
 5   0  0.3437375E-02  0.6016366E+03  0.7818609E-02  0.9902016E-01
        4   -1    0    0  501    0  0.00000000000E+00  0.00000000000E+00  0.18494695510E+03  0.18495131549E+03  0.12699999809E+01 0.  1.
       -4   -1    0    0    0  501  0.00000000000E+00  0.00000000000E+00 -0.48927341572E+03  0.48927506398E+03  0.12699999809E+01 0. -1.
    10030    2    1    2    0    0  0.00000000000E+00  0.00000000000E+00 -0.30432646062E+03  0.67422637947E+03  0.60163661470E+03 0.  0.
        3    1    3    3  502    0 -0.10666574001E+03  0.25018485137E+03 -0.29620803013E+03  0.40213088325E+03  0.10100000352E+00 0.  1.
       -3    1    3    3    0  502  0.10666574001E+03 -0.25018485137E+03 -0.81184304839E+01  0.27209549622E+03  0.10100000352E+00 0. -1.
</event>
<event>
 5   0  0.8207443E-02  0.6345838E+03  0.7818609E-02  0.9836144E-01
       -2   -1    0    0    0  501  0.00000000000E+00  0.00000000000E+00  0.72443924890E+02  0.72443924935E+02  0.25500000920E-02 0.  1.
        2   -1    0    0  501    0  0.00000000000E+00  0.00000000000E+00 -0.13896838656E+04  0.13896838656E+04  0.25500000920E-02 0. -1.
    10030    2    1    2    0    0  0.00000000000E+00  0.00000000000E+00 -0.13172399407E+04  0.14621277905E+04  0.63458381200E+03 0.  0.
        1    1    3    3  502    0 -0.80345007241E+02 -0.58724483186E+02 -0.13527936654E+04  0.13564492568E+04  0.50400001928E-02 0. -1.
       -1    1    3    3    0  502  0.80345007241E+02  0.58724483186E+02  0.35553724736E+02  0.10567853369E+03  0.50400001928E-02 0.  1.
</event>
<event>
 5   0  0.4987389E-02  0.5983304E+03  0.7818609E-02  0.9908876E-01
       -1   -1    0    0    0  501  0.00000000000E+00  0.00000000000E+00  0.10089655670E+04  0.10089655670E+04  0.50400001928E-02 0. -1.
        1   -1    0    0  501    0  0.00000000000E+00  0.00000000000E+00 -0.88704526013E+02  0.88704526157E+02  0.50400001928E-02 0.  1.
    10030    2    1    2    0    0  0.00000000000E+00  0.00000000000E+00  0.92026104096E+03  0.10976700931E+04  0.59833038521E+03 0.  0.
        1    1    3    3  502    0  0.28421596823E+02  0.17961690901E+03  0.89592828215E+03  0.91419774007E+03  0.50400001928E-02 0. -1.
       -1    1    3    3    0  502 -0.28421596823E+02 -0.17961690901E+03  0.24332758813E+02  0.18347235308E+03  0.50400001928E-02 0.  1.
</event>
<event>
 5   0  0.5125031E-02  0.6110831E+03  0.7818609E-02  0.9882675E-01
        1   -1    0    0  501    0  0.00000000000E+00  0.00000000000E+00  0.47649590749E+03  0.47649590751E+03  0.50400001928E-02 0. -1.
       -1   -1    0    0    0  501  0.00000000000E+00  0.00000000000E+00 -0.19592115475E+03  0.19592115481E+03  0.50400001928E-02 0.  1.
    10030    2    1    2    0    0  0.00000000000E+00  0.00000000000E+00  0.28057475274E+03  0.67241706232E+03  0.61108306623E+03 0.  0.
        4    1    3    3  502    0 -0.25735618319E+03  0.85590163301E+02  0.29510795047E+03  0.40080942654E+03  0.12699999809E+01 0.  1.
       -4    1    3    3    0  502  0.25735618319E+03 -0.85590163301E+02 -0.14533197729E+02  0.27160763578E+03  0.12699999809E+01 0. -1.
</event>
<event>
 5   0  0.4987389E-02  0.6188633E+03  0.7818609E-02  0.9867026E-01
       -1   -1    0    0    0  501  0.00000000000E+00  0.00000000000E+00  0.69568900907E+03  0.69568900909E+03  0.50400001928E-02 0.  1.
        1   -1    0    0  501    0  0.00000000000E+00  0.00000000000E+00 -0.13763036562E+03  0.13763036572E+03  0.50400001928E-02 0. -1.
    10030    2    1    2    0    0  0.00000000000E+00  0.00000000000E+00  0.55805864344E+03  0.83331937480E+03  0.61886325703E+03 0.  0.
        1    1    3    3  502    0 -0.10667767653E+03  0.12672596368E+03 -0.72898526567E+02  0.18098008659E+03  0.50400001928E-02 0. -1.
       -1    1    3    3    0  502  0.10667767653E+03 -0.12672596368E+03  0.63095717001E+03  0.65233928822E+03  0.50400001928E-02 0.  1.
</event>
<event>
 5   0  0.8699746E-02  0.5977685E+03  0.7818609E-02  0.9910047E-01
       -2   -1    0    0    0  501  0.00000000000E+00  0.00000000000E+00  0.17336401511E+03  0.17336401513E+03  0.25500000920E-02 0.  1.
        2   -1    0    0  501    0  0.00000000000E+00  0.00000000000E+00 -0.51528452107E+03  0.51528452108E+03  0.25500000920E-02 0. -1.
    10030    2    1    2    0    0  0.00000000000E+00  0.00000000000E+00 -0.34192050596E+03  0.68864853620E+03  0.59776849534E+03 0.  0.
        3    1    3    3  502    0  0.15574939882E+03  0.13184803022E+03 -0.42254151440E+03  0.46923674184E+03  0.10100000352E+00 0. -1.
       -3    1    3    3    0  502 -0.15574939882E+03 -0.13184803022E+03  0.80621008437E+02  0.21941179436E+03  0.10100000352E+00 0.  1.
</event>
<event>
 5   0  0.8420604E-02  0.5922638E+03  0.7818609E-02  0.9921587E-01
        2   -1    0    0  501    0  0.00000000000E+00  0.00000000000E+00  0.24549698338E+04  0.24549698338E+04  0.25500000920E-02 0.  1.
       -2   -1    0    0    0  501  0.00000000000E+00  0.00000000000E+00 -0.35721053428E+02  0.35721053519E+02  0.25500000920E-02 0. -1.
    10030    2    1    2    0    0  0.00000000000E+00  0.00000000000E+00  0.24192487804E+04  0.24906908873E+04  0.59226382200E+03 0.  0.
        2    1    3    3  502    0 -0.35722424752E+02 -0.20295575007E+03  0.31528280673E+03  0.37665684162E+03  0.25500000920E-02 0. -1.
       -2    1    3    3    0  502  0.35722424752E+02  0.20295575007E+03  0.21039659737E+04  0.21140340457E+04  0.25500000920E-02 0.  1.
</event>
<event>
 5   0  0.5166903E-02  0.5950610E+03  0.7818609E-02  0.9915706E-01
        1   -1    0    0  501    0  0.00000000000E+00  0.00000000000E+00  0.29555393233E+03  0.29555393237E+03  0.50400001928E-02 0. -1.
       -1   -1    0    0    0  501  0.00000000000E+00  0.00000000000E+00 -0.29952027238E+03  0.29952027242E+03  0.50400001928E-02 0.  1.
    10030    2    1    2    0    0  0.00000000000E+00  0.00000000000E+00 -0.39663400473E+01  0.59507420479E+03  0.59506098625E+03 0.  0.
        2    1    3    3  502    0 -0.25731875982E+03 -0.10293118043E+03  0.10626258194E+03  0.29681561345E+03  0.25500000920E-02 0.  1.
       -2    1    3    3    0  502  0.25731875982E+03  0.10293118043E+03 -0.11022892199E+03  0.29825859134E+03  0.25500000920E-02 0. -1.
</event>
<event>
 5   0  0.8207443E-02  0.5856173E+03  0.7818609E-02  0.9935703E-01
       -2   -1    0    0    0  501  0.00000000000E+00  0.00000000000E+00  0.29129522385E+03  0.29129522386E+03  0.25500000920E-02 0.  1.
        2   -1    0    0  501    0  0.00000000000E+00  0.00000000000E+00 -0.29432995815E+03  0.29432995817E+03  0.25500000920E-02 0. -1.
    10030    2    1    2    0    0  0.00000000000E+00  0.00000000000E+00 -0.30347343050E+01  0.58562518203E+03  0.58561731891E+03 0.  0.
        1    1    3    3  502    0 -0.21972981622E+03  0.60420343395E+02  0.18234673702E+03  0.29185979950E+03  0.50400001928E-02 0.  1.
       -1    1    3    3    0  502  0.21972981622E+03 -0.60420343395E+02 -0.18538147133E+03  0.29376538253E+03  0.50400001928E-02 0. -1.
</event>
<event>
 5   0  0.8817544E-02  0.6008302E+03  0.7818609E-02  0.9903685E-01
        2   -1    0    0  501    0  0.00000000000E+00  0.00000000000E+00  0.94953373398E+03  0.94953373399E+03  0.25500000920E-02 0. -1.
       -2   -1    0    0    0  501  0.00000000000E+00  0.00000000000E+00 -0.95045850864E+02  0.95045850898E+02  0.25500000920E-02 0.  1.
    10030    2    1    2    0    0  0.00000000000E+00  0.00000000000E+00  0.85448788312E+03  0.10445795849E+04  0.60083023123E+03 0.  0.
        5    1    3    3  502    0 -0.11619804220E+03  0.27685760539E+03  0.44230362908E+03  0.53460893088E+03  0.46999998093E+01 0.  1.
       -5    1    3    3    0  502  0.11619804220E+03 -0.27685760539E+03  0.41218425404E+03  0.50997065401E+03  0.46999998093E+01 0. -1.
</event>
<event>
 5   0  0.5125031E-02  0.6081207E+03  0.7818609E-02  0.9888700E-01
       -1   -1    0    0    0  501  0.00000000000E+00  0.00000000000E+00  0.12010745504E+03  0.12010745514E+03  0.50400001928E-02 0.  1.
        1   -1    0    0  501    0  0.00000000000E+00  0.00000000000E+00 -0.76974994301E+03  0.76974994303E+03  0.50400001928E-02 0. -1.
    10030    2    1    2    0    0  0.00000000000E+00  0.00000000000E+00 -0.64964248797E+03  0.88985739817E+03  0.60812073381E+03 0.  0.
        4    1    3    3  502    0 -0.10343387367E+03 -0.28261470528E+03 -0.26134990894E+03  0.39859130154E+03  0.12699999809E+01 0.  1.
       -4    1    3    3    0  502  0.10343387367E+03  0.28261470528E+03 -0.38829257904E+03  0.49126609663E+03  0.12699999809E+01 0. -1.
</event>
<event>
 5   0  0.8207443E-02  0.5730433E+03  0.7818609E-02  0.9962967E-01
       -2   -1    0    0    0  501  0.00000000000E+00  0.00000000000E+00  0.46524884897E+02  0.46524884967E+02  0.25500000920E-02 0.  1.
        2   -1    0    0  501    0  0.00000000000E+00  0.00000000000E+00 -0.17645321129E+04  0.17645321129E+04  0.25500000920E-02 0. -1.
    10030    2    1    2    0    0  0.00000000000E+00  0.00000000000E+00 -0.17180072280E+04  0.18110569978E+04  0.57304329160E+03 0.  0.
        1    1    3    3  502    0  0.16957672053E+02  0.21345520194E+03 -0.25732780198E+03  0.33476601317E+03  0.50400001928E-02 0.  1.
       -1    1    3    3    0  502 -0.16957672053E+02 -0.21345520194E+03 -0.14606794260E+04  0.14762909847E+04  0.50400001928E-02 0. -1.
</event>
<event>
 5   0  0.4987389E-02  0.6035429E+03  0.7818609E-02  0.9898083E-01
       -1   -1    0    0    0  501  0.00000000000E+00  0.00000000000E+00  0.85637381141E+02  0.85637381289E+02  0.50400001928E-02 0.  1.
        1   -1    0    0  501    0  0.00000000000E+00  0.00000000000E+00 -0.10633908089E+04  0.10633908089E+04  0.50400001928E-02 0. -1.
    10030    2    1    2    0    0  0.00000000000E+00  0.00000000000E+00 -0.97775342780E+03  0.11490281902E+04  0.60354288695E+03 0.  0.
        1    1    3    3  502    0  0.25857124373E+03 -0.13800463708E+03 -0.35209871648E+03  0.45812429984E+03  0.50400001928E-02 0.  1.
       -1    1    3    3    0  502 -0.25857124373E+03  0.13800463708E+03 -0.62565471132E+03  0.69090389039E+03  0.50400001928E-02 0. -1.
</event>
<event>
 5   0  0.8207443E-02  0.6009612E+03  0.7818609E-02  0.9903414E-01
       -2   -1    0    0    0  501  0.00000000000E+00  0.00000000000E+00  0.69255451374E+02  0.69255451421E+02  0.25500000920E-02 0.  1.
        2   -1    0    0  501    0  0.00000000000E+00  0.00000000000E+00 -0.13037035862E+04  0.13037035862E+04  0.25500000920E-02 0. -1.
    10030    2    1    2    0    0  0.00000000000E+00  0.00000000000E+00 -0.12344481348E+04  0.13729590376E+04  0.60096116465E+03 0.  0.
        1    1    3    3  502    0 -0.16917072450E+02  0.16352156871E+03 -0.11918515209E+04  0.12031357109E+04  0.50400001928E-02 0. -1.
       -1    1    3    3    0  502  0.16917072450E+02 -0.16352156871E+03 -0.42596613896E+02  0.16982332676E+03  0.50400001928E-02 0.  1.
</event>
<event>
 5   0  0.3437375E-02  0.6192676E+03  0.7818609E-02  0.9866219E-01
        3   -1    0    0  501    0  0.00000000000E+00  0.00000000000E+00  0.55223320386E+03  0.55223321310E+03  0.10100000352E+00 0.  1.
       -3   -1    0    0    0  501  0.00000000000E+00  0.00000000000E+00 -0.17360977792E+03  0.17360980730E+03  0.10100000352E+00 0. -1.
    10030    2    1    2    0    0  0.00000000000E+00  0.00000000000E+00  0.37862342594E+03  0.72584302040E+03  0.61926762518E+03 0.  0.
        5    1    3    3  502    0  0.13209988243E+03 -0.13218480288E+02  0.51713486017E+03  0.53392477070E+03  0.46999998093E+01 0.  1.
       -5    1    3    3    0  502 -0.13209988243E+03  0.13218480288E+02 -0.13851143423E+03  0.19191824971E+03  0.46999998093E+01 0. -1.
</event>
<event>
 5   0  0.5166903E-02  0.6086998E+03  0.7818609E-02  0.9887519E-01
        1   -1    0    0  501    0  0.00000000000E+00  0.00000000000E+00  0.17964073579E+03  0.17964073587E+03  0.50400001928E-02 0.  1.
       -1   -1    0    0    0  501  0.00000000000E+00  0.00000000000E+00 -0.51563401607E+03  0.51563401609E+03  0.50400001928E-02 0. -1.
    10030    2    1    2    0    0  0.00000000000E+00  0.00000000000E+00 -0.33599328027E+03  0.69527475196E+03  0.60869984091E+03 0.  0.
        2    1    3    3  502    0 -0.62982856924E+02  0.20228518756E+03 -0.41757499952E+03  0.46824674863E+03  0.25500000920E-02 0. -1.
       -2    1    3    3    0  502  0.62982856924E+02 -0.20228518756E+03  0.81581719243E+02  0.22702800333E+03  0.25500000920E-02 0.  1.
</event>
<event>
 5   0  0.8420604E-02  0.5992697E+03  0.7818609E-02  0.9906922E-01
        2   -1    0    0  501    0  0.00000000000E+00  0.00000000000E+00  0.19258229137E+03  0.19258229139E+03  0.25500000920E-02 0.  1.
       -2   -1    0    0    0  501  0.00000000000E+00  0.00000000000E+00 -0.46619579629E+03  0.46619579629E+03  0.25500000920E-02 0. -1.
    10030    2    1    2    0    0  0.00000000000E+00  0.00000000000E+00 -0.27361350491E+03  0.65877808768E+03  0.59926973788E+03 0.  0.
        2    1    3    3  502    0  0.17621345512E+03  0.21619646466E+02 -0.40215194351E+03  0.43959615166E+03  0.25500000920E-02 0.  1.
       -2    1    3    3    0  502 -0.17621345512E+03 -0.21619646466E+02  0.12853843859E+03  0.21918193603E+03  0.25500000920E-02 0. -1.
</event>
<event>
 5   0  0.8420604E-02  0.5840519E+03  0.7818609E-02  0.9939057E-01
       -2   -1    0    0    0  501  0.00000000000E+00  0.00000000000E+00  0.13289261864E+03  0.13289261866E+03  0.25500000920E-02 0.  1.
        2   -1    0    0  501    0  0.00000000000E+00  0.00000000000E+00 -0.64171486281E+03  0.64171486281E+03  0.25500000920E-02 0. -1.
    10030    2    1    2    0    0  0.00000000000E+00  0.00000000000E+00 -0.50882224417E+03  0.77460748148E+03  0.58405194478E+03 0.  0.
        2    1    3    3  502    0  0.16770107256E+01  0.15687933203E+03 -0.58107426934E+03  0.60188141995E+03  0.25500000920E-02 0. -1.
       -2    1    3    3    0  502 -0.16770107256E+01 -0.15687933203E+03  0.72252025173E+02  0.17272606153E+03  0.25500000920E-02 0.  1.
</event>
<event>
 5   0  0.5125031E-02  0.5192474E+03  0.7818609E-02  0.1008874E+00
        1   -1    0    0  501    0  0.00000000000E+00  0.00000000000E+00  0.17593919224E+03  0.17593919231E+03  0.50400001928E-02 0.  1.
       -1   -1    0    0    0  501  0.00000000000E+00  0.00000000000E+00 -0.38311225709E+03  0.38311225713E+03  0.50400001928E-02 0. -1.
    10030    2    1    2    0    0  0.00000000000E+00  0.00000000000E+00 -0.20717306486E+03  0.55905144944E+03  0.51924738258E+03 0.  0.
        4    1    3    3  502    0 -0.55177545818E+02  0.68173119718E+02 -0.36667607630E+03  0.37702134376E+03  0.12699999809E+01 0. -1.
       -4    1    3    3    0  502  0.55177545818E+02 -0.68173119718E+02  0.15950301144E+03  0.18203010568E+03  0.12699999809E+01 0.  1.
</event>
<event>
 5   0  0.5190380E-02  0.6043935E+03  0.7818609E-02  0.9896333E-01
       -1   -1    0    0    0  501  0.00000000000E+00  0.00000000000E+00  0.13073815497E+03  0.13073815507E+03  0.50400001928E-02 0.  1.
        1   -1    0    0  501    0  0.00000000000E+00  0.00000000000E+00 -0.69851747485E+03  0.69851747487E+03  0.50400001928E-02 0. -1.
    10030    2    1    2    0    0  0.00000000000E+00  0.00000000000E+00 -0.56777931988E+03  0.82925562994E+03  0.60439353381E+03 0.  0.
        5    1    3    3  502    0 -0.14793371311E+03 -0.93244767738E+02 -0.62198643631E+03  0.64611778116E+03  0.46999998093E+01 0. -1.
       -5    1    3    3    0  502  0.14793371311E+03  0.93244767738E+02  0.54207116431E+02  0.18313784878E+03  0.46999998093E+01 0.  1.
</event>
<event>
 5   0  0.3437375E-02  0.5939051E+03  0.7818609E-02  0.9918132E-01
        4   -1    0    0  501    0  0.00000000000E+00  0.00000000000E+00  0.25994083413E+03  0.25994393655E+03  0.12699999809E+01 0. -1.
       -4   -1    0    0    0  501  0.00000000000E+00  0.00000000000E+00 -0.33922784876E+03  0.33923022606E+03  0.12699999809E+01 0.  1.
    10030    2    1    2    0    0  0.00000000000E+00  0.00000000000E+00 -0.79287014622E+02  0.59917416261E+03  0.59390508202E+03 0.  0.
        1    1    3    3  502    0  0.16849500364E+03  0.16165921551E+03  0.14544130863E+03  0.27509533346E+03  0.50400001928E-02 0. -1.
       -1    1    3    3    0  502 -0.16849500364E+03 -0.16165921551E+03 -0.22472832325E+03  0.32407882915E+03  0.50400001928E-02 0.  1.
</event>
<event>
 5   0  0.8699746E-02  0.5981584E+03  0.7818609E-02  0.9909234E-01
        2   -1    0    0  501    0  0.00000000000E+00  0.00000000000E+00  0.14905312244E+04  0.14905312244E+04  0.25500000920E-02 0. -1.
       -2   -1    0    0    0  501  0.00000000000E+00  0.00000000000E+00 -0.60011060295E+02  0.60011060349E+02  0.25500000920E-02 0.  1.
    10030    2    1    2    0    0  0.00000000000E+00  0.00000000000E+00  0.14305201641E+04  0.15505422847E+04  0.59815837107E+03 0.  0.
        3    1    3    3  502    0 -0.32814941713E+02  0.21674735563E+03  0.18787696227E+03  0.28871092762E+03  0.10100000352E+00 0.  1.
       -3    1    3    3    0  502  0.32814941713E+02 -0.21674735563E+03  0.12426432018E+04  0.12618313571E+04  0.10100000352E+00 0. -1.
</event>
<event>
 5   0  0.3437375E-02  0.5906559E+03  0.7818609E-02  0.9924984E-01
        4   -1    0    0  501    0  0.00000000000E+00  0.00000000000E+00  0.28635246299E+03  0.28635527927E+03  0.12699999809E+01 0. -1.
       -4   -1    0    0    0  501  0.00000000000E+00  0.00000000000E+00 -0.30457915875E+03  0.30458180649E+03  0.12699999809E+01 0.  1.
    10030    2    1    2    0    0  0.00000000000E+00  0.00000000000E+00 -0.18226695757E+02  0.59093708576E+03  0.59065592936E+03 0.  0.
        3    1    3    3  502    0 -0.18071933408E+03 -0.15751881675E+03  0.16344176631E+03  0.29014630191E+03  0.10100000352E+00 0. -1.
       -3    1    3    3    0  502  0.18071933408E+03  0.15751881675E+03 -0.18166846206E+03  0.30079078385E+03  0.10100000352E+00 0.  1.
</event>
<event>
 5   0  0.4987389E-02  0.6037692E+03  0.7818609E-02  0.9897617E-01
       -1   -1    0    0    0  501  0.00000000000E+00  0.00000000000E+00  0.10889372631E+03  0.10889372643E+03  0.50400001928E-02 0.  1.
        1   -1    0    0  501    0  0.00000000000E+00  0.00000000000E+00 -0.83691054671E+03  0.83691054673E+03  0.50400001928E-02 0. -1.
    10030    2    1    2    0    0  0.00000000000E+00  0.00000000000E+00 -0.72801682040E+03  0.94580427316E+03  0.60376918797E+03 0.  0.
        1    1    3    3  502    0 -0.79467370124E+02 -0.21303404339E+03 -0.52926088585E+02  0.23345178824E+03  0.50400001928E-02 0.  1.
       -1    1    3    3    0  502  0.79467370124E+02  0.21303404339E+03 -0.67509073181E+03  0.71235248491E+03  0.50400001928E-02 0. -1.
</event>
<event>
 5   0  0.8207443E-02  0.5947934E+03  0.7818609E-02  0.9916267E-01
        2   -1    0    0  501    0  0.00000000000E+00  0.00000000000E+00  0.47022542033E+03  0.47022542033E+03  0.25500000920E-02 0.  1.
       -2   -1    0    0    0  501  0.00000000000E+00  0.00000000000E+00 -0.18809020277E+03  0.18809020279E+03  0.25500000920E-02 0. -1.
    10030    2    1    2    0    0  0.00000000000E+00  0.00000000000E+00  0.28213521756E+03  0.65831562312E+03  0.59479339157E+03 0.  0.
        1    1    3    3  502    0  0.12803836620E+03  0.24078218002E+03  0.27237551910E+03  0.38543262040E+03  0.50400001928E-02 0.  1.
       -1    1    3    3    0  502 -0.12803836620E+03 -0.24078218002E+03  0.97596984536E+01  0.27288300272E+03  0.50400001928E-02 0. -1.
</event>
<event>
 5   0  0.5190380E-02  0.4336547E+03  0.7818609E-02  0.1032712E+00
        1   -1    0    0  501    0  0.00000000000E+00  0.00000000000E+00  0.14529389062E+04  0.14529389063E+04  0.50400001928E-02 0.  1.
       -1   -1    0    0    0  501  0.00000000000E+00  0.00000000000E+00 -0.32357927324E+02  0.32357927717E+02  0.50400001928E-02 0. -1.
    10030    2    1    2    0    0  0.00000000000E+00  0.00000000000E+00  0.14205809789E+04  0.14852968340E+04  0.43365466368E+03 0.  0.
        5    1    3    3  502    0  0.10038621780E+03 -0.90185691589E+02  0.12922737636E+03  0.18690279958E+03  0.46999998093E+01 0. -1.
       -5    1    3    3    0  502 -0.10038621780E+03  0.90185691589E+02  0.12913536026E+04  0.12983940344E+04  0.46999998093E+01 0.  1.
</event>
<event>
 5   0  0.5190380E-02  0.5913954E+03  0.7818609E-02  0.9923420E-01
       -1   -1    0    0    0  501  0.00000000000E+00  0.00000000000E+00  0.22625581749E+03  0.22625581755E+03  0.50400001928E-02 0. -1.
        1   -1    0    0  501    0  0.00000000000E+00  0.00000000000E+00 -0.38645248889E+03  0.38645248892E+03  0.50400001928E-02 0.  1.
    10030    2    1    2    0    0  0.00000000000E+00  0.00000000000E+00 -0.16019667139E+03  0.61270830647E+03  0.59139537983E+03 0.  0.
        5    1    3    3  502    0 -0.27159801998E+02 -0.21336196126E+03  0.13007719089E+03  0.25140236066E+03  0.46999998093E+01 0. -1.
       -5    1    3    3    0  502  0.27159801998E+02  0.21336196126E+03 -0.29027386228E+03  0.36130594581E+03  0.46999998093E+01 0.  1.
</event>
<event>
 5   0  0.8420604E-02  0.5973692E+03  0.7818609E-02  0.9910879E-01
       -2   -1    0    0    0  501  0.00000000000E+00  0.00000000000E+00  0.69890210105E+03  0.69890210105E+03  0.25500000920E-02 0. -1.
        2   -1    0    0  501    0  0.00000000000E+00  0.00000000000E+00 -0.12764662375E+03  0.12764662378E+03  0.25500000920E-02 0.  1.
    10030    2    1    2    0    0  0.00000000000E+00  0.00000000000E+00  0.57125547730E+03  0.82654872483E+03  0.59736921094E+03 0.  0.
        2    1    3    3  502    0 -0.15982662271E+03 -0.19905496222E+03  0.71072751303E+02  0.26498823237E+03  0.25500000920E-02 0.  1.
       -2    1    3    3    0  502  0.15982662271E+03  0.19905496222E+03  0.50018272599E+03  0.56156049246E+03  0.25500000920E-02 0. -1.
</event>
<event>
 5   0  0.8420604E-02  0.6303898E+03  0.7818609E-02  0.9844288E-01
       -2   -1    0    0    0  501  0.00000000000E+00  0.00000000000E+00  0.14432118173E+03  0.14432118175E+03  0.25500000920E-02 0.  1.
        2   -1    0    0  501    0  0.00000000000E+00  0.00000000000E+00 -0.68838006916E+03  0.68838006916E+03  0.25500000920E-02 0. -1.
    10030    2    1    2    0    0  0.00000000000E+00  0.00000000000E+00 -0.54405888743E+03  0.83270125091E+03  0.63038980027E+03 0.  0.
        2    1    3    3  502    0  0.18651561845E+03 -0.22334102768E+02  0.62301583550E+02  0.19791001843E+03  0.25500000920E-02 0.  1.
       -2    1    3    3    0  502 -0.18651561845E+03  0.22334102768E+02 -0.60636047098E+03  0.63479123249E+03  0.25500000920E-02 0. -1.
</event>
<event>
 5   0  0.4987389E-02  0.6078166E+03  0.7818609E-02  0.9889320E-01
        1   -1    0    0  501    0  0.00000000000E+00  0.00000000000E+00  0.67393881118E+03  0.67393881120E+03  0.50400001928E-02 0. -1.
       -1   -1    0    0    0  501  0.00000000000E+00  0.00000000000E+00 -0.13704546156E+03  0.13704546166E+03  0.50400001928E-02 0.  1.
    10030    2    1    2    0    0  0.00000000000E+00  0.00000000000E+00  0.53689334962E+03  0.81098427286E+03  0.60781660224E+03 0.  0.
        1    1    3    3  502    0  0.14415195543E+03 -0.21670444287E+03  0.59092877232E+02  0.26689430488E+03  0.50400001928E-02 0.  1.
       -1    1    3    3    0  502 -0.14415195543E+03  0.21670444287E+03  0.47780047239E+03  0.54408996798E+03  0.50400001928E-02 0. -1.
</event>
<event>
 5   0  0.8817544E-02  0.5877343E+03  0.7818609E-02  0.9931185E-01
       -2   -1    0    0    0  501  0.00000000000E+00  0.00000000000E+00  0.13410028736E+03  0.13410028739E+03  0.25500000920E-02 0. -1.
        2   -1    0    0  501    0  0.00000000000E+00  0.00000000000E+00 -0.64397998918E+03  0.64397998919E+03  0.25500000920E-02 0.  1.
    10030    2    1    2    0    0  0.00000000000E+00  0.00000000000E+00 -0.50987970182E+03  0.77808027658E+03  0.58773429921E+03 0.  0.
        5    1    3    3  502    0 -0.14882928574E+03 -0.41193472378E+02 -0.58587606941E+03  0.60590421452E+03  0.46999998093E+01 0.  1.
       -5    1    3    3    0  502  0.14882928574E+03  0.41193472378E+02  0.75996367593E+02  0.17217606206E+03  0.46999998093E+01 0. -1.
</event>
<event>
 5   0  0.5125031E-02  0.5932469E+03  0.7818609E-02  0.9919517E-01
        1   -1    0    0  501    0  0.00000000000E+00  0.00000000000E+00  0.31475725617E+03  0.31475725621E+03  0.50400001928E-02 0.  1.
       -1   -1    0    0    0  501  0.00000000000E+00  0.00000000000E+00 -0.27953433921E+03  0.27953433925E+03  0.50400001928E-02 0. -1.
    10030    2    1    2    0    0  0.00000000000E+00  0.00000000000E+00  0.35222916958E+02  0.59429159546E+03  0.59324686814E+03 0.  0.
        4    1    3    3  502    0  0.64892769466E+02  0.28450467709E+01  0.30754242860E+03  0.31432964243E+03  0.12699999809E+01 0.  1.
       -4    1    3    3    0  502 -0.64892769466E+02 -0.28450467709E+01 -0.27231951165E+03  0.27996195303E+03  0.12699999809E+01 0. -1.
</event>
<event>
 5   0  0.8420604E-02  0.6135468E+03  0.7818609E-02  0.9877693E-01
        2   -1    0    0  501    0  0.00000000000E+00  0.00000000000E+00  0.56599871167E+03  0.56599871168E+03  0.25500000920E-02 0. -1.
       -2   -1    0    0    0  501  0.00000000000E+00  0.00000000000E+00 -0.16627230365E+03  0.16627230367E+03  0.25500000920E-02 0.  1.
    10030    2    1    2    0    0  0.00000000000E+00  0.00000000000E+00  0.39972640802E+03  0.73227101535E+03  0.61354676973E+03 0.  0.
        2    1    3    3  502    0  0.14239605573E+02 -0.40568495385E+02  0.56238493955E+03  0.56402605385E+03  0.25500000920E-02 0. -1.
       -2    1    3    3    0  502 -0.14239605573E+02  0.40568495385E+02 -0.16265853153E+03  0.16824496150E+03  0.25500000920E-02 0.  1.
</event>
<event>
 5   0  0.4881209E-02  0.5957947E+03  0.7818609E-02  0.9914169E-01
       -1   -1    0    0    0  501  0.00000000000E+00  0.00000000000E+00  0.19311018786E+03  0.19311018793E+03  0.50400001928E-02 0. -1.
        1   -1    0    0  501    0  0.00000000000E+00  0.00000000000E+00 -0.45954498247E+03  0.45954498249E+03  0.50400001928E-02 0.  1.
    10030    2    1    2    0    0  0.00000000000E+00  0.00000000000E+00 -0.26643479460E+03  0.65265517042E+03  0.59579465565E+03 0.  0.
        3    1    3    3  502    0 -0.22141855586E+03  0.75468625797E+02 -0.33526861226E+03  0.40881137818E+03  0.10100000352E+00 0.  1.
       -3    1    3    3    0  502  0.22141855586E+03 -0.75468625797E+02  0.68833817661E+02  0.24384379224E+03  0.10100000352E+00 0. -1.
</event>
<event>
 5   0  0.5190380E-02  0.5993398E+03  0.7818609E-02  0.9906777E-01
        1   -1    0    0  501    0  0.00000000000E+00  0.00000000000E+00  0.76682987683E+03  0.76682987685E+03  0.50400001928E-02 0.  1.
       -1   -1    0    0    0  501  0.00000000000E+00  0.00000000000E+00 -0.11710819415E+03  0.11710819426E+03  0.50400001928E-02 0. -1.
    10030    2    1    2    0    0  0.00000000000E+00  0.00000000000E+00  0.64972168268E+03  0.88393807110E+03  0.59933984399E+03 0.  0.
        5    1    3    3  502    0  0.29878374065E+03  0.18646608023E+02  0.30617308320E+03  0.42823295826E+03  0.46999998093E+01 0.  1.
       -5    1    3    3    0  502 -0.29878374065E+03 -0.18646608023E+02  0.34354859949E+03  0.45570511285E+03  0.46999998093E+01 0. -1.
</event>
<event>
 5   0  0.3437375E-02  0.5941676E+03  0.7818609E-02  0.9917581E-01
       -4   -1    0    0    0  501  0.00000000000E+00  0.00000000000E+00  0.30143978890E+03  0.30144246422E+03  0.12699999809E+01 0.  1.
        4   -1    0    0  501    0  0.00000000000E+00  0.00000000000E+00 -0.29278542105E+03  0.29278817545E+03  0.12699999809E+01 0. -1.
    10030    2    1    2    0    0  0.00000000000E+00  0.00000000000E+00  0.86543678508E+01  0.59423063966E+03  0.59416761527E+03 0.  0.
        5    1    3    3  502    0  0.98785330330E+02  0.20234527604E+03  0.19808607964E+03  0.29993722205E+03  0.46999998093E+01 0.  1.
       -5    1    3    3    0  502 -0.98785330330E+02 -0.20234527604E+03 -0.18943171179E+03  0.29429341762E+03  0.46999998093E+01 0. -1.
</event>
<event>
 5   0  0.4881209E-02  0.5891926E+03  0.7818609E-02  0.9928085E-01
        1   -1    0    0  501    0  0.00000000000E+00  0.00000000000E+00  0.15286370470E+04  0.15286370471E+04  0.50400001928E-02 0. -1.
       -1   -1    0    0    0  501  0.00000000000E+00  0.00000000000E+00 -0.56774099842E+02  0.56774100066E+02  0.50400001928E-02 0.  1.
    10030    2    1    2    0    0  0.00000000000E+00  0.00000000000E+00  0.14718629472E+04  0.15854111471E+04  0.58919264257E+03 0.  0.
        3    1    3    3  502    0  0.21268803126E+03  0.11990030604E+03  0.29235656289E+03  0.38089979272E+03  0.10100000352E+00 0.  1.
       -3    1    3    3    0  502 -0.21268803126E+03 -0.11990030604E+03  0.11795063843E+04  0.12045113544E+04  0.10100000352E+00 0. -1.
</event>
<event>
 5   0  0.8420604E-02  0.5952690E+03  0.7818609E-02  0.9915270E-01
        2   -1    0    0  501    0  0.00000000000E+00  0.00000000000E+00  0.20069494750E+04  0.20069494750E+04  0.25500000920E-02 0.  1.
       -2   -1    0    0    0  501  0.00000000000E+00  0.00000000000E+00 -0.44139776179E+02  0.44139776252E+02  0.25500000920E-02 0. -1.
    10030    2    1    2    0    0  0.00000000000E+00  0.00000000000E+00  0.19628096989E+04  0.20510892513E+04  0.59526901719E+03 0.  0.
        2    1    3    3  502    0  0.15537151137E+03  0.15717380757E+03  0.16683123545E+04  0.16828874069E+04  0.25500000920E-02 0.  1.
       -2    1    3    3    0  502 -0.15537151137E+03 -0.15717380757E+03  0.29449734440E+03  0.36820184437E+03  0.25500000920E-02 0. -1.
</event>
<event>
 5   0  0.8420604E-02  0.6000902E+03  0.7818609E-02  0.9905219E-01
       -2   -1    0    0    0  501  0.00000000000E+00  0.00000000000E+00  0.19614435279E+03  0.19614435280E+03  0.25500000920E-02 0. -1.
        2   -1    0    0  501    0  0.00000000000E+00  0.00000000000E+00 -0.45898367100E+03  0.45898367100E+03  0.25500000920E-02 0.  1.
    10030    2    1    2    0    0  0.00000000000E+00  0.00000000000E+00 -0.26283931821E+03  0.65512802381E+03  0.60009017687E+03 0.  0.
        2    1    3    3  502    0 -0.71534074565E+02  0.11341621679E+03  0.16161344475E+03  0.20999825615E+03  0.25500000920E-02 0. -1.
       -2    1    3    3    0  502  0.71534074565E+02 -0.11341621679E+03 -0.42445276296E+03  0.44512976765E+03  0.25500000920E-02 0.  1.
</event>
<event>
 5   0  0.5166903E-02  0.6036791E+03  0.7818609E-02  0.9897802E-01
       -1   -1    0    0    0  501  0.00000000000E+00  0.00000000000E+00  0.79847668747E+02  0.79847668906E+02  0.50400001928E-02 0. -1.
        1   -1    0    0  501    0  0.00000000000E+00  0.00000000000E+00 -0.11410116572E+04  0.11410116572E+04  0.50400001928E-02 0.  1.
    10030    2    1    2    0    0  0.00000000000E+00  0.00000000000E+00 -0.10611639885E+04  0.12208593261E+04  0.60367912320E+03 0.  0.
        2    1    3    3  502    0 -0.11281435942E+03 -0.20633547029E+03 -0.91326188648E+03  0.94305285075E+03  0.25500000920E-02 0.  1.
       -2    1    3    3    0  502  0.11281435942E+03  0.20633547029E+03 -0.14790210200E+03  0.27780647540E+03  0.25500000920E-02 0. -1.
</event>
<event>
 5   0  0.8575590E-02  0.6090145E+03  0.7818609E-02  0.9886878E-01
        2   -1    0    0  501    0  0.00000000000E+00  0.00000000000E+00  0.57343516588E+03  0.57343516588E+03  0.25500000920E-02 0.  1.
       -2   -1    0    0    0  501  0.00000000000E+00  0.00000000000E+00 -0.16170035722E+03  0.16170035724E+03  0.25500000920E-02 0. -1.
    10030    2    1    2    0    0  0.00000000000E+00  0.00000000000E+00  0.41173480866E+03  0.73513552313E+03  0.60901451929E+03 0.  0.
        4    1    3    3  502    0  0.28018961175E+03  0.43457882801E+02  0.71840953506E+02  0.29250220787E+03  0.12699999809E+01 0. -1.
       -4    1    3    3    0  502 -0.28018961175E+03 -0.43457882801E+02  0.33989385515E+03  0.44263331526E+03  0.12699999809E+01 0.  1.
</event>
<event>
 5   0  0.5190380E-02  0.6147534E+03  0.7818609E-02  0.9875261E-01
        1   -1    0    0  501    0  0.00000000000E+00  0.00000000000E+00  0.14931295127E+04  0.14931295127E+04  0.50400001928E-02 0.  1.
       -1   -1    0    0    0  501  0.00000000000E+00  0.00000000000E+00 -0.63276795140E+02  0.63276795341E+02  0.50400001928E-02 0. -1.
    10030    2    1    2    0    0  0.00000000000E+00  0.00000000000E+00  0.14298527176E+04  0.15564063080E+04  0.61475344800E+03 0.  0.
        5    1    3    3  502    0  0.77865258802E+02  0.49287172567E+02  0.14572370468E+04  0.14601555138E+04  0.46999998093E+01 0.  1.
       -5    1    3    3    0  502 -0.77865258802E+02 -0.49287172567E+02 -0.27384329241E+02  0.96250794252E+02  0.46999998093E+01 0. -1.
</event>
<event>
 5   0  0.5190380E-02  0.5993498E+03  0.7818609E-02  0.9906756E-01
       -1   -1    0    0    0  501  0.00000000000E+00  0.00000000000E+00  0.18617506633E+03  0.18617506640E+03  0.50400001928E-02 0. -1.
        1   -1    0    0  501    0  0.00000000000E+00  0.00000000000E+00 -0.48236879875E+03  0.48236879877E+03  0.50400001928E-02 0.  1.
    10030    2    1    2    0    0  0.00000000000E+00  0.00000000000E+00 -0.29619373242E+03  0.66854386517E+03  0.59934979147E+03 0.  0.
        5    1    3    3  502    0  0.10190294240E+02  0.29837637592E+03 -0.17654953730E+03  0.34687769159E+03  0.46999998093E+01 0. -1.
       -5    1    3    3    0  502 -0.10190294240E+02 -0.29837637592E+03 -0.11964419511E+03  0.32166617358E+03  0.46999998093E+01 0.  1.
</event>
<event>
 5   0  0.4881209E-02  0.6038940E+03  0.7818609E-02  0.9897360E-01
       -1   -1    0    0    0  501  0.00000000000E+00  0.00000000000E+00  0.97363549445E+02  0.97363549576E+02  0.50400001928E-02 0.  1.
        1   -1    0    0  501    0  0.00000000000E+00  0.00000000000E+00 -0.93640783596E+03  0.93640783597E+03  0.50400001928E-02 0. -1.
    10030    2    1    2    0    0  0.00000000000E+00  0.00000000000E+00 -0.83904428651E+03  0.10337713855E+04  0.60389399968E+03 0.  0.
        3    1    3    3  502    0 -0.29569491594E+03  0.41305261141E+02 -0.49665717528E+03  0.57949112838E+03  0.10100000352E+00 0. -1.
       -3    1    3    3    0  502  0.29569491594E+03 -0.41305261141E+02 -0.34238711123E+03  0.45428025717E+03  0.10100000352E+00 0.  1.
</event>
<event>
 5   0  0.8420604E-02  0.5765166E+03  0.7818609E-02  0.9955361E-01
        2   -1    0    0  501    0  0.00000000000E+00  0.00000000000E+00  0.64753661444E+03  0.64753661444E+03  0.25500000920E-02 0. -1.
       -2   -1    0    0    0  501  0.00000000000E+00  0.00000000000E+00 -0.12832148399E+03  0.12832148401E+03  0.25500000920E-02 0.  1.
    10030    2    1    2    0    0  0.00000000000E+00  0.00000000000E+00  0.51921513045E+03  0.77585809846E+03  0.57651664092E+03 0.  0.
        2    1    3    3  502    0 -0.14288468468E+03  0.83460225496E+02 -0.58037251345E+02  0.17535667910E+03  0.25500000920E-02 0.  1.
       -2    1    3    3    0  502  0.14288468468E+03 -0.83460225496E+02  0.57725238179E+03  0.60050141936E+03  0.25500000920E-02 0. -1.
</event>
<event>
 5   0  0.5125031E-02  0.6002748E+03  0.7818609E-02  0.9904836E-01
       -1   -1    0    0    0  501  0.00000000000E+00  0.00000000000E+00  0.32737599956E+03  0.32737599960E+03  0.50400001928E-02 0. -1.
        1   -1    0    0  501    0  0.00000000000E+00  0.00000000000E+00 -0.27516508818E+03  0.27516508823E+03  0.50400001928E-02 0.  1.
    10030    2    1    2    0    0  0.00000000000E+00  0.00000000000E+00  0.52210911379E+02  0.60254108783E+03  0.60027475647E+03 0.  0.
        4    1    3    3  502    0 -0.14309063041E+03 -0.12158361165E+03 -0.20892237483E+03  0.28090509917E+03  0.12699999809E+01 0.  1.
       -4    1    3    3    0  502  0.14309063041E+03  0.12158361165E+03  0.26113328621E+03  0.32163598866E+03  0.12699999809E+01 0. -1.
</event>
<event>
 5   0  0.8420604E-02  0.5922474E+03  0.7818609E-02  0.9921622E-01
       -2   -1    0    0    0  501  0.00000000000E+00  0.00000000000E+00  0.68339356081E+02  0.68339356128E+02  0.25500000920E-02 0. -1.
        2   -1    0    0  501    0  0.00000000000E+00  0.00000000000E+00 -0.12831439565E+04  0.12831439565E+04  0.25500000920E-02 0.  1.
    10030    2    1    2    0    0  0.00000000000E+00  0.00000000000E+00 -0.12148046004E+04  0.13514833126E+04  0.59224735299E+03 0.  0.
        2    1    3    3  502    0  0.11894983638E+03  0.15066126213E+03 -0.92865897313E+02  0.21324153998E+03  0.25500000920E-02 0. -1.
       -2    1    3    3    0  502 -0.11894983638E+03 -0.15066126213E+03 -0.11219387031E+04  0.11382417727E+04  0.25500000920E-02 0.  1.
</event>
<event>
 5   0  0.8420604E-02  0.5810148E+03  0.7818609E-02  0.9945596E-01
        2   -1    0    0  501    0  0.00000000000E+00  0.00000000000E+00  0.41378960410E+03  0.41378960411E+03  0.25500000920E-02 0.  1.
       -2   -1    0    0    0  501  0.00000000000E+00  0.00000000000E+00 -0.20395519919E+03  0.20395519920E+03  0.25500000920E-02 0. -1.
    10030    2    1    2    0    0  0.00000000000E+00  0.00000000000E+00  0.20983440491E+03  0.61774480331E+03  0.58101477136E+03 0.  0.
        2    1    3    3  502    0  0.22718880094E+03  0.14755693229E+03  0.21646251176E+03  0.34676190469E+03  0.25500000920E-02 0.  1.
       -2    1    3    3    0  502 -0.22718880094E+03 -0.14755693229E+03 -0.66281068551E+01  0.27098289862E+03  0.25500000920E-02 0. -1.
</event>
<event>
 5   0  0.4881209E-02  0.5949159E+03  0.7818609E-02  0.9916010E-01
        1   -1    0    0  501    0  0.00000000000E+00  0.00000000000E+00  0.62430499432E+03  0.62430499434E+03  0.50400001928E-02 0. -1.
       -1   -1    0    0    0  501  0.00000000000E+00  0.00000000000E+00 -0.14172757123E+03  0.14172757132E+03  0.50400001928E-02 0.  1.
    10030    2    1    2    0    0  0.00000000000E+00  0.00000000000E+00  0.48257742310E+03  0.76603256566E+03  0.59491589521E+03 0.  0.
        3    1    3    3  502    0 -0.73732622502E+01 -0.36376871651E+02  0.62131151647E+03  0.62241919354E+03  0.10100000352E+00 0. -1.
       -3    1    3    3    0  502  0.73732622502E+01  0.36376871651E+02 -0.13873409337E+03  0.14361337212E+03  0.10100000352E+00 0.  1.
</event>
<event>
 5   0  0.4987389E-02  0.4817521E+03  0.7818609E-02  0.1018655E+00
       -1   -1    0    0    0  501  0.00000000000E+00  0.00000000000E+00  0.33685525414E+03  0.33685525418E+03  0.50400001928E-02 0. -1.
        1   -1    0    0  501    0  0.00000000000E+00  0.00000000000E+00 -0.17224393833E+03  0.17224393840E+03  0.50400001928E-02 0.  1.
    10030    2    1    2    0    0  0.00000000000E+00  0.00000000000E+00  0.16461131582E+03  0.50909919258E+03  0.48175211737E+03 0.  0.
        1    1    3    3  502    0 -0.19176254946E+03 -0.13193099052E+03  0.14781332840E+03  0.27573074133E+03  0.50400001928E-02 0. -1.
       -1    1    3    3    0  502  0.19176254946E+03  0.13193099052E+03  0.16797987422E+02  0.23336845126E+03  0.50400001928E-02 0.  1.
</event>
<event>
 5   0  0.4881209E-02  0.5624303E+03  0.7818609E-02  0.9986571E-01
       -1   -1    0    0    0  501  0.00000000000E+00  0.00000000000E+00  0.92713900704E+02  0.92713900841E+02  0.50400001928E-02 0. -1.
        1   -1    0    0  501    0  0.00000000000E+00  0.00000000000E+00 -0.85296778410E+03  0.85296778411E+03  0.50400001928E-02 0.  1.
    10030    2    1    2    0    0  0.00000000000E+00  0.00000000000E+00 -0.76025388339E+03  0.94568168496E+03  0.56243033528E+03 0.  0.
        3    1    3    3  502    0 -0.26280725816E+03  0.94857285042E+02 -0.32652151591E+03  0.42974628564E+03  0.10100000352E+00 0. -1.
       -3    1    3    3    0  502  0.26280725816E+03 -0.94857285042E+02 -0.43373236749E+03  0.51593539932E+03  0.10100000352E+00 0.  1.
</event>
<event>
 5   0  0.5190380E-02  0.5824450E+03  0.7818609E-02  0.9942512E-01
        1   -1    0    0  501    0  0.00000000000E+00  0.00000000000E+00  0.41862944057E+03  0.41862944060E+03  0.50400001928E-02 0. -1.
       -1   -1    0    0    0  501  0.00000000000E+00  0.00000000000E+00 -0.20259097817E+03  0.20259097823E+03  0.50400001928E-02 0.  1.
    10030    2    1    2    0    0  0.00000000000E+00  0.00000000000E+00  0.21603846241E+03  0.62122041883E+03  0.58244501160E+03 0.  0.
        5    1    3    3  502    0 -0.80071519597E+02 -0.26955011544E+03  0.27355348636E+02  0.28255816761E+03  0.46999998093E+01 0.  1.
       -5    1    3    3    0  502  0.80071519597E+02  0.26955011544E+03  0.18868311377E+03  0.33866225122E+03  0.46999998093E+01 0. -1.
</event>
<event>
 5   0  0.5125031E-02  0.5979515E+03  0.7818609E-02  0.9909665E-01
        1   -1    0    0  501    0  0.00000000000E+00  0.00000000000E+00  0.68199542193E+03  0.68199542195E+03  0.50400001928E-02 0. -1.
       -1   -1    0    0    0  501  0.00000000000E+00  0.00000000000E+00 -0.13106613686E+03  0.13106613695E+03  0.50400001928E-02 0.  1.
    10030    2    1    2    0    0  0.00000000000E+00  0.00000000000E+00  0.55092928508E+03  0.81306155890E+03  0.59795152095E+03 0.  0.
        4    1    3    3  502    0 -0.45243625497E+02  0.25088345313E+03  0.63085715226E+02  0.26262313887E+03  0.12699999809E+01 0.  1.
       -4    1    3    3    0  502  0.45243625497E+02 -0.25088345313E+03  0.48784356985E+03  0.55043842003E+03  0.12699999809E+01 0. -1.
</event>
<event>
 5   0  0.5125031E-02  0.5938424E+03  0.7818609E-02  0.9918264E-01
        1   -1    0    0  501    0  0.00000000000E+00  0.00000000000E+00  0.24308023126E+03  0.24308023131E+03  0.50400001928E-02 0. -1.
       -1   -1    0    0    0  501  0.00000000000E+00  0.00000000000E+00 -0.36268764550E+03  0.36268764553E+03  0.50400001928E-02 0.  1.
    10030    2    1    2    0    0  0.00000000000E+00  0.00000000000E+00 -0.11960741424E+03  0.60576787684E+03  0.59384239245E+03 0.  0.
        4    1    3    3  502    0 -0.20371933878E+02  0.78923406375E+02  0.23144113420E+03  0.24537834310E+03  0.12699999809E+01 0. -1.
       -4    1    3    3    0  502  0.20371933878E+02 -0.78923406375E+02 -0.35104854844E+03  0.36038953374E+03  0.12699999809E+01 0.  1.
</event>
<event>
 5   0  0.8207443E-02  0.5994476E+03  0.7818609E-02  0.9906553E-01
       -2   -1    0    0    0  501  0.00000000000E+00  0.00000000000E+00  0.46891058726E+02  0.46891058796E+02  0.25500000920E-02 0. -1.
        2   -1    0    0  501    0  0.00000000000E+00  0.00000000000E+00 -0.19158101881E+04  0.19158101881E+04  0.25500000920E-02 0.  1.
    10030    2    1    2    0    0  0.00000000000E+00  0.00000000000E+00 -0.18689191294E+04  0.19627012469E+04  0.59944763945E+03 0.  0.
        1    1    3    3  502    0 -0.97038760454E+02  0.17023249986E+03 -0.16770478913E+04  0.16884564711E+04  0.50400001928E-02 0.  1.
       -1    1    3    3    0  502  0.97038760454E+02 -0.17023249986E+03 -0.19187123813E+03  0.27424477586E+03  0.50400001928E-02 0. -1.
</event>
<event>
 5   0  0.8699746E-02  0.6054016E+03  0.7818609E-02  0.9894262E-01
        2   -1    0    0  501    0  0.00000000000E+00  0.00000000000E+00  0.13611217045E+04  0.13611217045E+04  0.25500000920E-02 0.  1.
       -2   -1    0    0    0  501  0.00000000000E+00  0.00000000000E+00 -0.67317847278E+02  0.67317847326E+02  0.25500000920E-02 0. -1.
    10030    2    1    2    0    0  0.00000000000E+00  0.00000000000E+00  0.12938038573E+04  0.14284395519E+04  0.60540162890E+03 0.  0.
        3    1    3    3  502    0  0.23682085043E+03 -0.28332756020E+02  0.20711846736E+03  0.31588752743E+03  0.10100000352E+00 0. -1.
       -3    1    3    3    0  502 -0.23682085043E+03  0.28332756020E+02  0.10866853899E+04  0.11125520244E+04  0.10100000352E+00 0.  1.
</event>
<event>
 5   0  0.5190380E-02  0.5949836E+03  0.7818609E-02  0.9915868E-01
        1   -1    0    0  501    0  0.00000000000E+00  0.00000000000E+00  0.52352249774E+03  0.52352249776E+03  0.50400001928E-02 0.  1.
       -1   -1    0    0    0  501  0.00000000000E+00  0.00000000000E+00 -0.16904979429E+03  0.16904979437E+03  0.50400001928E-02 0. -1.
    10030    2    1    2    0    0  0.00000000000E+00  0.00000000000E+00  0.35447270345E+03  0.69257229213E+03  0.59498359838E+03 0.  0.
        5    1    3    3  502    0 -0.13897714462E+03 -0.10170118380E+03  0.45954759700E+03  0.49077883147E+03  0.46999998093E+01 0.  1.
       -5    1    3    3    0  502  0.13897714462E+03  0.10170118380E+03 -0.10507489355E+03  0.20179346066E+03  0.46999998093E+01 0. -1.
</event>
<event>
 5   0  0.8420604E-02  0.6033091E+03  0.7818609E-02  0.9898565E-01
        2   -1    0    0  501    0  0.00000000000E+00  0.00000000000E+00  0.12870204686E+04  0.12870204686E+04  0.25500000920E-02 0. -1.
       -2   -1    0    0    0  501  0.00000000000E+00  0.00000000000E+00 -0.70702414072E+02  0.70702414118E+02  0.25500000920E-02 0.  1.
    10030    2    1    2    0    0  0.00000000000E+00  0.00000000000E+00  0.12163180545E+04  0.13577228827E+04  0.60330905553E+03 0.  0.
        2    1    3    3  502    0  0.50335498926E+02 -0.17193327803E+03  0.61984215735E+02  0.18956992787E+03  0.25500000920E-02 0.  1.
       -2    1    3    3    0  502 -0.50335498926E+02  0.17193327803E+03  0.11543338388E+04  0.11681529548E+04  0.25500000920E-02 0. -1.
</event>
<event>
 5   0  0.8575590E-02  0.5999598E+03  0.7818609E-02  0.9905489E-01
       -2   -1    0    0    0  501  0.00000000000E+00  0.00000000000E+00  0.10537437902E+03  0.10537437905E+03  0.25500000920E-02 0. -1.
        2   -1    0    0  501    0  0.00000000000E+00  0.00000000000E+00 -0.85398324098E+03  0.85398324098E+03  0.25500000920E-02 0.  1.
    10030    2    1    2    0    0  0.00000000000E+00  0.00000000000E+00 -0.74860886196E+03  0.95935762003E+03  0.59995984442E+03 0.  0.
        4    1    3    3  502    0 -0.32281018583E+02  0.13990502004E+03  0.46855350087E+02  0.15103812606E+03  0.12699999809E+01 0. -1.
       -4    1    3    3    0  502  0.32281018583E+02 -0.13990502004E+03 -0.79546421205E+03  0.80831949397E+03  0.12699999809E+01 0.  1.
</event>
<event>
 5   0  0.5125031E-02  0.5952413E+03  0.7818609E-02  0.9915328E-01
        1   -1    0    0  501    0  0.00000000000E+00  0.00000000000E+00  0.12772084126E+04  0.12772084126E+04  0.50400001928E-02 0. -1.
       -1   -1    0    0    0  501  0.00000000000E+00  0.00000000000E+00 -0.69352867171E+02  0.69352867354E+02  0.50400001928E-02 0.  1.
    10030    2    1    2    0    0  0.00000000000E+00  0.00000000000E+00  0.12078555454E+04  0.13465612800E+04  0.59524134775E+03 0.  0.
        4    1    3    3  502    0 -0.69501695591E+01 -0.16450794461E+03  0.43076154906E+02  0.17020087168E+03  0.12699999809E+01 0.  1.
       -4    1    3    3    0  502  0.69501695591E+01  0.16450794461E+03  0.11647793905E+04  0.11763604083E+04  0.12699999809E+01 0. -1.
</event>
<event>
 5   0  0.8817544E-02  0.5942484E+03  0.7818609E-02  0.9917411E-01
       -2   -1    0    0    0  501  0.00000000000E+00  0.00000000000E+00  0.14659055215E+03  0.14659055218E+03  0.25500000920E-02 0.  1.
        2   -1    0    0  501    0  0.00000000000E+00  0.00000000000E+00 -0.60224066064E+03  0.60224066064E+03  0.25500000920E-02 0. -1.
    10030    2    1    2    0    0  0.00000000000E+00  0.00000000000E+00 -0.45565010848E+03  0.74883121282E+03  0.59424840255E+03 0.  0.
        5    1    3    3  502    0 -0.21780785448E+03 -0.19988651796E+03 -0.26490418842E+03  0.39697758195E+03  0.46999998093E+01 0. -1.
       -5    1    3    3    0  502  0.21780785448E+03  0.19988651796E+03 -0.19074592007E+03  0.35185363087E+03  0.46999998093E+01 0.  1.
</event>
<event>
 5   0  0.8207443E-02  0.5998535E+03  0.7818609E-02  0.9905710E-01
       -2   -1    0    0    0  501  0.00000000000E+00  0.00000000000E+00  0.35814121976E+03  0.35814121977E+03  0.25500000920E-02 0.  1.
        2   -1    0    0  501    0  0.00000000000E+00  0.00000000000E+00 -0.25117481993E+03  0.25117481995E+03  0.25500000920E-02 0. -1.
    10030    2    1    2    0    0  0.00000000000E+00  0.00000000000E+00  0.10696639983E+03  0.60931603972E+03  0.59985350342E+03 0.  0.
        1    1    3    3  502    0 -0.11253997799E+03  0.20084932513E+03  0.24874025645E+03  0.33893570667E+03  0.50400001928E-02 0.  1.
       -1    1    3    3    0  502  0.11253997799E+03 -0.20084932513E+03 -0.14177385662E+03  0.27038033305E+03  0.50400001928E-02 0. -1.
</event>
<event>
 5   0  0.5125031E-02  0.5915949E+03  0.7818609E-02  0.9922999E-01
        1   -1    0    0  501    0  0.00000000000E+00  0.00000000000E+00  0.26022348419E+03  0.26022348424E+03  0.50400001928E-02 0.  1.
       -1   -1    0    0    0  501  0.00000000000E+00  0.00000000000E+00 -0.33623451713E+03  0.33623451717E+03  0.50400001928E-02 0. -1.
    10030    2    1    2    0    0  0.00000000000E+00  0.00000000000E+00 -0.76011032936E+02  0.59645800141E+03  0.59159485318E+03 0.  0.
        4    1    3    3  502    0  0.21443980161E+03 -0.90121973730E+02  0.14622067495E+03  0.27475170126E+03  0.12699999809E+01 0.  1.
       -4    1    3    3    0  502 -0.21443980161E+03  0.90121973730E+02 -0.22223170789E+03  0.32170630014E+03  0.12699999809E+01 0. -1.
</event>
<event>
 5   0  0.3437375E-02  0.6038628E+03  0.7818609E-02  0.9897424E-01
        3   -1    0    0  501    0  0.00000000000E+00  0.00000000000E+00  0.33533605279E+03  0.33533606800E+03  0.10100000352E+00 0. -1.
       -3   -1    0    0    0  501  0.00000000000E+00  0.00000000000E+00 -0.27185431170E+03  0.27185433046E+03  0.10100000352E+00 0.  1.
    10030    2    1    2    0    0  0.00000000000E+00  0.00000000000E+00  0.63481741093E+02  0.60719039846E+03  0.60386277293E+03 0.  0.
        2    1    3    3  502    0  0.23912888280E+03 -0.17940890065E+03 -0.10829006730E+02  0.29914451962E+03  0.25500000920E-02 0.  1.
       -2    1    3    3    0  502 -0.23912888280E+03  0.17940890065E+03  0.74310747823E+02  0.30804587884E+03  0.25500000920E-02 0. -1.
</event>
<event>
 5   0  0.4987389E-02  0.6022327E+03  0.7818609E-02  0.9900785E-01
       -1   -1    0    0    0  501  0.00000000000E+00  0.00000000000E+00  0.96254559012E+02  0.96254559144E+02  0.50400001928E-02 0. -1.
        1   -1    0    0  501    0  0.00000000000E+00  0.00000000000E+00 -0.94199243389E+03  0.94199243391E+03  0.50400001928E-02 0.  1.
    10030    2    1    2    0    0  0.00000000000E+00  0.00000000000E+00 -0.84573787488E+03  0.10382469931E+04  0.60223273373E+03 0.  0.
        1    1    3    3  502    0  0.18027752918E+03  0.21493455782E+03 -0.61152025596E+03  0.67279556713E+03  0.50400001928E-02 0.  1.
       -1    1    3    3    0  502 -0.18027752918E+03 -0.21493455782E+03 -0.23421761892E+03  0.36545142592E+03  0.50400001928E-02 0. -1.
</event>
<event>
 5   0  0.8575590E-02  0.5995593E+03  0.7818609E-02  0.9906321E-01
        2   -1    0    0  501    0  0.00000000000E+00  0.00000000000E+00  0.97896626899E+03  0.97896626899E+03  0.25500000920E-02 0. -1.
       -2   -1    0    0    0  501  0.00000000000E+00  0.00000000000E+00 -0.91798706012E+02  0.91798706048E+02  0.25500000920E-02 0.  1.
    10030    2    1    2    0    0  0.00000000000E+00  0.00000000000E+00  0.88716756297E+03  0.10707649750E+04  0.59955929396E+03 0.  0.
        4    1    3    3  502    0  0.21100766095E+03  0.53955436364E+02  0.81146078166E+03  0.84018190600E+03  0.12699999809E+01 0. -1.
       -4    1    3    3    0  502 -0.21100766095E+03 -0.53955436364E+02  0.75706781313E+02  0.23058306904E+03  0.12699999809E+01 0.  1.
</event>
<event>
 5   0  0.8699746E-02  0.6083895E+03  0.7818609E-02  0.9888152E-01
        2   -1    0    0  501    0  0.00000000000E+00  0.00000000000E+00  0.95221354112E+03  0.95221354112E+03  0.25500000920E-02 0.  1.
       -2   -1    0    0    0  501  0.00000000000E+00  0.00000000000E+00 -0.97178248546E+02  0.97178248580E+02  0.25500000920E-02 0. -1.
    10030    2    1    2    0    0  0.00000000000E+00  0.00000000000E+00  0.85503529257E+03  0.10493917897E+04  0.60838949428E+03 0.  0.
        3    1    3    3  502    0  0.26182325163E+03 -0.14924166747E+03  0.35619181416E+03  0.46658022791E+03  0.10100000352E+00 0.  1.
       -3    1    3    3    0  502 -0.26182325163E+03  0.14924166747E+03  0.49884347841E+03  0.58281156179E+03  0.10100000352E+00 0. -1.
</event>
<event>
 5   0  0.8420604E-02  0.5990163E+03  0.7818609E-02  0.9907449E-01
       -2   -1    0    0    0  501  0.00000000000E+00  0.00000000000E+00  0.13141021150E+03  0.13141021153E+03  0.25500000920E-02 0. -1.
        2   -1    0    0  501    0  0.00000000000E+00  0.00000000000E+00 -0.68263437494E+03  0.68263437495E+03  0.25500000920E-02 0.  1.
    10030    2    1    2    0    0  0.00000000000E+00  0.00000000000E+00 -0.55122416344E+03  0.81404458647E+03  0.59901628559E+03 0.  0.
        2    1    3    3  502    0 -0.27392823608E+03 -0.57377250928E+02 -0.42055936625E+03  0.50517225577E+03  0.25500000920E-02 0.  1.
       -2    1    3    3    0  502  0.27392823608E+03  0.57377250928E+02 -0.13066479719E+03  0.30887233071E+03  0.25500000920E-02 0. -1.
</event>
<event>
 5   0  0.8420604E-02  0.6026819E+03  0.7818609E-02  0.9899858E-01
        2   -1    0    0  501    0  0.00000000000E+00  0.00000000000E+00  0.27432609871E+03  0.27432609873E+03  0.25500000920E-02 0.  1.
       -2   -1    0    0    0  501  0.00000000000E+00  0.00000000000E+00 -0.33101609610E+03  0.33101609611E+03  0.25500000920E-02 0. -1.
    10030    2    1    2    0    0  0.00000000000E+00  0.00000000000E+00 -0.56689997385E+02  0.60534219484E+03  0.60268185392E+03 0.  0.
        2    1    3    3  502    0  0.17829889626E+03  0.20260210017E+03  0.10629239135E+03  0.29006237238E+03  0.25500000920E-02 0.  1.
       -2    1    3    3    0  502 -0.17829889626E+03 -0.20260210017E+03 -0.16298238874E+03  0.31527982246E+03  0.25500000920E-02 0. -1.
</event>
<event>
 5   0  0.8575590E-02  0.6028079E+03  0.7818609E-02  0.9899598E-01
        2   -1    0    0  501    0  0.00000000000E+00  0.00000000000E+00  0.12117659659E+04  0.12117659659E+04  0.25500000920E-02 0. -1.
       -2   -1    0    0    0  501  0.00000000000E+00  0.00000000000E+00 -0.74968561008E+02  0.74968561051E+02  0.25500000920E-02 0.  1.
    10030    2    1    2    0    0  0.00000000000E+00  0.00000000000E+00  0.11367974048E+04  0.12867345269E+04  0.60280793216E+03 0.  0.
        4    1    3    3  502    0 -0.10023934963E+03 -0.17848009011E+03  0.10406144934E+04  0.10605579695E+04  0.12699999809E+01 0. -1.
       -4    1    3    3    0  502  0.10023934963E+03  0.17848009011E+03  0.96182911412E+02  0.22617655743E+03  0.12699999809E+01 0.  1.
</event>
<event>
 5   0  0.8817544E-02  0.6061645E+03  0.7818609E-02  0.9892699E-01
       -2   -1    0    0    0  501  0.00000000000E+00  0.00000000000E+00  0.51799337306E+02  0.51799337368E+02  0.25500000920E-02 0. -1.
        2   -1    0    0  501    0  0.00000000000E+00  0.00000000000E+00 -0.17733593784E+04  0.17733593784E+04  0.25500000920E-02 0.  1.
    10030    2    1    2    0    0  0.00000000000E+00  0.00000000000E+00 -0.17215600411E+04  0.18251587158E+04  0.60616446833E+03 0.  0.
        5    1    3    3  502    0 -0.20416407671E+02 -0.74113055518E+02 -0.17434034067E+04  0.17451037514E+04  0.46999998093E+01 0.  1.
       -5    1    3    3    0  502  0.20416407671E+02  0.74113055518E+02  0.21843365600E+02  0.80054964364E+02  0.46999998093E+01 0. -1.
</event>
<event>
 5   0  0.8817544E-02  0.6148798E+03  0.7818609E-02  0.9875007E-01
       -2   -1    0    0    0  501  0.00000000000E+00  0.00000000000E+00  0.50378384175E+03  0.50378384176E+03  0.25500000920E-02 0.  1.
        2   -1    0    0  501    0  0.00000000000E+00  0.00000000000E+00 -0.18761876640E+03  0.18761876642E+03  0.25500000920E-02 0. -1.
    10030    2    1    2    0    0  0.00000000000E+00  0.00000000000E+00  0.31616507535E+03  0.69140260817E+03  0.61487983518E+03 0.  0.
        5    1    3    3  502    0 -0.47051733026E+02 -0.19138849163E+02 -0.18282672849E+03  0.18981007291E+03  0.46999998093E+01 0. -1.
       -5    1    3    3    0  502  0.47051733026E+02  0.19138849163E+02  0.49899180384E+03  0.50159253526E+03  0.46999998093E+01 0.  1.
</event>
<event>
 5   0  0.8699746E-02  0.5934879E+03  0.7818609E-02  0.9919009E-01
       -2   -1    0    0    0  501  0.00000000000E+00  0.00000000000E+00  0.10007205512E+03  0.10007205515E+03  0.25500000920E-02 0.  1.
        2   -1    0    0  501    0  0.00000000000E+00  0.00000000000E+00 -0.87993563308E+03  0.87993563308E+03  0.25500000920E-02 0. -1.
    10030    2    1    2    0    0  0.00000000000E+00  0.00000000000E+00 -0.77986357796E+03  0.98000768823E+03  0.59348788426E+03 0.  0.
        3    1    3    3  502    0 -0.16840886331E+02  0.49615739370E+02  0.92373161478E+02  0.10619862621E+03  0.10100000352E+00 0.  1.
       -3    1    3    3    0  502  0.16840886331E+02 -0.49615739370E+02 -0.87223673944E+03  0.87380906202E+03  0.10100000352E+00 0. -1.
</event>
<event>
 5   0  0.5125031E-02  0.6042482E+03  0.7818609E-02  0.9896631E-01
        1   -1    0    0  501    0  0.00000000000E+00  0.00000000000E+00  0.17818043812E+04  0.17818043812E+04  0.50400001928E-02 0.  1.
       -1   -1    0    0    0  501  0.00000000000E+00  0.00000000000E+00 -0.51228390823E+02  0.51228391071E+02  0.50400001928E-02 0. -1.
    10030    2    1    2    0    0  0.00000000000E+00  0.00000000000E+00  0.17305759903E+04  0.18330327722E+04  0.60424819881E+03 0.  0.
        4    1    3    3  502    0 -0.80680392895E+02  0.23090259654E+03  0.14032841380E+04  0.14244414062E+04  0.12699999809E+01 0.  1.
       -4    1    3    3    0  502  0.80680392895E+02 -0.23090259654E+03  0.32729185237E+03  0.40859136605E+03  0.12699999809E+01 0. -1.
</event>
<event>
 5   0  0.4987389E-02  0.5964676E+03  0.7818609E-02  0.9912762E-01
       -1   -1    0    0    0  501  0.00000000000E+00  0.00000000000E+00  0.10516378777E+03  0.10516378789E+03  0.50400001928E-02 0.  1.
        1   -1    0    0  501    0  0.00000000000E+00  0.00000000000E+00 -0.84576069503E+03  0.84576069504E+03  0.50400001928E-02 0. -1.
    10030    2    1    2    0    0  0.00000000000E+00  0.00000000000E+00 -0.74059690726E+03  0.95092448293E+03  0.59646759609E+03 0.  0.
        1    1    3    3  502    0  0.11561613888E+03  0.93766147914E+02  0.41700478863E+02  0.15459014207E+03  0.50400001928E-02 0.  1.
       -1    1    3    3    0  502 -0.11561613888E+03 -0.93766147914E+02 -0.78229738613E+03  0.79633434086E+03  0.50400001928E-02 0. -1.
</event>
<event>
 5   0  0.8420604E-02  0.6132015E+03  0.7818609E-02  0.9878390E-01
        2   -1    0    0  501    0  0.00000000000E+00  0.00000000000E+00  0.22558510557E+03  0.22558510558E+03  0.25500000920E-02 0. -1.
       -2   -1    0    0    0  501  0.00000000000E+00  0.00000000000E+00 -0.41671194502E+03  0.41671194503E+03  0.25500000920E-02 0.  1.
    10030    2    1    2    0    0  0.00000000000E+00  0.00000000000E+00 -0.19112683946E+03  0.64229705061E+03  0.61320146157E+03 0.  0.
        2    1    3    3  502    0 -0.17111924459E+03  0.57978388482E+02  0.16390109185E+03  0.24394027408E+03  0.25500000920E-02 0. -1.
       -2    1    3    3    0  502  0.17111924459E+03 -0.57978388482E+02 -0.35502793131E+03  0.39835677654E+03  0.25500000920E-02 0.  1.
</event>
<event>
 5   0  0.8575590E-02  0.5985989E+03  0.7818609E-02  0.9908317E-01
       -2   -1    0    0    0  501  0.00000000000E+00  0.00000000000E+00  0.50131450086E+02  0.50131450151E+02  0.25500000920E-02 0. -1.
        2   -1    0    0  501    0  0.00000000000E+00  0.00000000000E+00 -0.17869053971E+04  0.17869053971E+04  0.25500000920E-02 0.  1.
    10030    2    1    2    0    0  0.00000000000E+00  0.00000000000E+00 -0.17367739470E+04  0.18370368472E+04  0.59859889336E+03 0.  0.
        4    1    3    3  502    0 -0.13889085295E+03 -0.24238664899E+03 -0.53876157122E+03  0.60688351450E+03  0.12699999809E+01 0. -1.
       -4    1    3    3    0  502  0.13889085295E+03  0.24238664899E+03 -0.11980123757E+04  0.12301533327E+04  0.12699999809E+01 0.  1.
</event>
<event>
 5   0  0.5190380E-02  0.5975985E+03  0.7818609E-02  0.9910401E-01
       -1   -1    0    0    0  501  0.00000000000E+00  0.00000000000E+00  0.83611257544E+02  0.83611257695E+02  0.50400001928E-02 0.  1.
        1   -1    0    0  501    0  0.00000000000E+00  0.00000000000E+00 -0.10678106310E+04  0.10678106310E+04  0.50400001928E-02 0. -1.
    10030    2    1    2    0    0  0.00000000000E+00  0.00000000000E+00 -0.98419937346E+03  0.11514218887E+04  0.59759849321E+03 0.  0.
        5    1    3    3  502    0  0.18124258741E+03 -0.95583696974E+02 -0.91102360568E+03  0.93379399159E+03  0.46999998093E+01 0. -1.
       -5    1    3    3    0  502 -0.18124258741E+03  0.95583696974E+02 -0.73175767784E+02  0.21762789713E+03  0.46999998093E+01 0.  1.
</event>
<event>
 5   0  0.5190380E-02  0.5786975E+03  0.7818609E-02  0.9950615E-01
        1   -1    0    0  501    0  0.00000000000E+00  0.00000000000E+00  0.40668104239E+03  0.40668104242E+03  0.50400001928E-02 0.  1.
       -1   -1    0    0    0  501  0.00000000000E+00  0.00000000000E+00 -0.20586823952E+03  0.20586823958E+03  0.50400001928E-02 0. -1.
    10030    2    1    2    0    0  0.00000000000E+00  0.00000000000E+00  0.20081280287E+03  0.61254928200E+03  0.57869753851E+03 0.  0.
        5    1    3    3  502    0 -0.28091211758E+03 -0.62040677533E+02  0.67954260967E+02  0.29563581490E+03  0.46999998093E+01 0. -1.
       -5    1    3    3    0  502  0.28091211758E+03  0.62040677533E+02  0.13285854190E+03  0.31691346709E+03  0.46999998093E+01 0.  1.
</event>
<event>
 5   0  0.8207443E-02  0.6037440E+03  0.7818609E-02  0.9897669E-01
       -2   -1    0    0    0  501  0.00000000000E+00  0.00000000000E+00  0.18622052422E+03  0.18622052424E+03  0.25500000920E-02 0.  1.
        2   -1    0    0  501    0  0.00000000000E+00  0.00000000000E+00 -0.48934836707E+03  0.48934836708E+03  0.25500000920E-02 0. -1.
    10030    2    1    2    0    0  0.00000000000E+00  0.00000000000E+00 -0.30312784285E+03  0.67556889132E+03  0.60374401678E+03 0.  0.
        1    1    3    3  502    0  0.12897722124E+03  0.13264879746E+03  0.11534139320E+03  0.21802399886E+03  0.50400001928E-02 0.  1.
       -1    1    3    3    0  502 -0.12897722124E+03 -0.13264879746E+03 -0.41846923605E+03  0.45754489246E+03  0.50400001928E-02 0. -1.
</event>
<event>
 5   0  0.3437375E-02  0.4641235E+03  0.7818609E-02  0.1023592E+00
        3   -1    0    0  501    0  0.00000000000E+00  0.00000000000E+00  0.14639125869E+03  0.14639129353E+03  0.10100000352E+00 0.  1.
       -3   -1    0    0    0  501  0.00000000000E+00  0.00000000000E+00 -0.36786783332E+03  0.36786784718E+03  0.10100000352E+00 0. -1.
    10030    2    1    2    0    0  0.00000000000E+00  0.00000000000E+00 -0.22147657463E+03  0.51425914072E+03  0.46412346493E+03 0.  0.
        3    1    3    3  502    0 -0.21942741411E+03  0.71535524769E+02 -0.83894950033E+02  0.24556891947E+03  0.10100000352E+00 0.  1.
       -3    1    3    3    0  502  0.21942741411E+03 -0.71535524769E+02 -0.13758162459E+03  0.26869022125E+03  0.10100000352E+00 0. -1.
</event>
<event>
 5   0  0.5190380E-02  0.6114446E+03  0.7818609E-02  0.9881943E-01
       -1   -1    0    0    0  501  0.00000000000E+00  0.00000000000E+00  0.12279380769E+03  0.12279380779E+03  0.50400001928E-02 0. -1.
        1   -1    0    0  501    0  0.00000000000E+00  0.00000000000E+00 -0.76116317814E+03  0.76116317816E+03  0.50400001928E-02 0.  1.
    10030    2    1    2    0    0  0.00000000000E+00  0.00000000000E+00 -0.63836937045E+03  0.88395698595E+03  0.61144460083E+03 0.  0.
        5    1    3    3  502    0 -0.22686134707E+03  0.19238032660E+03 -0.21728920086E+03  0.36839238275E+03  0.46999998093E+01 0. -1.
       -5    1    3    3    0  502  0.22686134707E+03 -0.19238032660E+03 -0.42108016959E+03  0.51556460320E+03  0.46999998093E+01 0.  1.
</event>
<event>
 5   0  0.5125031E-02  0.6039398E+03  0.7818609E-02  0.9897266E-01
       -1   -1    0    0    0  501  0.00000000000E+00  0.00000000000E+00  0.10739511661E+03  0.10739511673E+03  0.50400001928E-02 0.  1.
        1   -1    0    0  501    0  0.00000000000E+00  0.00000000000E+00 -0.84906855170E+03  0.84906855171E+03  0.50400001928E-02 0. -1.
    10030    2    1    2    0    0  0.00000000000E+00  0.00000000000E+00 -0.74167343508E+03  0.95646366844E+03  0.60393978569E+03 0.  0.
        4    1    3    3  502    0 -0.25341684404E+03  0.43638232110E+02 -0.12013129115E+03  0.28382658818E+03  0.12699999809E+01 0.  1.
       -4    1    3    3    0  502  0.25341684404E+03 -0.43638232110E+02 -0.62154214394E+03  0.67263708026E+03  0.12699999809E+01 0. -1.
</event>
<event>
 5   0  0.5125031E-02  0.5932619E+03  0.7818609E-02  0.9919485E-01
        1   -1    0    0  501    0  0.00000000000E+00  0.00000000000E+00  0.55068114180E+03  0.55068114182E+03  0.50400001928E-02 0. -1.
       -1   -1    0    0    0  501  0.00000000000E+00  0.00000000000E+00 -0.15978381497E+03  0.15978381505E+03  0.50400001928E-02 0.  1.
    10030    2    1    2    0    0  0.00000000000E+00  0.00000000000E+00  0.39089732683E+03  0.71046495687E+03  0.59326194452E+03 0.  0.
        4    1    3    3  502    0  0.24428915470E+03  0.11936910579E+03  0.33745966039E+03  0.43336683054E+03  0.12699999809E+01 0. -1.
       -4    1    3    3    0  502 -0.24428915470E+03 -0.11936910579E+03  0.53437666443E+02  0.27709812633E+03  0.12699999809E+01 0.  1.
</event>
<event>
 5   0  0.4987389E-02  0.6038424E+03  0.7818609E-02  0.9897466E-01
        1   -1    0    0  501    0  0.00000000000E+00  0.00000000000E+00  0.12748569562E+03  0.12748569572E+03  0.50400001928E-02 0.  1.
       -1   -1    0    0    0  501  0.00000000000E+00  0.00000000000E+00 -0.71503256555E+03  0.71503256557E+03  0.50400001928E-02 0. -1.
    10030    2    1    2    0    0  0.00000000000E+00  0.00000000000E+00 -0.58754686993E+03  0.84251826128E+03  0.60384244322E+03 0.  0.
        1    1    3    3  502    0 -0.17248231123E+03 -0.20867469812E+03 -0.48024402971E+03  0.55129810939E+03  0.50400001928E-02 0. -1.
       -1    1    3    3    0  502  0.17248231123E+03  0.20867469812E+03 -0.10730284022E+03  0.29122015189E+03  0.50400001928E-02 0.  1.
</event>
<event>
 5   0  0.4987389E-02  0.6040352E+03  0.7818609E-02  0.9897069E-01
       -1   -1    0    0    0  501  0.00000000000E+00  0.00000000000E+00  0.72902727334E+03  0.72902727336E+03  0.50400001928E-02 0. -1.
        1   -1    0    0  501    0  0.00000000000E+00  0.00000000000E+00 -0.12511828120E+03  0.12511828131E+03  0.50400001928E-02 0.  1.
    10030    2    1    2    0    0  0.00000000000E+00  0.00000000000E+00  0.60390899214E+03  0.85414555466E+03  0.60403522891E+03 0.  0.
        1    1    3    3  502    0 -0.13957910391E+03 -0.32174538260E+02 -0.74030447448E+02  0.16123905958E+03  0.50400001928E-02 0.  1.
       -1    1    3    3    0  502  0.13957910391E+03  0.32174538260E+02  0.67793943959E+03  0.69290649508E+03  0.50400001928E-02 0. -1.
</event>
<event>
 5   0  0.3437375E-02  0.4540661E+03  0.7818609E-02  0.1026516E+00
       -4   -1    0    0    0  501  0.00000000000E+00  0.00000000000E+00  0.19180916696E+03  0.19181337135E+03  0.12699999809E+01 0. -1.
        4   -1    0    0  501    0  0.00000000000E+00  0.00000000000E+00 -0.26871679174E+03  0.26871979284E+03  0.12699999809E+01 0.  1.
    10030    2    1    2    0    0  0.00000000000E+00  0.00000000000E+00 -0.76907624785E+02  0.46053316419E+03  0.45406608833E+03 0.  0.
        1    1    3    3  502    0 -0.17398446861E+03  0.22061853630E+02  0.10777549826E+03  0.20584673608E+03  0.50400001928E-02 0. -1.
       -1    1    3    3    0  502  0.17398446861E+03 -0.22061853630E+02 -0.18468312304E+03  0.25468642811E+03  0.50400001928E-02 0.  1.
</event>
<event>
 5   0  0.5190380E-02  0.6043128E+03  0.7818609E-02  0.9896499E-01
        1   -1    0    0  501    0  0.00000000000E+00  0.00000000000E+00  0.50427963849E+03  0.50427963852E+03  0.50400001928E-02 0. -1.
       -1   -1    0    0    0  501  0.00000000000E+00  0.00000000000E+00 -0.18104732751E+03  0.18104732758E+03  0.50400001928E-02 0.  1.
    10030    2    1    2    0    0  0.00000000000E+00  0.00000000000E+00  0.32323231098E+03  0.68532696610E+03  0.60431276968E+03 0.  0.
        5    1    3    3  502    0  0.19935573588E+03 -0.16049772609E+03 -0.20449622451E+02  0.25679273074E+03  0.46999998093E+01 0.  1.
       -5    1    3    3    0  502 -0.19935573588E+03  0.16049772609E+03  0.34368193343E+03  0.42853423535E+03  0.46999998093E+01 0. -1.
</event>
<event>
 5   0  0.8699746E-02  0.5991476E+03  0.7818609E-02  0.9907176E-01
       -2   -1    0    0    0  501  0.00000000000E+00  0.00000000000E+00  0.11006278247E+03  0.11006278250E+03  0.25500000920E-02 0.  1.
        2   -1    0    0  501    0  0.00000000000E+00  0.00000000000E+00 -0.81539346508E+03  0.81539346508E+03  0.25500000920E-02 0. -1.
    10030    2    1    2    0    0  0.00000000000E+00  0.00000000000E+00 -0.70533068261E+03  0.92545624758E+03  0.59914763987E+03 0.  0.
        3    1    3    3  502    0  0.46291254544E+02  0.23191265283E+03 -0.63671656872E+03  0.67921598765E+03  0.10100000352E+00 0. -1.
       -3    1    3    3    0  502 -0.46291254544E+02 -0.23191265283E+03 -0.68614113886E+02  0.24624025994E+03  0.10100000352E+00 0.  1.
</event>
<event>
 5   0  0.4881209E-02  0.5948498E+03  0.7818609E-02  0.9916149E-01
       -1   -1    0    0    0  501  0.00000000000E+00  0.00000000000E+00  0.37152144013E+03  0.37152144016E+03  0.50400001928E-02 0.  1.
        1   -1    0    0  501    0  0.00000000000E+00  0.00000000000E+00 -0.23810624433E+03  0.23810624438E+03  0.50400001928E-02 0. -1.
    10030    2    1    2    0    0  0.00000000000E+00  0.00000000000E+00  0.13341519580E+03  0.60962768454E+03  0.59484981238E+03 0.  0.
        3    1    3    3  502    0 -0.10745242480E+03 -0.27541662365E+03  0.10009333537E+03  0.31212021108E+03  0.10100000352E+00 0. -1.
       -3    1    3    3    0  502  0.10745242480E+03  0.27541662365E+03  0.33321860427E+02  0.29750747346E+03  0.10100000352E+00 0.  1.
</event>
<event>
 5   0  0.3437375E-02  0.6027918E+03  0.7818609E-02  0.9899631E-01
       -3   -1    0    0    0  501  0.00000000000E+00  0.00000000000E+00  0.40720297100E+03  0.40720298353E+03  0.10100000352E+00 0. -1.
        3   -1    0    0  501    0  0.00000000000E+00  0.00000000000E+00 -0.22308156243E+03  0.22308158529E+03  0.10100000352E+00 0.  1.
    10030    2    1    2    0    0  0.00000000000E+00  0.00000000000E+00  0.18412140857E+03  0.63028456882E+03  0.60279179208E+03 0.  0.
        1    1    3    3  502    0 -0.16679155815E+03 -0.92348388176E+02 -0.15202091206E+03  0.24384012467E+03  0.50400001928E-02 0.  1.
       -1    1    3    3    0  502  0.16679155815E+03  0.92348388176E+02  0.33614232063E+03  0.38644444415E+03  0.50400001928E-02 0. -1.
</event>
<event>
 5   0  0.3437375E-02  0.6007889E+03  0.7818609E-02  0.9903771E-01
       -4   -1    0    0    0  501  0.00000000000E+00  0.00000000000E+00  0.93541628654E+03  0.93541714867E+03  0.12699999809E+01 0. -1.
        4   -1    0    0  501    0  0.00000000000E+00  0.00000000000E+00 -0.96461947886E+02  0.96470307815E+02  0.12699999809E+01 0.  1.
    10030    2    1    2    0    0  0.00000000000E+00  0.00000000000E+00  0.83895433866E+03  0.10318874565E+04  0.60078893174E+03 0.  0.
        3    1    3    3  502    0 -0.18843148733E+02  0.29868411014E+03  0.37503388561E+03  0.47981005353E+03  0.10100000352E+00 0. -1.
       -3    1    3    3    0  502  0.18843148733E+02 -0.29868411014E+03  0.46392045304E+03  0.55207740296E+03  0.10100000352E+00 0.  1.
</event>
<event>
 5   0  0.8817544E-02  0.5924218E+03  0.7818609E-02  0.9921254E-01
       -2   -1    0    0    0  501  0.00000000000E+00  0.00000000000E+00  0.72811382961E+02  0.72811383005E+02  0.25500000920E-02 0.  1.
        2   -1    0    0  501    0  0.00000000000E+00  0.00000000000E+00 -0.12050438309E+04  0.12050438309E+04  0.25500000920E-02 0. -1.
    10030    2    1    2    0    0  0.00000000000E+00  0.00000000000E+00 -0.11322324480E+04  0.12778552139E+04  0.59242183582E+03 0.  0.
        5    1    3    3  502    0  0.10059878653E+03 -0.17467665885E+03 -0.98057841434E+02  0.22420856643E+03  0.46999998093E+01 0.  1.
       -5    1    3    3    0  502 -0.10059878653E+03  0.17467665885E+03 -0.10341746065E+04  0.10536466475E+04  0.46999998093E+01 0. -1.
</event>
<event>
 5   0  0.8699746E-02  0.5971770E+03  0.7818609E-02  0.9911280E-01
        2   -1    0    0  501    0  0.00000000000E+00  0.00000000000E+00  0.60064325165E+03  0.60064325166E+03  0.25500000920E-02 0. -1.
       -2   -1    0    0    0  501  0.00000000000E+00  0.00000000000E+00 -0.14843269366E+03  0.14843269368E+03  0.25500000920E-02 0.  1.
    10030    2    1    2    0    0  0.00000000000E+00  0.00000000000E+00  0.45221055799E+03  0.74907594534E+03  0.59717701156E+03 0.  0.
        3    1    3    3  502    0  0.18726664689E+03 -0.63260652360E+02 -0.54615082193E+02  0.20506956034E+03  0.10100000352E+00 0.  1.
       -3    1    3    3    0  502 -0.18726664689E+03  0.63260652360E+02  0.50682564018E+03  0.54400638500E+03  0.10100000352E+00 0. -1.
</event>
<event>
 5   0  0.4987389E-02  0.5962269E+03  0.7818609E-02  0.9913265E-01
        1   -1    0    0  501    0  0.00000000000E+00  0.00000000000E+00  0.29129593112E+03  0.29129593116E+03  0.50400001928E-02 0. -1.
       -1   -1    0    0    0  501  0.00000000000E+00  0.00000000000E+00 -0.30509051701E+03  0.30509051706E+03  0.50400001928E-02 0.  1.
    10030    2    1    2    0    0  0.00000000000E+00  0.00000000000E+00 -0.13794585897E+02  0.59638644821E+03  0.59622689055E+03 0.  0.
        1    1    3    3  502    0 -0.12991366992E+03 -0.24307095135E+03 -0.12055242125E+03  0.30082209912E+03  0.50400001928E-02 0.  1.
       -1    1    3    3    0  502  0.12991366992E+03  0.24307095135E+03  0.10675783535E+03  0.29556434910E+03  0.50400001928E-02 0. -1.
</event>
<event>
 5   0  0.8575590E-02  0.5974132E+03  0.7818609E-02  0.9910787E-01
        2   -1    0    0  501    0  0.00000000000E+00  0.00000000000E+00  0.36315984377E+03  0.36315984378E+03  0.25500000920E-02 0.  1.
       -2   -1    0    0    0  501  0.00000000000E+00  0.00000000000E+00 -0.24569245987E+03  0.24569245988E+03  0.25500000920E-02 0. -1.
    10030    2    1    2    0    0  0.00000000000E+00  0.00000000000E+00  0.11746738390E+03  0.60885230366E+03  0.59741320825E+03 0.  0.
        4    1    3    3  502    0 -0.11587811449E+03  0.16698494037E+03 -0.16434634604E+03  0.26138676723E+03  0.12699999809E+01 0. -1.
       -4    1    3    3    0  502  0.11587811449E+03 -0.16698494037E+03  0.28181372994E+03  0.34746553643E+03  0.12699999809E+01 0.  1.
</event>
<event>
 5   0  0.8207443E-02  0.5882661E+03  0.7818609E-02  0.9930054E-01
       -2   -1    0    0    0  501  0.00000000000E+00  0.00000000000E+00  0.27000592535E+03  0.27000592536E+03  0.25500000920E-02 0.  1.
        2   -1    0    0  501    0  0.00000000000E+00  0.00000000000E+00 -0.32041617148E+03  0.32041617149E+03  0.25500000920E-02 0. -1.
    10030    2    1    2    0    0  0.00000000000E+00  0.00000000000E+00 -0.50410246131E+02  0.59042209685E+03  0.58826614685E+03 0.  0.
        1    1    3    3  502    0 -0.13465905449E+03 -0.18727237711E+03  0.15797475342E+03  0.27957114824E+03  0.50400001928E-02 0.  1.
       -1    1    3    3    0  502  0.13465905449E+03  0.18727237711E+03 -0.20838499955E+03  0.31085094860E+03  0.50400001928E-02 0. -1.
</event>
<event>
 5   0  0.8699746E-02  0.6192210E+03  0.7818609E-02  0.9866312E-01
       -2   -1    0    0    0  501  0.00000000000E+00  0.00000000000E+00  0.22550160427E+03  0.22550160429E+03  0.25500000920E-02 0. -1.
        2   -1    0    0  501    0  0.00000000000E+00  0.00000000000E+00 -0.42509078298E+03  0.42509078298E+03  0.25500000920E-02 0.  1.
    10030    2    1    2    0    0  0.00000000000E+00  0.00000000000E+00 -0.19958917870E+03  0.65059238727E+03  0.61922097358E+03 0.  0.
        3    1    3    3  502    0 -0.27964883788E+03  0.75800801892E+02 -0.21445366301E+03  0.36047138288E+03  0.10100000352E+00 0.  1.
       -3    1    3    3    0  502  0.27964883788E+03 -0.75800801892E+02  0.14864484311E+02  0.29012100439E+03  0.10100000352E+00 0. -1.
</event>
<event>
 5   0  0.5190380E-02  0.5971954E+03  0.7818609E-02  0.9911242E-01
        1   -1    0    0  501    0  0.00000000000E+00  0.00000000000E+00  0.13638779795E+04  0.13638779795E+04  0.50400001928E-02 0.  1.
       -1   -1    0    0    0  501  0.00000000000E+00  0.00000000000E+00 -0.65372853988E+02  0.65372854183E+02  0.50400001928E-02 0. -1.
    10030    2    1    2    0    0  0.00000000000E+00  0.00000000000E+00  0.12985051255E+04  0.14292508337E+04  0.59719543253E+03 0.  0.
        5    1    3    3  502    0 -0.13194617355E+03 -0.12309847813E+03  0.12185065657E+04  0.12318049231E+04  0.46999998093E+01 0.  1.
       -5    1    3    3    0  502  0.13194617355E+03  0.12309847813E+03  0.79998559851E+02  0.19744591059E+03  0.46999998093E+01 0. -1.
</event>
<event>
 5   0  0.5166903E-02  0.5909294E+03  0.7818609E-02  0.9924405E-01
       -1   -1    0    0    0  501  0.00000000000E+00  0.00000000000E+00  0.32785170528E+03  0.32785170532E+03  0.50400001928E-02 0.  1.
        1   -1    0    0  501    0  0.00000000000E+00  0.00000000000E+00 -0.26627706372E+03  0.26627706377E+03  0.50400001928E-02 0. -1.
    10030    2    1    2    0    0  0.00000000000E+00  0.00000000000E+00  0.61574641559E+02  0.59412876909E+03  0.59092940169E+03 0.  0.
        2    1    3    3  502    0  0.11374481493E+03  0.22615786594E+03 -0.12239941220E+03  0.28118833433E+03  0.25500000920E-02 0. -1.
       -2    1    3    3    0  502 -0.11374481493E+03 -0.22615786594E+03  0.18397405376E+03  0.31294043477E+03  0.25500000920E-02 0.  1.
</event>
<event>
 5   0  0.4987389E-02  0.5973676E+03  0.7818609E-02  0.9910883E-01
       -1   -1    0    0    0  501  0.00000000000E+00  0.00000000000E+00  0.13369287571E+03  0.13369287580E+03  0.50400001928E-02 0. -1.
        1   -1    0    0  501    0  0.00000000000E+00  0.00000000000E+00 -0.66729067628E+03  0.66729067630E+03  0.50400001928E-02 0.  1.
    10030    2    1    2    0    0  0.00000000000E+00  0.00000000000E+00 -0.53359780057E+03  0.80098355210E+03  0.59736759032E+03 0.  0.
        1    1    3    3  502    0 -0.49379946322E+02  0.24926030347E+03 -0.47728728058E+03  0.54071455151E+03  0.50400001928E-02 0.  1.
       -1    1    3    3    0  502  0.49379946322E+02 -0.24926030347E+03 -0.56310519992E+02  0.26026900059E+03  0.50400001928E-02 0. -1.
</event>
<event>
 5   0  0.8420604E-02  0.6100197E+03  0.7818609E-02  0.9884834E-01
       -2   -1    0    0    0  501  0.00000000000E+00  0.00000000000E+00  0.53073570242E+02  0.53073570303E+02  0.25500000920E-02 0.  1.
        2   -1    0    0  501    0  0.00000000000E+00  0.00000000000E+00 -0.17528686855E+04  0.17528686855E+04  0.25500000920E-02 0. -1.
    10030    2    1    2    0    0  0.00000000000E+00  0.00000000000E+00 -0.16997951152E+04  0.18059422558E+04  0.61001966972E+03 0.  0.
        2    1    3    3  502    0 -0.22498338573E+02 -0.17521077547E+02  0.49118573341E+02  0.56796105945E+02  0.25500000920E-02 0.  1.
       -2    1    3    3    0  502  0.22498338573E+02  0.17521077547E+02 -0.17489136886E+04  0.17491461498E+04  0.25500000920E-02 0. -1.
</event>
<event>
 5   0  0.8575590E-02  0.5931190E+03  0.7818609E-02  0.9919786E-01
        2   -1    0    0  501    0  0.00000000000E+00  0.00000000000E+00  0.77859074478E+03  0.77859074479E+03  0.25500000920E-02 0. -1.
       -2   -1    0    0    0  501  0.00000000000E+00  0.00000000000E+00 -0.11295733739E+03  0.11295733741E+03  0.25500000920E-02 0.  1.
    10030    2    1    2    0    0  0.00000000000E+00  0.00000000000E+00  0.66563340739E+03  0.89154808220E+03  0.59311900141E+03 0.  0.
        4    1    3    3  502    0  0.19638548702E+03  0.63859066707E+02  0.12886446238E+02  0.20691281572E+03  0.12699999809E+01 0.  1.
       -4    1    3    3    0  502 -0.19638548702E+03 -0.63859066707E+02  0.65274696116E+03  0.68463526648E+03  0.12699999809E+01 0. -1.
</event>
<event>
 5   0  0.5166903E-02  0.6020040E+03  0.7818609E-02  0.9901257E-01
       -1   -1    0    0    0  501  0.00000000000E+00  0.00000000000E+00  0.16378055619E+03  0.16378055627E+03  0.50400001928E-02 0.  1.
        1   -1    0    0  501    0  0.00000000000E+00  0.00000000000E+00 -0.55319264787E+03  0.55319264789E+03  0.50400001928E-02 0. -1.
    10030    2    1    2    0    0  0.00000000000E+00  0.00000000000E+00 -0.38941209168E+03  0.71697320416E+03  0.60200398532E+03 0.  0.
        2    1    3    3  502    0 -0.88696349114E+02 -0.18963284223E+03  0.62871696402E+02  0.21858752804E+03  0.25500000920E-02 0.  1.
       -2    1    3    3    0  502  0.88696349114E+02  0.18963284223E+03 -0.45228378808E+03  0.49838567612E+03  0.25500000920E-02 0. -1.
</event>
<event>
 5   0  0.3437375E-02  0.5783826E+03  0.7818609E-02  0.9951299E-01
        3   -1    0    0  501    0  0.00000000000E+00  0.00000000000E+00  0.15420648732E+03  0.15420652040E+03  0.10100000352E+00 0.  1.
       -3   -1    0    0    0  501  0.00000000000E+00  0.00000000000E+00 -0.54233513670E+03  0.54233514611E+03  0.10100000352E+00 0. -1.
    10030    2    1    2    0    0  0.00000000000E+00  0.00000000000E+00 -0.38812864938E+03  0.69654166650E+03  0.57838261100E+03 0.  0.
        4    1    3    3  502    0 -0.42156408137E+01  0.21418621116E+03  0.39880070626E+02  0.21791176566E+03  0.12699999809E+01 0.  1.
       -4    1    3    3    0  502  0.42156408137E+01 -0.21418621116E+03 -0.42800872001E+03  0.47862990085E+03  0.12699999809E+01 0. -1.
</event>
<event>
 5   0  0.4881209E-02  0.5328758E+03  0.7818609E-02  0.1005537E+00
        1   -1    0    0  501    0  0.00000000000E+00  0.00000000000E+00  0.11093659931E+03  0.11093659942E+03  0.50400001928E-02 0. -1.
       -1   -1    0    0    0  501  0.00000000000E+00  0.00000000000E+00 -0.63990746092E+03  0.63990746094E+03  0.50400001928E-02 0.  1.
    10030    2    1    2    0    0  0.00000000000E+00  0.00000000000E+00 -0.52897086161E+03  0.75084406036E+03  0.53287581156E+03 0.  0.
        3    1    3    3  502    0  0.65929917253E+02  0.10258976746E+03 -0.59827580004E+03  0.61057788814E+03  0.10100000352E+00 0.  1.
       -3    1    3    3    0  502 -0.65929917253E+02 -0.10258976746E+03  0.69304938429E+02  0.14026617222E+03  0.10100000352E+00 0. -1.
</event>
<event>
 5   0  0.5166903E-02  0.6154989E+03  0.7818609E-02  0.9873763E-01
        1   -1    0    0  501    0  0.00000000000E+00  0.00000000000E+00  0.21274424776E+03  0.21274424782E+03  0.50400001928E-02 0.  1.
       -1   -1    0    0    0  501  0.00000000000E+00  0.00000000000E+00 -0.44518108700E+03  0.44518108703E+03  0.50400001928E-02 0. -1.
    10030    2    1    2    0    0  0.00000000000E+00  0.00000000000E+00 -0.23243683924E+03  0.65792533485E+03  0.61549887247E+03 0.  0.
        2    1    3    3  502    0  0.66527347159E+02 -0.30870372277E+02  0.20326628868E+03  0.21609269290E+03  0.25500000920E-02 0.  1.
       -2    1    3    3    0  502 -0.66527347159E+02  0.30870372277E+02 -0.43570312792E+03  0.44183264195E+03  0.25500000920E-02 0. -1.
</event>
<event>
 5   0  0.5190380E-02  0.5977634E+03  0.7818609E-02  0.9910057E-01
       -1   -1    0    0    0  501  0.00000000000E+00  0.00000000000E+00  0.23594185038E+03  0.23594185043E+03  0.50400001928E-02 0.  1.
        1   -1    0    0  501    0  0.00000000000E+00  0.00000000000E+00 -0.37861132523E+03  0.37861132527E+03  0.50400001928E-02 0. -1.
    10030    2    1    2    0    0  0.00000000000E+00  0.00000000000E+00 -0.14266947486E+03  0.61455317570E+03  0.59776335343E+03 0.  0.
        5    1    3    3  502    0  0.29441233799E+03 -0.17959622893E+02 -0.12071500061E+03  0.31874029269E+03  0.46999998093E+01 0.  1.
       -5    1    3    3    0  502 -0.29441233799E+03  0.17959622893E+02 -0.21954474250E+02  0.29581288301E+03  0.46999998093E+01 0. -1.
</event>
<event>
 5   0  0.8420604E-02  0.6026445E+03  0.7818609E-02  0.9899935E-01
       -2   -1    0    0    0  501  0.00000000000E+00  0.00000000000E+00  0.11932510398E+03  0.11932510400E+03  0.25500000920E-02 0.  1.
        2   -1    0    0  501    0  0.00000000000E+00  0.00000000000E+00 -0.76090518759E+03  0.76090518759E+03  0.25500000920E-02 0. -1.
    10030    2    1    2    0    0  0.00000000000E+00  0.00000000000E+00 -0.64158008361E+03  0.88023029160E+03  0.60264447443E+03 0.  0.
        2    1    3    3  502    0 -0.29784047757E+03  0.15625162297E+02 -0.25810277460E+03  0.39442380511E+03  0.25500000920E-02 0.  1.
       -2    1    3    3    0  502  0.29784047757E+03 -0.15625162297E+02 -0.38347730901E+03  0.48580648648E+03  0.25500000920E-02 0. -1.
</event>
<event>
 5   0  0.8699746E-02  0.6065018E+03  0.7818609E-02  0.9892008E-01
        2   -1    0    0  501    0  0.00000000000E+00  0.00000000000E+00  0.49026931809E+03  0.49026931810E+03  0.25500000920E-02 0. -1.
       -2   -1    0    0    0  501  0.00000000000E+00  0.00000000000E+00 -0.18757266054E+03  0.18757266056E+03  0.25500000920E-02 0.  1.
    10030    2    1    2    0    0  0.00000000000E+00  0.00000000000E+00  0.30269665755E+03  0.67784197865E+03  0.60650183968E+03 0.  0.
        3    1    3    3  502    0  0.99151458432E+02 -0.39779590710E+02 -0.16584413750E+03  0.19727573518E+03  0.10100000352E+00 0.  1.
       -3    1    3    3    0  502 -0.99151458432E+02  0.39779590710E+02  0.46854079505E+03  0.48056624348E+03  0.10100000352E+00 0. -1.
</event>
<event>
 5   0  0.8420604E-02  0.6103655E+03  0.7818609E-02  0.9884131E-01
        2   -1    0    0  501    0  0.00000000000E+00  0.00000000000E+00  0.92089866792E+03  0.92089866793E+03  0.25500000920E-02 0.  1.
       -2   -1    0    0    0  501  0.00000000000E+00  0.00000000000E+00 -0.10113655393E+03  0.10113655396E+03  0.25500000920E-02 0. -1.
    10030    2    1    2    0    0  0.00000000000E+00  0.00000000000E+00  0.81976211399E+03  0.10220352219E+04  0.61036552265E+03 0.  0.
        2    1    3    3  502    0  0.80385451420E+02 -0.21356317065E+03  0.74920481128E+03  0.78318509811E+03  0.25500000920E-02 0.  1.
       -2    1    3    3    0  502 -0.80385451420E+02  0.21356317065E+03  0.70557302720E+02  0.23885012378E+03  0.25500000920E-02 0. -1.
</event>
<event>
 5   0  0.4987389E-02  0.6090467E+03  0.7818609E-02  0.9886813E-01
       -1   -1    0    0    0  501  0.00000000000E+00  0.00000000000E+00  0.14039663841E+03  0.14039663850E+03  0.50400001928E-02 0. -1.
        1   -1    0    0  501    0  0.00000000000E+00  0.00000000000E+00 -0.66051774326E+03  0.66051774328E+03  0.50400001928E-02 0.  1.
    10030    2    1    2    0    0  0.00000000000E+00  0.00000000000E+00 -0.52012110486E+03  0.80091438178E+03  0.60904670036E+03 0.  0.
        1    1    3    3  502    0  0.24099297950E+03  0.86973428334E+02 -0.43609422519E+02  0.25989185282E+03  0.50400001928E-02 0. -1.
       -1    1    3    3    0  502 -0.24099297950E+03 -0.86973428334E+02 -0.47651168234E+03  0.54102252896E+03  0.50400001928E-02 0.  1.
</event>
<event>
 5   0  0.4881209E-02  0.6033982E+03  0.7818609E-02  0.9898381E-01
       -1   -1    0    0    0  501  0.00000000000E+00  0.00000000000E+00  0.14196982880E+03  0.14196982889E+03  0.50400001928E-02 0.  1.
        1   -1    0    0  501    0  0.00000000000E+00  0.00000000000E+00 -0.64113860141E+03  0.64113860143E+03  0.50400001928E-02 0. -1.
    10030    2    1    2    0    0  0.00000000000E+00  0.00000000000E+00 -0.49916877261E+03  0.78310843032E+03  0.60339816879E+03 0.  0.
        3    1    3    3  502    0  0.57141391175E+02 -0.29565218044E+03 -0.27375948281E+03  0.40696389891E+03  0.10100000352E+00 0. -1.
       -3    1    3    3    0  502 -0.57141391175E+02  0.29565218044E+03 -0.22540928980E+03  0.37614453142E+03  0.10100000352E+00 0.  1.
</event>
<event>
 5   0  0.8817544E-02  0.5968594E+03  0.7818609E-02  0.9911943E-01
       -2   -1    0    0    0  501  0.00000000000E+00  0.00000000000E+00  0.35656063682E+03  0.35656063683E+03  0.25500000920E-02 0.  1.
        2   -1    0    0  501    0  0.00000000000E+00  0.00000000000E+00 -0.24977600705E+03  0.24977600706E+03  0.25500000920E-02 0. -1.
    10030    2    1    2    0    0  0.00000000000E+00  0.00000000000E+00  0.10678462977E+03  0.60633664389E+03  0.59685942111E+03 0.  0.
        5    1    3    3  502    0  0.57820286758E+01  0.96631593075E+02 -0.23334306382E+03  0.25267008542E+03  0.46999998093E+01 0. -1.
       -5    1    3    3    0  502 -0.57820286758E+01 -0.96631593075E+02  0.34012769359E+03  0.35366655847E+03  0.46999998093E+01 0.  1.
</event>
<event>
 5   0  0.4881209E-02  0.6013955E+03  0.7818609E-02  0.9902515E-01
        1   -1    0    0  501    0  0.00000000000E+00  0.00000000000E+00  0.53991725271E+03  0.53991725274E+03  0.50400001928E-02 0. -1.
       -1   -1    0    0    0  501  0.00000000000E+00  0.00000000000E+00 -0.16746850999E+03  0.16746851007E+03  0.50400001928E-02 0.  1.
    10030    2    1    2    0    0  0.00000000000E+00  0.00000000000E+00  0.37244874272E+03  0.70738576280E+03  0.60139550336E+03 0.  0.
        3    1    3    3  502    0  0.21671704240E+03  0.20785600554E+03  0.20477514840E+03  0.36346013139E+03  0.10100000352E+00 0. -1.
       -3    1    3    3    0  502 -0.21671704240E+03 -0.20785600554E+03  0.16767359433E+03  0.34392563141E+03  0.10100000352E+00 0.  1.
</event>
<event>
 5   0  0.5166903E-02  0.6045926E+03  0.7818609E-02  0.9895923E-01
       -1   -1    0    0    0  501  0.00000000000E+00  0.00000000000E+00  0.49781275772E+03  0.49781275775E+03  0.50400001928E-02 0.  1.
        1   -1    0    0  501    0  0.00000000000E+00  0.00000000000E+00 -0.18356913055E+03  0.18356913062E+03  0.50400001928E-02 0. -1.
    10030    2    1    2    0    0  0.00000000000E+00  0.00000000000E+00  0.31424362717E+03  0.68138188837E+03  0.60459260712E+03 0.  0.
        2    1    3    3  502    0  0.21213762536E+03  0.11236751519E+03  0.36417972115E+03  0.43618310360E+03  0.25500000920E-02 0.  1.
       -2    1    3    3    0  502 -0.21213762536E+03 -0.11236751519E+03 -0.49936093979E+02  0.24519878477E+03  0.25500000920E-02 0. -1.
</event>
<event>
 5   0  0.8817544E-02  0.6009849E+03  0.7818609E-02  0.9903365E-01
       -2   -1    0    0    0  501  0.00000000000E+00  0.00000000000E+00  0.69363316859E+02  0.69363316906E+02  0.25500000920E-02 0. -1.
        2   -1    0    0  501    0  0.00000000000E+00  0.00000000000E+00 -0.13017789620E+04  0.13017789620E+04  0.25500000920E-02 0.  1.
    10030    2    1    2    0    0  0.00000000000E+00  0.00000000000E+00 -0.12324156451E+04  0.13711422789E+04  0.60098488052E+03 0.  0.
        5    1    3    3  502    0  0.25511230757E+02  0.29832039305E+03 -0.55904577352E+03  0.63419251548E+03  0.46999998093E+01 0. -1.
       -5    1    3    3    0  502 -0.25511230757E+02 -0.29832039305E+03 -0.67336987158E+03  0.73694976338E+03  0.46999998093E+01 0.  1.
</event>
<event>
 5   0  0.4987389E-02  0.6000071E+03  0.7818609E-02  0.9905391E-01
       -1   -1    0    0    0  501  0.00000000000E+00  0.00000000000E+00  0.28021702309E+03  0.28021702313E+03  0.50400001928E-02 0. -1.
        1   -1    0    0  501    0  0.00000000000E+00  0.00000000000E+00 -0.32118728042E+03  0.32118728046E+03  0.50400001928E-02 0.  1.
    10030    2    1    2    0    0  0.00000000000E+00  0.00000000000E+00 -0.40970257327E+02  0.60140430359E+03  0.60000714528E+03 0.  0.
        1    1    3    3  502    0  0.14684329323E+03  0.21868254195E+03  0.12343590979E+03  0.29089762937E+03  0.50400001928E-02 0. -1.
       -1    1    3    3    0  502 -0.14684329323E+03 -0.21868254195E+03 -0.16440616712E+03  0.31050667422E+03  0.50400001928E-02 0.  1.
</event>
<event>
 5   0  0.8699746E-02  0.6038078E+03  0.7818609E-02  0.9897537E-01
        2   -1    0    0  501    0  0.00000000000E+00  0.00000000000E+00  0.63248251161E+03  0.63248251161E+03  0.25500000920E-02 0.  1.
       -2   -1    0    0    0  501  0.00000000000E+00  0.00000000000E+00 -0.14410829524E+03  0.14410829526E+03  0.25500000920E-02 0. -1.
    10030    2    1    2    0    0  0.00000000000E+00  0.00000000000E+00  0.48837421637E+03  0.77659080687E+03  0.60380783872E+03 0.  0.
        3    1    3    3  502    0 -0.12607770525E+03 -0.13796365180E+03  0.54913458887E+03  0.58006755113E+03  0.10100000352E+00 0.  1.
       -3    1    3    3    0  502  0.12607770525E+03  0.13796365180E+03 -0.60760372504E+02  0.19652325574E+03  0.10100000352E+00 0. -1.
</event>
<event>
 5   0  0.8207443E-02  0.5858901E+03  0.7818609E-02  0.9935120E-01
       -2   -1    0    0    0  501  0.00000000000E+00  0.00000000000E+00  0.10945350732E+03  0.10945350735E+03  0.25500000920E-02 0.  1.
        2   -1    0    0  501    0  0.00000000000E+00  0.00000000000E+00 -0.78404806069E+03  0.78404806070E+03  0.25500000920E-02 0. -1.
    10030    2    1    2    0    0  0.00000000000E+00  0.00000000000E+00 -0.67459455337E+03  0.89350156805E+03  0.58589012678E+03 0.  0.
        1    1    3    3  502    0 -0.20573470475E+03  0.15572557181E+02 -0.20150845790E+02  0.20730492007E+03  0.50400001928E-02 0.  1.
       -1    1    3    3    0  502  0.20573470475E+03 -0.15572557181E+02 -0.65444370758E+03  0.68619664798E+03  0.50400001928E-02 0. -1.
</event>
<event>
 5   0  0.8699746E-02  0.5974693E+03  0.7818609E-02  0.9910670E-01
       -2   -1    0    0    0  501  0.00000000000E+00  0.00000000000E+00  0.15760948537E+03  0.15760948539E+03  0.25500000920E-02 0.  1.
        2   -1    0    0  501    0  0.00000000000E+00  0.00000000000E+00 -0.56622478894E+03  0.56622478894E+03  0.25500000920E-02 0. -1.
    10030    2    1    2    0    0  0.00000000000E+00  0.00000000000E+00 -0.40861530357E+03  0.72383427433E+03  0.59746932171E+03 0.  0.
        3    1    3    3  502    0 -0.92129300958E+00  0.26059530913E+03 -0.27363795576E+02  0.26202967662E+03  0.10100000352E+00 0.  1.
       -3    1    3    3    0  502  0.92129300958E+00 -0.26059530913E+03 -0.38125150799E+03  0.46180459771E+03  0.10100000352E+00 0. -1.
</event>
<event>
 5   0  0.3437375E-02  0.6312893E+03  0.7818609E-02  0.9842536E-01
        4   -1    0    0  501    0  0.00000000000E+00  0.00000000000E+00  0.81964055211E+03  0.81964153602E+03  0.12699999809E+01 0. -1.
       -4   -1    0    0    0  501  0.00000000000E+00  0.00000000000E+00 -0.12155079968E+03  0.12155743417E+03  0.12699999809E+01 0.  1.
    10030    2    1    2    0    0  0.00000000000E+00  0.00000000000E+00  0.69808975244E+03  0.94119897019E+03  0.63128931484E+03 0.  0.
        1    1    3    3  502    0  0.23170460398E+02  0.18720509187E+03 -0.28274366914E+02  0.19074080975E+03  0.50400001928E-02 0.  1.
       -1    1    3    3    0  502 -0.23170460398E+02 -0.18720509187E+03  0.72636411935E+03  0.75045816044E+03  0.50400001928E-02 0. -1.
</event>
<event>
 5   0  0.8575590E-02  0.5872448E+03  0.7818609E-02  0.9932228E-01
       -2   -1    0    0    0  501  0.00000000000E+00  0.00000000000E+00  0.17744584547E+03  0.17744584549E+03  0.25500000920E-02 0. -1.
        2   -1    0    0  501    0  0.00000000000E+00  0.00000000000E+00 -0.48586157251E+03  0.48586157251E+03  0.25500000920E-02 0.  1.
    10030    2    1    2    0    0  0.00000000000E+00  0.00000000000E+00 -0.30841572703E+03  0.66330741800E+03  0.58724481274E+03 0.  0.
        4    1    3    3  502    0  0.22454844887E+02  0.22769864402E+03 -0.36205760083E+03  0.42829687340E+03  0.12699999809E+01 0.  1.
       -4    1    3    3    0  502 -0.22454844887E+02 -0.22769864402E+03  0.53641873795E+02  0.23501054460E+03  0.12699999809E+01 0. -1.
</event>
<event>
 5   0  0.4881209E-02  0.6001822E+03  0.7818609E-02  0.9905028E-01
       -1   -1    0    0    0  501  0.00000000000E+00  0.00000000000E+00  0.11241728757E+03  0.11241728769E+03  0.50400001928E-02 0.  1.
        1   -1    0    0  501    0  0.00000000000E+00  0.00000000000E+00 -0.80107485956E+03  0.80107485958E+03  0.50400001928E-02 0. -1.
    10030    2    1    2    0    0  0.00000000000E+00  0.00000000000E+00 -0.68865757199E+03  0.91349214726E+03  0.60018218205E+03 0.  0.
        3    1    3    3  502    0  0.14596390078E+03 -0.24522675849E+02 -0.74165547504E+03  0.75628015697E+03  0.10100000352E+00 0. -1.
       -3    1    3    3    0  502 -0.14596390078E+03  0.24522675849E+02  0.52997903056E+02  0.15721199029E+03  0.10100000352E+00 0.  1.
</event>
<event>
 5   0  0.3437375E-02  0.5765334E+03  0.7818609E-02  0.9955324E-01
        4   -1    0    0  501    0  0.00000000000E+00  0.00000000000E+00  0.23623422644E+03  0.23623764019E+03  0.12699999809E+01 0.  1.
       -4   -1    0    0    0  501  0.00000000000E+00  0.00000000000E+00 -0.35175268378E+03  0.35175497644E+03  0.12699999809E+01 0. -1.
    10030    2    1    2    0    0  0.00000000000E+00  0.00000000000E+00 -0.11551845734E+03  0.58799261663E+03  0.57653343634E+03 0.  0.
        4    1    3    3  502    0  0.13015453426E+03  0.25323993153E+03 -0.11860024488E+02  0.28497883920E+03  0.12699999809E+01 0. -1.
       -4    1    3    3    0  502 -0.13015453426E+03 -0.25323993153E+03 -0.10365843285E+03  0.30301377743E+03  0.12699999809E+01 0.  1.
</event>
<event>
 5   0  0.5190380E-02  0.5964924E+03  0.7818609E-02  0.9912710E-01
        1   -1    0    0  501    0  0.00000000000E+00  0.00000000000E+00  0.39006540805E+03  0.39006540808E+03  0.50400001928E-02 0. -1.
       -1   -1    0    0    0  501  0.00000000000E+00  0.00000000000E+00 -0.22804071449E+03  0.22804071455E+03  0.50400001928E-02 0.  1.
    10030    2    1    2    0    0  0.00000000000E+00  0.00000000000E+00  0.16202469356E+03  0.61810612263E+03  0.59649239518E+03 0.  0.
        5    1    3    3  502    0 -0.11384849392E+03 -0.22484391076E+03  0.24620142230E+03  0.35235421683E+03  0.46999998093E+01 0. -1.
       -5    1    3    3    0  502  0.11384849392E+03  0.22484391076E+03 -0.84176728745E+02  0.26575190580E+03  0.46999998093E+01 0.  1.
</event>
<event>
 5   0  0.3437375E-02  0.6042150E+03  0.7818609E-02  0.9896700E-01
        3   -1    0    0  501    0  0.00000000000E+00  0.00000000000E+00  0.30912363079E+03  0.30912364729E+03  0.10100000352E+00 0.  1.
       -3   -1    0    0    0  501  0.00000000000E+00  0.00000000000E+00 -0.29525055084E+03  0.29525056811E+03  0.10100000352E+00 0. -1.
    10030    2    1    2    0    0  0.00000000000E+00  0.00000000000E+00  0.13873079956E+02  0.60437421541E+03  0.60421496994E+03 0.  0.
        2    1    3    3  502    0  0.22448172559E+03  0.89945948564E+02  0.18805500475E+03  0.30634458312E+03  0.25500000920E-02 0.  1.
       -2    1    3    3    0  502 -0.22448172559E+03 -0.89945948564E+02 -0.17418192479E+03  0.29802963229E+03  0.25500000920E-02 0. -1.
</event>
<event>
 5   0  0.5190380E-02  0.5147656E+03  0.7818609E-02  0.1009995E+00
       -1   -1    0    0    0  501  0.00000000000E+00  0.00000000000E+00  0.11845314941E+03  0.11845314952E+03  0.50400001928E-02 0. -1.
        1   -1    0    0  501    0  0.00000000000E+00  0.00000000000E+00 -0.55925828988E+03  0.55925828991E+03  0.50400001928E-02 0.  1.
    10030    2    1    2    0    0  0.00000000000E+00  0.00000000000E+00 -0.44080514048E+03  0.67771143942E+03  0.51476560030E+03 0.  0.
        5    1    3    3  502    0 -0.67487551558E+02 -0.16460685515E+03  0.24396092971E+02  0.17963085962E+03  0.46999998093E+01 0. -1.
       -5    1    3    3    0  502  0.67487551558E+02  0.16460685515E+03 -0.46520123345E+03  0.49808057980E+03  0.46999998093E+01 0.  1.
</event>
<event>
 5   0  0.3437375E-02  0.5939819E+03  0.7818609E-02  0.9917971E-01
       -4   -1    0    0    0  501  0.00000000000E+00  0.00000000000E+00  0.13066833508E+03  0.13067450667E+03  0.12699999809E+01 0.  1.
        4   -1    0    0  501    0  0.00000000000E+00  0.00000000000E+00 -0.67499633779E+03  0.67499753253E+03  0.12699999809E+01 0. -1.
    10030    2    1    2    0    0  0.00000000000E+00  0.00000000000E+00 -0.54432800270E+03  0.80567203921E+03  0.59398186860E+03 0.  0.
        3    1    3    3  502    0  0.13565960386E+03  0.10128318331E+03 -0.60313966345E+03  0.62644973874E+03  0.10100000352E+00 0. -1.
       -3    1    3    3    0  502 -0.13565960386E+03 -0.10128318331E+03  0.58811660750E+02  0.17922230046E+03  0.10100000352E+00 0.  1.
</event>
<event>
 5   0  0.4881209E-02  0.6002963E+03  0.7818609E-02  0.9904792E-01
       -1   -1    0    0    0  501  0.00000000000E+00  0.00000000000E+00  0.11812500340E+03  0.11812500351E+03  0.50400001928E-02 0. -1.
        1   -1    0    0  501    0  0.00000000000E+00  0.00000000000E+00 -0.76265738368E+03  0.76265738370E+03  0.50400001928E-02 0.  1.
    10030    2    1    2    0    0  0.00000000000E+00  0.00000000000E+00 -0.64453238029E+03  0.88078238721E+03  0.60029628050E+03 0.  0.
        3    1    3    3  502    0  0.16829675316E+03 -0.19320041225E+02 -0.68581127359E+03  0.70642350917E+03  0.10100000352E+00 0.  1.
       -3    1    3    3    0  502 -0.16829675316E+03  0.19320041225E+02  0.41278893308E+02  0.17435887804E+03  0.10100000352E+00 0. -1.
</event>
<event>
 5   0  0.4881209E-02  0.6040065E+03  0.7818609E-02  0.9897128E-01
       -1   -1    0    0    0  501  0.00000000000E+00  0.00000000000E+00  0.78901315676E+02  0.78901315837E+02  0.50400001928E-02 0.  1.
        1   -1    0    0  501    0  0.00000000000E+00  0.00000000000E+00 -0.11559499136E+04  0.11559499136E+04  0.50400001928E-02 0. -1.
    10030    2    1    2    0    0  0.00000000000E+00  0.00000000000E+00 -0.10770485979E+04  0.12348512294E+04  0.60400652031E+03 0.  0.
        3    1    3    3  502    0  0.35153851643E+02  0.25094910823E+03 -0.87442611404E+03  0.91040226676E+03  0.10100000352E+00 0. -1.
       -3    1    3    3    0  502 -0.35153851643E+02 -0.25094910823E+03 -0.20262248386E+03  0.32444896266E+03  0.10100000352E+00 0.  1.
</event>
<event>
 5   0  0.8817544E-02  0.5958455E+03  0.7818609E-02  0.9914063E-01
        2   -1    0    0  501    0  0.00000000000E+00  0.00000000000E+00  0.56396918501E+03  0.56396918501E+03  0.25500000920E-02 0.  1.
       -2   -1    0    0    0  501  0.00000000000E+00  0.00000000000E+00 -0.15738086895E+03  0.15738086897E+03  0.25500000920E-02 0. -1.
    10030    2    1    2    0    0  0.00000000000E+00  0.00000000000E+00  0.40658831606E+03  0.72135005398E+03  0.59584548469E+03 0.  0.
        5    1    3    3  502    0 -0.11296005825E+03  0.12044217991E+03  0.50344704721E+03  0.52985593590E+03  0.46999998093E+01 0.  1.
       -5    1    3    3    0  502  0.11296005825E+03 -0.12044217991E+03 -0.96858731156E+02  0.19149411809E+03  0.46999998093E+01 0. -1.
</event>
<event>
 5   0  0.4987389E-02  0.6023527E+03  0.7818609E-02  0.9900537E-01
       -1   -1    0    0    0  501  0.00000000000E+00  0.00000000000E+00  0.13988067457E+03  0.13988067466E+03  0.50400001928E-02 0. -1.
        1   -1    0    0  501    0  0.00000000000E+00  0.00000000000E+00 -0.64846120326E+03  0.64846120328E+03  0.50400001928E-02 0.  1.
    10030    2    1    2    0    0  0.00000000000E+00  0.00000000000E+00 -0.50858052869E+03  0.78834187794E+03  0.60235268934E+03 0.  0.
        1    1    3    3  502    0  0.92054233700E+02 -0.15556469019E+03  0.60992798142E+02  0.19077336351E+03  0.50400001928E-02 0. -1.
       -1    1    3    3    0  502 -0.92054233700E+02  0.15556469019E+03 -0.56957332683E+03  0.59756851443E+03  0.50400001928E-02 0.  1.
</event>
<event>
 5   0  0.5190380E-02  0.6025594E+03  0.7818609E-02  0.9900110E-01
       -1   -1    0    0    0  501  0.00000000000E+00  0.00000000000E+00  0.11138180714E+03  0.11138180725E+03  0.50400001928E-02 0.  1.
        1   -1    0    0  501    0  0.00000000000E+00  0.00000000000E+00 -0.81493957814E+03  0.81493957815E+03  0.50400001928E-02 0. -1.
    10030    2    1    2    0    0  0.00000000000E+00  0.00000000000E+00 -0.70355777100E+03  0.92632138540E+03  0.60255935137E+03 0.  0.
        5    1    3    3  502    0  0.17850410004E+03 -0.18843774265E+03 -0.11674183127E+03  0.28464581808E+03  0.46999998093E+01 0.  1.
       -5    1    3    3    0  502 -0.17850410004E+03  0.18843774265E+03 -0.58681593973E+03  0.64167556732E+03  0.46999998093E+01 0. -1.
</event>
<event>
 5   0  0.5125031E-02  0.5940187E+03  0.7818609E-02  0.9917894E-01
       -1   -1    0    0    0  501  0.00000000000E+00  0.00000000000E+00  0.20317761690E+03  0.20317761696E+03  0.50400001928E-02 0.  1.
        1   -1    0    0  501    0  0.00000000000E+00  0.00000000000E+00 -0.43417452984E+03  0.43417452987E+03  0.50400001928E-02 0. -1.
    10030    2    1    2    0    0  0.00000000000E+00  0.00000000000E+00 -0.23099691294E+03  0.63735214683E+03  0.59401867418E+03 0.  0.
        4    1    3    3  502    0 -0.16076307248E+03 -0.17589163504E+03  0.74720424595E+02  0.24973463417E+03  0.12699999809E+01 0.  1.
       -4    1    3    3    0  502  0.16076307248E+03  0.17589163504E+03 -0.30571733754E+03  0.38761751266E+03  0.12699999809E+01 0. -1.
</event>
<event>
 5   0  0.5166903E-02  0.6043533E+03  0.7818609E-02  0.9896415E-01
        1   -1    0    0  501    0  0.00000000000E+00  0.00000000000E+00  0.15246599962E+03  0.15246599970E+03  0.50400001928E-02 0.  1.
       -1   -1    0    0    0  501  0.00000000000E+00  0.00000000000E+00 -0.59889242803E+03  0.59889242805E+03  0.50400001928E-02 0. -1.
    10030    2    1    2    0    0  0.00000000000E+00  0.00000000000E+00 -0.44642642841E+03  0.75135842775E+03  0.60435331633E+03 0.  0.
        2    1    3    3  502    0 -0.24283595122E+03 -0.17908666046E+03 -0.24361914067E+03  0.38780358027E+03  0.25500000920E-02 0. -1.
       -2    1    3    3    0  502  0.24283595122E+03  0.17908666046E+03 -0.20280728774E+03  0.36355484748E+03  0.25500000920E-02 0.  1.
</event>
<event>
 5   0  0.8420604E-02  0.6019216E+03  0.7818609E-02  0.9901427E-01
        2   -1    0    0  501    0  0.00000000000E+00  0.00000000000E+00  0.13597639331E+04  0.13597639331E+04  0.25500000920E-02 0. -1.
       -2   -1    0    0    0  501  0.00000000000E+00  0.00000000000E+00 -0.66612597109E+02  0.66612597158E+02  0.25500000920E-02 0.  1.
    10030    2    1    2    0    0  0.00000000000E+00  0.00000000000E+00  0.12931513360E+04  0.14263765303E+04  0.60192161309E+03 0.  0.
        2    1    3    3  502    0 -0.22582289868E+03  0.19734280888E+03  0.58675569691E+03  0.65895554755E+03  0.25500000920E-02 0. -1.
       -2    1    3    3    0  502  0.22582289868E+03 -0.19734280888E+03  0.70639563908E+03  0.76742098271E+03  0.25500000920E-02 0.  1.
</event>
<event>
 5   0  0.8699746E-02  0.5931190E+03  0.7818609E-02  0.9919786E-01
       -2   -1    0    0    0  501  0.00000000000E+00  0.00000000000E+00  0.22007011370E+03  0.22007011371E+03  0.25500000920E-02 0.  1.
        2   -1    0    0  501    0  0.00000000000E+00  0.00000000000E+00 -0.39963420550E+03  0.39963420550E+03  0.25500000920E-02 0. -1.
    10030    2    1    2    0    0  0.00000000000E+00  0.00000000000E+00 -0.17956409180E+03  0.61970431922E+03  0.59311902700E+03 0.  0.
        3    1    3    3  502    0  0.41134981189E+02 -0.91485312611E+02 -0.38137165822E+03  0.39434249200E+03  0.10100000352E+00 0. -1.
       -3    1    3    3    0  502 -0.41134981189E+02  0.91485312611E+02  0.20180756642E+03  0.22536182722E+03  0.10100000352E+00 0.  1.
</event>
<event>
 5   0  0.8575590E-02  0.6136454E+03  0.7818609E-02  0.9877494E-01
       -2   -1    0    0    0  501  0.00000000000E+00  0.00000000000E+00  0.51996808079E+02  0.51996808141E+02  0.25500000920E-02 0. -1.
        2   -1    0    0  501    0  0.00000000000E+00  0.00000000000E+00 -0.18104990542E+04  0.18104990542E+04  0.25500000920E-02 0.  1.
    10030    2    1    2    0    0  0.00000000000E+00  0.00000000000E+00 -0.17585022461E+04  0.18624958623E+04  0.61364540870E+03 0.  0.
        4    1    3    3  502    0  0.35249015060E+02  0.25786312968E+03 -0.13724269371E+04  0.13968869665E+04  0.12699999809E+01 0.  1.
       -4    1    3    3    0  502 -0.35249015060E+02 -0.25786312968E+03 -0.38607530901E+03  0.46560889579E+03  0.12699999809E+01 0. -1.
</event>
<event>
 5   0  0.4881209E-02  0.5529864E+03  0.7818609E-02  0.1000805E+00
       -1   -1    0    0    0  501  0.00000000000E+00  0.00000000000E+00  0.36104064317E+03  0.36104064321E+03  0.50400001928E-02 0. -1.
        1   -1    0    0  501    0  0.00000000000E+00  0.00000000000E+00 -0.21174484945E+03  0.21174484951E+03  0.50400001928E-02 0.  1.
    10030    2    1    2    0    0  0.00000000000E+00  0.00000000000E+00  0.14929579372E+03  0.57278549271E+03  0.55298642536E+03 0.  0.
        3    1    3    3  502    0 -0.27588413619E+02  0.27437455874E+03  0.95517929270E+02  0.29183249316E+03  0.10100000352E+00 0. -1.
       -3    1    3    3    0  502  0.27588413619E+02 -0.27437455874E+03  0.53777864454E+02  0.28095299955E+03  0.10100000352E+00 0.  1.
</event>
<event>
 5   0  0.8207443E-02  0.5731617E+03  0.7818609E-02  0.9962706E-01
       -2   -1    0    0    0  501  0.00000000000E+00  0.00000000000E+00  0.41711946060E+03  0.41711946061E+03  0.25500000920E-02 0.  1.
        2   -1    0    0  501    0  0.00000000000E+00  0.00000000000E+00 -0.19689465212E+03  0.19689465214E+03  0.25500000920E-02 0. -1.
    10030    2    1    2    0    0  0.00000000000E+00  0.00000000000E+00  0.22022480848E+03  0.61401411275E+03  0.57316172621E+03 0.  0.
        1    1    3    3  502    0  0.19575582066E+03 -0.20832075690E+03  0.13182290619E+03  0.31479383364E+03  0.50400001928E-02 0.  1.
       -1    1    3    3    0  502 -0.19575582066E+03  0.20832075690E+03  0.88401902291E+02  0.29922027911E+03  0.50400001928E-02 0. -1.
</event>
<event>
 5   0  0.8817544E-02  0.5978407E+03  0.7818609E-02  0.9909896E-01
       -2   -1    0    0    0  501  0.00000000000E+00  0.00000000000E+00  0.58957498238E+02  0.58957498293E+02  0.25500000920E-02 0. -1.
        2   -1    0    0  501    0  0.00000000000E+00  0.00000000000E+00 -0.15155556007E+04  0.15155556007E+04  0.25500000920E-02 0.  1.
    10030    2    1    2    0    0  0.00000000000E+00  0.00000000000E+00 -0.14565981024E+04  0.15745130990E+04  0.59784067009E+03 0.  0.
        5    1    3    3  502    0  0.17448124233E+02 -0.23503816367E+03 -0.24422063198E+03  0.33943067408E+03  0.46999998093E+01 0. -1.
       -5    1    3    3    0  502 -0.17448124233E+02  0.23503816367E+03 -0.12123774705E+04  0.12350824249E+04  0.46999998093E+01 0.  1.
</event>
<event>
 5   0  0.5125031E-02  0.5826037E+03  0.7818609E-02  0.9942170E-01
       -1   -1    0    0    0  501  0.00000000000E+00  0.00000000000E+00  0.15623273261E+03  0.15623273269E+03  0.50400001928E-02 0. -1.
        1   -1    0    0  501    0  0.00000000000E+00  0.00000000000E+00 -0.54314341802E+03  0.54314341805E+03  0.50400001928E-02 0.  1.
    10030    2    1    2    0    0  0.00000000000E+00  0.00000000000E+00 -0.38691068541E+03  0.69937615074E+03  0.58260374332E+03 0.  0.
        4    1    3    3  502    0  0.76707489862E+02  0.17730078579E+03  0.68270649271E+02  0.20489534425E+03  0.12699999809E+01 0. -1.
       -4    1    3    3    0  502 -0.76707489862E+02 -0.17730078579E+03 -0.45518133469E+03  0.49448080649E+03  0.12699999809E+01 0.  1.
</event>
<event>
 5   0  0.5166903E-02  0.5728045E+03  0.7818609E-02  0.9963492E-01
        1   -1    0    0  501    0  0.00000000000E+00  0.00000000000E+00  0.50293019711E+03  0.50293019714E+03  0.50400001928E-02 0. -1.
       -1   -1    0    0    0  501  0.00000000000E+00  0.00000000000E+00 -0.16309665823E+03  0.16309665831E+03  0.50400001928E-02 0.  1.
    10030    2    1    2    0    0  0.00000000000E+00  0.00000000000E+00  0.33983353888E+03  0.66602685545E+03  0.57280445008E+03 0.  0.
        2    1    3    3  502    0 -0.22524811082E+03  0.55550094291E+02  0.36518809696E+03  0.43264866875E+03  0.25500000920E-02 0. -1.
       -2    1    3    3    0  502  0.22524811082E+03 -0.55550094291E+02 -0.25354558082E+02  0.23337818670E+03  0.25500000920E-02 0.  1.
</event>
<event>
 5   0  0.5166903E-02  0.5911065E+03  0.7818609E-02  0.9924031E-01
       -1   -1    0    0    0  501  0.00000000000E+00  0.00000000000E+00  0.21018818464E+03  0.21018818470E+03  0.50400001928E-02 0. -1.
        1   -1    0    0  501    0  0.00000000000E+00  0.00000000000E+00 -0.41558816391E+03  0.41558816394E+03  0.50400001928E-02 0.  1.
    10030    2    1    2    0    0  0.00000000000E+00  0.00000000000E+00 -0.20539997927E+03  0.62577634864E+03  0.59110649382E+03 0.  0.
        2    1    3    3  502    0 -0.81067607124E+02  0.21721881413E+03  0.91341944676E+02  0.24919735352E+03  0.25500000920E-02 0. -1.
       -2    1    3    3    0  502  0.81067607124E+02 -0.21721881413E+03 -0.29674192395E+03  0.37657899513E+03  0.25500000920E-02 0.  1.
</event>
<event>
 5   0  0.4881209E-02  0.6020301E+03  0.7818609E-02  0.9901203E-01
        1   -1    0    0  501    0  0.00000000000E+00  0.00000000000E+00  0.42269649544E+03  0.42269649547E+03  0.50400001928E-02 0.  1.
       -1   -1    0    0    0  501  0.00000000000E+00  0.00000000000E+00 -0.21436199694E+03  0.21436199700E+03  0.50400001928E-02 0. -1.
    10030    2    1    2    0    0  0.00000000000E+00  0.00000000000E+00  0.20833449850E+03  0.63705849247E+03  0.60203011516E+03 0.  0.
        3    1    3    3  502    0 -0.16196981971E+02  0.60368534002E+02  0.41575404029E+03  0.42042613422E+03  0.10100000352E+00 0.  1.
       -3    1    3    3    0  502  0.16196981971E+02 -0.60368534002E+02 -0.20741954179E+03  0.21663235825E+03  0.10100000352E+00 0. -1.
</event>
<event>
 5   0  0.5166903E-02  0.5624606E+03  0.7818609E-02  0.9986502E-01
       -1   -1    0    0    0  501  0.00000000000E+00  0.00000000000E+00  0.36718335138E+03  0.36718335142E+03  0.50400001928E-02 0.  1.
        1   -1    0    0  501    0  0.00000000000E+00  0.00000000000E+00 -0.21539781245E+03  0.21539781250E+03  0.50400001928E-02 0. -1.
    10030    2    1    2    0    0  0.00000000000E+00  0.00000000000E+00  0.15178553893E+03  0.58258116392E+03  0.56246063216E+03 0.  0.
        2    1    3    3  502    0  0.12345329908E+03 -0.21986549022E+03 -0.53097028877E+02  0.25768361477E+03  0.25500000920E-02 0. -1.
       -2    1    3    3    0  502 -0.12345329908E+03  0.21986549022E+03  0.20488256781E+03  0.32489754915E+03  0.25500000920E-02 0.  1.
</event>
<event>
 5   0  0.8420604E-02  0.6070617E+03  0.7818609E-02  0.9890863E-01
        2   -1    0    0  501    0  0.00000000000E+00  0.00000000000E+00  0.17091283223E+04  0.17091283223E+04  0.25500000920E-02 0. -1.
       -2   -1    0    0    0  501  0.00000000000E+00  0.00000000000E+00 -0.53905250638E+02  0.53905250698E+02  0.25500000920E-02 0.  1.
    10030    2    1    2    0    0  0.00000000000E+00  0.00000000000E+00  0.16552230717E+04  0.17630335730E+04  0.60706174526E+03 0.  0.
        2    1    3    3  502    0 -0.11450808889E+03  0.82273713869E+02  0.46979420328E+02  0.14862076691E+03  0.25500000920E-02 0.  1.
       -2    1    3    3    0  502  0.11450808889E+03 -0.82273713869E+02  0.16082436513E+04  0.16144128061E+04  0.25500000920E-02 0. -1.
</event>
<event>
 5   0  0.8420604E-02  0.6249652E+03  0.7818609E-02  0.9854923E-01
        2   -1    0    0  501    0  0.00000000000E+00  0.00000000000E+00  0.35377561287E+03  0.35377561288E+03  0.25500000920E-02 0.  1.
       -2   -1    0    0    0  501  0.00000000000E+00  0.00000000000E+00 -0.27600933869E+03  0.27600933870E+03  0.25500000920E-02 0. -1.
    10030    2    1    2    0    0  0.00000000000E+00  0.00000000000E+00  0.77766274186E+02  0.62978495158E+03  0.62496519250E+03 0.  0.
        2    1    3    3  502    0  0.55158576600E+02  0.12588765745E+02 -0.27080503456E+03  0.27665196971E+03  0.25500000920E-02 0. -1.
       -2    1    3    3    0  502 -0.55158576600E+02 -0.12588765745E+02  0.34857130875E+03  0.35313298187E+03  0.25500000920E-02 0.  1.
</event>
<event>
 5   0  0.8699746E-02  0.5959376E+03  0.7818609E-02  0.9913870E-01
       -2   -1    0    0    0  501  0.00000000000E+00  0.00000000000E+00  0.65558289734E+02  0.65558289784E+02  0.25500000920E-02 0.  1.
        2   -1    0    0  501    0  0.00000000000E+00  0.00000000000E+00 -0.13542972174E+04  0.13542972174E+04  0.25500000920E-02 0. -1.
    10030    2    1    2    0    0  0.00000000000E+00  0.00000000000E+00 -0.12887389277E+04  0.14198555072E+04  0.59593761218E+03 0.  0.
        3    1    3    3  502    0 -0.10531211946E+03  0.18304059452E+03 -0.11452218701E+04  0.11645289364E+04  0.10100000352E+00 0. -1.
       -3    1    3    3    0  502  0.10531211946E+03 -0.18304059452E+03 -0.14351705760E+03  0.25532657082E+03  0.10100000352E+00 0.  1.
</event>
<event>
 5   0  0.3437375E-02  0.5937041E+03  0.7818609E-02  0.9918555E-01
       -3   -1    0    0    0  501  0.00000000000E+00  0.00000000000E+00  0.96605097767E+02  0.96605150565E+02  0.10100000352E+00 0.  1.
        3   -1    0    0  501    0  0.00000000000E+00  0.00000000000E+00 -0.91217874168E+03  0.91217874727E+03  0.10100000352E+00 0. -1.
    10030    2    1    2    0    0  0.00000000000E+00  0.00000000000E+00 -0.81557364391E+03  0.10087838978E+04  0.59370412150E+03 0.  0.
        2    1    3    3  502    0 -0.21718260395E+03 -0.10173747515E+03 -0.11054805091E+03  0.26408269325E+03  0.25500000920E-02 0.  1.
       -2    1    3    3    0  502  0.21718260395E+03  0.10173747515E+03 -0.70502559300E+03  0.74470120458E+03  0.25500000920E-02 0. -1.
</event>
<event>
 5   0  0.5125031E-02  0.6005653E+03  0.7818609E-02  0.9904234E-01
       -1   -1    0    0    0  501  0.00000000000E+00  0.00000000000E+00  0.92430755695E+02  0.92430755833E+02  0.50400001928E-02 0.  1.
        1   -1    0    0  501    0  0.00000000000E+00  0.00000000000E+00 -0.97553741230E+03  0.97553741231E+03  0.50400001928E-02 0. -1.
    10030    2    1    2    0    0  0.00000000000E+00  0.00000000000E+00 -0.88310665660E+03  0.10679681681E+04  0.60056526809E+03 0.  0.
        4    1    3    3  502    0  0.23445001985E+03  0.18722324884E+03 -0.41986929868E+03  0.51605348327E+03  0.12699999809E+01 0. -1.
       -4    1    3    3    0  502 -0.23445001985E+03 -0.18722324884E+03 -0.46323735792E+03  0.55191468488E+03  0.12699999809E+01 0.  1.
</event>
<event>
 5   0  0.5166903E-02  0.6007064E+03  0.7818609E-02  0.9903942E-01
       -1   -1    0    0    0  501  0.00000000000E+00  0.00000000000E+00  0.14173297131E+03  0.14173297140E+03  0.50400001928E-02 0. -1.
        1   -1    0    0  501    0  0.00000000000E+00  0.00000000000E+00 -0.63649300177E+03  0.63649300179E+03  0.50400001928E-02 0.  1.
    10030    2    1    2    0    0  0.00000000000E+00  0.00000000000E+00 -0.49476003046E+03  0.77822597320E+03  0.60070639885E+03 0.  0.
        2    1    3    3  502    0  0.15542316210E+03  0.14106402334E+03  0.30950287765E+02  0.21216347074E+03  0.25500000920E-02 0. -1.
       -2    1    3    3    0  502 -0.15542316210E+03 -0.14106402334E+03 -0.52571031822E+03  0.56606250246E+03  0.25500000920E-02 0.  1.
</event>
<event>
 5   0  0.3437375E-02  0.5909106E+03  0.7818609E-02  0.9924445E-01
       -3   -1    0    0    0  501  0.00000000000E+00  0.00000000000E+00  0.41466873833E+03  0.41466875063E+03  0.10100000352E+00 0.  1.
        3   -1    0    0  501    0  0.00000000000E+00  0.00000000000E+00 -0.21051463391E+03  0.21051465814E+03  0.10100000352E+00 0. -1.
    10030    2    1    2    0    0  0.00000000000E+00  0.00000000000E+00  0.20415410442E+03  0.62518340877E+03  0.59091064997E+03 0.  0.
        4    1    3    3  502    0  0.25258961124E+03 -0.13130393221E+03  0.18434803656E+02  0.28527826627E+03  0.12699999809E+01 0.  1.
       -4    1    3    3    0  502 -0.25258961124E+03  0.13130393221E+03  0.18571930076E+03  0.33990514250E+03  0.12699999809E+01 0. -1.
</event>
<event>
 5   0  0.5166903E-02  0.6048356E+03  0.7818609E-02  0.9895424E-01
        1   -1    0    0  501    0  0.00000000000E+00  0.00000000000E+00  0.60555238426E+03  0.60555238428E+03  0.50400001928E-02 0.  1.
       -1   -1    0    0    0  501  0.00000000000E+00  0.00000000000E+00 -0.15102991844E+03  0.15102991853E+03  0.50400001928E-02 0. -1.
    10030    2    1    2    0    0  0.00000000000E+00  0.00000000000E+00  0.45452246582E+03  0.75658230281E+03  0.60483560493E+03 0.  0.
        2    1    3    3  502    0  0.16962967001E+03  0.32207737732E+02 -0.83314580242E+02  0.19171041340E+03  0.25500000920E-02 0. -1.
       -2    1    3    3    0  502 -0.16962967001E+03 -0.32207737732E+02  0.53783704606E+03  0.56487188941E+03  0.25500000920E-02 0.  1.
</event>
<event>
 5   0  0.8699746E-02  0.6163916E+03  0.7818609E-02  0.9871970E-01
       -2   -1    0    0    0  501  0.00000000000E+00  0.00000000000E+00  0.43442129592E+02  0.43442129667E+02  0.25500000920E-02 0. -1.
        2   -1    0    0  501    0  0.00000000000E+00  0.00000000000E+00 -0.21864636953E+04  0.21864636953E+04  0.25500000920E-02 0.  1.
    10030    2    1    2    0    0  0.00000000000E+00  0.00000000000E+00 -0.21430215657E+04  0.22299058250E+04  0.61639156155E+03 0.  0.
        3    1    3    3  502    0 -0.20652643658E+03  0.69169559170E+02 -0.28266602403E+03  0.35684406716E+03  0.10100000352E+00 0. -1.
       -3    1    3    3    0  502  0.20652643658E+03 -0.69169559170E+02 -0.18603555417E+04  0.18730617578E+04  0.10100000352E+00 0.  1.
</event>
<event>
 5   0  0.8420604E-02  0.5964333E+03  0.7818609E-02  0.9912834E-01
       -2   -1    0    0    0  501  0.00000000000E+00  0.00000000000E+00  0.47806165455E+02  0.47806165523E+02  0.25500000920E-02 0.  1.
        2   -1    0    0  501    0  0.00000000000E+00  0.00000000000E+00 -0.18602863499E+04  0.18602863499E+04  0.25500000920E-02 0. -1.
    10030    2    1    2    0    0  0.00000000000E+00  0.00000000000E+00 -0.18124801844E+04  0.19080925154E+04  0.59643325563E+03 0.  0.
        2    1    3    3  502    0 -0.47221063752E+02  0.34713584956E+02 -0.18416808858E+04  0.18426131843E+04  0.25500000920E-02 0. -1.
       -2    1    3    3    0  502  0.47221063752E+02 -0.34713584956E+02  0.29200701332E+02  0.65479331144E+02  0.25500000920E-02 0.  1.
</event>
<event>
 5   0  0.8420604E-02  0.6235612E+03  0.7818609E-02  0.9857695E-01
       -2   -1    0    0    0  501  0.00000000000E+00  0.00000000000E+00  0.10807597640E+03  0.10807597643E+03  0.25500000920E-02 0.  1.
        2   -1    0    0  501    0  0.00000000000E+00  0.00000000000E+00 -0.89943341890E+03  0.89943341890E+03  0.25500000920E-02 0. -1.
    10030    2    1    2    0    0  0.00000000000E+00  0.00000000000E+00 -0.79135744250E+03  0.10075093953E+04  0.62356120780E+03 0.  0.
        2    1    3    3  502    0  0.95392641470E+02  0.29534727811E+03 -0.44353759244E+03  0.54134588449E+03  0.25500000920E-02 0.  1.
       -2    1    3    3    0  502 -0.95392641470E+02 -0.29534727811E+03 -0.34781985006E+03  0.46616351084E+03  0.25500000920E-02 0. -1.
</event>
<event>
 5   0  0.5166903E-02  0.5955684E+03  0.7818609E-02  0.9914643E-01
        1   -1    0    0  501    0  0.00000000000E+00  0.00000000000E+00  0.86261519681E+03  0.86261519682E+03  0.50400001928E-02 0.  1.
       -1   -1    0    0    0  501  0.00000000000E+00  0.00000000000E+00 -0.10279836843E+03  0.10279836856E+03  0.50400001928E-02 0. -1.
    10030    2    1    2    0    0  0.00000000000E+00  0.00000000000E+00  0.75981682838E+03  0.96541356538E+03  0.59556841717E+03 0.  0.
        2    1    3    3  502    0  0.28516283076E+03  0.75128533367E+02  0.31281216699E+03  0.42989950965E+03  0.25500000920E-02 0. -1.
       -2    1    3    3    0  502 -0.28516283076E+03 -0.75128533367E+02  0.44700466138E+03  0.53551405572E+03  0.25500000920E-02 0.  1.
</event>
<event>
 5   0  0.5190380E-02  0.6183344E+03  0.7818609E-02  0.9868082E-01
       -1   -1    0    0    0  501  0.00000000000E+00  0.00000000000E+00  0.18931007561E+03  0.18931007568E+03  0.50400001928E-02 0.  1.
        1   -1    0    0  501    0  0.00000000000E+00  0.00000000000E+00 -0.50490899230E+03  0.50490899232E+03  0.50400001928E-02 0. -1.
    10030    2    1    2    0    0  0.00000000000E+00  0.00000000000E+00 -0.31559891668E+03  0.69421906800E+03  0.61833440643E+03 0.  0.
        5    1    3    3  502    0  0.18802458294E+03  0.22730250816E+03 -0.54030358956E+02  0.29993506580E+03  0.46999998093E+01 0.  1.
       -5    1    3    3    0  502 -0.18802458294E+03 -0.22730250816E+03 -0.26156855773E+03  0.39428400221E+03  0.46999998093E+01 0. -1.
</event>
<event>
 5   0  0.3437375E-02  0.6035427E+03  0.7818609E-02  0.9898083E-01
       -3   -1    0    0    0  501  0.00000000000E+00  0.00000000000E+00  0.60755824723E+03  0.60755825563E+03  0.10100000352E+00 0.  1.
        3   -1    0    0  501    0  0.00000000000E+00  0.00000000000E+00 -0.14988840999E+03  0.14988844402E+03  0.10100000352E+00 0. -1.
    10030    2    1    2    0    0  0.00000000000E+00  0.00000000000E+00  0.45766983724E+03  0.75744669965E+03  0.60354272665E+03 0.  0.
        3    1    3    3  502    0 -0.17323481834E+03 -0.15691679615E+03  0.46838157171E+03  0.52346393392E+03  0.10100000352E+00 0.  1.
       -3    1    3    3    0  502  0.17323481834E+03  0.15691679615E+03 -0.10711734470E+02  0.23398276572E+03  0.10100000352E+00 0. -1.
</event>
<event>
 5   0  0.8207443E-02  0.6071449E+03  0.7818609E-02  0.9890692E-01
       -2   -1    0    0    0  501  0.00000000000E+00  0.00000000000E+00  0.48567340042E+02  0.48567340109E+02  0.25500000920E-02 0. -1.
        2   -1    0    0  501    0  0.00000000000E+00  0.00000000000E+00 -0.18974941784E+04  0.18974941784E+04  0.25500000920E-02 0.  1.
    10030    2    1    2    0    0  0.00000000000E+00  0.00000000000E+00 -0.18489268384E+04  0.19460615185E+04  0.60714494170E+03 0.  0.
        1    1    3    3  502    0 -0.81281016681E+02  0.11095211594E+03 -0.17918969089E+04  0.17971676349E+04  0.50400001928E-02 0.  1.
       -1    1    3    3    0  502  0.81281016681E+02 -0.11095211594E+03 -0.57029929464E+02  0.14889388364E+03  0.50400001928E-02 0. -1.
</event>
<event>
 5   0  0.8699746E-02  0.5931969E+03  0.7818609E-02  0.9919622E-01
        2   -1    0    0  501    0  0.00000000000E+00  0.00000000000E+00  0.18286891005E+04  0.18286891005E+04  0.25500000920E-02 0. -1.
       -2   -1    0    0    0  501  0.00000000000E+00  0.00000000000E+00 -0.48105848492E+02  0.48105848560E+02  0.25500000920E-02 0.  1.
    10030    2    1    2    0    0  0.00000000000E+00  0.00000000000E+00  0.17805832520E+04  0.18767949491E+04  0.59319690111E+03 0.  0.
        3    1    3    3  502    0 -0.71185681630E+01  0.26602625790E+03  0.13046249337E+04  0.13314904700E+04  0.10100000352E+00 0. -1.
       -3    1    3    3    0  502  0.71185681630E+01 -0.26602625790E+03  0.47595831834E+03  0.54530447908E+03  0.10100000352E+00 0.  1.
</event>
<event>
 5   0  0.3437375E-02  0.5990866E+03  0.7818609E-02  0.9907303E-01
       -4   -1    0    0    0  501  0.00000000000E+00  0.00000000000E+00  0.10146851157E+04  0.10146859104E+04  0.12699999809E+01 0.  1.
        4   -1    0    0  501    0  0.00000000000E+00  0.00000000000E+00 -0.88422219651E+02  0.88431339626E+02  0.12699999809E+01 0. -1.
    10030    2    1    2    0    0  0.00000000000E+00  0.00000000000E+00  0.92626289600E+03  0.11031172501E+04  0.59908656709E+03 0.  0.
        1    1    3    3  502    0  0.25044982904E+03 -0.13346721886E+03  0.63962639110E+03  0.69975748342E+03  0.50400001928E-02 0.  1.
       -1    1    3    3    0  502 -0.25044982904E+03  0.13346721886E+03  0.28663650490E+03  0.40335976664E+03  0.50400001928E-02 0. -1.
</event>
<event>
 5   0  0.3437375E-02  0.5929798E+03  0.7818609E-02  0.9920079E-01
       -3   -1    0    0    0  501  0.00000000000E+00  0.00000000000E+00  0.15017534349E+03  0.15017537745E+03  0.10100000352E+00 0.  1.
        3   -1    0    0  501    0  0.00000000000E+00  0.00000000000E+00 -0.58535740679E+03  0.58535741550E+03  0.10100000352E+00 0. -1.
    10030    2    1    2    0    0  0.00000000000E+00  0.00000000000E+00 -0.43518206330E+03  0.73553279295E+03  0.59297981525E+03 0.  0.
        5    1    3    3  502    0  0.23133315078E+03  0.13053597061E+03 -0.54302659605E+02  0.27115592399E+03  0.46999998093E+01 0. -1.
       -5    1    3    3    0  502 -0.23133315078E+03 -0.13053597061E+03 -0.38087940370E+03  0.46437686897E+03  0.46999998093E+01 0.  1.
</event>
<event>
 5   0  0.8699746E-02  0.6044203E+03  0.7818609E-02  0.9896278E-01
       -2   -1    0    0    0  501  0.00000000000E+00  0.00000000000E+00  0.12769114087E+03  0.12769114090E+03  0.25500000920E-02 0. -1.
        2   -1    0    0  501    0  0.00000000000E+00  0.00000000000E+00 -0.71524913027E+03  0.71524913028E+03  0.25500000920E-02 0.  1.
    10030    2    1    2    0    0  0.00000000000E+00  0.00000000000E+00 -0.58755798940E+03  0.84294027117E+03  0.60442030894E+03 0.  0.
        3    1    3    3  502    0 -0.71904165252E+02 -0.29227487684E+03 -0.25593976521E+03  0.39509490787E+03  0.10100000352E+00 0.  1.
       -3    1    3    3    0  502  0.71904165252E+02  0.29227487684E+03 -0.33161822420E+03  0.44784536330E+03  0.10100000352E+00 0. -1.
</event>
<event>
 5   0  0.8420604E-02  0.6058952E+03  0.7818609E-02  0.9893250E-01
        2   -1    0    0  501    0  0.00000000000E+00  0.00000000000E+00  0.15009511440E+04  0.15009511440E+04  0.25500000920E-02 0. -1.
       -2   -1    0    0    0  501  0.00000000000E+00  0.00000000000E+00 -0.61146063237E+02  0.61146063291E+02  0.25500000920E-02 0.  1.
    10030    2    1    2    0    0  0.00000000000E+00  0.00000000000E+00  0.14398050808E+04  0.15620972073E+04  0.60589521738E+03 0.  0.
        2    1    3    3  502    0 -0.18617604175E+03 -0.21507263800E+03  0.45123490328E+03  0.53341418811E+03  0.25500000920E-02 0.  1.
       -2    1    3    3    0  502  0.18617604175E+03  0.21507263800E+03  0.98857017750E+03  0.10286830192E+04  0.25500000920E-02 0. -1.
</event>
<event>
 5   0  0.8699746E-02  0.5530236E+03  0.7818609E-02  0.1000796E+00
        2   -1    0    0  501    0  0.00000000000E+00  0.00000000000E+00  0.56647781131E+03  0.56647781131E+03  0.25500000920E-02 0. -1.
       -2   -1    0    0    0  501  0.00000000000E+00  0.00000000000E+00 -0.13497223490E+03  0.13497223493E+03  0.25500000920E-02 0.  1.
    10030    2    1    2    0    0  0.00000000000E+00  0.00000000000E+00  0.43150557641E+03  0.70145004624E+03  0.55302360248E+03 0.  0.
        3    1    3    3  502    0 -0.34594204198E+02  0.27326906565E+03  0.18504764789E+03  0.33183638046E+03  0.10100000352E+00 0.  1.
       -3    1    3    3    0  502  0.34594204198E+02 -0.27326906565E+03  0.24645792852E+03  0.36961366578E+03  0.10100000352E+00 0. -1.
</event>
<event>
 5   0  0.4881209E-02  0.5951769E+03  0.7818609E-02  0.9915463E-01
       -1   -1    0    0    0  501  0.00000000000E+00  0.00000000000E+00  0.11428137016E+03  0.11428137027E+03  0.50400001928E-02 0. -1.
        1   -1    0    0  501    0  0.00000000000E+00  0.00000000000E+00 -0.77491958300E+03  0.77491958302E+03  0.50400001928E-02 0.  1.
    10030    2    1    2    0    0  0.00000000000E+00  0.00000000000E+00 -0.66063821284E+03  0.88920095329E+03  0.59517685360E+03 0.  0.
        3    1    3    3  502    0  0.18622881071E+03 -0.23202851389E+03 -0.32081593008E+03  0.43754002376E+03  0.10100000352E+00 0.  1.
       -3    1    3    3    0  502 -0.18622881071E+03  0.23202851389E+03 -0.33982228276E+03  0.45166092953E+03  0.10100000352E+00 0. -1.
</event>
<event>
 5   0  0.5190380E-02  0.6434332E+03  0.7818609E-02  0.9819180E-01
       -1   -1    0    0    0  501  0.00000000000E+00  0.00000000000E+00  0.60303611306E+02  0.60303611517E+02  0.50400001928E-02 0. -1.
        1   -1    0    0  501    0  0.00000000000E+00  0.00000000000E+00 -0.17163410298E+04  0.17163410298E+04  0.50400001928E-02 0.  1.
    10030    2    1    2    0    0  0.00000000000E+00  0.00000000000E+00 -0.16560374185E+04  0.17766446413E+04  0.64343317454E+03 0.  0.
        5    1    3    3  502    0  0.21398142405E+03  0.96843127392E+01 -0.14906919807E+04  0.15060101285E+04  0.46999998093E+01 0.  1.
       -5    1    3    3    0  502 -0.21398142405E+03 -0.96843127392E+01 -0.16534543780E+03  0.27063451286E+03  0.46999998093E+01 0. -1.
</event>
<event>
 5   0  0.8207443E-02  0.6678356E+03  0.7818609E-02  0.9773876E-01
       -2   -1    0    0    0  501  0.00000000000E+00  0.00000000000E+00  0.14440376060E+03  0.14440376063E+03  0.25500000920E-02 0. -1.
        2   -1    0    0  501    0  0.00000000000E+00  0.00000000000E+00 -0.77214825118E+03  0.77214825118E+03  0.25500000920E-02 0.  1.
    10030    2    1    2    0    0  0.00000000000E+00  0.00000000000E+00 -0.62774449058E+03  0.91655201181E+03  0.66783564213E+03 0.  0.
        1    1    3    3  502    0  0.10202913441E+03 -0.77114483210E+02  0.10945811779E+03  0.16833795581E+03  0.50400001928E-02 0. -1.
       -1    1    3    3    0  502 -0.10202913441E+03  0.77114483210E+02 -0.73720260837E+03  0.74821405600E+03  0.50400001928E-02 0.  1.
</event>
<event>
 5   0  0.5166903E-02  0.6356935E+03  0.7818609E-02  0.9834001E-01
        1   -1    0    0  501    0  0.00000000000E+00  0.00000000000E+00  0.49932472243E+03  0.49932472246E+03  0.50400001928E-02 0.  1.
       -1   -1    0    0    0  501  0.00000000000E+00  0.00000000000E+00 -0.20232638514E+03  0.20232638520E+03  0.50400001928E-02 0. -1.
    10030    2    1    2    0    0  0.00000000000E+00  0.00000000000E+00  0.29699833729E+03  0.70165110766E+03  0.63569353034E+03 0.  0.
        2    1    3    3  502    0 -0.77202258681E+01  0.29073040317E+03  0.29003332808E+03  0.41073483005E+03  0.25500000920E-02 0.  1.
       -2    1    3    3    0  502  0.77202258681E+01 -0.29073040317E+03  0.69650092140E+01  0.29091627760E+03  0.25500000920E-02 0. -1.
</event>
<event>
 5   0  0.8420604E-02  0.6028002E+03  0.7818609E-02  0.9899614E-01
       -2   -1    0    0    0  501  0.00000000000E+00  0.00000000000E+00  0.19205252441E+03  0.19205252443E+03  0.25500000920E-02 0.  1.
        2   -1    0    0  501    0  0.00000000000E+00  0.00000000000E+00 -0.47300611220E+03  0.47300611220E+03  0.25500000920E-02 0. -1.
    10030    2    1    2    0    0  0.00000000000E+00  0.00000000000E+00 -0.28095358779E+03  0.66505863663E+03  0.60280019216E+03 0.  0.
        2    1    3    3  502    0 -0.18216343146E+03 -0.47152936313E+02  0.11928721856E+03  0.22279218048E+03  0.25500000920E-02 0.  1.
       -2    1    3    3    0  502  0.18216343146E+03  0.47152936313E+02 -0.40024080634E+03  0.44226645615E+03  0.25500000920E-02 0. -1.
</event>
<event>
 5   0  0.4987389E-02  0.5877875E+03  0.7818609E-02  0.9931072E-01
        1   -1    0    0  501    0  0.00000000000E+00  0.00000000000E+00  0.28305500411E+03  0.28305500415E+03  0.50400001928E-02 0. -1.
       -1   -1    0    0    0  501  0.00000000000E+00  0.00000000000E+00 -0.30514754346E+03  0.30514754350E+03  0.50400001928E-02 0.  1.
    10030    2    1    2    0    0  0.00000000000E+00  0.00000000000E+00 -0.22092539347E+02  0.58820254765E+03  0.58778750988E+03 0.  0.
        1    1    3    3  502    0 -0.15586939166E+03 -0.16829066266E+02 -0.25980790747E+03  0.30344461362E+03  0.50400001928E-02 0.  1.
       -1    1    3    3    0  502  0.15586939166E+03  0.16829066266E+02  0.23771536812E+03  0.28475793403E+03  0.50400001928E-02 0. -1.
</event>
<event>
 5   0  0.8575590E-02  0.7078756E+03  0.7818609E-02  0.9703858E-01
        2   -1    0    0  501    0  0.00000000000E+00  0.00000000000E+00  0.54297884782E+03  0.54297884783E+03  0.25500000920E-02 0. -1.
       -2   -1    0    0    0  501  0.00000000000E+00  0.00000000000E+00 -0.23071240642E+03  0.23071240644E+03  0.25500000920E-02 0.  1.
    10030    2    1    2    0    0  0.00000000000E+00  0.00000000000E+00  0.31226644140E+03  0.77369125426E+03  0.70787557275E+03 0.  0.
        4    1    3    3  502    0 -0.52318656640E+02  0.31027600944E+03 -0.20989319530E+02  0.31535790509E+03  0.12699999809E+01 0.  1.
       -4    1    3    3    0  502  0.52318656640E+02 -0.31027600944E+03  0.33325576093E+03  0.45833334917E+03  0.12699999809E+01 0. -1.
</event>
<event>
 5   0  0.5125031E-02  0.6061803E+03  0.7818609E-02  0.9892666E-01
       -1   -1    0    0    0  501  0.00000000000E+00  0.00000000000E+00  0.50677032346E+02  0.50677032597E+02  0.50400001928E-02 0.  1.
        1   -1    0    0  501    0  0.00000000000E+00  0.00000000000E+00 -0.18127270116E+04  0.18127270116E+04  0.50400001928E-02 0. -1.
    10030    2    1    2    0    0  0.00000000000E+00  0.00000000000E+00 -0.17620499793E+04  0.18634040442E+04  0.60618025584E+03 0.  0.
        4    1    3    3  502    0  0.26850253684E+03 -0.13887434564E+03 -0.94853549239E+03  0.99554050113E+03  0.12699999809E+01 0.  1.
       -4    1    3    3    0  502 -0.26850253684E+03  0.13887434564E+03 -0.81351448689E+03  0.86786354310E+03  0.12699999809E+01 0. -1.
</event>
<event>
 5   0  0.8817544E-02  0.5843829E+03  0.7818609E-02  0.9938347E-01
       -2   -1    0    0    0  501  0.00000000000E+00  0.00000000000E+00  0.34370303717E+03  0.34370303717E+03  0.25500000920E-02 0. -1.
        2   -1    0    0  501    0  0.00000000000E+00  0.00000000000E+00 -0.24840000098E+03  0.24840000099E+03  0.25500000920E-02 0.  1.
    10030    2    1    2    0    0  0.00000000000E+00  0.00000000000E+00  0.95303036190E+02  0.59210303816E+03  0.58438287030E+03 0.  0.
        5    1    3    3  502    0 -0.61944525150E+02 -0.12600031369E+02 -0.24134963132E+03  0.24953480624E+03  0.46999998093E+01 0.  1.
       -5    1    3    3    0  502  0.61944525150E+02  0.12600031369E+02  0.33665266751E+03  0.34256823193E+03  0.46999998093E+01 0. -1.
</event>
<event>
 5   0  0.5166903E-02  0.5917051E+03  0.7818609E-02  0.9922766E-01
       -1   -1    0    0    0  501  0.00000000000E+00  0.00000000000E+00  0.64045484512E+02  0.64045484710E+02  0.50400001928E-02 0. -1.
        1   -1    0    0  501    0  0.00000000000E+00  0.00000000000E+00 -0.13666653202E+04  0.13666653202E+04  0.50400001928E-02 0.  1.
    10030    2    1    2    0    0  0.00000000000E+00  0.00000000000E+00 -0.13026198357E+04  0.14307108049E+04  0.59170513854E+03 0.  0.
        2    1    3    3  502    0  0.33778043846E+02  0.23104901500E+03 -0.10905790853E+04  0.11152969761E+04  0.25500000920E-02 0.  1.
       -2    1    3    3    0  502 -0.33778043846E+02 -0.23104901500E+03 -0.21204075035E+03  0.31541382879E+03  0.25500000920E-02 0. -1.
</event>
<event>
 5   0  0.4881209E-02  0.6045350E+03  0.7818609E-02  0.9896042E-01
        1   -1    0    0  501    0  0.00000000000E+00  0.00000000000E+00  0.33329123898E+03  0.33329123902E+03  0.50400001928E-02 0.  1.
       -1   -1    0    0    0  501  0.00000000000E+00  0.00000000000E+00 -0.27413152346E+03  0.27413152351E+03  0.50400001928E-02 0. -1.
    10030    2    1    2    0    0  0.00000000000E+00  0.00000000000E+00  0.59159715521E+02  0.60742276253E+03  0.60453497872E+03 0.  0.
        3    1    3    3  502    0  0.17118468511E+03  0.67629918412E+02  0.27049095338E+03  0.32717482841E+03  0.10100000352E+00 0.  1.
       -3    1    3    3    0  502 -0.17118468511E+03 -0.67629918412E+02 -0.21133123786E+03  0.28024793412E+03  0.10100000352E+00 0. -1.
</event>
<event>
 5   0  0.8207443E-02  0.5964983E+03  0.7818609E-02  0.9912698E-01
        2   -1    0    0  501    0  0.00000000000E+00  0.00000000000E+00  0.89945664775E+03  0.89945664775E+03  0.25500000920E-02 0.  1.
       -2   -1    0    0    0  501  0.00000000000E+00  0.00000000000E+00 -0.98895880461E+02  0.98895880494E+02  0.25500000920E-02 0. -1.
    10030    2    1    2    0    0  0.00000000000E+00  0.00000000000E+00  0.80056076729E+03  0.99835252825E+03  0.59649830556E+03 0.  0.
        1    1    3    3  502    0 -0.59934830503E+02  0.22953670562E+03  0.97748581110E+02  0.25658150414E+03  0.50400001928E-02 0. -1.
       -1    1    3    3    0  502  0.59934830503E+02 -0.22953670562E+03  0.70281218618E+03  0.74177102410E+03  0.50400001928E-02 0.  1.
</event>
<event>
 5   0  0.4881209E-02  0.6142388E+03  0.7818609E-02  0.9876298E-01
       -1   -1    0    0    0  501  0.00000000000E+00  0.00000000000E+00  0.28827992702E+03  0.28827992706E+03  0.50400001928E-02 0. -1.
        1   -1    0    0  501    0  0.00000000000E+00  0.00000000000E+00 -0.32719006392E+03  0.32719006395E+03  0.50400001928E-02 0.  1.
    10030    2    1    2    0    0  0.00000000000E+00  0.00000000000E+00 -0.38910136895E+02  0.61546999102E+03  0.61423880624E+03 0.  0.
        3    1    3    3  502    0  0.63809797016E+02  0.26686602126E+03 -0.15769229545E+03  0.31647438087E+03  0.10100000352E+00 0.  1.
       -3    1    3    3    0  502 -0.63809797016E+02 -0.26686602126E+03  0.11878215855E+03  0.29899561015E+03  0.10100000352E+00 0. -1.
</event>
<event>
 5   0  0.8207443E-02  0.6086639E+03  0.7818609E-02  0.9887593E-01
        2   -1    0    0  501    0  0.00000000000E+00  0.00000000000E+00  0.29976066387E+03  0.29976066388E+03  0.25500000920E-02 0. -1.
       -2   -1    0    0    0  501  0.00000000000E+00  0.00000000000E+00 -0.30897291332E+03  0.30897291333E+03  0.25500000920E-02 0.  1.
    10030    2    1    2    0    0  0.00000000000E+00  0.00000000000E+00 -0.92122494467E+01  0.60873357721E+03  0.60866386658E+03 0.  0.
        1    1    3    3  502    0 -0.14256398886E+02  0.37149117149E+02  0.29714787686E+03  0.29980020441E+03  0.50400001928E-02 0. -1.
       -1    1    3    3    0  502  0.14256398886E+02 -0.37149117149E+02 -0.30636012631E+03  0.30893337280E+03  0.50400001928E-02 0.  1.
</event>
<event>
 5   0  0.4881209E-02  0.5874706E+03  0.7818609E-02  0.9931747E-01
       -1   -1    0    0    0  501  0.00000000000E+00  0.00000000000E+00  0.42293498527E+03  0.42293498530E+03  0.50400001928E-02 0.  1.
        1   -1    0    0  501    0  0.00000000000E+00  0.00000000000E+00 -0.20400396146E+03  0.20400396152E+03  0.50400001928E-02 0. -1.
    10030    2    1    2    0    0  0.00000000000E+00  0.00000000000E+00  0.21893102381E+03  0.62693894683E+03  0.58747055233E+03 0.  0.
        3    1    3    3  502    0 -0.28820874868E+03 -0.95786354421E+01  0.16911686804E+03  0.33430010219E+03  0.10100000352E+00 0.  1.
       -3    1    3    3    0  502  0.28820874868E+03  0.95786354421E+01  0.49814155778E+02  0.29263884463E+03  0.10100000352E+00 0. -1.
</event>
<event>
 5   0  0.4881209E-02  0.5762454E+03  0.7818609E-02  0.9955953E-01
       -1   -1    0    0    0  501  0.00000000000E+00  0.00000000000E+00  0.93645740623E+02  0.93645740758E+02  0.50400001928E-02 0. -1.
        1   -1    0    0  501    0  0.00000000000E+00  0.00000000000E+00 -0.88647594494E+03  0.88647594496E+03  0.50400001928E-02 0.  1.
    10030    2    1    2    0    0  0.00000000000E+00  0.00000000000E+00 -0.79283020432E+03  0.98012168572E+03  0.57624542161E+03 0.  0.
        3    1    3    3  502    0 -0.11979525513E+03 -0.22936595464E+03 -0.18089973967E+03  0.31572831725E+03  0.10100000352E+00 0. -1.
       -3    1    3    3    0  502  0.11979525513E+03  0.22936595464E+03 -0.61193046465E+03  0.66439336847E+03  0.10100000352E+00 0.  1.
</event>
<event>
 5   0  0.8575590E-02  0.6330869E+03  0.7818609E-02  0.9839043E-01
        2   -1    0    0  501    0  0.00000000000E+00  0.00000000000E+00  0.40436032982E+03  0.40436032982E+03  0.25500000920E-02 0. -1.
       -2   -1    0    0    0  501  0.00000000000E+00  0.00000000000E+00 -0.24779822218E+03  0.24779822220E+03  0.25500000920E-02 0.  1.
    10030    2    1    2    0    0  0.00000000000E+00  0.00000000000E+00  0.15656210763E+03  0.65215855202E+03  0.63308694776E+03 0.  0.
        4    1    3    3  502    0  0.52798319468E+02 -0.57234450927E+02  0.39433756036E+03  0.40195418809E+03  0.12699999809E+01 0. -1.
       -4    1    3    3    0  502 -0.52798319468E+02  0.57234450927E+02 -0.23777545273E+03  0.25020436393E+03  0.12699999809E+01 0.  1.
</event>
<event>
 5   0  0.8420604E-02  0.5530054E+03  0.7818609E-02  0.1000801E+00
        2   -1    0    0  501    0  0.00000000000E+00  0.00000000000E+00  0.59168129021E+03  0.59168129021E+03  0.25500000920E-02 0. -1.
       -2   -1    0    0    0  501  0.00000000000E+00  0.00000000000E+00 -0.12921441720E+03  0.12921441723E+03  0.25500000920E-02 0.  1.
    10030    2    1    2    0    0  0.00000000000E+00  0.00000000000E+00  0.46246687301E+03  0.72089570744E+03  0.55300543612E+03 0.  0.
        2    1    3    3  502    0 -0.16342787655E+03  0.39004040374E+02  0.51750196498E+03  0.54409398982E+03  0.25500000920E-02 0. -1.
       -2    1    3    3    0  502  0.16342787655E+03 -0.39004040374E+02 -0.55035091974E+02  0.17680171762E+03  0.25500000920E-02 0.  1.
</event>
<event>
 5   0  0.5125031E-02  0.6181376E+03  0.7818609E-02  0.9868475E-01
       -1   -1    0    0    0  501  0.00000000000E+00  0.00000000000E+00  0.51662409673E+03  0.51662409676E+03  0.50400001928E-02 0. -1.
        1   -1    0    0  501    0  0.00000000000E+00  0.00000000000E+00 -0.18489949695E+03  0.18489949702E+03  0.50400001928E-02 0.  1.
    10030    2    1    2    0    0  0.00000000000E+00  0.00000000000E+00  0.33172459978E+03  0.70152359378E+03  0.61813764044E+03 0.  0.
        4    1    3    3  502    0  0.26594026079E+03  0.15062780602E+03  0.21798077787E+03  0.37540670036E+03  0.12699999809E+01 0. -1.
       -4    1    3    3    0  502 -0.26594026079E+03 -0.15062780602E+03  0.11374382191E+03  0.32611689342E+03  0.12699999809E+01 0.  1.
</event>
<event>
 5   0  0.5190380E-02  0.5236007E+03  0.7818609E-02  0.1007796E+00
       -1   -1    0    0    0  501  0.00000000000E+00  0.00000000000E+00  0.84150274001E+02  0.84150274152E+02  0.50400001928E-02 0. -1.
        1   -1    0    0  501    0  0.00000000000E+00  0.00000000000E+00 -0.81448838356E+03  0.81448838358E+03  0.50400001928E-02 0.  1.
    10030    2    1    2    0    0  0.00000000000E+00  0.00000000000E+00 -0.73033810956E+03  0.89863865773E+03  0.52360069031E+03 0.  0.
        5    1    3    3  502    0  0.20863463950E+03 -0.14763779091E+03 -0.46213436030E+03  0.52812459427E+03  0.46999998093E+01 0.  1.
       -5    1    3    3    0  502 -0.20863463950E+03  0.14763779091E+03 -0.26820374926E+03  0.37051406346E+03  0.46999998093E+01 0. -1.
</event>
<event>
 5   0  0.8817544E-02  0.5999130E+03  0.7818609E-02  0.9905587E-01
        2   -1    0    0  501    0  0.00000000000E+00  0.00000000000E+00  0.80855634551E+03  0.80855634551E+03  0.25500000920E-02 0.  1.
       -2   -1    0    0    0  501  0.00000000000E+00  0.00000000000E+00 -0.11127722993E+03  0.11127722995E+03  0.25500000920E-02 0. -1.
    10030    2    1    2    0    0  0.00000000000E+00  0.00000000000E+00  0.69727911558E+03  0.91983357547E+03  0.59991302830E+03 0.  0.
        5    1    3    3  502    0 -0.13739258947E+03 -0.26564856015E+03  0.31415138834E+03  0.43377305811E+03  0.46999998093E+01 0. -1.
       -5    1    3    3    0  502  0.13739258947E+03  0.26564856015E+03  0.38312772725E+03  0.48606051736E+03  0.46999998093E+01 0.  1.
</event>
<event>
 5   0  0.5125031E-02  0.5952844E+03  0.7818609E-02  0.9915238E-01
        1   -1    0    0  501    0  0.00000000000E+00  0.00000000000E+00  0.41376896700E+03  0.41376896703E+03  0.50400001928E-02 0.  1.
       -1   -1    0    0    0  501  0.00000000000E+00  0.00000000000E+00 -0.21410712802E+03  0.21410712808E+03  0.50400001928E-02 0. -1.
    10030    2    1    2    0    0  0.00000000000E+00  0.00000000000E+00  0.19966183898E+03  0.62787609511E+03  0.59528442014E+03 0.  0.
        4    1    3    3  502    0  0.43128980397E+02 -0.10169778510E+03  0.39134421989E+03  0.40663799600E+03  0.12699999809E+01 0.  1.
       -4    1    3    3    0  502 -0.43128980397E+02  0.10169778510E+03 -0.19168238092E+03  0.22123809911E+03  0.12699999809E+01 0. -1.
</event>
<event>
 5   0  0.8575590E-02  0.6123936E+03  0.7818609E-02  0.9880022E-01
       -2   -1    0    0    0  501  0.00000000000E+00  0.00000000000E+00  0.10856874532E+03  0.10856874535E+03  0.25500000920E-02 0.  1.
        2   -1    0    0  501    0  0.00000000000E+00  0.00000000000E+00 -0.86356796110E+03  0.86356796111E+03  0.25500000920E-02 0. -1.
    10030    2    1    2    0    0  0.00000000000E+00  0.00000000000E+00 -0.75499921578E+03  0.97213670646E+03  0.61239363175E+03 0.  0.
        4    1    3    3  502    0  0.95675956481E+02  0.18846586890E+03 -0.72918639558E+03  0.75920200526E+03  0.12699999809E+01 0. -1.
       -4    1    3    3    0  502 -0.95675956481E+02 -0.18846586890E+03 -0.25812820203E+02  0.21293470120E+03  0.12699999809E+01 0.  1.
</event>
<event>
 5   0  0.5166903E-02  0.6007377E+03  0.7818609E-02  0.9903877E-01
       -1   -1    0    0    0  501  0.00000000000E+00  0.00000000000E+00  0.18439361034E+03  0.18439361040E+03  0.50400001928E-02 0.  1.
        1   -1    0    0  501    0  0.00000000000E+00  0.00000000000E+00 -0.48928720323E+03  0.48928720325E+03  0.50400001928E-02 0. -1.
    10030    2    1    2    0    0  0.00000000000E+00  0.00000000000E+00 -0.30489359289E+03  0.67368081366E+03  0.60073765964E+03 0.  0.
        2    1    3    3  502    0  0.13802224210E+03 -0.25499490962E+03 -0.24038299883E+03  0.37663845978E+03  0.25500000920E-02 0.  1.
       -2    1    3    3    0  502 -0.13802224210E+03  0.25499490962E+03 -0.64510594062E+02  0.29704235388E+03  0.25500000920E-02 0. -1.
</event>
<event>
 5   0  0.5166903E-02  0.5917976E+03  0.7818609E-02  0.9922571E-01
       -1   -1    0    0    0  501  0.00000000000E+00  0.00000000000E+00  0.23473529076E+03  0.23473529082E+03  0.50400001928E-02 0.  1.
        1   -1    0    0  501    0  0.00000000000E+00  0.00000000000E+00 -0.37299929071E+03  0.37299929074E+03  0.50400001928E-02 0. -1.
    10030    2    1    2    0    0  0.00000000000E+00  0.00000000000E+00 -0.13826399994E+03  0.60773458156E+03  0.59179759035E+03 0.  0.
        2    1    3    3  502    0  0.38566243245E+02  0.65751998776E+02 -0.36274309482E+03  0.37066593222E+03  0.25500000920E-02 0. -1.
       -2    1    3    3    0  502 -0.38566243245E+02 -0.65751998776E+02  0.22447909487E+03  0.23706864935E+03  0.25500000920E-02 0.  1.
</event>
<event>
 5   0  0.8420604E-02  0.6049249E+03  0.7818609E-02  0.9895241E-01
       -2   -1    0    0    0  501  0.00000000000E+00  0.00000000000E+00  0.62105948879E+02  0.62105948931E+02  0.25500000920E-02 0.  1.
        2   -1    0    0  501    0  0.00000000000E+00  0.00000000000E+00 -0.14730238088E+04  0.14730238088E+04  0.25500000920E-02 0. -1.
    10030    2    1    2    0    0  0.00000000000E+00  0.00000000000E+00 -0.14109178599E+04  0.15351297577E+04  0.60492492562E+03 0.  0.
        2    1    3    3  502    0  0.13694658131E+02 -0.16318044219E+03 -0.13507992483E+04  0.13606887997E+04  0.25500000920E-02 0. -1.
       -2    1    3    3    0  502 -0.13694658131E+02  0.16318044219E+03 -0.60118611617E+02  0.17444095804E+03  0.25500000920E-02 0.  1.
</event>
<event>
 5   0  0.5190380E-02  0.6029158E+03  0.7818609E-02  0.9899375E-01
        1   -1    0    0  501    0  0.00000000000E+00  0.00000000000E+00  0.10961523318E+04  0.10961523318E+04  0.50400001928E-02 0.  1.
       -1   -1    0    0    0  501  0.00000000000E+00  0.00000000000E+00 -0.82905335769E+02  0.82905335922E+02  0.50400001928E-02 0. -1.
    10030    2    1    2    0    0  0.00000000000E+00  0.00000000000E+00  0.10132469960E+04  0.11790576677E+04  0.60291583895E+03 0.  0.
        5    1    3    3  502    0  0.82707723760E+02 -0.82360779281E+02  0.10500914795E+04  0.10565690090E+04  0.46999998093E+01 0.  1.
       -5    1    3    3    0  502 -0.82707723760E+02  0.82360779281E+02 -0.36844483521E+02  0.12248865865E+03  0.46999998093E+01 0. -1.
</event>
<event>
 5   0  0.5125031E-02  0.6046944E+03  0.7818609E-02  0.9895714E-01
        1   -1    0    0  501    0  0.00000000000E+00  0.00000000000E+00  0.10229985248E+04  0.10229985248E+04  0.50400001928E-02 0. -1.
       -1   -1    0    0    0  501  0.00000000000E+00  0.00000000000E+00 -0.89358699984E+02  0.89358700126E+02  0.50400001928E-02 0.  1.
    10030    2    1    2    0    0  0.00000000000E+00  0.00000000000E+00  0.93363982480E+03  0.11123572249E+04  0.60469436361E+03 0.  0.
        4    1    3    3  502    0  0.28786679788E+03  0.90422558866E+02  0.50214058877E+03  0.58582447564E+03  0.12699999809E+01 0. -1.
       -4    1    3    3    0  502 -0.28786679788E+03 -0.90422558866E+02  0.43149923603E+03  0.52653274928E+03  0.12699999809E+01 0.  1.
</event>
<event>
 5   0  0.5190380E-02  0.6021147E+03  0.7818609E-02  0.9901028E-01
        1   -1    0    0  501    0  0.00000000000E+00  0.00000000000E+00  0.63833470769E+03  0.63833470771E+03  0.50400001928E-02 0.  1.
       -1   -1    0    0    0  501  0.00000000000E+00  0.00000000000E+00 -0.14198746789E+03  0.14198746798E+03  0.50400001928E-02 0. -1.
    10030    2    1    2    0    0  0.00000000000E+00  0.00000000000E+00  0.49634723980E+03  0.78032217569E+03  0.60211470287E+03 0.  0.
        5    1    3    3  502    0 -0.25787108032E+03 -0.21734507399E+02  0.48899401543E+02  0.26340676594E+03  0.46999998093E+01 0. -1.
       -5    1    3    3    0  502  0.25787108032E+03  0.21734507399E+02  0.44744783826E+03  0.51691540975E+03  0.46999998093E+01 0.  1.
</event>
<event>
 5   0  0.8420604E-02  0.6073924E+03  0.7818609E-02  0.9890187E-01
       -2   -1    0    0    0  501  0.00000000000E+00  0.00000000000E+00  0.76073189761E+03  0.76073189762E+03  0.25500000920E-02 0. -1.
        2   -1    0    0  501    0  0.00000000000E+00  0.00000000000E+00 -0.12124030875E+03  0.12124030878E+03  0.25500000920E-02 0.  1.
    10030    2    1    2    0    0  0.00000000000E+00  0.00000000000E+00  0.63949158886E+03  0.88197220640E+03  0.60739236136E+03 0.  0.
        2    1    3    3  502    0  0.65738677445E+02  0.33203943890E+02 -0.10807676754E+03  0.13078479763E+03  0.25500000920E-02 0.  1.
       -2    1    3    3    0  502 -0.65738677445E+02 -0.33203943890E+02  0.74756835640E+03  0.75118740877E+03  0.25500000920E-02 0. -1.
</event>
<event>
 5   0  0.8420604E-02  0.6077158E+03  0.7818609E-02  0.9889526E-01
       -2   -1    0    0    0  501  0.00000000000E+00  0.00000000000E+00  0.67458162958E+02  0.67458163007E+02  0.25500000920E-02 0.  1.
        2   -1    0    0  501    0  0.00000000000E+00  0.00000000000E+00 -0.13686946301E+04  0.13686946301E+04  0.25500000920E-02 0. -1.
    10030    2    1    2    0    0  0.00000000000E+00  0.00000000000E+00 -0.13012364672E+04  0.14361527931E+04  0.60771580672E+03 0.  0.
        2    1    3    3  502    0  0.14856755267E+03  0.14558308251E+02 -0.25172245592E+02  0.15138660443E+03  0.25500000920E-02 0.  1.
       -2    1    3    3    0  502 -0.14856755267E+03 -0.14558308251E+02 -0.12760642216E+04  0.12847661887E+04  0.25500000920E-02 0. -1.
</event>
<event>
 5   0  0.5125031E-02  0.5952231E+03  0.7818609E-02  0.9915366E-01
        1   -1    0    0  501    0  0.00000000000E+00  0.00000000000E+00  0.71432632333E+03  0.71432632335E+03  0.50400001928E-02 0. -1.
       -1   -1    0    0    0  501  0.00000000000E+00  0.00000000000E+00 -0.12399465583E+03  0.12399465593E+03  0.50400001928E-02 0.  1.
    10030    2    1    2    0    0  0.00000000000E+00  0.00000000000E+00  0.59033166750E+03  0.83832097928E+03  0.59522314022E+03 0.  0.
        4    1    3    3  502    0  0.12354126414E+02  0.24425882711E+03  0.53399921517E+03  0.58734297796E+03  0.12699999809E+01 0. -1.
       -4    1    3    3    0  502 -0.12354126414E+02 -0.24425882711E+03  0.56332452336E+02  0.25097800132E+03  0.12699999809E+01 0.  1.
</event>
<event>
 5   0  0.8699746E-02  0.5993436E+03  0.7818609E-02  0.9906769E-01
        2   -1    0    0  501    0  0.00000000000E+00  0.00000000000E+00  0.12661945295E+03  0.12661945297E+03  0.25500000920E-02 0.  1.
       -2   -1    0    0    0  501  0.00000000000E+00  0.00000000000E+00 -0.70923690716E+03  0.70923690717E+03  0.25500000920E-02 0. -1.
    10030    2    1    2    0    0  0.00000000000E+00  0.00000000000E+00 -0.58261745421E+03  0.83585636014E+03  0.59934360498E+03 0.  0.
        3    1    3    3  502    0  0.27810337649E+03 -0.48856653586E+02 -0.43129073974E+03  0.51549992532E+03  0.10100000352E+00 0. -1.
       -3    1    3    3    0  502 -0.27810337649E+03  0.48856653586E+02 -0.15132671448E+03  0.32035643482E+03  0.10100000352E+00 0.  1.
</event>
<event>
 5   0  0.8699746E-02  0.5756706E+03  0.7818609E-02  0.9957208E-01
       -2   -1    0    0    0  501  0.00000000000E+00  0.00000000000E+00  0.43693419952E+03  0.43693419952E+03  0.25500000920E-02 0. -1.
        2   -1    0    0  501    0  0.00000000000E+00  0.00000000000E+00 -0.18961472841E+03  0.18961472842E+03  0.25500000920E-02 0.  1.
    10030    2    1    2    0    0  0.00000000000E+00  0.00000000000E+00  0.24731947111E+03  0.62654892795E+03  0.57567059880E+03 0.  0.
        3    1    3    3  502    0 -0.12652959890E+03 -0.24158243318E+03  0.23449821283E+02  0.27371831458E+03  0.10100000352E+00 0.  1.
       -3    1    3    3    0  502  0.12652959890E+03  0.24158243318E+03  0.22386964983E+03  0.35283061337E+03  0.10100000352E+00 0. -1.
</event>
<event>
 5   0  0.8575590E-02  0.6098086E+03  0.7818609E-02  0.9885263E-01
        2   -1    0    0  501    0  0.00000000000E+00  0.00000000000E+00  0.71041836671E+03  0.71041836672E+03  0.25500000920E-02 0.  1.
       -2   -1    0    0    0  501  0.00000000000E+00  0.00000000000E+00 -0.13086182593E+03  0.13086182595E+03  0.25500000920E-02 0. -1.
    10030    2    1    2    0    0  0.00000000000E+00  0.00000000000E+00  0.57955654079E+03  0.84128019267E+03  0.60980864097E+03 0.  0.
        4    1    3    3  502    0  0.28203327357E+03 -0.11583086129E+03  0.29300658397E+03  0.42286407624E+03  0.12699999809E+01 0. -1.
       -4    1    3    3    0  502 -0.28203327357E+03  0.11583086129E+03  0.28654995682E+03  0.41841611642E+03  0.12699999809E+01 0.  1.
</event>
<event>
 5   0  0.5125031E-02  0.6136950E+03  0.7818609E-02  0.9877394E-01
        1   -1    0    0  501    0  0.00000000000E+00  0.00000000000E+00  0.52825839445E+03  0.52825839447E+03  0.50400001928E-02 0. -1.
       -1   -1    0    0    0  501  0.00000000000E+00  0.00000000000E+00 -0.17823737718E+03  0.17823737726E+03  0.50400001928E-02 0.  1.
    10030    2    1    2    0    0  0.00000000000E+00  0.00000000000E+00  0.35002101726E+03  0.70649577172E+03  0.61369500808E+03 0.  0.
        4    1    3    3  502    0  0.17127725277E+03 -0.25050210432E+03  0.22734435961E+03  0.37917578026E+03  0.12699999809E+01 0. -1.
       -4    1    3    3    0  502 -0.17127725277E+03  0.25050210432E+03  0.12267665765E+03  0.32731999147E+03  0.12699999809E+01 0.  1.
</event>
<event>
 5   0  0.5125031E-02  0.6051794E+03  0.7818609E-02  0.9894718E-01
       -1   -1    0    0    0  501  0.00000000000E+00  0.00000000000E+00  0.68060905524E+03  0.68060905526E+03  0.50400001928E-02 0.  1.
        1   -1    0    0  501    0  0.00000000000E+00  0.00000000000E+00 -0.13452734096E+03  0.13452734105E+03  0.50400001928E-02 0. -1.
    10030    2    1    2    0    0  0.00000000000E+00  0.00000000000E+00  0.54608171428E+03  0.81513639631E+03  0.60517939978E+03 0.  0.
        4    1    3    3  502    0  0.16205401179E+03 -0.75687793061E+02 -0.55701345625E+02  0.18733498755E+03  0.12699999809E+01 0. -1.
       -4    1    3    3    0  502 -0.16205401179E+03  0.75687793061E+02  0.60178305991E+03  0.62780140876E+03  0.12699999809E+01 0.  1.
</event>
<event>
 5   0  0.8817544E-02  0.6068241E+03  0.7818609E-02  0.9891348E-01
        2   -1    0    0  501    0  0.00000000000E+00  0.00000000000E+00  0.17800655206E+03  0.17800655208E+03  0.25500000920E-02 0. -1.
       -2   -1    0    0    0  501  0.00000000000E+00  0.00000000000E+00 -0.51716567758E+03  0.51716567759E+03  0.25500000920E-02 0.  1.
    10030    2    1    2    0    0  0.00000000000E+00  0.00000000000E+00 -0.33915912552E+03  0.69517222967E+03  0.60682412319E+03 0.  0.
        5    1    3    3  502    0  0.13654397482E+03 -0.31854030388E+02 -0.47777941439E+03  0.49794999260E+03  0.46999998093E+01 0.  1.
       -5    1    3    3    0  502 -0.13654397482E+03  0.31854030388E+02  0.13862028887E+03  0.19722223707E+03  0.46999998093E+01 0. -1.
</event>
<event>
 5   0  0.5125031E-02  0.6035397E+03  0.7818609E-02  0.9898089E-01
        1   -1    0    0  501    0  0.00000000000E+00  0.00000000000E+00  0.25341400203E+03  0.25341400208E+03  0.50400001928E-02 0. -1.
       -1   -1    0    0    0  501  0.00000000000E+00  0.00000000000E+00 -0.35935284635E+03  0.35935284639E+03  0.50400001928E-02 0.  1.
    10030    2    1    2    0    0  0.00000000000E+00  0.00000000000E+00 -0.10593884432E+03  0.61276684847E+03  0.60353970196E+03 0.  0.
        4    1    3    3  502    0  0.62172649693E+02 -0.28828973950E+03  0.11937748945E+02  0.29516187935E+03  0.12699999809E+01 0. -1.
       -4    1    3    3    0  502 -0.62172649693E+02  0.28828973950E+03 -0.11787659327E+03  0.31760496912E+03  0.12699999809E+01 0.  1.
</event>
<event>
 5   0  0.8699746E-02  0.5980058E+03  0.7818609E-02  0.9909552E-01
       -2   -1    0    0    0  501  0.00000000000E+00  0.00000000000E+00  0.50454109104E+02  0.50454109169E+02  0.25500000920E-02 0. -1.
        2   -1    0    0  501    0  0.00000000000E+00  0.00000000000E+00 -0.17719614385E+04  0.17719614385E+04  0.25500000920E-02 0.  1.
    10030    2    1    2    0    0  0.00000000000E+00  0.00000000000E+00 -0.17215073294E+04  0.18224155476E+04  0.59800580534E+03 0.  0.
        3    1    3    3  502    0  0.14063581930E+03  0.12782856574E+03 -0.15642162953E+04  0.15757192657E+04  0.10100000352E+00 0.  1.
       -3    1    3    3    0  502 -0.14063581930E+03 -0.12782856574E+03 -0.15729103411E+03  0.24669628190E+03  0.10100000352E+00 0. -1.
</event>
<event>
 5   0  0.8699746E-02  0.5986715E+03  0.7818609E-02  0.9908166E-01
       -2   -1    0    0    0  501  0.00000000000E+00  0.00000000000E+00  0.18194048872E+03  0.18194048874E+03  0.25500000920E-02 0.  1.
        2   -1    0    0  501    0  0.00000000000E+00  0.00000000000E+00 -0.49247918629E+03  0.49247918630E+03  0.25500000920E-02 0. -1.
    10030    2    1    2    0    0  0.00000000000E+00  0.00000000000E+00 -0.31053869757E+03  0.67441967503E+03  0.59867154215E+03 0.  0.
        3    1    3    3  502    0  0.26498412592E+03  0.11503033745E+03 -0.24363768008E+03  0.37789931845E+03  0.10100000352E+00 0. -1.
       -3    1    3    3    0  502 -0.26498412592E+03 -0.11503033745E+03 -0.66901017487E+02  0.29652035658E+03  0.10100000352E+00 0.  1.
</event>
<event>
 5   0  0.5125031E-02  0.5937271E+03  0.7818609E-02  0.9918506E-01
       -1   -1    0    0    0  501  0.00000000000E+00  0.00000000000E+00  0.28198284620E+03  0.28198284624E+03  0.50400001928E-02 0.  1.
        1   -1    0    0  501    0  0.00000000000E+00  0.00000000000E+00 -0.31252952028E+03  0.31252952032E+03  0.50400001928E-02 0. -1.
    10030    2    1    2    0    0  0.00000000000E+00  0.00000000000E+00 -0.30546674083E+02  0.59451236656E+03  0.59372708772E+03 0.  0.
        4    1    3    3  502    0  0.10212202584E+03  0.17450919300E+03  0.20237095774E+03  0.28607338926E+03  0.12699999809E+01 0.  1.
       -4    1    3    3    0  502 -0.10212202584E+03 -0.17450919300E+03 -0.23291763183E+03  0.30843897730E+03  0.12699999809E+01 0. -1.
</event>
<event>
 5   0  0.4881209E-02  0.6028558E+03  0.7818609E-02  0.9899499E-01
       -1   -1    0    0    0  501  0.00000000000E+00  0.00000000000E+00  0.32669026024E+03  0.32669026028E+03  0.50400001928E-02 0.  1.
        1   -1    0    0  501    0  0.00000000000E+00  0.00000000000E+00 -0.27811903366E+03  0.27811903371E+03  0.50400001928E-02 0. -1.
    10030    2    1    2    0    0  0.00000000000E+00  0.00000000000E+00  0.48571226577E+02  0.60480929399E+03  0.60285580203E+03 0.  0.
        3    1    3    3  502    0 -0.57504527113E+00  0.95840375351E+02  0.31099666104E+03  0.32542993348E+03  0.10100000352E+00 0.  1.
       -3    1    3    3    0  502  0.57504527113E+00 -0.95840375351E+02 -0.26242543446E+03  0.27937936051E+03  0.10100000352E+00 0. -1.
</event>
<event>
 5   0  0.5125031E-02  0.5955030E+03  0.7818609E-02  0.9914780E-01
        1   -1    0    0  501    0  0.00000000000E+00  0.00000000000E+00  0.50789745707E+03  0.50789745709E+03  0.50400001928E-02 0. -1.
       -1   -1    0    0    0  501  0.00000000000E+00  0.00000000000E+00 -0.17455483052E+03  0.17455483060E+03  0.50400001928E-02 0.  1.
    10030    2    1    2    0    0  0.00000000000E+00  0.00000000000E+00  0.33334262654E+03  0.68245228769E+03  0.59550299604E+03 0.  0.
        4    1    3    3  502    0 -0.77947808883E+02  0.12492490420E+03  0.46324716409E+03  0.48608809957E+03  0.12699999809E+01 0. -1.
       -4    1    3    3    0  502  0.77947808883E+02 -0.12492490420E+03 -0.12990453755E+03  0.19636418812E+03  0.12699999809E+01 0.  1.
</event>
<event>
 5   0  0.8817544E-02  0.6043703E+03  0.7818609E-02  0.9896380E-01
        2   -1    0    0  501    0  0.00000000000E+00  0.00000000000E+00  0.86312790261E+02  0.86312790299E+02  0.25500000920E-02 0.  1.
       -2   -1    0    0    0  501  0.00000000000E+00  0.00000000000E+00 -0.10579644337E+04  0.10579644337E+04  0.25500000920E-02 0. -1.
    10030    2    1    2    0    0  0.00000000000E+00  0.00000000000E+00 -0.97165164348E+03  0.11442772240E+04  0.60437029145E+03 0.  0.
        5    1    3    3  502    0 -0.76328897128E+02 -0.29087388928E+03 -0.54135107847E+03  0.61928733247E+03  0.46999998093E+01 0. -1.
       -5    1    3    3    0  502  0.76328897128E+02  0.29087388928E+03 -0.43030056501E+03  0.52498989157E+03  0.46999998093E+01 0.  1.
</event>
<event>
 5   0  0.5125031E-02  0.5992965E+03  0.7818609E-02  0.9906867E-01
       -1   -1    0    0    0  501  0.00000000000E+00  0.00000000000E+00  0.11683305466E+03  0.11683305477E+03  0.50400001928E-02 0. -1.
        1   -1    0    0  501    0  0.00000000000E+00  0.00000000000E+00 -0.76852457599E+03  0.76852457601E+03  0.50400001928E-02 0.  1.
    10030    2    1    2    0    0  0.00000000000E+00  0.00000000000E+00 -0.65169152133E+03  0.88535763078E+03  0.59929650042E+03 0.  0.
        4    1    3    3  502    0  0.94796099802E+02 -0.82105889867E+02  0.76193264709E+02  0.14674707553E+03  0.12699999809E+01 0. -1.
       -4    1    3    3    0  502 -0.94796099802E+02  0.82105889867E+02 -0.72788478604E+03  0.73861055526E+03  0.12699999809E+01 0.  1.
</event>
<event>
 5   0  0.5190380E-02  0.5960149E+03  0.7818609E-02  0.9913709E-01
       -1   -1    0    0    0  501  0.00000000000E+00  0.00000000000E+00  0.18108983027E+03  0.18108983034E+03  0.50400001928E-02 0. -1.
        1   -1    0    0  501    0  0.00000000000E+00  0.00000000000E+00 -0.49041092140E+03  0.49041092143E+03  0.50400001928E-02 0.  1.
    10030    2    1    2    0    0  0.00000000000E+00  0.00000000000E+00 -0.30932109114E+03  0.67150075177E+03  0.59601486743E+03 0.  0.
        5    1    3    3  502    0  0.16160007583E+03 -0.18893467658E+02 -0.43590566071E+03  0.46530353820E+03  0.46999998093E+01 0.  1.
       -5    1    3    3    0  502 -0.16160007583E+03  0.18893467658E+02  0.12658456957E+03  0.20619721356E+03  0.46999998093E+01 0. -1.
</event>
<event>
 5   0  0.5166903E-02  0.5946325E+03  0.7818609E-02  0.9916605E-01
       -1   -1    0    0    0  501  0.00000000000E+00  0.00000000000E+00  0.12598720533E+03  0.12598720543E+03  0.50400001928E-02 0. -1.
        1   -1    0    0  501    0  0.00000000000E+00  0.00000000000E+00 -0.70163446549E+03  0.70163446551E+03  0.50400001928E-02 0.  1.
    10030    2    1    2    0    0  0.00000000000E+00  0.00000000000E+00 -0.57564726016E+03  0.82762167094E+03  0.59463254374E+03 0.  0.
        2    1    3    3  502    0 -0.86999626925E+02 -0.14781394666E+02  0.10733948784E+03  0.13895751283E+03  0.25500000920E-02 0. -1.
       -2    1    3    3    0  502  0.86999626925E+02  0.14781394666E+02 -0.68298674800E+03  0.68866415811E+03  0.25500000920E-02 0.  1.
</event>
<event>
 5   0  0.5190380E-02  0.5995500E+03  0.7818609E-02  0.9906340E-01
        1   -1    0    0  501    0  0.00000000000E+00  0.00000000000E+00  0.48982593521E+03  0.48982593524E+03  0.50400001928E-02 0. -1.
       -1   -1    0    0    0  501  0.00000000000E+00  0.00000000000E+00 -0.18346321340E+03  0.18346321347E+03  0.50400001928E-02 0.  1.
    10030    2    1    2    0    0  0.00000000000E+00  0.00000000000E+00  0.30636272181E+03  0.67328914871E+03  0.59954996493E+03 0.  0.
        5    1    3    3  502    0  0.29595774011E+03 -0.30465257252E+02  0.11232186116E+03  0.31805252133E+03  0.46999998093E+01 0.  1.
       -5    1    3    3    0  502 -0.29595774011E+03  0.30465257252E+02  0.19404086065E+03  0.35523662738E+03  0.46999998093E+01 0. -1.
</event>
<event>
 5   0  0.8420604E-02  0.5964922E+03  0.7818609E-02  0.9912710E-01
       -2   -1    0    0    0  501  0.00000000000E+00  0.00000000000E+00  0.67480967109E+02  0.67480967157E+02  0.25500000920E-02 0. -1.
        2   -1    0    0  501    0  0.00000000000E+00  0.00000000000E+00 -0.13181604431E+04  0.13181604431E+04  0.25500000920E-02 0.  1.
    10030    2    1    2    0    0  0.00000000000E+00  0.00000000000E+00 -0.12506794760E+04  0.13856414103E+04  0.59649221803E+03 0.  0.
        2    1    3    3  502    0  0.17083498113E+03 -0.19366911392E+03 -0.97191159046E+03  0.10056363439E+04  0.25500000920E-02 0.  1.
       -2    1    3    3    0  502 -0.17083498113E+03  0.19366911392E+03 -0.27876788554E+03  0.38000506639E+03  0.25500000920E-02 0. -1.
</event>
<event>
 5   0  0.8575590E-02  0.6108689E+03  0.7818609E-02  0.9883110E-01
        2   -1    0    0  501    0  0.00000000000E+00  0.00000000000E+00  0.37173270857E+03  0.37173270858E+03  0.25500000920E-02 0. -1.
       -2   -1    0    0    0  501  0.00000000000E+00  0.00000000000E+00 -0.25096043816E+03  0.25096043817E+03  0.25500000920E-02 0.  1.
    10030    2    1    2    0    0  0.00000000000E+00  0.00000000000E+00  0.12077227041E+03  0.62269314675E+03  0.61086890059E+03 0.  0.
        4    1    3    3  502    0  0.26351823875E+03 -0.14546339760E+02  0.21709915875E+03  0.34174129950E+03  0.12699999809E+01 0. -1.
       -4    1    3    3    0  502 -0.26351823875E+03  0.14546339760E+02 -0.96326888333E+02  0.28095184725E+03  0.12699999809E+01 0.  1.
</event>
<event>
 5   0  0.8699746E-02  0.6023873E+03  0.7818609E-02  0.9900466E-01
        2   -1    0    0  501    0  0.00000000000E+00  0.00000000000E+00  0.12599077590E+04  0.12599077590E+04  0.25500000920E-02 0.  1.
       -2   -1    0    0    0  501  0.00000000000E+00  0.00000000000E+00 -0.72003372913E+02  0.72003372958E+02  0.25500000920E-02 0. -1.
    10030    2    1    2    0    0  0.00000000000E+00  0.00000000000E+00  0.11879043861E+04  0.13319111320E+04  0.60238727822E+03 0.  0.
        3    1    3    3  502    0 -0.16581407866E+03 -0.10949048201E+03  0.10944283035E+04  0.11123200061E+04  0.10100000352E+00 0.  1.
       -3    1    3    3    0  502  0.16581407866E+03  0.10949048201E+03  0.93476082615E+02  0.21959112586E+03  0.10100000352E+00 0. -1.
</event>
<event>
 5   0  0.5125031E-02  0.5386724E+03  0.7818609E-02  0.1004150E+00
        1   -1    0    0  501    0  0.00000000000E+00  0.00000000000E+00  0.19331766804E+04  0.19331766804E+04  0.50400001928E-02 0. -1.
       -1   -1    0    0    0  501  0.00000000000E+00  0.00000000000E+00 -0.37524763254E+02  0.37524763593E+02  0.50400001928E-02 0.  1.
    10030    2    1    2    0    0  0.00000000000E+00  0.00000000000E+00  0.18956519172E+04  0.19707014440E+04  0.53867243331E+03 0.  0.
        4    1    3    3  502    0 -0.19180028580E+03  0.72258450663E+02  0.30857418384E+03  0.37044334676E+03  0.12699999809E+01 0.  1.
       -4    1    3    3    0  502  0.19180028580E+03 -0.72258450663E+02  0.15870777333E+04  0.16002580973E+04  0.12699999809E+01 0. -1.
</event>
<event>
 5   0  0.4881209E-02  0.6025652E+03  0.7818609E-02  0.9900098E-01
        1   -1    0    0  501    0  0.00000000000E+00  0.00000000000E+00  0.83435952975E+03  0.83435952976E+03  0.50400001928E-02 0.  1.
       -1   -1    0    0    0  501  0.00000000000E+00  0.00000000000E+00 -0.10879148910E+03  0.10879148922E+03  0.50400001928E-02 0. -1.
    10030    2    1    2    0    0  0.00000000000E+00  0.00000000000E+00  0.72556804065E+03  0.94315101898E+03  0.60256523547E+03 0.  0.
        3    1    3    3  502    0  0.72895463678E+02  0.24385059788E+02  0.81875364367E+03  0.82235388914E+03  0.10100000352E+00 0.  1.
       -3    1    3    3    0  502 -0.72895463678E+02 -0.24385059788E+02 -0.93185603020E+02  0.12079712984E+03  0.10100000352E+00 0. -1.
</event>
<event>
 5   0  0.5190380E-02  0.5972282E+03  0.7818609E-02  0.9911173E-01
        1   -1    0    0  501    0  0.00000000000E+00  0.00000000000E+00  0.45559067514E+03  0.45559067517E+03  0.50400001928E-02 0. -1.
       -1   -1    0    0    0  501  0.00000000000E+00  0.00000000000E+00 -0.19572475966E+03  0.19572475972E+03  0.50400001928E-02 0.  1.
    10030    2    1    2    0    0  0.00000000000E+00  0.00000000000E+00  0.25986591548E+03  0.65131543489E+03  0.59722818227E+03 0.  0.
        5    1    3    3  502    0 -0.13771458731E+03  0.18140657309E+03  0.34048417943E+03  0.40966476388E+03  0.46999998093E+01 0. -1.
       -5    1    3    3    0  502  0.13771458731E+03 -0.18140657309E+03 -0.80618263950E+02  0.24165067101E+03  0.46999998093E+01 0.  1.
</event>
<event>
 5   0  0.5190380E-02  0.5363228E+03  0.7818609E-02  0.1004710E+00
        1   -1    0    0  501    0  0.00000000000E+00  0.00000000000E+00  0.45243435674E+02  0.45243435955E+02  0.50400001928E-02 0. -1.
       -1   -1    0    0    0  501  0.00000000000E+00  0.00000000000E+00 -0.15894138839E+04  0.15894138840E+04  0.50400001928E-02 0.  1.
    10030    2    1    2    0    0  0.00000000000E+00  0.00000000000E+00 -0.15441704483E+04  0.16346573199E+04  0.53632283209E+03 0.  0.
        5    1    3    3  502    0 -0.88609056238E+02  0.24252942011E+03 -0.55195247544E+03  0.60938141554E+03  0.46999998093E+01 0.  1.
       -5    1    3    3    0  502  0.88609056238E+02 -0.24252942011E+03 -0.99221797283E+03  0.10252759044E+04  0.46999998093E+01 0. -1.
</event>
<event>
 5   0  0.8420604E-02  0.5765979E+03  0.7818609E-02  0.9955184E-01
       -2   -1    0    0    0  501  0.00000000000E+00  0.00000000000E+00  0.10070418761E+03  0.10070418764E+03  0.25500000920E-02 0. -1.
        2   -1    0    0  501    0  0.00000000000E+00  0.00000000000E+00 -0.82535075619E+03  0.82535075620E+03  0.25500000920E-02 0.  1.
    10030    2    1    2    0    0  0.00000000000E+00  0.00000000000E+00 -0.72464656858E+03  0.92605494384E+03  0.57659787517E+03 0.  0.
        2    1    3    3  502    0 -0.19114511190E+02  0.11043466652E+03 -0.78893022262E+03  0.79685135143E+03  0.25500000920E-02 0.  1.
       -2    1    3    3    0  502  0.19114511190E+02 -0.11043466652E+03  0.64283654037E+02  0.12920359241E+03  0.25500000920E-02 0. -1.
</event>
<event>
 5   0  0.8420604E-02  0.6012067E+03  0.7818609E-02  0.9902906E-01
       -2   -1    0    0    0  501  0.00000000000E+00  0.00000000000E+00  0.10445680452E+04  0.10445680452E+04  0.25500000920E-02 0.  1.
        2   -1    0    0  501    0  0.00000000000E+00  0.00000000000E+00 -0.86506933472E+02  0.86506933510E+02  0.25500000920E-02 0. -1.
    10030    2    1    2    0    0  0.00000000000E+00  0.00000000000E+00  0.95806111174E+03  0.11310749787E+04  0.60120671459E+03 0.  0.
        2    1    3    3  502    0  0.25429405333E+03  0.81864253682E+02  0.73832249433E+03  0.78516706963E+03  0.25500000920E-02 0.  1.
       -2    1    3    3    0  502 -0.25429405333E+03 -0.81864253682E+02  0.21973861741E+03  0.34590790910E+03  0.25500000920E-02 0. -1.
</event>
<event>
 5   0  0.4987389E-02  0.6240822E+03  0.7818609E-02  0.9856665E-01
       -1   -1    0    0    0  501  0.00000000000E+00  0.00000000000E+00  0.29373257039E+03  0.29373257044E+03  0.50400001928E-02 0.  1.
        1   -1    0    0  501    0  0.00000000000E+00  0.00000000000E+00 -0.33149082461E+03  0.33149082465E+03  0.50400001928E-02 0. -1.
    10030    2    1    2    0    0  0.00000000000E+00  0.00000000000E+00 -0.37758254213E+02  0.62522339508E+03  0.62408221253E+03 0.  0.
        1    1    3    3  502    0  0.13842267894E+03  0.86758192445E+02 -0.28522581976E+03  0.32869680602E+03  0.50400001928E-02 0. -1.
       -1    1    3    3    0  502 -0.13842267894E+03 -0.86758192445E+02  0.24746756555E+03  0.29652658907E+03  0.50400001928E-02 0.  1.
</event>
<event>
 5   0  0.5125031E-02  0.5895494E+03  0.7818609E-02  0.9927328E-01
        1   -1    0    0  501    0  0.00000000000E+00  0.00000000000E+00  0.56674622928E+03  0.56674622930E+03  0.50400001928E-02 0.  1.
       -1   -1    0    0    0  501  0.00000000000E+00  0.00000000000E+00 -0.15331751243E+03  0.15331751251E+03  0.50400001928E-02 0. -1.
    10030    2    1    2    0    0  0.00000000000E+00  0.00000000000E+00  0.41342871685E+03  0.72006374181E+03  0.58954939433E+03 0.  0.
        4    1    3    3  502    0  0.27298787162E+03 -0.86981856526E+02  0.12207451800E+03  0.31143542230E+03  0.12699999809E+01 0.  1.
       -4    1    3    3    0  502 -0.27298787162E+03  0.86981856526E+02  0.29135419885E+03  0.40862831951E+03  0.12699999809E+01 0. -1.
</event>
<event>
 5   0  0.8207443E-02  0.4393690E+03  0.7818609E-02  0.1030941E+00
        2   -1    0    0  501    0  0.00000000000E+00  0.00000000000E+00  0.16606294290E+04  0.16606294290E+04  0.25500000920E-02 0.  1.
       -2   -1    0    0    0  501  0.00000000000E+00  0.00000000000E+00 -0.29062046619E+02  0.29062046731E+02  0.25500000920E-02 0. -1.
    10030    2    1    2    0    0  0.00000000000E+00  0.00000000000E+00  0.16315673823E+04  0.16896914757E+04  0.43936904751E+03 0.  0.
        1    1    3    3  502    0  0.19957706509E+03 -0.50477550214E+02  0.11107358723E+04  0.11296517897E+04  0.50400001928E-02 0.  1.
       -1    1    3    3    0  502 -0.19957706509E+03  0.50477550214E+02  0.52083151009E+03  0.56003968602E+03  0.50400001928E-02 0. -1.
</event>
<event>
 5   0  0.8817544E-02  0.6013935E+03  0.7818609E-02  0.9902519E-01
       -2   -1    0    0    0  501  0.00000000000E+00  0.00000000000E+00  0.62656749542E+03  0.62656749542E+03  0.25500000920E-02 0.  1.
        2   -1    0    0  501    0  0.00000000000E+00  0.00000000000E+00 -0.14430773400E+03  0.14430773402E+03  0.25500000920E-02 0. -1.
    10030    2    1    2    0    0  0.00000000000E+00  0.00000000000E+00  0.48225976142E+03  0.77087522945E+03  0.60139350004E+03 0.  0.
        5    1    3    3  502    0  0.39539735146E+02  0.84685301718E+02 -0.12516758702E+03  0.15628181539E+03  0.46999998093E+01 0. -1.
       -5    1    3    3    0  502 -0.39539735146E+02 -0.84685301718E+02  0.60742734843E+03  0.61459341406E+03  0.46999998093E+01 0.  1.
</event>
<event>
 5   0  0.5166903E-02  0.5990976E+03  0.7818609E-02  0.9907280E-01
       -1   -1    0    0    0  501  0.00000000000E+00  0.00000000000E+00  0.16932306701E+03  0.16932306709E+03  0.50400001928E-02 0. -1.
        1   -1    0    0  501    0  0.00000000000E+00  0.00000000000E+00 -0.52993066368E+03  0.52993066371E+03  0.50400001928E-02 0.  1.
    10030    2    1    2    0    0  0.00000000000E+00  0.00000000000E+00 -0.36060759667E+03  0.69925373079E+03  0.59909760578E+03 0.  0.
        2    1    3    3  502    0 -0.10020084177E+03 -0.43712994806E+01 -0.50975043308E+03  0.51952364815E+03  0.25500000920E-02 0.  1.
       -2    1    3    3    0  502  0.10020084177E+03  0.43712994806E+01  0.14914283641E+03  0.17973008265E+03  0.25500000920E-02 0. -1.
</event>
<event>
 5   0  0.5166903E-02  0.5771885E+03  0.7818609E-02  0.9953896E-01
        1   -1    0    0  501    0  0.00000000000E+00  0.00000000000E+00  0.14949882202E+04  0.14949882202E+04  0.50400001928E-02 0.  1.
       -1   -1    0    0    0  501  0.00000000000E+00  0.00000000000E+00 -0.55710567001E+02  0.55710567229E+02  0.50400001928E-02 0. -1.
    10030    2    1    2    0    0  0.00000000000E+00  0.00000000000E+00  0.14392776532E+04  0.15506987874E+04  0.57718850158E+03 0.  0.
        2    1    3    3  502    0 -0.60758889474E+02  0.22574875482E+03  0.11742492623E+04  0.11972950651E+04  0.25500000920E-02 0.  1.
       -2    1    3    3    0  502  0.60758889474E+02 -0.22574875482E+03  0.26502839090E+03  0.35340372231E+03  0.25500000920E-02 0. -1.
</event>
<event>
 5   0  0.4881209E-02  0.6075843E+03  0.7818609E-02  0.9889795E-01
       -1   -1    0    0    0  501  0.00000000000E+00  0.00000000000E+00  0.31160288497E+03  0.31160288501E+03  0.50400001928E-02 0.  1.
        1   -1    0    0  501    0  0.00000000000E+00  0.00000000000E+00 -0.29617721746E+03  0.29617721750E+03  0.50400001928E-02 0. -1.
    10030    2    1    2    0    0  0.00000000000E+00  0.00000000000E+00  0.15425667511E+02  0.60778010251E+03  0.60758431660E+03 0.  0.
        3    1    3    3  502    0  0.18882220936E+03 -0.23762747989E+03  0.20717765169E+02  0.30422012087E+03  0.10100000352E+00 0.  1.
       -3    1    3    3    0  502 -0.18882220936E+03  0.23762747989E+03 -0.52920976578E+01  0.30355998163E+03  0.10100000352E+00 0. -1.
</event>
<event>
 5   0  0.8699746E-02  0.6019632E+03  0.7818609E-02  0.9901341E-01
        2   -1    0    0  501    0  0.00000000000E+00  0.00000000000E+00  0.61809715271E+03  0.61809715272E+03  0.25500000920E-02 0. -1.
       -2   -1    0    0    0  501  0.00000000000E+00  0.00000000000E+00 -0.14656261706E+03  0.14656261708E+03  0.25500000920E-02 0.  1.
    10030    2    1    2    0    0  0.00000000000E+00  0.00000000000E+00  0.47153453566E+03  0.76465976980E+03  0.60196324243E+03 0.  0.
        3    1    3    3  502    0  0.11710254001E+03 -0.18017386494E+03 -0.31939701763E+02  0.21724590038E+03  0.10100000352E+00 0.  1.
       -3    1    3    3    0  502 -0.11710254001E+03  0.18017386494E+03  0.50347423742E+03  0.54741386942E+03  0.10100000352E+00 0. -1.
</event>
<event>
 5   0  0.4881209E-02  0.5872858E+03  0.7818609E-02  0.9932141E-01
       -1   -1    0    0    0  501  0.00000000000E+00  0.00000000000E+00  0.71637857507E+02  0.71637857684E+02  0.50400001928E-02 0. -1.
        1   -1    0    0  501    0  0.00000000000E+00  0.00000000000E+00 -0.12036395348E+04  0.12036395348E+04  0.50400001928E-02 0.  1.
    10030    2    1    2    0    0  0.00000000000E+00  0.00000000000E+00 -0.11320016773E+04  0.12752773925E+04  0.58728581662E+03 0.  0.
        3    1    3    3  502    0 -0.15175794173E+02 -0.18183468946E+03 -0.10655914320E+04  0.10811009524E+04  0.10100000352E+00 0.  1.
       -3    1    3    3    0  502  0.15175794173E+02  0.18183468946E+03 -0.66410245269E+02  0.19417644012E+03  0.10100000352E+00 0. -1.
</event>
<event>
 5   0  0.5166903E-02  0.5865488E+03  0.7818609E-02  0.9933713E-01
        1   -1    0    0  501    0  0.00000000000E+00  0.00000000000E+00  0.12088088669E+04  0.12088088669E+04  0.50400001928E-02 0. -1.
       -1   -1    0    0    0  501  0.00000000000E+00  0.00000000000E+00 -0.71152594871E+02  0.71152595050E+02  0.50400001928E-02 0.  1.
    10030    2    1    2    0    0  0.00000000000E+00  0.00000000000E+00  0.11376562720E+04  0.12799614619E+04  0.58654884776E+03 0.  0.
        2    1    3    3  502    0  0.91575568291E+02  0.20720302167E+03  0.16238545537E+03  0.27872605371E+03  0.25500000920E-02 0.  1.
       -2    1    3    3    0  502 -0.91575568291E+02 -0.20720302167E+03  0.97527081663E+03  0.10012354082E+04  0.25500000920E-02 0. -1.
</event>
<event>
 5   0  0.8699746E-02  0.5964646E+03  0.7818609E-02  0.9912768E-01
        2   -1    0    0  501    0  0.00000000000E+00  0.00000000000E+00  0.37890727807E+03  0.37890727808E+03  0.25500000920E-02 0. -1.
       -2   -1    0    0    0  501  0.00000000000E+00  0.00000000000E+00 -0.23473425195E+03  0.23473425197E+03  0.25500000920E-02 0.  1.
    10030    2    1    2    0    0  0.00000000000E+00  0.00000000000E+00  0.14417302612E+03  0.61364153005E+03  0.59646463930E+03 0.  0.
        3    1    3    3  502    0  0.26654370921E+02 -0.29512202889E+03  0.10674705963E+03  0.31496414457E+03  0.10100000352E+00 0. -1.
       -3    1    3    3    0  502 -0.26654370921E+02  0.29512202889E+03  0.37425966486E+02  0.29867738547E+03  0.10100000352E+00 0.  1.
</event>
<event>
 5   0  0.8817544E-02  0.6332092E+03  0.7818609E-02  0.9838806E-01
        2   -1    0    0  501    0  0.00000000000E+00  0.00000000000E+00  0.15702637271E+04  0.15702637271E+04  0.25500000920E-02 0.  1.
       -2   -1    0    0    0  501  0.00000000000E+00  0.00000000000E+00 -0.63835431411E+02  0.63835431462E+02  0.25500000920E-02 0. -1.
    10030    2    1    2    0    0  0.00000000000E+00  0.00000000000E+00  0.15064282956E+04  0.16340991585E+04  0.63320916762E+03 0.  0.
        5    1    3    3  502    0  0.17061386689E+03  0.49230925545E+02  0.14295427086E+04  0.14405371294E+04  0.46999998093E+01 0.  1.
       -5    1    3    3    0  502 -0.17061386689E+03 -0.49230925545E+02  0.76885587050E+02  0.19356202908E+03  0.46999998093E+01 0. -1.
</event>
<event>
 5   0  0.8817544E-02  0.6310324E+03  0.7818609E-02  0.9843036E-01
       -2   -1    0    0    0  501  0.00000000000E+00  0.00000000000E+00  0.21281445027E+03  0.21281445029E+03  0.25500000920E-02 0.  1.
        2   -1    0    0  501    0  0.00000000000E+00  0.00000000000E+00 -0.46778064768E+03  0.46778064769E+03  0.25500000920E-02 0. -1.
    10030    2    1    2    0    0  0.00000000000E+00  0.00000000000E+00 -0.25496619741E+03  0.68059509797E+03  0.63103242830E+03 0.  0.
        5    1    3    3  502    0 -0.54923789645E+02 -0.25441925272E+03 -0.31976213456E+03  0.41232959089E+03  0.46999998093E+01 0. -1.
       -5    1    3    3    0  502  0.54923789645E+02  0.25441925272E+03  0.64795937156E+02  0.26826550709E+03  0.46999998093E+01 0.  1.
</event>
<event>
 5   0  0.8817544E-02  0.5702644E+03  0.7818609E-02  0.9969094E-01
        2   -1    0    0  501    0  0.00000000000E+00  0.00000000000E+00  0.78871985698E+03  0.78871985698E+03  0.25500000920E-02 0. -1.
       -2   -1    0    0    0  501  0.00000000000E+00  0.00000000000E+00 -0.10307889152E+03  0.10307889155E+03  0.25500000920E-02 0.  1.
    10030    2    1    2    0    0  0.00000000000E+00  0.00000000000E+00  0.68564096546E+03  0.89179874853E+03  0.57026438988E+03 0.  0.
        5    1    3    3  502    0  0.91115669242E+01  0.19275643272E+03  0.14638054721E+02  0.19358312336E+03  0.46999998093E+01 0.  1.
       -5    1    3    3    0  502 -0.91115669242E+01 -0.19275643272E+03  0.67100291074E+03  0.69821562517E+03  0.46999998093E+01 0. -1.
</event>
<event>
 5   0  0.8420604E-02  0.5986065E+03  0.7818609E-02  0.9908301E-01
       -2   -1    0    0    0  501  0.00000000000E+00  0.00000000000E+00  0.17974547214E+03  0.17974547216E+03  0.25500000920E-02 0.  1.
        2   -1    0    0  501    0  0.00000000000E+00  0.00000000000E+00 -0.49838501518E+03  0.49838501519E+03  0.25500000920E-02 0. -1.
    10030    2    1    2    0    0  0.00000000000E+00  0.00000000000E+00 -0.31863954304E+03  0.67813048734E+03  0.59860654814E+03 0.  0.
        2    1    3    3  502    0 -0.10638834832E+03 -0.15457360393E+03  0.10483310707E+03  0.21494524893E+03  0.25500000920E-02 0.  1.
       -2    1    3    3    0  502  0.10638834832E+03  0.15457360393E+03 -0.42347265011E+03  0.46318523842E+03  0.25500000920E-02 0. -1.
</event>
<event>
 5   0  0.8575590E-02  0.6021562E+03  0.7818609E-02  0.9900943E-01
       -2   -1    0    0    0  501  0.00000000000E+00  0.00000000000E+00  0.43932808189E+02  0.43932808263E+02  0.25500000920E-02 0.  1.
        2   -1    0    0  501    0  0.00000000000E+00  0.00000000000E+00 -0.20633331256E+04  0.20633331256E+04  0.25500000920E-02 0. -1.
    10030    2    1    2    0    0  0.00000000000E+00  0.00000000000E+00 -0.20194003174E+04  0.21072659338E+04  0.60215618743E+03 0.  0.
        4    1    3    3  502    0  0.18116203067E+03 -0.19152152458E+03 -0.50080693534E+03  0.56595881044E+03  0.12699999809E+01 0.  1.
       -4    1    3    3    0  502 -0.18116203067E+03  0.19152152458E+03 -0.15185933820E+04  0.15413071234E+04  0.12699999809E+01 0. -1.
</event>
<event>
 5   0  0.8699746E-02  0.6034918E+03  0.7818609E-02  0.9898188E-01
        2   -1    0    0  501    0  0.00000000000E+00  0.00000000000E+00  0.94298650900E+03  0.94298650901E+03  0.25500000920E-02 0. -1.
       -2   -1    0    0    0  501  0.00000000000E+00  0.00000000000E+00 -0.96555571960E+02  0.96555571994E+02  0.25500000920E-02 0.  1.
    10030    2    1    2    0    0  0.00000000000E+00  0.00000000000E+00  0.84643093704E+03  0.10395420810E+04  0.60349184500E+03 0.  0.
        3    1    3    3  502    0  0.85286915606E+02  0.25595470118E+03  0.19042364605E+03  0.33022392737E+03  0.10100000352E+00 0.  1.
       -3    1    3    3    0  502 -0.85286915606E+02 -0.25595470118E+03  0.65600729100E+03  0.70931815363E+03  0.10100000352E+00 0. -1.
</event>
<event>
 5   0  0.8817544E-02  0.5945408E+03  0.7818609E-02  0.9916797E-01
       -2   -1    0    0    0  501  0.00000000000E+00  0.00000000000E+00  0.41767065866E+02  0.41767065944E+02  0.25500000920E-02 0.  1.
        2   -1    0    0  501    0  0.00000000000E+00  0.00000000000E+00 -0.21157744174E+04  0.21157744174E+04  0.25500000920E-02 0. -1.
    10030    2    1    2    0    0  0.00000000000E+00  0.00000000000E+00 -0.20740073516E+04  0.21575414834E+04  0.59454079603E+03 0.  0.
        5    1    3    3  502    0 -0.29161073940E+02 -0.72731518101E+02  0.34741731570E+01  0.78577362108E+02  0.46999998093E+01 0.  1.
       -5    1    3    3    0  502  0.29161073940E+02  0.72731518101E+02 -0.20774815247E+04  0.20789641213E+04  0.46999998093E+01 0. -1.
</event>
<event>
 5   0  0.8207443E-02  0.6075513E+03  0.7818609E-02  0.9889862E-01
        2   -1    0    0  501    0  0.00000000000E+00  0.00000000000E+00  0.15899263350E+03  0.15899263352E+03  0.25500000920E-02 0. -1.
       -2   -1    0    0    0  501  0.00000000000E+00  0.00000000000E+00 -0.58040206195E+03  0.58040206196E+03  0.25500000920E-02 0.  1.
    10030    2    1    2    0    0  0.00000000000E+00  0.00000000000E+00 -0.42140942846E+03  0.73939469548E+03  0.60755132236E+03 0.  0.
        1    1    3    3  502    0  0.26356544333E+03  0.13119028124E+03 -0.30179365836E+03  0.42161243466E+03  0.50400001928E-02 0.  1.
       -1    1    3    3    0  502 -0.26356544333E+03 -0.13119028124E+03 -0.11961577010E+03  0.31778226082E+03  0.50400001928E-02 0. -1.
</event>
<event>
 5   0  0.5190380E-02  0.6645639E+03  0.7818609E-02  0.9779828E-01
       -1   -1    0    0    0  501  0.00000000000E+00  0.00000000000E+00  0.32176773347E+03  0.32176773351E+03  0.50400001928E-02 0.  1.
        1   -1    0    0  501    0  0.00000000000E+00  0.00000000000E+00 -0.34313974914E+03  0.34313974918E+03  0.50400001928E-02 0. -1.
    10030    2    1    2    0    0  0.00000000000E+00  0.00000000000E+00 -0.21372015667E+02  0.66490748269E+03  0.66456391528E+03 0.  0.
        5    1    3    3  502    0  0.31060372815E+03  0.11401485326E+03 -0.40953038419E+02  0.33342660971E+03  0.46999998093E+01 0. -1.
       -5    1    3    3    0  502 -0.31060372815E+03 -0.11401485326E+03  0.19581022752E+02  0.33148087299E+03  0.46999998093E+01 0.  1.
</event>
<event>
 5   0  0.8207443E-02  0.6034090E+03  0.7818609E-02  0.9898359E-01
       -2   -1    0    0    0  501  0.00000000000E+00  0.00000000000E+00  0.49485524537E+02  0.49485524603E+02  0.25500000920E-02 0. -1.
        2   -1    0    0  501    0  0.00000000000E+00  0.00000000000E+00 -0.18394389257E+04  0.18394389257E+04  0.25500000920E-02 0.  1.
    10030    2    1    2    0    0  0.00000000000E+00  0.00000000000E+00 -0.17899534012E+04  0.18889244503E+04  0.60340898289E+03 0.  0.
        1    1    3    3  502    0  0.27770489679E+03 -0.11585019029E+03 -0.82608439156E+03  0.87917955976E+03  0.50400001928E-02 0.  1.
       -1    1    3    3    0  502 -0.27770489679E+03  0.11585019029E+03 -0.96386900964E+03  0.10097448906E+04  0.50400001928E-02 0. -1.
</event>
<event>
 5   0  0.5166903E-02  0.6137337E+03  0.7818609E-02  0.9877316E-01
       -1   -1    0    0    0  501  0.00000000000E+00  0.00000000000E+00  0.27814596862E+03  0.27814596866E+03  0.50400001928E-02 0.  1.
        1   -1    0    0  501    0  0.00000000000E+00  0.00000000000E+00 -0.33855344007E+03  0.33855344011E+03  0.50400001928E-02 0. -1.
    10030    2    1    2    0    0  0.00000000000E+00  0.00000000000E+00 -0.60407471457E+02  0.61669940877E+03  0.61373373556E+03 0.  0.
        2    1    3    3  502    0 -0.30170357321E+02  0.60189871037E+02 -0.33104015981E+03  0.33781749281E+03  0.25500000920E-02 0. -1.
       -2    1    3    3    0  502  0.30170357321E+02 -0.60189871037E+02  0.27063268835E+03  0.27888191596E+03  0.25500000920E-02 0.  1.
</event>
<event>
 5   0  0.8699746E-02  0.6004154E+03  0.7818609E-02  0.9904545E-01
       -2   -1    0    0    0  501  0.00000000000E+00  0.00000000000E+00  0.11530741986E+03  0.11530741989E+03  0.25500000920E-02 0.  1.
        2   -1    0    0  501    0  0.00000000000E+00  0.00000000000E+00 -0.78160324880E+03  0.78160324881E+03  0.25500000920E-02 0. -1.
    10030    2    1    2    0    0  0.00000000000E+00  0.00000000000E+00 -0.66629582894E+03  0.89691066869E+03  0.60041536951E+03 0.  0.
        3    1    3    3  502    0  0.73714114235E+02 -0.38162804742E+02  0.97824038112E+02  0.12829545174E+03  0.10100000352E+00 0.  1.
       -3    1    3    3    0  502 -0.73714114235E+02  0.38162804742E+02 -0.76411986706E+03  0.76861521695E+03  0.10100000352E+00 0. -1.
</event>
<event>
 5   0  0.5125031E-02  0.5915131E+03  0.7818609E-02  0.9923172E-01
        1   -1    0    0  501    0  0.00000000000E+00  0.00000000000E+00  0.49025541319E+03  0.49025541322E+03  0.50400001928E-02 0.  1.
       -1   -1    0    0    0  501  0.00000000000E+00  0.00000000000E+00 -0.17842114097E+03  0.17842114104E+03  0.50400001928E-02 0. -1.
    10030    2    1    2    0    0  0.00000000000E+00  0.00000000000E+00  0.31183427222E+03  0.66867655426E+03  0.59151307753E+03 0.  0.
        4    1    3    3  502    0  0.78798731340E+02  0.91760565455E+01  0.47800021970E+03  0.48454025943E+03  0.12699999809E+01 0.  1.
       -4    1    3    3    0  502 -0.78798731340E+02 -0.91760565455E+01 -0.16616594748E+03  0.18413629484E+03  0.12699999809E+01 0. -1.
</event>
<event>
 5   0  0.4987389E-02  0.5850385E+03  0.7818609E-02  0.9936942E-01
        1   -1    0    0  501    0  0.00000000000E+00  0.00000000000E+00  0.60876441867E+03  0.60876441869E+03  0.50400001928E-02 0. -1.
       -1   -1    0    0    0  501  0.00000000000E+00  0.00000000000E+00 -0.14055933505E+03  0.14055933514E+03  0.50400001928E-02 0.  1.
    10030    2    1    2    0    0  0.00000000000E+00  0.00000000000E+00  0.46820508362E+03  0.74932375383E+03  0.58503853525E+03 0.  0.
        1    1    3    3  502    0 -0.13295747863E+03  0.12782825681E+03 -0.56700123483E+02  0.19295765958E+03  0.50400001928E-02 0.  1.
       -1    1    3    3    0  502  0.13295747863E+03 -0.12782825681E+03  0.52490520710E+03  0.55636609425E+03  0.50400001928E-02 0. -1.
</event>
<event>
 5   0  0.5190380E-02  0.6000152E+03  0.7818609E-02  0.9905375E-01
        1   -1    0    0  501    0  0.00000000000E+00  0.00000000000E+00  0.18352348105E+03  0.18352348112E+03  0.50400001928E-02 0.  1.
       -1   -1    0    0    0  501  0.00000000000E+00  0.00000000000E+00 -0.49042531706E+03  0.49042531709E+03  0.50400001928E-02 0. -1.
    10030    2    1    2    0    0  0.00000000000E+00  0.00000000000E+00 -0.30690183602E+03  0.67394879821E+03  0.60001520452E+03 0.  0.
        5    1    3    3  502    0 -0.16844604967E+03 -0.24029657110E+03 -0.22328914347E+03  0.36877722993E+03  0.46999998093E+01 0. -1.
       -5    1    3    3    0  502  0.16844604967E+03  0.24029657110E+03 -0.83612692549E+02  0.30517156827E+03  0.46999998093E+01 0.  1.
</event>
<event>
 5   0  0.8575590E-02  0.4633956E+03  0.7818609E-02  0.1023801E+00
        2   -1    0    0  501    0  0.00000000000E+00  0.00000000000E+00  0.31420529935E+03  0.31420529936E+03  0.25500000920E-02 0.  1.
       -2   -1    0    0    0  501  0.00000000000E+00  0.00000000000E+00 -0.17085600433E+03  0.17085600435E+03  0.25500000920E-02 0. -1.
    10030    2    1    2    0    0  0.00000000000E+00  0.00000000000E+00  0.14334929502E+03  0.48506130371E+03  0.46339556318E+03 0.  0.
        4    1    3    3  502    0 -0.46856563717E+02  0.14469661170E+03 -0.11128172352E+03  0.18846188445E+03  0.12699999809E+01 0. -1.
       -4    1    3    3    0  502  0.46856563717E+02 -0.14469661170E+03  0.25463101855E+03  0.29659941926E+03  0.12699999809E+01 0.  1.
</event>
<event>
 5   0  0.5166903E-02  0.5918800E+03  0.7818609E-02  0.9922397E-01
       -1   -1    0    0    0  501  0.00000000000E+00  0.00000000000E+00  0.27864277819E+03  0.27864277824E+03  0.50400001928E-02 0.  1.
        1   -1    0    0  501    0  0.00000000000E+00  0.00000000000E+00 -0.31431095448E+03  0.31431095452E+03  0.50400001928E-02 0. -1.
    10030    2    1    2    0    0  0.00000000000E+00  0.00000000000E+00 -0.35668176293E+02  0.59295373276E+03  0.59187997972E+03 0.  0.
        2    1    3    3  502    0  0.13887208850E+03 -0.22495641098E+03 -0.15107775570E+03  0.30449192449E+03  0.25500000920E-02 0. -1.
       -2    1    3    3    0  502 -0.13887208850E+03  0.22495641098E+03  0.11540957940E+03  0.28846180827E+03  0.25500000920E-02 0.  1.
</event>
<event>
 5   0  0.8420604E-02  0.5993974E+03  0.7818609E-02  0.9906657E-01
        2   -1    0    0  501    0  0.00000000000E+00  0.00000000000E+00  0.63619452997E+03  0.63619452998E+03  0.25500000920E-02 0. -1.
       -2   -1    0    0    0  501  0.00000000000E+00  0.00000000000E+00 -0.14118214343E+03  0.14118214345E+03  0.25500000920E-02 0.  1.
    10030    2    1    2    0    0  0.00000000000E+00  0.00000000000E+00  0.49501238654E+03  0.77737667343E+03  0.59939738869E+03 0.  0.
        2    1    3    3  502    0  0.73375307083E+02 -0.20307084946E+02 -0.12843138072E+03  0.14930148341E+03  0.25500000920E-02 0.  1.
       -2    1    3    3    0  502 -0.73375307083E+02  0.20307084946E+02  0.62344376725E+03  0.62807519002E+03  0.25500000920E-02 0. -1.
</event>
<event>
 5   0  0.3437375E-02  0.5662472E+03  0.7818609E-02  0.9978018E-01
        3   -1    0    0  501    0  0.00000000000E+00  0.00000000000E+00  0.27640620565E+03  0.27640622410E+03  0.10100000352E+00 0.  1.
       -3   -1    0    0    0  501  0.00000000000E+00  0.00000000000E+00 -0.29000417850E+03  0.29000419609E+03  0.10100000352E+00 0. -1.
    10030    2    1    2    0    0  0.00000000000E+00  0.00000000000E+00 -0.13597972856E+02  0.56641042019E+03  0.56624717150E+03 0.  0.
        4    1    3    3  502    0  0.11548157370E+03  0.25051249891E+03  0.56975538707E+02  0.28167415729E+03  0.12699999809E+01 0.  1.
       -4    1    3    3    0  502 -0.11548157370E+03 -0.25051249891E+03 -0.70573511564E+02  0.28473626290E+03  0.12699999809E+01 0. -1.
</event>
<event>
 5   0  0.3437375E-02  0.5917431E+03  0.7818609E-02  0.9922686E-01
       -3   -1    0    0    0  501  0.00000000000E+00  0.00000000000E+00  0.50216757546E+03  0.50216758562E+03  0.10100000352E+00 0.  1.
        3   -1    0    0  501    0  0.00000000000E+00  0.00000000000E+00 -0.17432419010E+03  0.17432421936E+03  0.10100000352E+00 0. -1.
    10030    2    1    2    0    0  0.00000000000E+00  0.00000000000E+00  0.32784338536E+03  0.67649180498E+03  0.59174308351E+03 0.  0.
        3    1    3    3  502    0 -0.23218640967E+03  0.15525858761E+03  0.52352669883E+02  0.28417700489E+03  0.10100000352E+00 0. -1.
       -3    1    3    3    0  502  0.23218640967E+03 -0.15525858761E+03  0.27549071548E+03  0.39231480010E+03  0.10100000352E+00 0.  1.
</event>
<event>
 5   0  0.8207443E-02  0.6122198E+03  0.7818609E-02  0.9880373E-01
        2   -1    0    0  501    0  0.00000000000E+00  0.00000000000E+00  0.31855305263E+03  0.31855305264E+03  0.25500000920E-02 0.  1.
       -2   -1    0    0    0  501  0.00000000000E+00  0.00000000000E+00 -0.29415281767E+03  0.29415281768E+03  0.25500000920E-02 0. -1.
    10030    2    1    2    0    0  0.00000000000E+00  0.00000000000E+00  0.24400234957E+02  0.61270587032E+03  0.61221982331E+03 0.  0.
        1    1    3    3  502    0 -0.14104641102E+02  0.16744152835E+02  0.31776852544E+03  0.31852180984E+03  0.50400001928E-02 0.  1.
       -1    1    3    3    0  502  0.14104641102E+02 -0.16744152835E+02 -0.29336829048E+03  0.29418406048E+03  0.50400001928E-02 0. -1.
</event>
<event>
 5   0  0.8817544E-02  0.5727375E+03  0.7818609E-02  0.9963639E-01
       -2   -1    0    0    0  501  0.00000000000E+00  0.00000000000E+00  0.82993442568E+02  0.82993442607E+02  0.25500000920E-02 0.  1.
        2   -1    0    0  501    0  0.00000000000E+00  0.00000000000E+00 -0.98811484343E+03  0.98811484343E+03  0.25500000920E-02 0. -1.
    10030    2    1    2    0    0  0.00000000000E+00  0.00000000000E+00 -0.90512140086E+03  0.10711082860E+04  0.57273747051E+03 0.  0.
        5    1    3    3  502    0  0.71981837084E+02 -0.90989538191E+02  0.36993364764E+02  0.12186500714E+03  0.46999998093E+01 0.  1.
       -5    1    3    3    0  502 -0.71981837084E+02  0.90989538191E+02 -0.94211476562E+03  0.94924327890E+03  0.46999998093E+01 0. -1.
</event>
<event>
 5   0  0.5166903E-02  0.5980547E+03  0.7818609E-02  0.9909450E-01
        1   -1    0    0  501    0  0.00000000000E+00  0.00000000000E+00  0.24005237171E+03  0.24005237176E+03  0.50400001928E-02 0.  1.
       -1   -1    0    0    0  501  0.00000000000E+00  0.00000000000E+00 -0.37249104870E+03  0.37249104874E+03  0.50400001928E-02 0. -1.
    10030    2    1    2    0    0  0.00000000000E+00  0.00000000000E+00 -0.13243867699E+03  0.61254342050E+03  0.59805471224E+03 0.  0.
        2    1    3    3  502    0 -0.28207096714E+03  0.30521056540E+02 -0.16296289874E+03  0.32718874029E+03  0.25500000920E-02 0.  1.
       -2    1    3    3    0  502  0.28207096714E+03 -0.30521056540E+02  0.30524221749E+02  0.28535468021E+03  0.25500000920E-02 0. -1.
</event>
<event>
 5   0  0.5125031E-02  0.6032862E+03  0.7818609E-02  0.9898612E-01
       -1   -1    0    0    0  501  0.00000000000E+00  0.00000000000E+00  0.74805315735E+03  0.74805315737E+03  0.50400001928E-02 0.  1.
        1   -1    0    0  501    0  0.00000000000E+00  0.00000000000E+00 -0.12163381584E+03  0.12163381595E+03  0.50400001928E-02 0. -1.
    10030    2    1    2    0    0  0.00000000000E+00  0.00000000000E+00  0.62641934151E+03  0.86968697331E+03  0.60328620085E+03 0.  0.
        4    1    3    3  502    0  0.19356484305E+03  0.97941047308E+02  0.61534818307E+03  0.65246823411E+03  0.12699999809E+01 0.  1.
       -4    1    3    3    0  502 -0.19356484305E+03 -0.97941047308E+02  0.11071158436E+02  0.21721873921E+03  0.12699999809E+01 0. -1.
</event>
<event>
 5   0  0.8575590E-02  0.5930063E+03  0.7818609E-02  0.9920023E-01
       -2   -1    0    0    0  501  0.00000000000E+00  0.00000000000E+00  0.53962202189E+03  0.53962202190E+03  0.25500000920E-02 0. -1.
        2   -1    0    0  501    0  0.00000000000E+00  0.00000000000E+00 -0.16291794702E+03  0.16291794704E+03  0.25500000920E-02 0.  1.
    10030    2    1    2    0    0  0.00000000000E+00  0.00000000000E+00  0.37670407488E+03  0.70253996894E+03  0.59300627984E+03 0.  0.
        4    1    3    3  502    0 -0.21113887023E+03  0.20638174616E+03  0.15613641203E+03  0.33399586783E+03  0.12699999809E+01 0. -1.
       -4    1    3    3    0  502  0.21113887023E+03 -0.20638174616E+03  0.22056766285E+03  0.36854410111E+03  0.12699999809E+01 0.  1.
</event>
<event>
 5   0  0.8699746E-02  0.6393492E+03  0.7818609E-02  0.9826973E-01
       -2   -1    0    0    0  501  0.00000000000E+00  0.00000000000E+00  0.11986451855E+03  0.11986451858E+03  0.25500000920E-02 0.  1.
        2   -1    0    0  501    0  0.00000000000E+00  0.00000000000E+00 -0.85256118422E+03  0.85256118423E+03  0.25500000920E-02 0. -1.
    10030    2    1    2    0    0  0.00000000000E+00  0.00000000000E+00 -0.73269666567E+03  0.97242570281E+03  0.63934915625E+03 0.  0.
        3    1    3    3  502    0 -0.80616217327E+02  0.18078152200E+03  0.15443073428E+02  0.19854327465E+03  0.10100000352E+00 0.  1.
       -3    1    3    3    0  502  0.80616217327E+02 -0.18078152200E+03 -0.74813973910E+03  0.77388242816E+03  0.10100000352E+00 0. -1.
</event>
<event>
 5   0  0.4987389E-02  0.6018942E+03  0.7818609E-02  0.9901484E-01
       -1   -1    0    0    0  501  0.00000000000E+00  0.00000000000E+00  0.12735561185E+03  0.12735561195E+03  0.50400001928E-02 0. -1.
        1   -1    0    0  501    0  0.00000000000E+00  0.00000000000E+00 -0.71115161765E+03  0.71115161767E+03  0.50400001928E-02 0.  1.
    10030    2    1    2    0    0  0.00000000000E+00  0.00000000000E+00 -0.58379600580E+03  0.83850722961E+03  0.60189417486E+03 0.  0.
        1    1    3    3  502    0 -0.67895357155E+02  0.21671140762E+02  0.11542941846E+03  0.13565901569E+03  0.50400001928E-02 0. -1.
       -1    1    3    3    0  502  0.67895357155E+02 -0.21671140762E+02 -0.69922542426E+03  0.70284821393E+03  0.50400001928E-02 0.  1.
</event>
<event>
 5   0  0.4987389E-02  0.6060828E+03  0.7818609E-02  0.9892866E-01
        1   -1    0    0  501    0  0.00000000000E+00  0.00000000000E+00  0.61920700824E+03  0.61920700827E+03  0.50400001928E-02 0.  1.
       -1   -1    0    0    0  501  0.00000000000E+00  0.00000000000E+00 -0.14830917463E+03  0.14830917472E+03  0.50400001928E-02 0. -1.
    10030    2    1    2    0    0  0.00000000000E+00  0.00000000000E+00  0.47089783361E+03  0.76751618298E+03  0.60608276781E+03 0.  0.
        1    1    3    3  502    0 -0.76175429742E+02  0.15880073318E+03 -0.76839847559E+02  0.19215808896E+03  0.50400001928E-02 0. -1.
       -1    1    3    3    0  502  0.76175429742E+02 -0.15880073318E+03  0.54773768117E+03  0.57535809402E+03  0.50400001928E-02 0.  1.
</event>
<event>
 5   0  0.5166903E-02  0.6007597E+03  0.7818609E-02  0.9903831E-01
       -1   -1    0    0    0  501  0.00000000000E+00  0.00000000000E+00  0.64263977830E+02  0.64263978027E+02  0.50400001928E-02 0. -1.
        1   -1    0    0  501    0  0.00000000000E+00  0.00000000000E+00 -0.14040222240E+04  0.14040222240E+04  0.50400001928E-02 0.  1.
    10030    2    1    2    0    0  0.00000000000E+00  0.00000000000E+00 -0.13397582462E+04  0.14682862021E+04  0.60075969648E+03 0.  0.
        2    1    3    3  502    0  0.39611479662E+02 -0.18162549659E+03 -0.12465460907E+04  0.12603309274E+04  0.25500000920E-02 0.  1.
       -2    1    3    3    0  502 -0.39611479662E+02  0.18162549659E+03 -0.93212155555E+02  0.20795527471E+03  0.25500000920E-02 0. -1.
</event>
<event>
 5   0  0.5166903E-02  0.6616885E+03  0.7818609E-02  0.9785090E-01
        1   -1    0    0  501    0  0.00000000000E+00  0.00000000000E+00  0.29735761240E+03  0.29735761244E+03  0.50400001928E-02 0. -1.
       -1   -1    0    0    0  501  0.00000000000E+00  0.00000000000E+00 -0.36810194156E+03  0.36810194159E+03  0.50400001928E-02 0.  1.
    10030    2    1    2    0    0  0.00000000000E+00  0.00000000000E+00 -0.70744329158E+02  0.66545955403E+03  0.66168849011E+03 0.  0.
        2    1    3    3  502    0  0.31155106990E+01 -0.29474525408E+03  0.11572871390E+03  0.31666639613E+03  0.25500000920E-02 0. -1.
       -2    1    3    3    0  502 -0.31155106990E+01  0.29474525408E+03 -0.18647304306E+03  0.34879315791E+03  0.25500000920E-02 0.  1.
</event>
<event>
 5   0  0.8817544E-02  0.5793125E+03  0.7818609E-02  0.9949281E-01
        2   -1    0    0  501    0  0.00000000000E+00  0.00000000000E+00  0.19127047897E+03  0.19127047899E+03  0.25500000920E-02 0. -1.
       -2   -1    0    0    0  501  0.00000000000E+00  0.00000000000E+00 -0.43864966591E+03  0.43864966592E+03  0.25500000920E-02 0.  1.
    10030    2    1    2    0    0  0.00000000000E+00  0.00000000000E+00 -0.24737918693E+03  0.62992014491E+03  0.57931246045E+03 0.  0.
        5    1    3    3  502    0 -0.12840275802E+03  0.13507526814E+03 -0.36474502199E+03  0.40962619227E+03  0.46999998093E+01 0.  1.
       -5    1    3    3    0  502  0.12840275802E+03 -0.13507526814E+03  0.11736583506E+03  0.22029395263E+03  0.46999998093E+01 0. -1.
</event>
<event>
 5   0  0.5190380E-02  0.5984377E+03  0.7818609E-02  0.9908653E-01
        1   -1    0    0  501    0  0.00000000000E+00  0.00000000000E+00  0.75885565183E+03  0.75885565185E+03  0.50400001928E-02 0.  1.
       -1   -1    0    0    0  501  0.00000000000E+00  0.00000000000E+00 -0.11798280203E+03  0.11798280214E+03  0.50400001928E-02 0. -1.
    10030    2    1    2    0    0  0.00000000000E+00  0.00000000000E+00  0.64087284980E+03  0.87683845399E+03  0.59843768663E+03 0.  0.
        5    1    3    3  502    0 -0.22998497155E+02 -0.10829525075E+03  0.72768392266E+03  0.73607253277E+03  0.46999998093E+01 0.  1.
       -5    1    3    3    0  502  0.22998497155E+02  0.10829525075E+03 -0.86811072860E+02  0.14076592122E+03  0.46999998093E+01 0. -1.
</event>
<event>
 5   0  0.4881209E-02  0.5998987E+03  0.7818609E-02  0.9905616E-01
       -1   -1    0    0    0  501  0.00000000000E+00  0.00000000000E+00  0.20288556448E+03  0.20288556455E+03  0.50400001928E-02 0. -1.
        1   -1    0    0  501    0  0.00000000000E+00  0.00000000000E+00 -0.44344999370E+03  0.44344999373E+03  0.50400001928E-02 0.  1.
    10030    2    1    2    0    0  0.00000000000E+00  0.00000000000E+00 -0.24056442922E+03  0.64633555828E+03  0.59989866585E+03 0.  0.
        3    1    3    3  502    0  0.16130730702E+03 -0.94408614714E+02  0.13247629567E+03  0.22909171296E+03  0.10100000352E+00 0. -1.
       -3    1    3    3    0  502 -0.16130730702E+03  0.94408614714E+02 -0.37304072489E+03  0.41724384532E+03  0.10100000352E+00 0.  1.
</event>
<event>
 5   0  0.4881209E-02  0.5883693E+03  0.7818609E-02  0.9929834E-01
       -1   -1    0    0    0  501  0.00000000000E+00  0.00000000000E+00  0.84511935799E+03  0.84511935800E+03  0.50400001928E-02 0.  1.
        1   -1    0    0  501    0  0.00000000000E+00  0.00000000000E+00 -0.10240518070E+03  0.10240518083E+03  0.50400001928E-02 0. -1.
    10030    2    1    2    0    0  0.00000000000E+00  0.00000000000E+00  0.74271417729E+03  0.94752453883E+03  0.58836927396E+03 0.  0.
        3    1    3    3  502    0 -0.26021750392E+03  0.12830948801E+03  0.44972567298E+03  0.53519124171E+03  0.10100000352E+00 0.  1.
       -3    1    3    3    0  502  0.26021750392E+03 -0.12830948801E+03  0.29298850430E+03  0.41233329712E+03  0.10100000352E+00 0. -1.
</event>
<event>
 5   0  0.5125031E-02  0.6143679E+03  0.7818609E-02  0.9876037E-01
       -1   -1    0    0    0  501  0.00000000000E+00  0.00000000000E+00  0.32611672751E+03  0.32611672755E+03  0.50400001928E-02 0. -1.
        1   -1    0    0  501    0  0.00000000000E+00  0.00000000000E+00 -0.28935036322E+03  0.28935036326E+03  0.50400001928E-02 0.  1.
    10030    2    1    2    0    0  0.00000000000E+00  0.00000000000E+00  0.36766364297E+02  0.61546709081E+03  0.61436794702E+03 0.  0.
        4    1    3    3  502    0  0.21779030542E+03 -0.12780519864E+03  0.19360635553E+03  0.31820091096E+03  0.12699999809E+01 0. -1.
       -4    1    3    3    0  502 -0.21779030542E+03  0.12780519864E+03 -0.15683999123E+03  0.29726617985E+03  0.12699999809E+01 0.  1.
</event>
<event>
 5   0  0.8420604E-02  0.6070087E+03  0.7818609E-02  0.9890971E-01
       -2   -1    0    0    0  501  0.00000000000E+00  0.00000000000E+00  0.10515857517E+03  0.10515857520E+03  0.25500000920E-02 0.  1.
        2   -1    0    0  501    0  0.00000000000E+00  0.00000000000E+00 -0.87596173914E+03  0.87596173915E+03  0.25500000920E-02 0. -1.
    10030    2    1    2    0    0  0.00000000000E+00  0.00000000000E+00 -0.77080316397E+03  0.98112031435E+03  0.60700869321E+03 0.  0.
        2    1    3    3  502    0  0.73589196799E+02  0.28979068908E+03 -0.30109108382E+03  0.42432281829E+03  0.25500000920E-02 0.  1.
       -2    1    3    3    0  502 -0.73589196799E+02 -0.28979068908E+03 -0.46971208016E+03  0.55679749605E+03  0.25500000920E-02 0. -1.
</event>
<event>
 5   0  0.8207443E-02  0.6208006E+03  0.7818609E-02  0.9863167E-01
        2   -1    0    0  501    0  0.00000000000E+00  0.00000000000E+00  0.79585747295E+03  0.79585747295E+03  0.25500000920E-02 0.  1.
       -2   -1    0    0    0  501  0.00000000000E+00  0.00000000000E+00 -0.12106230067E+03  0.12106230070E+03  0.25500000920E-02 0. -1.
    10030    2    1    2    0    0  0.00000000000E+00  0.00000000000E+00  0.67479517228E+03  0.91691977365E+03  0.62080056925E+03 0.  0.
        1    1    3    3  502    0  0.19054445178E+03 -0.18642320998E+03  0.57227025540E+03  0.63131137053E+03  0.50400001928E-02 0. -1.
       -1    1    3    3    0  502 -0.19054445178E+03  0.18642320998E+03  0.10252491688E+03  0.28560840312E+03  0.50400001928E-02 0.  1.
</event>
<event>
 5   0  0.5190380E-02  0.6164381E+03  0.7818609E-02  0.9871877E-01
        1   -1    0    0  501    0  0.00000000000E+00  0.00000000000E+00  0.10642520977E+04  0.10642520977E+04  0.50400001928E-02 0. -1.
       -1   -1    0    0    0  501  0.00000000000E+00  0.00000000000E+00 -0.89263594248E+02  0.89263594391E+02  0.50400001928E-02 0.  1.
    10030    2    1    2    0    0  0.00000000000E+00  0.00000000000E+00  0.97498850346E+03  0.11535156921E+04  0.61643805047E+03 0.  0.
        5    1    3    3  502    0  0.29346551630E+03 -0.20093898926E+02  0.65951893964E+03  0.72215863615E+03  0.46999998093E+01 0.  1.
       -5    1    3    3    0  502 -0.29346551630E+03  0.20093898926E+02  0.31546956382E+03  0.43135705596E+03  0.46999998093E+01 0. -1.
</event>
<event>
 5   0  0.5166903E-02  0.6046601E+03  0.7818609E-02  0.9895785E-01
       -1   -1    0    0    0  501  0.00000000000E+00  0.00000000000E+00  0.13038303590E+03  0.13038303600E+03  0.50400001928E-02 0.  1.
        1   -1    0    0  501    0  0.00000000000E+00  0.00000000000E+00 -0.70103792676E+03  0.70103792678E+03  0.50400001928E-02 0. -1.
    10030    2    1    2    0    0  0.00000000000E+00  0.00000000000E+00 -0.57065489086E+03  0.83142096277E+03  0.60466008044E+03 0.  0.
        2    1    3    3  502    0  0.48232054521E+02  0.18843650490E+03 -0.60357542485E+03  0.63414347033E+03  0.25500000920E-02 0. -1.
       -2    1    3    3    0  502 -0.48232054521E+02 -0.18843650490E+03  0.32920533990E+02  0.19727749245E+03  0.25500000920E-02 0.  1.
</event>
<event>
 5   0  0.4881209E-02  0.5931320E+03  0.7818609E-02  0.9919758E-01
       -1   -1    0    0    0  501  0.00000000000E+00  0.00000000000E+00  0.65809428127E+02  0.65809428320E+02  0.50400001928E-02 0.  1.
        1   -1    0    0  501    0  0.00000000000E+00  0.00000000000E+00 -0.13364557875E+04  0.13364557875E+04  0.50400001928E-02 0. -1.
    10030    2    1    2    0    0  0.00000000000E+00  0.00000000000E+00 -0.12706463594E+04  0.14022652158E+04  0.59313199622E+03 0.  0.
        3    1    3    3  502    0 -0.25407822417E+02  0.28554848078E+03 -0.81487393862E+03  0.86383044538E+03  0.10100000352E+00 0. -1.
       -3    1    3    3    0  502  0.25407822417E+02 -0.28554848078E+03 -0.45577242076E+03  0.53843477046E+03  0.10100000352E+00 0.  1.
</event>
<event>
 5   0  0.8420604E-02  0.5858187E+03  0.7818609E-02  0.9935273E-01
       -2   -1    0    0    0  501  0.00000000000E+00  0.00000000000E+00  0.30303384012E+03  0.30303384013E+03  0.25500000920E-02 0.  1.
        2   -1    0    0  501    0  0.00000000000E+00  0.00000000000E+00 -0.28312309202E+03  0.28312309203E+03  0.25500000920E-02 0. -1.
    10030    2    1    2    0    0  0.00000000000E+00  0.00000000000E+00  0.19910748100E+02  0.58615693217E+03  0.58581866754E+03 0.  0.
        2    1    3    3  502    0 -0.30585206582E+02  0.36025872747E+01 -0.28149866721E+03  0.28317827097E+03  0.25500000920E-02 0. -1.
       -2    1    3    3    0  502  0.30585206582E+02 -0.36025872747E+01  0.30140941531E+03  0.30297866120E+03  0.25500000920E-02 0.  1.
</event>
<event>
 5   0  0.8207443E-02  0.6469075E+03  0.7818609E-02  0.9812599E-01
        2   -1    0    0  501    0  0.00000000000E+00  0.00000000000E+00  0.34375727040E+03  0.34375727041E+03  0.25500000920E-02 0.  1.
       -2   -1    0    0    0  501  0.00000000000E+00  0.00000000000E+00 -0.30434940078E+03  0.30434940079E+03  0.25500000920E-02 0. -1.
    10030    2    1    2    0    0  0.00000000000E+00  0.00000000000E+00  0.39407869619E+02  0.64810667120E+03  0.64690747179E+03 0.  0.
        1    1    3    3  502    0 -0.90250081283E+02  0.54019090391E+02 -0.28673752871E+03  0.30542028370E+03  0.50400001928E-02 0. -1.
       -1    1    3    3    0  502  0.90250081283E+02 -0.54019090391E+02  0.32614539833E+03  0.34268638750E+03  0.50400001928E-02 0.  1.
</event>
<event>
 5   0  0.4987389E-02  0.6115425E+03  0.7818609E-02  0.9881744E-01
        1   -1    0    0  501    0  0.00000000000E+00  0.00000000000E+00  0.73071258070E+03  0.73071258072E+03  0.50400001928E-02 0. -1.
       -1   -1    0    0    0  501  0.00000000000E+00  0.00000000000E+00 -0.12795188267E+03  0.12795188277E+03  0.50400001928E-02 0.  1.
    10030    2    1    2    0    0  0.00000000000E+00  0.00000000000E+00  0.60276069803E+03  0.85866446350E+03  0.61154247750E+03 0.  0.
        1    1    3    3  502    0 -0.11243994441E+03  0.36952369693E+02 -0.94484724544E+02  0.15144497985E+03  0.50400001928E-02 0.  1.
       -1    1    3    3    0  502  0.11243994441E+03 -0.36952369693E+02  0.69724542257E+03  0.70721948365E+03  0.50400001928E-02 0. -1.
</event>
<event>
 5   0  0.8420604E-02  0.4853326E+03  0.7818609E-02  0.1017680E+00
        2   -1    0    0  501    0  0.00000000000E+00  0.00000000000E+00  0.14323520481E+04  0.14323520481E+04  0.25500000920E-02 0.  1.
       -2   -1    0    0    0  501  0.00000000000E+00  0.00000000000E+00 -0.41112055654E+02  0.41112055733E+02  0.25500000920E-02 0. -1.
    10030    2    1    2    0    0  0.00000000000E+00  0.00000000000E+00  0.13912399924E+04  0.14734641038E+04  0.48533261656E+03 0.  0.
        2    1    3    3  502    0 -0.24118471911E+03  0.26525383778E+02  0.70668051820E+03  0.74717536063E+03  0.25500000920E-02 0. -1.
       -2    1    3    3    0  502  0.24118471911E+03 -0.26525383778E+02  0.68455947420E+03  0.72628874316E+03  0.25500000920E-02 0.  1.
</event>
<event>
 5   0  0.5166903E-02  0.5969164E+03  0.7818609E-02  0.9911824E-01
        1   -1    0    0  501    0  0.00000000000E+00  0.00000000000E+00  0.77037734214E+02  0.77037734379E+02  0.50400001928E-02 0. -1.
       -1   -1    0    0    0  501  0.00000000000E+00  0.00000000000E+00 -0.11562812935E+04  0.11562812935E+04  0.50400001928E-02 0.  1.
    10030    2    1    2    0    0  0.00000000000E+00  0.00000000000E+00 -0.10792435593E+04  0.12333190279E+04  0.59691637965E+03 0.  0.
        2    1    3    3  502    0  0.21180490753E+03 -0.19660084782E+03 -0.38550193115E+03  0.48179347354E+03  0.25500000920E-02 0. -1.
       -2    1    3    3    0  502 -0.21180490753E+03  0.19660084782E+03 -0.69374162812E+03  0.75152555433E+03  0.25500000920E-02 0.  1.
</event>
<event>
 5   0  0.5190380E-02  0.6184723E+03  0.7818609E-02  0.9867806E-01
       -1   -1    0    0    0  501  0.00000000000E+00  0.00000000000E+00  0.26889721561E+03  0.26889721566E+03  0.50400001928E-02 0.  1.
        1   -1    0    0  501    0  0.00000000000E+00  0.00000000000E+00 -0.35562661354E+03  0.35562661358E+03  0.50400001928E-02 0. -1.
    10030    2    1    2    0    0  0.00000000000E+00  0.00000000000E+00 -0.86729397932E+02  0.62452382924E+03  0.61847233149E+03 0.  0.
        5    1    3    3  502    0 -0.87088256876E+02  0.26928548118E+03 -0.16910571539E+03  0.32972392670E+03  0.46999998093E+01 0. -1.
       -5    1    3    3    0  502  0.87088256876E+02 -0.26928548118E+03  0.82376317462E+02  0.29479990254E+03  0.46999998093E+01 0.  1.
</event>
<event>
 5   0  0.4987389E-02  0.6094500E+03  0.7818609E-02  0.9885992E-01
        1   -1    0    0  501    0  0.00000000000E+00  0.00000000000E+00  0.32231210093E+03  0.32231210097E+03  0.50400001928E-02 0.  1.
       -1   -1    0    0    0  501  0.00000000000E+00  0.00000000000E+00 -0.28809754454E+03  0.28809754458E+03  0.50400001928E-02 0. -1.
    10030    2    1    2    0    0  0.00000000000E+00  0.00000000000E+00  0.34214556396E+02  0.61040964555E+03  0.60944999755E+03 0.  0.
        1    1    3    3  502    0 -0.85008738148E+02  0.25379874221E+03 -0.12878277495E+03  0.29702742341E+03  0.50400001928E-02 0. -1.
       -1    1    3    3    0  502  0.85008738148E+02 -0.25379874221E+03  0.16299733134E+03  0.31338222215E+03  0.50400001928E-02 0.  1.
</event>
<event>
 5   0  0.8817544E-02  0.5907992E+03  0.7818609E-02  0.9924681E-01
        2   -1    0    0  501    0  0.00000000000E+00  0.00000000000E+00  0.10204234933E+04  0.10204234933E+04  0.25500000920E-02 0.  1.
       -2   -1    0    0    0  501  0.00000000000E+00  0.00000000000E+00 -0.85514429247E+02  0.85514429285E+02  0.25500000920E-02 0. -1.
    10030    2    1    2    0    0  0.00000000000E+00  0.00000000000E+00  0.93490906405E+03  0.11059379226E+04  0.59079923034E+03 0.  0.
        5    1    3    3  502    0 -0.39537201027E+02 -0.28934626497E+03  0.55020997972E+03  0.62292661133E+03  0.46999998093E+01 0.  1.
       -5    1    3    3    0  502  0.39537201027E+02  0.28934626497E+03  0.38469908433E+03  0.48301131126E+03  0.46999998093E+01 0. -1.
</event>
<event>
 5   0  0.8420604E-02  0.5563139E+03  0.7818609E-02  0.1000043E+00
        2   -1    0    0  501    0  0.00000000000E+00  0.00000000000E+00  0.27528276032E+03  0.27528276034E+03  0.25500000920E-02 0. -1.
       -2   -1    0    0    0  501  0.00000000000E+00  0.00000000000E+00 -0.28106117245E+03  0.28106117246E+03  0.25500000920E-02 0.  1.
    10030    2    1    2    0    0  0.00000000000E+00  0.00000000000E+00 -0.57784121284E+01  0.55634393280E+03  0.55631392353E+03 0.  0.
        2    1    3    3  502    0 -0.17060748644E+03  0.21857547642E+03 -0.25006955184E+02  0.27840169025E+03  0.25500000920E-02 0.  1.
       -2    1    3    3    0  502  0.17060748644E+03 -0.21857547642E+03  0.19228543056E+02  0.27794224255E+03  0.25500000920E-02 0. -1.
</event>
<event>
 5   0  0.5190380E-02  0.5984729E+03  0.7818609E-02  0.9908579E-01
        1   -1    0    0  501    0  0.00000000000E+00  0.00000000000E+00  0.13996063957E+04  0.13996063957E+04  0.50400001928E-02 0.  1.
       -1   -1    0    0    0  501  0.00000000000E+00  0.00000000000E+00 -0.63976891413E+02  0.63976891612E+02  0.50400001928E-02 0. -1.
    10030    2    1    2    0    0  0.00000000000E+00  0.00000000000E+00  0.13356295043E+04  0.14635832873E+04  0.59847294525E+03 0.  0.
        5    1    3    3  502    0  0.15467770029E+03  0.82600045176E+02  0.74944446258E+02  0.19075302999E+03  0.46999998093E+01 0. -1.
       -5    1    3    3    0  502 -0.15467770029E+03 -0.82600045176E+02  0.12606850580E+04  0.12728302573E+04  0.46999998093E+01 0.  1.
</event>
<event>
 5   0  0.3437375E-02  0.5887436E+03  0.7818609E-02  0.9929039E-01
       -3   -1    0    0    0  501  0.00000000000E+00  0.00000000000E+00  0.78450761026E+02  0.78450826041E+02  0.10100000352E+00 0. -1.
        3   -1    0    0  501    0  0.00000000000E+00  0.00000000000E+00 -0.11045747483E+04  0.11045747529E+04  0.10100000352E+00 0.  1.
    10030    2    1    2    0    0  0.00000000000E+00  0.00000000000E+00 -0.10261239873E+04  0.11830255790E+04  0.58874364813E+03 0.  0.
        1    1    3    3  502    0 -0.21396708880E+03 -0.16121901358E+03 -0.26793670251E+03  0.37889782529E+03  0.50400001928E-02 0.  1.
       -1    1    3    3    0  502  0.21396708880E+03  0.16121901358E+03 -0.75818728478E+03  0.80412775369E+03  0.50400001928E-02 0. -1.
</event>
<event>
 5   0  0.5190380E-02  0.6037257E+03  0.7818609E-02  0.9897706E-01
        1   -1    0    0  501    0  0.00000000000E+00  0.00000000000E+00  0.22253847859E+04  0.22253847860E+04  0.50400001928E-02 0.  1.
       -1   -1    0    0    0  501  0.00000000000E+00  0.00000000000E+00 -0.40946264651E+02  0.40946264961E+02  0.50400001928E-02 0. -1.
    10030    2    1    2    0    0  0.00000000000E+00  0.00000000000E+00  0.21844385213E+04  0.22663310509E+04  0.60372574818E+03 0.  0.
        5    1    3    3  502    0  0.22257438611E+03  0.18435715565E+03  0.14188780164E+04  0.14480206606E+04  0.46999998093E+01 0.  1.
       -5    1    3    3    0  502 -0.22257438611E+03 -0.18435715565E+03  0.76556050494E+03  0.81831039033E+03  0.46999998093E+01 0. -1.
</event>
<event>
 5   0  0.5166903E-02  0.5537742E+03  0.7818609E-02  0.1000624E+00
       -1   -1    0    0    0  501  0.00000000000E+00  0.00000000000E+00  0.13751471033E+03  0.13751471042E+03  0.50400001928E-02 0.  1.
        1   -1    0    0  501    0  0.00000000000E+00  0.00000000000E+00 -0.55751463263E+03  0.55751463265E+03  0.50400001928E-02 0. -1.
    10030    2    1    2    0    0  0.00000000000E+00  0.00000000000E+00 -0.41999992230E+03  0.69502934307E+03  0.55377418954E+03 0.  0.
        2    1    3    3  502    0  0.11388531837E+03  0.98160324916E+02 -0.50181862352E+03  0.52385803998E+03  0.25500000920E-02 0. -1.
       -2    1    3    3    0  502 -0.11388531837E+03 -0.98160324916E+02  0.81818701220E+02  0.17117130309E+03  0.25500000920E-02 0.  1.
</event>
<event>
 5   0  0.4987389E-02  0.5942291E+03  0.7818609E-02  0.9917452E-01
       -1   -1    0    0    0  501  0.00000000000E+00  0.00000000000E+00  0.31537803779E+03  0.31537803783E+03  0.50400001928E-02 0. -1.
        1   -1    0    0  501    0  0.00000000000E+00  0.00000000000E+00 -0.27990869848E+03  0.27990869852E+03  0.50400001928E-02 0.  1.
    10030    2    1    2    0    0  0.00000000000E+00  0.00000000000E+00  0.35469339309E+02  0.59528673635E+03  0.59422910097E+03 0.  0.
        1    1    3    3  502    0  0.40291137215E+02  0.15154799550E+03  0.27054644284E+03  0.31270680906E+03  0.50400001928E-02 0. -1.
       -1    1    3    3    0  502 -0.40291137215E+02 -0.15154799550E+03 -0.23507710353E+03  0.28257992729E+03  0.50400001928E-02 0.  1.
</event>
<event>
 5   0  0.8420604E-02  0.6069634E+03  0.7818609E-02  0.9891064E-01
        2   -1    0    0  501    0  0.00000000000E+00  0.00000000000E+00  0.13246646810E+04  0.13246646810E+04  0.25500000920E-02 0. -1.
       -2   -1    0    0    0  501  0.00000000000E+00  0.00000000000E+00 -0.69527896515E+02  0.69527896561E+02  0.25500000920E-02 0.  1.
    10030    2    1    2    0    0  0.00000000000E+00  0.00000000000E+00  0.12551367845E+04  0.13941925776E+04  0.60696342194E+03 0.  0.
        2    1    3    3  502    0 -0.15538771103E+03  0.24378638293E+03  0.83963982086E+03  0.88801586136E+03  0.25500000920E-02 0. -1.
       -2    1    3    3    0  502  0.15538771103E+03 -0.24378638293E+03  0.41549696364E+03  0.50617671622E+03  0.25500000920E-02 0.  1.
</event>
<event>
 5   0  0.4987389E-02  0.6313700E+03  0.7818609E-02  0.9842379E-01
       -1   -1    0    0    0  501  0.00000000000E+00  0.00000000000E+00  0.16542986259E+03  0.16542986267E+03  0.50400001928E-02 0. -1.
        1   -1    0    0  501    0  0.00000000000E+00  0.00000000000E+00 -0.60241248169E+03  0.60241248171E+03  0.50400001928E-02 0.  1.
    10030    2    1    2    0    0  0.00000000000E+00  0.00000000000E+00 -0.43698261910E+03  0.76784234438E+03  0.63136998379E+03 0.  0.
        1    1    3    3  502    0  0.11492437345E+03 -0.28386717558E+03 -0.12532393464E+03  0.33089918949E+03  0.50400001928E-02 0.  1.
       -1    1    3    3    0  502 -0.11492437345E+03  0.28386717558E+03 -0.31165868446E+03  0.43694315490E+03  0.50400001928E-02 0. -1.
</event>
<event>
 5   0  0.3437375E-02  0.5162671E+03  0.7818609E-02  0.1009618E+00
        3   -1    0    0  501    0  0.00000000000E+00  0.00000000000E+00  0.87324025219E+03  0.87324025804E+03  0.10100000352E+00 0. -1.
       -3   -1    0    0    0  501  0.00000000000E+00  0.00000000000E+00 -0.76305326770E+02  0.76305393613E+02  0.10100000352E+00 0.  1.
    10030    2    1    2    0    0  0.00000000000E+00  0.00000000000E+00  0.79693492542E+03  0.94954565165E+03  0.51626705222E+03 0.  0.
        2    1    3    3  502    0  0.15425014485E+03 -0.87904408868E+01  0.18126433306E+02  0.15556010616E+03  0.25500000920E-02 0.  1.
       -2    1    3    3    0  502 -0.15425014485E+03  0.87904408868E+01  0.77880849212E+03  0.79398554549E+03  0.25500000920E-02 0. -1.
</event>
<event>
 5   0  0.3437375E-02  0.4774385E+03  0.7818609E-02  0.1019842E+00
        3   -1    0    0  501    0  0.00000000000E+00  0.00000000000E+00  0.90062597314E+02  0.90062653947E+02  0.10100000352E+00 0.  1.
       -3   -1    0    0    0  501  0.00000000000E+00  0.00000000000E+00 -0.63274716937E+03  0.63274717743E+03  0.10100000352E+00 0. -1.
    10030    2    1    2    0    0  0.00000000000E+00  0.00000000000E+00 -0.54268457205E+03  0.72280983137E+03  0.47743848566E+03 0.  0.
        3    1    3    3  502    0  0.31838415380E+02  0.21012603151E+03 -0.10674614700E+03  0.23782637346E+03  0.10100000352E+00 0.  1.
       -3    1    3    3    0  502 -0.31838415380E+02 -0.21012603151E+03 -0.43593842506E+03  0.48498345792E+03  0.10100000352E+00 0. -1.
</event>
<event>
 5   0  0.8817544E-02  0.6688412E+03  0.7818609E-02  0.9772054E-01
       -2   -1    0    0    0  501  0.00000000000E+00  0.00000000000E+00  0.86196275662E+02  0.86196275699E+02  0.25500000920E-02 0. -1.
        2   -1    0    0  501    0  0.00000000000E+00  0.00000000000E+00 -0.12974704910E+04  0.12974704910E+04  0.25500000920E-02 0.  1.
    10030    2    1    2    0    0  0.00000000000E+00  0.00000000000E+00 -0.12112742153E+04  0.13836667667E+04  0.66884115941E+03 0.  0.
        5    1    3    3  502    0  0.26268968510E+03 -0.20266864874E+03 -0.69179716376E+03  0.76725866409E+03  0.46999998093E+01 0. -1.
       -5    1    3    3    0  502 -0.26268968510E+03  0.20266864874E+03 -0.51947705156E+03  0.61640810259E+03  0.46999998093E+01 0.  1.
</event>
<event>
 5   0  0.4881209E-02  0.6019577E+03  0.7818609E-02  0.9901353E-01
        1   -1    0    0  501    0  0.00000000000E+00  0.00000000000E+00  0.14968043263E+04  0.14968043263E+04  0.50400001928E-02 0.  1.
       -1   -1    0    0    0  501  0.00000000000E+00  0.00000000000E+00 -0.60521123216E+02  0.60521123426E+02  0.50400001928E-02 0. -1.
    10030    2    1    2    0    0  0.00000000000E+00  0.00000000000E+00  0.14362832031E+04  0.15573254498E+04  0.60195773683E+03 0.  0.
        3    1    3    3  502    0 -0.63051630549E+02 -0.47315210989E+02 -0.33339011722E+02  0.85590520558E+02  0.10100000352E+00 0. -1.
       -3    1    3    3    0  502  0.63051630549E+02  0.47315210989E+02  0.14696222148E+04  0.14717349292E+04  0.10100000352E+00 0.  1.
</event>
<event>
 5   0  0.5190380E-02  0.6096087E+03  0.7818609E-02  0.9885669E-01
        1   -1    0    0  501    0  0.00000000000E+00  0.00000000000E+00  0.71572067735E+03  0.71572067736E+03  0.50400001928E-02 0.  1.
       -1   -1    0    0    0  501  0.00000000000E+00  0.00000000000E+00 -0.12980720120E+03  0.12980720129E+03  0.50400001928E-02 0. -1.
    10030    2    1    2    0    0  0.00000000000E+00  0.00000000000E+00  0.58591347615E+03  0.84552787866E+03  0.60960872045E+03 0.  0.
        5    1    3    3  502    0  0.13060485542E+03 -0.16087506705E+03 -0.17016076423E+02  0.20796646921E+03  0.46999998093E+01 0. -1.
       -5    1    3    3    0  502 -0.13060485542E+03  0.16087506705E+03  0.60292955257E+03  0.63756140945E+03  0.46999998093E+01 0.  1.
</event>
<event>
 5   0  0.4881209E-02  0.5913187E+03  0.7818609E-02  0.9923582E-01
        1   -1    0    0  501    0  0.00000000000E+00  0.00000000000E+00  0.78225903227E+03  0.78225903228E+03  0.50400001928E-02 0.  1.
       -1   -1    0    0    0  501  0.00000000000E+00  0.00000000000E+00 -0.11174617115E+03  0.11174617127E+03  0.50400001928E-02 0. -1.
    10030    2    1    2    0    0  0.00000000000E+00  0.00000000000E+00  0.67051286112E+03  0.89400520355E+03  0.59131870176E+03 0.  0.
        3    1    3    3  502    0 -0.12546507387E+01 -0.13695665733E+03 -0.60891017543E+02  0.14988804607E+03  0.10100000352E+00 0. -1.
       -3    1    3    3    0  502  0.12546507387E+01  0.13695665733E+03  0.73140387866E+03  0.74411715748E+03  0.10100000352E+00 0.  1.
</event>
<event>
 5   0  0.8420604E-02  0.5860834E+03  0.7818609E-02  0.9934707E-01
        2   -1    0    0  501    0  0.00000000000E+00  0.00000000000E+00  0.77729635194E+03  0.77729635194E+03  0.25500000920E-02 0.  1.
       -2   -1    0    0    0  501  0.00000000000E+00  0.00000000000E+00 -0.11047708619E+03  0.11047708622E+03  0.25500000920E-02 0. -1.
    10030    2    1    2    0    0  0.00000000000E+00  0.00000000000E+00  0.66681926575E+03  0.88777343816E+03  0.58608339367E+03 0.  0.
        2    1    3    3  502    0 -0.84820391142E+02 -0.22435046294E+03  0.58843720980E+03  0.63544156211E+03  0.25500000920E-02 0.  1.
       -2    1    3    3    0  502  0.84820391142E+02  0.22435046294E+03  0.78382055948E+02  0.25233187606E+03  0.25500000920E-02 0. -1.
</event>
<event>
 5   0  0.5190380E-02  0.5959507E+03  0.7818609E-02  0.9913843E-01
        1   -1    0    0  501    0  0.00000000000E+00  0.00000000000E+00  0.40359303432E+03  0.40359303435E+03  0.50400001928E-02 0.  1.
       -1   -1    0    0    0  501  0.00000000000E+00  0.00000000000E+00 -0.21999716378E+03  0.21999716384E+03  0.50400001928E-02 0. -1.
    10030    2    1    2    0    0  0.00000000000E+00  0.00000000000E+00  0.18359587053E+03  0.62359019819E+03  0.59595074595E+03 0.  0.
        5    1    3    3  502    0  0.27263380826E+03  0.96779285680E+02  0.16631751088E+03  0.33373496665E+03  0.46999998093E+01 0.  1.
       -5    1    3    3    0  502 -0.27263380826E+03 -0.96779285680E+02  0.17278359660E+02  0.28985523154E+03  0.46999998093E+01 0. -1.
</event>
<event>
 5   0  0.4987389E-02  0.5860404E+03  0.7818609E-02  0.9934799E-01
        1   -1    0    0  501    0  0.00000000000E+00  0.00000000000E+00  0.70029525052E+03  0.70029525054E+03  0.50400001928E-02 0.  1.
       -1   -1    0    0    0  501  0.00000000000E+00  0.00000000000E+00 -0.12260663531E+03  0.12260663541E+03  0.50400001928E-02 0. -1.
    10030    2    1    2    0    0  0.00000000000E+00  0.00000000000E+00  0.57768861522E+03  0.82290188595E+03  0.58604042331E+03 0.  0.
        1    1    3    3  502    0  0.13705975547E+03  0.79587140319E+02 -0.57224711468E+02  0.16850565896E+03  0.50400001928E-02 0. -1.
       -1    1    3    3    0  502 -0.13705975547E+03 -0.79587140319E+02  0.63491332669E+03  0.65439622699E+03  0.50400001928E-02 0.  1.
</event>
<event>
 5   0  0.8420604E-02  0.5920046E+03  0.7818609E-02  0.9922134E-01
        2   -1    0    0  501    0  0.00000000000E+00  0.00000000000E+00  0.78895114413E+02  0.78895114454E+02  0.25500000920E-02 0.  1.
       -2   -1    0    0    0  501  0.00000000000E+00  0.00000000000E+00 -0.11105551387E+04  0.11105551387E+04  0.25500000920E-02 0. -1.
    10030    2    1    2    0    0  0.00000000000E+00  0.00000000000E+00 -0.10316600243E+04  0.11894502531E+04  0.59200464442E+03 0.  0.
        2    1    3    3  502    0  0.10744019055E+03 -0.26436464718E+03 -0.35781366128E+03  0.45767092701E+03  0.25500000920E-02 0. -1.
       -2    1    3    3    0  502 -0.10744019055E+03  0.26436464718E+03 -0.67384636299E+03  0.73177932612E+03  0.25500000920E-02 0.  1.
</event>
<event>
 5   0  0.3437375E-02  0.5929982E+03  0.7818609E-02  0.9920040E-01
       -4   -1    0    0    0  501  0.00000000000E+00  0.00000000000E+00  0.11474910650E+03  0.11475613422E+03  0.12699999809E+01 0.  1.
        4   -1    0    0  501    0  0.00000000000E+00  0.00000000000E+00 -0.76609000658E+03  0.76609105927E+03  0.12699999809E+01 0. -1.
    10030    2    1    2    0    0  0.00000000000E+00  0.00000000000E+00 -0.65134090009E+03  0.88084719349E+03  0.59299815358E+03 0.  0.
        1    1    3    3  502    0  0.18665494439E+03 -0.18136556419E+03 -0.53667318432E+03  0.59644919560E+03  0.50400001928E-02 0. -1.
       -1    1    3    3    0  502 -0.18665494439E+03  0.18136556419E+03 -0.11466771577E+03  0.28439799789E+03  0.50400001928E-02 0.  1.
</event>
<event>
 5   0  0.5166903E-02  0.6006162E+03  0.7818609E-02  0.9904128E-01
        1   -1    0    0  501    0  0.00000000000E+00  0.00000000000E+00  0.34727699737E+03  0.34727699741E+03  0.50400001928E-02 0.  1.
       -1   -1    0    0    0  501  0.00000000000E+00  0.00000000000E+00 -0.25969170348E+03  0.25969170353E+03  0.50400001928E-02 0. -1.
    10030    2    1    2    0    0  0.00000000000E+00  0.00000000000E+00  0.87585293889E+02  0.60696870094E+03  0.60061620042E+03 0.  0.
        2    1    3    3  502    0  0.29585277866E+03  0.41911420481E+02  0.13483412650E+02  0.29911074242E+03  0.25500000920E-02 0. -1.
       -2    1    3    3    0  502 -0.29585277866E+03 -0.41911420481E+02  0.74101881239E+02  0.30785795851E+03  0.25500000920E-02 0.  1.
</event>
<event>
 5   0  0.5166903E-02  0.6076331E+03  0.7818609E-02  0.9889695E-01
        1   -1    0    0  501    0  0.00000000000E+00  0.00000000000E+00  0.74740111268E+03  0.74740111270E+03  0.50400001928E-02 0.  1.
       -1   -1    0    0    0  501  0.00000000000E+00  0.00000000000E+00 -0.12350061281E+03  0.12350061292E+03  0.50400001928E-02 0. -1.
    10030    2    1    2    0    0  0.00000000000E+00  0.00000000000E+00  0.62390049987E+03  0.87090172562E+03  0.60763309813E+03 0.  0.
        2    1    3    3  502    0  0.90429581419E+02 -0.26622983326E+03  0.14697691949E+03  0.31726652547E+03  0.25500000920E-02 0.  1.
       -2    1    3    3    0  502 -0.90429581419E+02  0.26622983326E+03  0.47692358038E+03  0.55363520015E+03  0.25500000920E-02 0. -1.
</event>
<event>
 5   0  0.5125031E-02  0.5902611E+03  0.7818609E-02  0.9925820E-01
        1   -1    0    0  501    0  0.00000000000E+00  0.00000000000E+00  0.52197822363E+03  0.52197822365E+03  0.50400001928E-02 0.  1.
       -1   -1    0    0    0  501  0.00000000000E+00  0.00000000000E+00 -0.16686910674E+03  0.16686910682E+03  0.50400001928E-02 0. -1.
    10030    2    1    2    0    0  0.00000000000E+00  0.00000000000E+00  0.35510911689E+03  0.68884733047E+03  0.59026109460E+03 0.  0.
        4    1    3    3  502    0 -0.52687650553E+02 -0.26405603681E+03  0.36548389391E+02  0.27173328240E+03  0.12699999809E+01 0. -1.
       -4    1    3    3    0  502  0.52687650553E+02  0.26405603681E+03  0.31856072749E+03  0.41711404807E+03  0.12699999809E+01 0.  1.
</event>
<event>
 5   0  0.5190380E-02  0.6032108E+03  0.7818609E-02  0.9898767E-01
        1   -1    0    0  501    0  0.00000000000E+00  0.00000000000E+00  0.19408136004E+03  0.19408136010E+03  0.50400001928E-02 0. -1.
       -1   -1    0    0    0  501  0.00000000000E+00  0.00000000000E+00 -0.46869946835E+03  0.46869946838E+03  0.50400001928E-02 0.  1.
    10030    2    1    2    0    0  0.00000000000E+00  0.00000000000E+00 -0.27461810832E+03  0.66278082848E+03  0.60321084306E+03 0.  0.
        5    1    3    3  502    0 -0.10939021124E+02  0.18646889489E+03 -0.39744591305E+03  0.43917610903E+03  0.46999998093E+01 0.  1.
       -5    1    3    3    0  502  0.10939021124E+02 -0.18646889489E+03  0.12282780474E+03  0.22360471945E+03  0.46999998093E+01 0. -1.
</event>
<event>
 5   0  0.4881209E-02  0.5948733E+03  0.7818609E-02  0.9916100E-01
       -1   -1    0    0    0  501  0.00000000000E+00  0.00000000000E+00  0.66206356109E+03  0.66206356111E+03  0.50400001928E-02 0.  1.
        1   -1    0    0  501    0  0.00000000000E+00  0.00000000000E+00 -0.13362547058E+03  0.13362547068E+03  0.50400001928E-02 0. -1.
    10030    2    1    2    0    0  0.00000000000E+00  0.00000000000E+00  0.52843809051E+03  0.79568903179E+03  0.59487328047E+03 0.  0.
        3    1    3    3  502    0  0.67683929725E+02  0.49330232781E+02  0.64596549494E+03  0.65137241043E+03  0.10100000352E+00 0.  1.
       -3    1    3    3    0  502 -0.67683929725E+02 -0.49330232781E+02 -0.11752740443E+03  0.14431662137E+03  0.10100000352E+00 0. -1.
</event>
<event>
 5   0  0.8817544E-02  0.5902631E+03  0.7818609E-02  0.9925816E-01
        2   -1    0    0  501    0  0.00000000000E+00  0.00000000000E+00  0.50749255428E+03  0.50749255428E+03  0.25500000920E-02 0.  1.
       -2   -1    0    0    0  501  0.00000000000E+00  0.00000000000E+00 -0.17163330359E+03  0.17163330361E+03  0.25500000920E-02 0. -1.
    10030    2    1    2    0    0  0.00000000000E+00  0.00000000000E+00  0.33585925068E+03  0.67912585790E+03  0.59026307236E+03 0.  0.
        5    1    3    3  502    0  0.28541287500E+03 -0.13285900931E+02  0.25281720209E+03  0.38154377475E+03  0.46999998093E+01 0. -1.
       -5    1    3    3    0  502 -0.28541287500E+03  0.13285900931E+02  0.83042048597E+02  0.29758208315E+03  0.46999998093E+01 0.  1.
</event>
<event>
 5   0  0.5190380E-02  0.6029101E+03  0.7818609E-02  0.9899387E-01
       -1   -1    0    0    0  501  0.00000000000E+00  0.00000000000E+00  0.17128557854E+03  0.17128557861E+03  0.50400001928E-02 0. -1.
        1   -1    0    0  501    0  0.00000000000E+00  0.00000000000E+00 -0.53054752065E+03  0.53054752068E+03  0.50400001928E-02 0.  1.
    10030    2    1    2    0    0  0.00000000000E+00  0.00000000000E+00 -0.35926194211E+03  0.70183309929E+03  0.60291007307E+03 0.  0.
        5    1    3    3  502    0 -0.79912075705E+02 -0.28808089555E+03 -0.22436098533E+03  0.37381343470E+03  0.46999998093E+01 0. -1.
       -5    1    3    3    0  502  0.79912075705E+02  0.28808089555E+03 -0.13490095678E+03  0.32801966459E+03  0.46999998093E+01 0.  1.
</event>
<event>
 5   0  0.8207443E-02  0.5972598E+03  0.7818609E-02  0.9911108E-01
        2   -1    0    0  501    0  0.00000000000E+00  0.00000000000E+00  0.94898461468E+03  0.94898461468E+03  0.25500000920E-02 0.  1.
       -2   -1    0    0    0  501  0.00000000000E+00  0.00000000000E+00 -0.93973921453E+02  0.93973921487E+02  0.25500000920E-02 0. -1.
    10030    2    1    2    0    0  0.00000000000E+00  0.00000000000E+00  0.85501069323E+03  0.10429585362E+04  0.59725976144E+03 0.  0.
        1    1    3    3  502    0  0.22018236010E+03  0.10609835505E+03  0.12787044127E+03  0.27584050178E+03  0.50400001928E-02 0. -1.
       -1    1    3    3    0  502 -0.22018236010E+03 -0.10609835505E+03  0.72714025196E+03  0.76711803439E+03  0.50400001928E-02 0.  1.
</event>
<event>
 5   0  0.4881209E-02  0.6035845E+03  0.7818609E-02  0.9897997E-01
       -1   -1    0    0    0  501  0.00000000000E+00  0.00000000000E+00  0.24962148031E+03  0.24962148036E+03  0.50400001928E-02 0. -1.
        1   -1    0    0  501    0  0.00000000000E+00  0.00000000000E+00 -0.36486669919E+03  0.36486669922E+03  0.50400001928E-02 0.  1.
    10030    2    1    2    0    0  0.00000000000E+00  0.00000000000E+00 -0.11524521887E+03  0.61448817959E+03  0.60358451138E+03 0.  0.
        3    1    3    3  502    0  0.34023095789E+02  0.23862239584E+03  0.12726294837E+03  0.27256941698E+03  0.10100000352E+00 0. -1.
       -3    1    3    3    0  502 -0.34023095789E+02 -0.23862239584E+03 -0.24250816725E+03  0.34191876261E+03  0.10100000352E+00 0.  1.
</event>
<event>
 5   0  0.5166903E-02  0.6128099E+03  0.7818609E-02  0.9879180E-01
       -1   -1    0    0    0  501  0.00000000000E+00  0.00000000000E+00  0.15830038158E+03  0.15830038166E+03  0.50400001928E-02 0. -1.
        1   -1    0    0  501    0  0.00000000000E+00  0.00000000000E+00 -0.59307495036E+03  0.59307495038E+03  0.50400001928E-02 0.  1.
    10030    2    1    2    0    0  0.00000000000E+00  0.00000000000E+00 -0.43477456878E+03  0.75137533204E+03  0.61280989217E+03 0.  0.
        2    1    3    3  502    0  0.18476620186E+02  0.16880245438E+03  0.95328112191E+02  0.19473855057E+03  0.25500000920E-02 0. -1.
       -2    1    3    3    0  502 -0.18476620186E+02 -0.16880245438E+03 -0.53010268097E+03  0.55663678146E+03  0.25500000920E-02 0.  1.
</event>
<event>
 5   0  0.5190380E-02  0.6052332E+03  0.7818609E-02  0.9894608E-01
       -1   -1    0    0    0  501  0.00000000000E+00  0.00000000000E+00  0.99583087735E+02  0.99583087863E+02  0.50400001928E-02 0. -1.
        1   -1    0    0  501    0  0.00000000000E+00  0.00000000000E+00 -0.91960193138E+03  0.91960193139E+03  0.50400001928E-02 0.  1.
    10030    2    1    2    0    0  0.00000000000E+00  0.00000000000E+00 -0.82001884365E+03  0.10191850193E+04  0.60523317783E+03 0.  0.
        5    1    3    3  502    0 -0.62764399133E+02 -0.19023785251E+03 -0.28138112512E+02  0.20234538220E+03  0.46999998093E+01 0. -1.
       -5    1    3    3    0  502  0.62764399133E+02  0.19023785251E+03 -0.79188073113E+03  0.81683963705E+03  0.46999998093E+01 0.  1.
</event>
<event>
 5   0  0.8207443E-02  0.6026783E+03  0.7818609E-02  0.9899865E-01
        2   -1    0    0  501    0  0.00000000000E+00  0.00000000000E+00  0.28992999158E+03  0.28992999159E+03  0.25500000920E-02 0.  1.
       -2   -1    0    0    0  501  0.00000000000E+00  0.00000000000E+00 -0.31319726044E+03  0.31319726045E+03  0.25500000920E-02 0. -1.
    10030    2    1    2    0    0  0.00000000000E+00  0.00000000000E+00 -0.23267268864E+02  0.60312725204E+03  0.60267828595E+03 0.  0.
        1    1    3    3  502    0 -0.16240033863E+03  0.25324105330E+03 -0.28977962049E+02  0.30223273048E+03  0.50400001928E-02 0. -1.
       -1    1    3    3    0  502  0.16240033863E+03 -0.25324105330E+03  0.57106931855E+01  0.30089452156E+03  0.50400001928E-02 0.  1.
</event>
<event>
 5   0  0.8699746E-02  0.6028623E+03  0.7818609E-02  0.9899485E-01
       -2   -1    0    0    0  501  0.00000000000E+00  0.00000000000E+00  0.13449282904E+03  0.13449282906E+03  0.25500000920E-02 0. -1.
        2   -1    0    0  501    0  0.00000000000E+00  0.00000000000E+00 -0.67558046772E+03  0.67558046773E+03  0.25500000920E-02 0.  1.
    10030    2    1    2    0    0  0.00000000000E+00  0.00000000000E+00 -0.54108763869E+03  0.81007329679E+03  0.60286226738E+03 0.  0.
        3    1    3    3  502    0 -0.15037578678E+03 -0.25699295787E+03 -0.20748290271E+03  0.36291517296E+03  0.10100000352E+00 0.  1.
       -3    1    3    3    0  502  0.15037578678E+03  0.25699295787E+03 -0.33360473597E+03  0.44715812383E+03  0.10100000352E+00 0. -1.
</event>
<event>
 5   0  0.3437375E-02  0.5866469E+03  0.7818609E-02  0.9933503E-01
        3   -1    0    0  501    0  0.00000000000E+00  0.00000000000E+00  0.23994081630E+03  0.23994083756E+03  0.10100000352E+00 0. -1.
       -3   -1    0    0    0  501  0.00000000000E+00  0.00000000000E+00 -0.35858277795E+03  0.35858279218E+03  0.10100000352E+00 0.  1.
    10030    2    1    2    0    0  0.00000000000E+00  0.00000000000E+00 -0.11864196165E+03  0.59852362974E+03  0.58664692984E+03 0.  0.
        5    1    3    3  502    0  0.44960697856E+02  0.11455864448E+03  0.21228545660E+03  0.24542280346E+03  0.46999998093E+01 0. -1.
       -5    1    3    3    0  502 -0.44960697856E+02 -0.11455864448E+03 -0.33092741825E+03  0.35310082628E+03  0.46999998093E+01 0.  1.
</event>
<event>
 5   0  0.8207443E-02  0.6093096E+03  0.7818609E-02  0.9886278E-01
        2   -1    0    0  501    0  0.00000000000E+00  0.00000000000E+00  0.17174802308E+03  0.17174802310E+03  0.25500000920E-02 0.  1.
       -2   -1    0    0    0  501  0.00000000000E+00  0.00000000000E+00 -0.54041120305E+03  0.54041120306E+03  0.25500000920E-02 0. -1.
    10030    2    1    2    0    0  0.00000000000E+00  0.00000000000E+00 -0.36866317997E+03  0.71215922616E+03  0.60930962830E+03 0.  0.
        1    1    3    3  502    0 -0.13532225824E+03 -0.12554947057E+03  0.98941418298E+02  0.20943778889E+03  0.50400001928E-02 0.  1.
       -1    1    3    3    0  502  0.13532225824E+03  0.12554947057E+03 -0.46760459827E+03  0.50272143727E+03  0.50400001928E-02 0. -1.
</event>
<event>
 5   0  0.8699746E-02  0.6120695E+03  0.7818609E-02  0.9880677E-01
       -2   -1    0    0    0  501  0.00000000000E+00  0.00000000000E+00  0.77524077230E+02  0.77524077272E+02  0.25500000920E-02 0.  1.
        2   -1    0    0  501    0  0.00000000000E+00  0.00000000000E+00 -0.12081054342E+04  0.12081054342E+04  0.25500000920E-02 0. -1.
    10030    2    1    2    0    0  0.00000000000E+00  0.00000000000E+00 -0.11305813570E+04  0.12856295115E+04  0.61206946996E+03 0.  0.
        3    1    3    3  502    0 -0.16606446309E+03  0.25705356360E+03 -0.56147017165E+03  0.63945500570E+03  0.10100000352E+00 0.  1.
       -3    1    3    3    0  502  0.16606446309E+03 -0.25705356360E+03 -0.56911118536E+03  0.64617450582E+03  0.10100000352E+00 0. -1.
</event>
<event>
 5   0  0.8420604E-02  0.4758188E+03  0.7818609E-02  0.1020291E+00
       -2   -1    0    0    0  501  0.00000000000E+00  0.00000000000E+00  0.14539503564E+03  0.14539503567E+03  0.25500000920E-02 0.  1.
        2   -1    0    0  501    0  0.00000000000E+00  0.00000000000E+00 -0.38929030756E+03  0.38929030756E+03  0.25500000920E-02 0. -1.
    10030    2    1    2    0    0  0.00000000000E+00  0.00000000000E+00 -0.24389527191E+03  0.53468534323E+03  0.47581878127E+03 0.  0.
        2    1    3    3  502    0 -0.20317691309E+03 -0.31066706688E+02  0.12686900777E+02  0.20592949214E+03  0.25500000920E-02 0.  1.
       -2    1    3    3    0  502  0.20317691309E+03  0.31066706688E+02 -0.25658217269E+03  0.32875585109E+03  0.25500000920E-02 0. -1.
</event>
<event>
 5   0  0.8207443E-02  0.5955490E+03  0.7818609E-02  0.9914684E-01
        2   -1    0    0  501    0  0.00000000000E+00  0.00000000000E+00  0.30749115595E+03  0.30749115596E+03  0.25500000920E-02 0.  1.
       -2   -1    0    0    0  501  0.00000000000E+00  0.00000000000E+00 -0.28836493212E+03  0.28836493213E+03  0.25500000920E-02 0. -1.
    10030    2    1    2    0    0  0.00000000000E+00  0.00000000000E+00  0.19126223835E+02  0.59585608809E+03  0.59554904523E+03 0.  0.
        1    1    3    3  502    0 -0.51653282760E+02 -0.23160027983E+03 -0.17042659302E+03  0.29215060306E+03  0.50400001928E-02 0. -1.
       -1    1    3    3    0  502  0.51653282760E+02  0.23160027983E+03  0.18955281685E+03  0.30370548503E+03  0.50400001928E-02 0.  1.
</event>
<event>
 5   0  0.5190380E-02  0.6032291E+03  0.7818609E-02  0.9898729E-01
        1   -1    0    0  501    0  0.00000000000E+00  0.00000000000E+00  0.68102626837E+03  0.68102626839E+03  0.50400001928E-02 0. -1.
       -1   -1    0    0    0  501  0.00000000000E+00  0.00000000000E+00 -0.13357975649E+03  0.13357975659E+03  0.50400001928E-02 0.  1.
    10030    2    1    2    0    0  0.00000000000E+00  0.00000000000E+00  0.54744651188E+03  0.81460602498E+03  0.60322905481E+03 0.  0.
        5    1    3    3  502    0  0.62822857686E+02  0.22095372610E+03  0.98505033353E+01  0.22997039579E+03  0.46999998093E+01 0.  1.
       -5    1    3    3    0  502 -0.62822857686E+02 -0.22095372610E+03  0.53759600855E+03  0.58463562920E+03  0.46999998093E+01 0. -1.
</event>
<event>
 5   0  0.4881209E-02  0.6008509E+03  0.7818609E-02  0.9903642E-01
       -1   -1    0    0    0  501  0.00000000000E+00  0.00000000000E+00  0.11402303058E+03  0.11402303069E+03  0.50400001928E-02 0. -1.
        1   -1    0    0  501    0  0.00000000000E+00  0.00000000000E+00 -0.79155448831E+03  0.79155448833E+03  0.50400001928E-02 0.  1.
    10030    2    1    2    0    0  0.00000000000E+00  0.00000000000E+00 -0.67753145774E+03  0.90557751902E+03  0.60085086896E+03 0.  0.
        3    1    3    3  502    0 -0.20856339330E+03 -0.13373835054E+03 -0.59485319229E+03  0.64438727952E+03  0.10100000352E+00 0.  1.
       -3    1    3    3    0  502  0.20856339330E+03  0.13373835054E+03 -0.82678265445E+02  0.26119023950E+03  0.10100000352E+00 0. -1.
</event>
<event>
 5   0  0.8420604E-02  0.6050496E+03  0.7818609E-02  0.9894985E-01
       -2   -1    0    0    0  501  0.00000000000E+00  0.00000000000E+00  0.27091384633E+03  0.27091384634E+03  0.25500000920E-02 0.  1.
        2   -1    0    0  501    0  0.00000000000E+00  0.00000000000E+00 -0.33782423270E+03  0.33782423271E+03  0.25500000920E-02 0. -1.
    10030    2    1    2    0    0  0.00000000000E+00  0.00000000000E+00 -0.66910386373E+02  0.60873807905E+03  0.60504962530E+03 0.  0.
        2    1    3    3  502    0 -0.22966431327E+03  0.18530205988E+03 -0.10048499892E+03  0.31173672417E+03  0.25500000920E-02 0.  1.
       -2    1    3    3    0  502  0.22966431327E+03 -0.18530205988E+03  0.33574612546E+02  0.29700135487E+03  0.25500000920E-02 0. -1.
</event>
<event>
 5   0  0.4881209E-02  0.6002920E+03  0.7818609E-02  0.9904800E-01
        1   -1    0    0  501    0  0.00000000000E+00  0.00000000000E+00  0.33102318344E+03  0.33102318348E+03  0.50400001928E-02 0. -1.
       -1   -1    0    0    0  501  0.00000000000E+00  0.00000000000E+00 -0.27214898719E+03  0.27214898724E+03  0.50400001928E-02 0.  1.
    10030    2    1    2    0    0  0.00000000000E+00  0.00000000000E+00  0.58874196251E+02  0.60317217072E+03  0.60029200940E+03 0.  0.
        3    1    3    3  502    0  0.20602021463E+03 -0.18867923474E+02 -0.18906264482E+03  0.28025884685E+03  0.10100000352E+00 0.  1.
       -3    1    3    3    0  502 -0.20602021463E+03  0.18867923474E+02  0.24793684107E+03  0.32291332387E+03  0.10100000352E+00 0. -1.
</event>
<event>
 5   0  0.4881209E-02  0.6023798E+03  0.7818609E-02  0.9900481E-01
       -1   -1    0    0    0  501  0.00000000000E+00  0.00000000000E+00  0.91287460254E+02  0.91287460393E+02  0.50400001928E-02 0.  1.
        1   -1    0    0  501    0  0.00000000000E+00  0.00000000000E+00 -0.99373304478E+03  0.99373304479E+03  0.50400001928E-02 0. -1.
    10030    2    1    2    0    0  0.00000000000E+00  0.00000000000E+00 -0.90244558452E+03  0.10850205052E+04  0.60237983336E+03 0.  0.
        3    1    3    3  502    0  0.20179614131E+03 -0.20966514437E+03 -0.59114201459E+03  0.65888545820E+03  0.10100000352E+00 0.  1.
       -3    1    3    3    0  502 -0.20179614131E+03  0.20966514437E+03 -0.31130356993E+03  0.42613504698E+03  0.10100000352E+00 0. -1.
</event>
<event>
 5   0  0.8817544E-02  0.5963853E+03  0.7818609E-02  0.9912934E-01
       -2   -1    0    0    0  501  0.00000000000E+00  0.00000000000E+00  0.82833270399E+02  0.82833270438E+02  0.25500000920E-02 0. -1.
        2   -1    0    0  501    0  0.00000000000E+00  0.00000000000E+00 -0.10734677542E+04  0.10734677542E+04  0.25500000920E-02 0.  1.
    10030    2    1    2    0    0  0.00000000000E+00  0.00000000000E+00 -0.99063448384E+03  0.11563010247E+04  0.59638526063E+03 0.  0.
        5    1    3    3  502    0 -0.73794590054E+02  0.26048572611E+03 -0.73746621960E+03  0.78560611637E+03  0.46999998093E+01 0.  1.
       -5    1    3    3    0  502  0.73794590054E+02 -0.26048572611E+03 -0.25316826424E+03  0.37069490831E+03  0.46999998093E+01 0. -1.
</event>
<event>
 5   0  0.8699746E-02  0.6075670E+03  0.7818609E-02  0.9889830E-01
        2   -1    0    0  501    0  0.00000000000E+00  0.00000000000E+00  0.28596647441E+04  0.28596647441E+04  0.25500000920E-02 0.  1.
       -2   -1    0    0    0  501  0.00000000000E+00  0.00000000000E+00 -0.32271059158E+02  0.32271059258E+02  0.25500000920E-02 0. -1.
    10030    2    1    2    0    0  0.00000000000E+00  0.00000000000E+00  0.28273936849E+04  0.28919358033E+04  0.60756698486E+03 0.  0.
        3    1    3    3  502    0 -0.23058696947E+03 -0.94933623592E+02  0.22395249893E+04  0.22533652459E+04  0.10100000352E+00 0.  1.
       -3    1    3    3    0  502  0.23058696947E+03  0.94933623592E+02  0.58786869563E+03  0.63857055748E+03  0.10100000352E+00 0. -1.
</event>
<event>
 5   0  0.3437375E-02  0.5972440E+03  0.7818609E-02  0.9911140E-01
       -3   -1    0    0    0  501  0.00000000000E+00  0.00000000000E+00  0.40770095171E+03  0.40770096422E+03  0.10100000352E+00 0.  1.
        3   -1    0    0  501    0  0.00000000000E+00  0.00000000000E+00 -0.21872668763E+03  0.21872671095E+03  0.10100000352E+00 0. -1.
    10030    2    1    2    0    0  0.00000000000E+00  0.00000000000E+00  0.18897426408E+03  0.62642767518E+03  0.59724397004E+03 0.  0.
        5    1    3    3  502    0 -0.10628941012E+03  0.26237546878E+03  0.19407219227E+03  0.34325563525E+03  0.46999998093E+01 0.  1.
       -5    1    3    3    0  502  0.10628941012E+03 -0.26237546878E+03 -0.50979281879E+01  0.28317203992E+03  0.46999998093E+01 0. -1.
</event>
<event>
 5   0  0.5190380E-02  0.5938688E+03  0.7818609E-02  0.9918209E-01
        1   -1    0    0  501    0  0.00000000000E+00  0.00000000000E+00  0.17033015952E+03  0.17033015960E+03  0.50400001928E-02 0. -1.
       -1   -1    0    0    0  501  0.00000000000E+00  0.00000000000E+00 -0.51764188536E+03  0.51764188539E+03  0.50400001928E-02 0.  1.
    10030    2    1    2    0    0  0.00000000000E+00  0.00000000000E+00 -0.34731172584E+03  0.68797204499E+03  0.59386875636E+03 0.  0.
        5    1    3    3  502    0  0.24730735068E+03 -0.11280838687E+02 -0.36351491692E+03  0.43983334099E+03  0.46999998093E+01 0.  1.
       -5    1    3    3    0  502 -0.24730735068E+03  0.11280838687E+02  0.16203191078E+02  0.24813870400E+03  0.46999998093E+01 0. -1.
</event>
<event>
 5   0  0.8420604E-02  0.6015027E+03  0.7818609E-02  0.9902293E-01
       -2   -1    0    0    0  501  0.00000000000E+00  0.00000000000E+00  0.10466377929E+03  0.10466377932E+03  0.25500000920E-02 0. -1.
        2   -1    0    0  501    0  0.00000000000E+00  0.00000000000E+00 -0.86420908362E+03  0.86420908362E+03  0.25500000920E-02 0.  1.
    10030    2    1    2    0    0  0.00000000000E+00  0.00000000000E+00 -0.75954530433E+03  0.96887286295E+03  0.60150274748E+03 0.  0.
        2    1    3    3  502    0 -0.20916196085E+03  0.23251565588E+02 -0.72584875767E+03  0.75574187404E+03  0.25500000920E-02 0.  1.
       -2    1    3    3    0  502  0.20916196085E+03 -0.23251565588E+02 -0.33696546660E+02  0.21313098890E+03  0.25500000920E-02 0. -1.
</event>
<event>
 5   0  0.4987389E-02  0.6469187E+03  0.7818609E-02  0.9812578E-01
       -1   -1    0    0    0  501  0.00000000000E+00  0.00000000000E+00  0.25816121041E+03  0.25816121046E+03  0.50400001928E-02 0. -1.
        1   -1    0    0  501    0  0.00000000000E+00  0.00000000000E+00 -0.40527373860E+03  0.40527373863E+03  0.50400001928E-02 0.  1.
    10030    2    1    2    0    0  0.00000000000E+00  0.00000000000E+00 -0.14711252819E+03  0.66343494909E+03  0.64691872420E+03 0.  0.
        1    1    3    3  502    0 -0.36766592846E+02 -0.15598868628E+03  0.21458262621E+03  0.26782448748E+03  0.50400001928E-02 0. -1.
       -1    1    3    3    0  502  0.36766592846E+02  0.15598868628E+03 -0.36169515440E+03  0.39561046161E+03  0.50400001928E-02 0.  1.
</event>
<event>
 5   0  0.5190380E-02  0.5769787E+03  0.7818609E-02  0.9954354E-01
       -1   -1    0    0    0  501  0.00000000000E+00  0.00000000000E+00  0.12932136580E+03  0.12932136590E+03  0.50400001928E-02 0. -1.
        1   -1    0    0  501    0  0.00000000000E+00  0.00000000000E+00 -0.64356033059E+03  0.64356033061E+03  0.50400001928E-02 0.  1.
    10030    2    1    2    0    0  0.00000000000E+00  0.00000000000E+00 -0.51423896479E+03  0.77288169651E+03  0.57697868582E+03 0.  0.
        5    1    3    3  502    0 -0.14934048774E+03  0.90386692151E+02  0.50482434799E+02  0.18177706571E+03  0.46999998093E+01 0. -1.
       -5    1    3    3    0  502  0.14934048774E+03 -0.90386692151E+02 -0.56472139959E+03  0.59110463080E+03  0.46999998093E+01 0.  1.
</event>
<event>
 5   0  0.8207443E-02  0.6071499E+03  0.7818609E-02  0.9890682E-01
       -2   -1    0    0    0  501  0.00000000000E+00  0.00000000000E+00  0.67695973496E+02  0.67695973544E+02  0.25500000920E-02 0.  1.
        2   -1    0    0  501    0  0.00000000000E+00  0.00000000000E+00 -0.13613477437E+04  0.13613477437E+04  0.25500000920E-02 0. -1.
    10030    2    1    2    0    0  0.00000000000E+00  0.00000000000E+00 -0.12936517702E+04  0.14290437173E+04  0.60714993475E+03 0.  0.
        1    1    3    3  502    0  0.22699691249E+03 -0.20129808114E+03 -0.67142675237E+03  0.73679196493E+03  0.50400001928E-02 0. -1.
       -1    1    3    3    0  502 -0.22699691249E+03  0.20129808114E+03 -0.62222501787E+03  0.69225175236E+03  0.50400001928E-02 0.  1.
</event>
<event>
 5   0  0.5166903E-02  0.5982098E+03  0.7818609E-02  0.9909127E-01
       -1   -1    0    0    0  501  0.00000000000E+00  0.00000000000E+00  0.91602215309E+02  0.91602215448E+02  0.50400001928E-02 0.  1.
        1   -1    0    0  501    0  0.00000000000E+00  0.00000000000E+00 -0.97665462684E+03  0.97665462685E+03  0.50400001928E-02 0. -1.
    10030    2    1    2    0    0  0.00000000000E+00  0.00000000000E+00 -0.88505241153E+03  0.10682568423E+04  0.59820975415E+03 0.  0.
        2    1    3    3  502    0 -0.14805758544E+02 -0.63220356402E+02  0.78864802581E+02  0.10215518118E+03  0.25500000920E-02 0.  1.
       -2    1    3    3    0  502  0.14805758544E+02  0.63220356402E+02 -0.96391721411E+03  0.96610166112E+03  0.25500000920E-02 0. -1.
</event>
<event>
 5   0  0.4881209E-02  0.5989161E+03  0.7818609E-02  0.9907657E-01
       -1   -1    0    0    0  501  0.00000000000E+00  0.00000000000E+00  0.39883711956E+03  0.39883711959E+03  0.50400001928E-02 0. -1.
        1   -1    0    0  501    0  0.00000000000E+00  0.00000000000E+00 -0.22484145957E+03  0.22484145962E+03  0.50400001928E-02 0.  1.
    10030    2    1    2    0    0  0.00000000000E+00  0.00000000000E+00  0.17399566000E+03  0.62367857922E+03  0.59891608801E+03 0.  0.
        3    1    3    3  502    0 -0.20379885410E+03  0.21455735775E+03  0.39206115109E+02  0.29850621829E+03  0.10100000352E+00 0.  1.
       -3    1    3    3    0  502  0.20379885410E+03 -0.21455735775E+03  0.13478954489E+03  0.32517236092E+03  0.10100000352E+00 0. -1.
</event>
<event>
 5   0  0.5190380E-02  0.6027636E+03  0.7818609E-02  0.9899689E-01
        1   -1    0    0  501    0  0.00000000000E+00  0.00000000000E+00  0.11830523673E+04  0.11830523673E+04  0.50400001928E-02 0. -1.
       -1   -1    0    0    0  501  0.00000000000E+00  0.00000000000E+00 -0.76776823348E+02  0.76776823513E+02  0.50400001928E-02 0.  1.
    10030    2    1    2    0    0  0.00000000000E+00  0.00000000000E+00  0.11062755439E+04  0.12598291908E+04  0.60276364431E+03 0.  0.
        5    1    3    3  502    0  0.12739862395E+03  0.17712724612E+03  0.11869876001E+03  0.24842696377E+03  0.46999998093E+01 0.  1.
       -5    1    3    3    0  502 -0.12739862395E+03 -0.17712724612E+03  0.98757678392E+03  0.10114022270E+04  0.46999998093E+01 0. -1.
</event>
<event>
 5   0  0.5166903E-02  0.6017125E+03  0.7818609E-02  0.9901860E-01
        1   -1    0    0  501    0  0.00000000000E+00  0.00000000000E+00  0.25511999891E+03  0.25511999896E+03  0.50400001928E-02 0.  1.
       -1   -1    0    0    0  501  0.00000000000E+00  0.00000000000E+00 -0.35479177410E+03  0.35479177414E+03  0.50400001928E-02 0. -1.
    10030    2    1    2    0    0  0.00000000000E+00  0.00000000000E+00 -0.99671775191E+02  0.60991177310E+03  0.60171247967E+03 0.  0.
        2    1    3    3  502    0 -0.11662976916E+03  0.15237344752E+03  0.18504199132E+03  0.26657214618E+03  0.25500000920E-02 0.  1.
       -2    1    3    3    0  502  0.11662976916E+03 -0.15237344752E+03 -0.28471376651E+03  0.34333962691E+03  0.25500000920E-02 0. -1.
</event>
<event>
 5   0  0.3437375E-02  0.6023151E+03  0.7818609E-02  0.9900615E-01
        3   -1    0    0  501    0  0.00000000000E+00  0.00000000000E+00  0.14021988973E+03  0.14021992610E+03  0.10100000352E+00 0.  1.
       -3   -1    0    0    0  501  0.00000000000E+00  0.00000000000E+00 -0.64681155469E+03  0.64681156258E+03  0.10100000352E+00 0. -1.
    10030    2    1    2    0    0  0.00000000000E+00  0.00000000000E+00 -0.50659166497E+03  0.78703148868E+03  0.60231507466E+03 0.  0.
        5    1    3    3  502    0 -0.30466574179E+01  0.10777490408E+03  0.11408520088E+03  0.15704214443E+03  0.46999998093E+01 0.  1.
       -5    1    3    3    0  502  0.30466574179E+01 -0.10777490408E+03 -0.62067686585E+03  0.62998934425E+03  0.46999998093E+01 0. -1.
</event>
<event>
 5   0  0.3437375E-02  0.5935310E+03  0.7818609E-02  0.9918919E-01
        3   -1    0    0  501    0  0.00000000000E+00  0.00000000000E+00  0.74181339395E+03  0.74181340083E+03  0.10100000352E+00 0.  1.
       -3   -1    0    0    0  501  0.00000000000E+00  0.00000000000E+00 -0.11872221234E+03  0.11872225530E+03  0.10100000352E+00 0. -1.
    10030    2    1    2    0    0  0.00000000000E+00  0.00000000000E+00  0.62309118161E+03  0.86053565613E+03  0.59353095528E+03 0.  0.
        4    1    3    3  502    0  0.23300257000E+03  0.17755352500E+03  0.38035940459E+03  0.48009409644E+03  0.12699999809E+01 0.  1.
       -4    1    3    3    0  502 -0.23300257000E+03 -0.17755352500E+03  0.24273177702E+03  0.38044155970E+03  0.12699999809E+01 0. -1.
</event>
<event>
 5   0  0.8575590E-02  0.5900029E+03  0.7818609E-02  0.9926367E-01
        2   -1    0    0  501    0  0.00000000000E+00  0.00000000000E+00  0.66401686346E+03  0.66401686347E+03  0.25500000920E-02 0. -1.
       -2   -1    0    0    0  501  0.00000000000E+00  0.00000000000E+00 -0.13105969383E+03  0.13105969385E+03  0.25500000920E-02 0.  1.
    10030    2    1    2    0    0  0.00000000000E+00  0.00000000000E+00  0.53295716964E+03  0.79507655732E+03  0.59000287061E+03 0.  0.
        4    1    3    3  502    0  0.27945303412E+03  0.36380336742E+02  0.14894738736E+03  0.31875455178E+03  0.12699999809E+01 0.  1.
       -4    1    3    3    0  502 -0.27945303412E+03 -0.36380336742E+02  0.38400978228E+03  0.47632200554E+03  0.12699999809E+01 0. -1.
</event>
<event>
 5   0  0.5125031E-02  0.6016634E+03  0.7818609E-02  0.9901961E-01
       -1   -1    0    0    0  501  0.00000000000E+00  0.00000000000E+00  0.29466456965E+03  0.29466456969E+03  0.50400001928E-02 0. -1.
        1   -1    0    0  501    0  0.00000000000E+00  0.00000000000E+00 -0.30712791679E+03  0.30712791683E+03  0.50400001928E-02 0.  1.
    10030    2    1    2    0    0  0.00000000000E+00  0.00000000000E+00 -0.12463347144E+02  0.60179248652E+03  0.60166341239E+03 0.  0.
        4    1    3    3  502    0 -0.18784900640E+03 -0.13379074760E+03  0.18697003305E+03  0.29689496376E+03  0.12699999809E+01 0. -1.
       -4    1    3    3    0  502  0.18784900640E+03  0.13379074760E+03 -0.19943338019E+03  0.30489752276E+03  0.12699999809E+01 0.  1.
</event>
<event>
 5   0  0.4881209E-02  0.6021212E+03  0.7818609E-02  0.9901015E-01
       -1   -1    0    0    0  501  0.00000000000E+00  0.00000000000E+00  0.16540784886E+03  0.16540784894E+03  0.50400001928E-02 0. -1.
        1   -1    0    0  501    0  0.00000000000E+00  0.00000000000E+00 -0.54796358647E+03  0.54796358650E+03  0.50400001928E-02 0.  1.
    10030    2    1    2    0    0  0.00000000000E+00  0.00000000000E+00 -0.38255573761E+03  0.71337143543E+03  0.60212117760E+03 0.  0.
        3    1    3    3  502    0  0.26709367049E+03  0.32598572087E+02 -0.31287480500E+02  0.27088856077E+03  0.10100000352E+00 0. -1.
       -3    1    3    3    0  502 -0.26709367049E+03 -0.32598572087E+02 -0.35126825711E+03  0.44248287467E+03  0.10100000352E+00 0.  1.
</event>
<event>
 5   0  0.3437375E-02  0.5901897E+03  0.7818609E-02  0.9925971E-01
        4   -1    0    0  501    0  0.00000000000E+00  0.00000000000E+00  0.20521200855E+03  0.20521593835E+03  0.12699999809E+01 0.  1.
       -4   -1    0    0    0  501  0.00000000000E+00  0.00000000000E+00 -0.42433742730E+03  0.42433932779E+03  0.12699999809E+01 0. -1.
    10030    2    1    2    0    0  0.00000000000E+00  0.00000000000E+00 -0.21912541875E+03  0.62955526613E+03  0.59018970168E+03 0.  0.
        4    1    3    3  502    0  0.98134549179E+02 -0.56869471346E+01 -0.40635960672E+03  0.41808189865E+03  0.12699999809E+01 0. -1.
       -4    1    3    3    0  502 -0.98134549179E+02  0.56869471346E+01  0.18723418796E+03  0.21147336748E+03  0.12699999809E+01 0.  1.
</event>
<event>
 5   0  0.8207443E-02  0.5973346E+03  0.7818609E-02  0.9910951E-01
       -2   -1    0    0    0  501  0.00000000000E+00  0.00000000000E+00  0.85577711168E+02  0.85577711206E+02  0.25500000920E-02 0. -1.
        2   -1    0    0  501    0  0.00000000000E+00  0.00000000000E+00 -0.10423527599E+04  0.10423527599E+04  0.25500000920E-02 0.  1.
    10030    2    1    2    0    0  0.00000000000E+00  0.00000000000E+00 -0.95677504876E+03  0.11279304711E+04  0.59733462464E+03 0.  0.
        1    1    3    3  502    0 -0.44043780915E+02  0.26828148068E+03 -0.24491766155E+03  0.36592276300E+03  0.50400001928E-02 0. -1.
       -1    1    3    3    0  502  0.44043780915E+02 -0.26828148068E+03 -0.71185738721E+03  0.76200770814E+03  0.50400001928E-02 0.  1.
</event>
<event>
 5   0  0.8699746E-02  0.6030216E+03  0.7818609E-02  0.9899157E-01
        2   -1    0    0  501    0  0.00000000000E+00  0.00000000000E+00  0.37689595820E+03  0.37689595820E+03  0.25500000920E-02 0. -1.
       -2   -1    0    0    0  501  0.00000000000E+00  0.00000000000E+00 -0.24120384064E+03  0.24120384066E+03  0.25500000920E-02 0.  1.
    10030    2    1    2    0    0  0.00000000000E+00  0.00000000000E+00  0.13569211755E+03  0.61809979886E+03  0.60302156727E+03 0.  0.
        3    1    3    3  502    0 -0.29294264624E+03 -0.59617059418E+02  0.10805909744E+03  0.31787791132E+03  0.10100000352E+00 0. -1.
       -3    1    3    3    0  502  0.29294264624E+03  0.59617059418E+02  0.27633020109E+02  0.30022188755E+03  0.10100000352E+00 0.  1.
</event>
<event>
 5   0  0.8699746E-02  0.5908752E+03  0.7818609E-02  0.9924520E-01
       -2   -1    0    0    0  501  0.00000000000E+00  0.00000000000E+00  0.12908484901E+03  0.12908484904E+03  0.25500000920E-02 0.  1.
        2   -1    0    0  501    0  0.00000000000E+00  0.00000000000E+00 -0.67617060201E+03  0.67617060202E+03  0.25500000920E-02 0. -1.
    10030    2    1    2    0    0  0.00000000000E+00  0.00000000000E+00 -0.54708575300E+03  0.80525545105E+03  0.59087521552E+03 0.  0.
        3    1    3    3  502    0  0.18422931852E+02 -0.29389586334E+03 -0.30605650016E+03  0.42471728761E+03  0.10100000352E+00 0. -1.
       -3    1    3    3    0  502 -0.18422931852E+02  0.29389586334E+03 -0.24102925284E+03  0.38053816344E+03  0.10100000352E+00 0.  1.
</event>
<event>
 5   0  0.5125031E-02  0.6043602E+03  0.7818609E-02  0.9896401E-01
       -1   -1    0    0    0  501  0.00000000000E+00  0.00000000000E+00  0.45155387120E+03  0.45155387123E+03  0.50400001928E-02 0. -1.
        1   -1    0    0  501    0  0.00000000000E+00  0.00000000000E+00 -0.20221906246E+03  0.20221906253E+03  0.50400001928E-02 0.  1.
    10030    2    1    2    0    0  0.00000000000E+00  0.00000000000E+00  0.24933480874E+03  0.65377293375E+03  0.60436015923E+03 0.  0.
        4    1    3    3  502    0  0.50033488713E+02  0.14512079180E+03  0.40623241627E+03  0.43426925189E+03  0.12699999809E+01 0. -1.
       -4    1    3    3    0  502 -0.50033488713E+02 -0.14512079180E+03 -0.15689760753E+03  0.21950368187E+03  0.12699999809E+01 0.  1.
</event>
<event>
 5   0  0.8207443E-02  0.5892665E+03  0.7818609E-02  0.9927928E-01
        2   -1    0    0  501    0  0.00000000000E+00  0.00000000000E+00  0.14787873979E+04  0.14787873979E+04  0.25500000920E-02 0. -1.
       -2   -1    0    0    0  501  0.00000000000E+00  0.00000000000E+00 -0.58702654814E+02  0.58702654869E+02  0.25500000920E-02 0.  1.
    10030    2    1    2    0    0  0.00000000000E+00  0.00000000000E+00  0.14200847431E+04  0.15374900528E+04  0.58926648032E+03 0.  0.
        1    1    3    3  502    0  0.43357463474E+02  0.25989840646E+03  0.36605172173E+03  0.45102207743E+03  0.50400001928E-02 0.  1.
       -1    1    3    3    0  502 -0.43357463474E+02 -0.25989840646E+03  0.10540330214E+04  0.10864679754E+04  0.50400001928E-02 0. -1.
</event>
<event>
 5   0  0.5166903E-02  0.6013093E+03  0.7818609E-02  0.9902693E-01
        1   -1    0    0  501    0  0.00000000000E+00  0.00000000000E+00  0.41048975331E+03  0.41048975334E+03  0.50400001928E-02 0. -1.
       -1   -1    0    0    0  501  0.00000000000E+00  0.00000000000E+00 -0.22020820988E+03  0.22020820993E+03  0.50400001928E-02 0.  1.
    10030    2    1    2    0    0  0.00000000000E+00  0.00000000000E+00  0.19028154344E+03  0.63069796328E+03  0.60130928407E+03 0.  0.
        2    1    3    3  502    0  0.12609992511E+03 -0.11882204446E+03  0.35285959305E+03  0.39310273692E+03  0.25500000920E-02 0. -1.
       -2    1    3    3    0  502 -0.12609992511E+03  0.11882204446E+03 -0.16257804961E+03  0.23759522635E+03  0.25500000920E-02 0.  1.
</event>
<event>
 5   0  0.4987389E-02  0.5966391E+03  0.7818609E-02  0.9912404E-01
       -1   -1    0    0    0  501  0.00000000000E+00  0.00000000000E+00  0.13117427338E+03  0.13117427347E+03  0.50400001928E-02 0. -1.
        1   -1    0    0  501    0  0.00000000000E+00  0.00000000000E+00 -0.67844508412E+03  0.67844508414E+03  0.50400001928E-02 0.  1.
    10030    2    1    2    0    0  0.00000000000E+00  0.00000000000E+00 -0.54727081075E+03  0.80961935761E+03  0.59663905666E+03 0.  0.
        1    1    3    3  502    0  0.51682557695E+02 -0.15844993583E+03  0.62106445980E+02  0.17786140557E+03  0.50400001928E-02 0. -1.
       -1    1    3    3    0  502 -0.51682557695E+02  0.15844993583E+03 -0.60937725673E+03  0.63175795205E+03  0.50400001928E-02 0.  1.
</event>
<event>
 5   0  0.5190380E-02  0.6087618E+03  0.7818609E-02  0.9887393E-01
       -1   -1    0    0    0  501  0.00000000000E+00  0.00000000000E+00  0.99032158840E+02  0.99032158969E+02  0.50400001928E-02 0.  1.
        1   -1    0    0  501    0  0.00000000000E+00  0.00000000000E+00 -0.93553182254E+03  0.93553182256E+03  0.50400001928E-02 0. -1.
    10030    2    1    2    0    0  0.00000000000E+00  0.00000000000E+00 -0.83649966370E+03  0.10345639815E+04  0.60876181261E+03 0.  0.
        5    1    3    3  502    0  0.12267718419E+03  0.24847096160E+03 -0.63212579811E+03  0.69021201447E+03  0.46999998093E+01 0. -1.
       -5    1    3    3    0  502 -0.12267718419E+03 -0.24847096160E+03 -0.20437386559E+03  0.34435196706E+03  0.46999998093E+01 0.  1.
</event>
<event>
 5   0  0.8420604E-02  0.6013737E+03  0.7818609E-02  0.9902560E-01
        2   -1    0    0  501    0  0.00000000000E+00  0.00000000000E+00  0.86080765548E+02  0.86080765586E+02  0.25500000920E-02 0. -1.
       -2   -1    0    0    0  501  0.00000000000E+00  0.00000000000E+00 -0.10503226747E+04  0.10503226747E+04  0.25500000920E-02 0.  1.
    10030    2    1    2    0    0  0.00000000000E+00  0.00000000000E+00 -0.96424190915E+03  0.11364034403E+04  0.60137369392E+03 0.  0.
        2    1    3    3  502    0 -0.10777779686E+03 -0.20527096508E+03 -0.12030604437E+03  0.26120062580E+03  0.25500000920E-02 0. -1.
       -2    1    3    3    0  502  0.10777779686E+03  0.20527096508E+03 -0.84393586478E+03  0.87520281448E+03  0.25500000920E-02 0.  1.
</event>
<event>
 5   0  0.8207443E-02  0.5904140E+03  0.7818609E-02  0.9925496E-01
       -2   -1    0    0    0  501  0.00000000000E+00  0.00000000000E+00  0.64199591231E+02  0.64199591281E+02  0.25500000920E-02 0. -1.
        2   -1    0    0  501    0  0.00000000000E+00  0.00000000000E+00 -0.13574411922E+04  0.13574411922E+04  0.25500000920E-02 0.  1.
    10030    2    1    2    0    0  0.00000000000E+00  0.00000000000E+00 -0.12932416010E+04  0.14216407835E+04  0.59041398932E+03 0.  0.
        1    1    3    3  502    0 -0.16340648967E+03  0.75213369067E+02 -0.12102295077E+04  0.12235253136E+04  0.50400001928E-02 0.  1.
       -1    1    3    3    0  502  0.16340648967E+03 -0.75213369067E+02 -0.83012093310E+02  0.19811546990E+03  0.50400001928E-02 0. -1.
</event>
<event>
 5   0  0.8699746E-02  0.6084947E+03  0.7818609E-02  0.9887937E-01
        2   -1    0    0  501    0  0.00000000000E+00  0.00000000000E+00  0.94317309049E+03  0.94317309050E+03  0.25500000920E-02 0.  1.
       -2   -1    0    0    0  501  0.00000000000E+00  0.00000000000E+00 -0.98143656230E+02  0.98143656263E+02  0.25500000920E-02 0. -1.
    10030    2    1    2    0    0  0.00000000000E+00  0.00000000000E+00  0.84502943426E+03  0.10413167468E+04  0.60849471839E+03 0.  0.
        3    1    3    3  502    0  0.19949647159E+03  0.16385172350E+03  0.14699965438E+03  0.29707766334E+03  0.10100000352E+00 0. -1.
       -3    1    3    3    0  502 -0.19949647159E+03 -0.16385172350E+03  0.69802977989E+03  0.74423908341E+03  0.10100000352E+00 0.  1.
</event>
<event>
 5   0  0.5190380E-02  0.6014985E+03  0.7818609E-02  0.9902302E-01
       -1   -1    0    0    0  501  0.00000000000E+00  0.00000000000E+00  0.71642659627E+03  0.71642659629E+03  0.50400001928E-02 0. -1.
        1   -1    0    0  501    0  0.00000000000E+00  0.00000000000E+00 -0.12625173633E+03  0.12625173644E+03  0.50400001928E-02 0.  1.
    10030    2    1    2    0    0  0.00000000000E+00  0.00000000000E+00  0.59017485994E+03  0.84267833272E+03  0.60149846811E+03 0.  0.
        5    1    3    3  502    0  0.29212404395E+03 -0.70810533273E+02  0.28276028220E+03  0.41270577397E+03  0.46999998093E+01 0.  1.
       -5    1    3    3    0  502 -0.29212404395E+03  0.70810533273E+02  0.30741457774E+03  0.42997255876E+03  0.46999998093E+01 0. -1.
</event>
<event>
 5   0  0.3437375E-02  0.6018881E+03  0.7818609E-02  0.9901497E-01
       -4   -1    0    0    0  501  0.00000000000E+00  0.00000000000E+00  0.15393967504E+03  0.15394491369E+03  0.12699999809E+01 0.  1.
        4   -1    0    0  501    0  0.00000000000E+00  0.00000000000E+00 -0.58831405931E+03  0.58831543009E+03  0.12699999809E+01 0. -1.
    10030    2    1    2    0    0  0.00000000000E+00  0.00000000000E+00 -0.43437438426E+03  0.74226034378E+03  0.60188812270E+03 0.  0.
        2    1    3    3  502    0  0.29936551971E+03  0.97463189996E+01 -0.25319684947E+03  0.39220319952E+03  0.25500000920E-02 0.  1.
       -2    1    3    3    0  502 -0.29936551971E+03 -0.97463189996E+01 -0.18117753479E+03  0.35005714426E+03  0.25500000920E-02 0. -1.
</event>
<event>
 5   0  0.8575590E-02  0.5995359E+03  0.7818609E-02  0.9906369E-01
       -2   -1    0    0    0  501  0.00000000000E+00  0.00000000000E+00  0.10554373569E+03  0.10554373573E+03  0.25500000920E-02 0. -1.
        2   -1    0    0  501    0  0.00000000000E+00  0.00000000000E+00 -0.85140843297E+03  0.85140843298E+03  0.25500000920E-02 0.  1.
    10030    2    1    2    0    0  0.00000000000E+00  0.00000000000E+00 -0.74586469728E+03  0.95695216870E+03  0.59953590930E+03 0.  0.
        4    1    3    3  502    0  0.18876942305E+03 -0.11228769403E+02 -0.16788234243E+01  0.18911481087E+03  0.12699999809E+01 0. -1.
       -4    1    3    3    0  502 -0.18876942305E+03  0.11228769403E+02 -0.74418587386E+03  0.76783735784E+03  0.12699999809E+01 0.  1.
</event>
<event>
 5   0  0.8207443E-02  0.5999098E+03  0.7818609E-02  0.9905593E-01
        2   -1    0    0  501    0  0.00000000000E+00  0.00000000000E+00  0.21780160974E+04  0.21780160974E+04  0.25500000920E-02 0. -1.
       -2   -1    0    0    0  501  0.00000000000E+00  0.00000000000E+00 -0.41309588607E+02  0.41309588685E+02  0.25500000920E-02 0.  1.
    10030    2    1    2    0    0  0.00000000000E+00  0.00000000000E+00  0.21367065088E+04  0.22193256861E+04  0.59990982339E+03 0.  0.
        1    1    3    3  502    0 -0.19509727345E+03  0.22166273593E+03  0.12632552106E+04  0.12973091542E+04  0.50400001928E-02 0. -1.
       -1    1    3    3    0  502  0.19509727345E+03 -0.22166273593E+03  0.87345129820E+03  0.92201653183E+03  0.50400001928E-02 0.  1.
</event>
<event>
 5   0  0.5125031E-02  0.5963615E+03  0.7818609E-02  0.9912984E-01
       -1   -1    0    0    0  501  0.00000000000E+00  0.00000000000E+00  0.95612765762E+02  0.95612765895E+02  0.50400001928E-02 0. -1.
        1   -1    0    0  501    0  0.00000000000E+00  0.00000000000E+00 -0.92991516457E+03  0.92991516459E+03  0.50400001928E-02 0.  1.
    10030    2    1    2    0    0  0.00000000000E+00  0.00000000000E+00 -0.83430239881E+03  0.10255279305E+04  0.59636150407E+03 0.  0.
        4    1    3    3  502    0  0.14184879272E+03 -0.19199785829E+03 -0.10988881192E+03  0.26279539849E+03  0.12699999809E+01 0. -1.
       -4    1    3    3    0  502 -0.14184879272E+03  0.19199785829E+03 -0.72441358689E+03  0.76273253199E+03  0.12699999809E+01 0.  1.
</event>
<event>
 5   0  0.4881209E-02  0.5980431E+03  0.7818609E-02  0.9909474E-01
        1   -1    0    0  501    0  0.00000000000E+00  0.00000000000E+00  0.35456507390E+03  0.35456507394E+03  0.50400001928E-02 0.  1.
       -1   -1    0    0    0  501  0.00000000000E+00  0.00000000000E+00 -0.25217905908E+03  0.25217905913E+03  0.50400001928E-02 0. -1.
    10030    2    1    2    0    0  0.00000000000E+00  0.00000000000E+00  0.10238601483E+03  0.60674413307E+03  0.59804309793E+03 0.  0.
        3    1    3    3  502    0  0.28723524057E+03 -0.74693739524E+01  0.13518641540E+03  0.31754566929E+03  0.10100000352E+00 0.  1.
       -3    1    3    3    0  502 -0.28723524057E+03  0.74693739524E+01 -0.32800400577E+02  0.28919846378E+03  0.10100000352E+00 0. -1.
</event>
<event>
 5   0  0.8817544E-02  0.5921620E+03  0.7818609E-02  0.9921802E-01
       -2   -1    0    0    0  501  0.00000000000E+00  0.00000000000E+00  0.90250235717E+02  0.90250235753E+02  0.25500000920E-02 0. -1.
        2   -1    0    0  501    0  0.00000000000E+00  0.00000000000E+00 -0.97134339672E+03  0.97134339672E+03  0.25500000920E-02 0.  1.
    10030    2    1    2    0    0  0.00000000000E+00  0.00000000000E+00 -0.88109316100E+03  0.10615936325E+04  0.59216204045E+03 0.  0.
        5    1    3    3  502    0  0.55420773807E+02 -0.10622807259E+03  0.44773537101E+02  0.12799462957E+03  0.46999998093E+01 0. -1.
       -5    1    3    3    0  502 -0.55420773807E+02  0.10622807259E+03 -0.92586669810E+03  0.93359900291E+03  0.46999998093E+01 0.  1.
</event>
<event>
 5   0  0.8817544E-02  0.5942603E+03  0.7818609E-02  0.9917386E-01
        2   -1    0    0  501    0  0.00000000000E+00  0.00000000000E+00  0.79810479428E+03  0.79810479429E+03  0.25500000920E-02 0. -1.
       -2   -1    0    0    0  501  0.00000000000E+00  0.00000000000E+00 -0.11061996513E+03  0.11061996516E+03  0.25500000920E-02 0.  1.
    10030    2    1    2    0    0  0.00000000000E+00  0.00000000000E+00  0.68748482915E+03  0.90872475945E+03  0.59426029492E+03 0.  0.
        5    1    3    3  502    0  0.21121807253E+03  0.19867883969E+03  0.24490222328E+03  0.37958601722E+03  0.46999998093E+01 0.  1.
       -5    1    3    3    0  502 -0.21121807253E+03 -0.19867883969E+03  0.44258260588E+03  0.52913874223E+03  0.46999998093E+01 0. -1.
</event>
<event>
 5   0  0.8817544E-02  0.6074925E+03  0.7818609E-02  0.9889982E-01
       -2   -1    0    0    0  501  0.00000000000E+00  0.00000000000E+00  0.20538259766E+03  0.20538259768E+03  0.25500000920E-02 0.  1.
        2   -1    0    0  501    0  0.00000000000E+00  0.00000000000E+00 -0.44921911634E+03  0.44921911635E+03  0.25500000920E-02 0. -1.
    10030    2    1    2    0    0  0.00000000000E+00  0.00000000000E+00 -0.24383651868E+03  0.65460171403E+03  0.60749251531E+03 0.  0.
        5    1    3    3  502    0 -0.82415823834E+02  0.87133071823E+02  0.17874468360E+03  0.21530511405E+03  0.46999998093E+01 0.  1.
       -5    1    3    3    0  502  0.82415823834E+02 -0.87133071823E+02 -0.42258120228E+03  0.43929659997E+03  0.46999998093E+01 0. -1.
</event>
<event>
 5   0  0.8575590E-02  0.5975899E+03  0.7818609E-02  0.9910419E-01
        2   -1    0    0  501    0  0.00000000000E+00  0.00000000000E+00  0.12211603895E+04  0.12211603895E+04  0.25500000920E-02 0.  1.
       -2   -1    0    0    0  501  0.00000000000E+00  0.00000000000E+00 -0.73109490488E+02  0.73109490533E+02  0.25500000920E-02 0. -1.
    10030    2    1    2    0    0  0.00000000000E+00  0.00000000000E+00  0.11480508990E+04  0.12942698800E+04  0.59758987244E+03 0.  0.
        4    1    3    3  502    0  0.42588851681E+02 -0.26509493188E+03  0.85796774662E+03  0.89899911031E+03  0.12699999809E+01 0. -1.
       -4    1    3    3    0  502 -0.42588851681E+02  0.26509493188E+03  0.29008315240E+03  0.39527076973E+03  0.12699999809E+01 0.  1.
</event>
<event>
 5   0  0.8575590E-02  0.5792489E+03  0.7818609E-02  0.9949418E-01
       -2   -1    0    0    0  501  0.00000000000E+00  0.00000000000E+00  0.11914497991E+03  0.11914497994E+03  0.25500000920E-02 0. -1.
        2   -1    0    0  501    0  0.00000000000E+00  0.00000000000E+00 -0.70403577544E+03  0.70403577544E+03  0.25500000920E-02 0.  1.
    10030    2    1    2    0    0  0.00000000000E+00  0.00000000000E+00 -0.58489079553E+03  0.82318075538E+03  0.57924892174E+03 0.  0.
        4    1    3    3  502    0  0.27875357268E+03  0.30832064095E+02 -0.39518486769E+03  0.48458937567E+03  0.12699999809E+01 0.  1.
       -4    1    3    3    0  502 -0.27875357268E+03 -0.30832064095E+02 -0.18970592784E+03  0.33859137972E+03  0.12699999809E+01 0. -1.
</event>
<event>
 5   0  0.4881209E-02  0.6196125E+03  0.7818609E-02  0.9865531E-01
        1   -1    0    0  501    0  0.00000000000E+00  0.00000000000E+00  0.52911836347E+03  0.52911836349E+03  0.50400001928E-02 0.  1.
       -1   -1    0    0    0  501  0.00000000000E+00  0.00000000000E+00 -0.18139593432E+03  0.18139593439E+03  0.50400001928E-02 0. -1.
    10030    2    1    2    0    0  0.00000000000E+00  0.00000000000E+00  0.34772242914E+03  0.71051429789E+03  0.61961252390E+03 0.  0.
        3    1    3    3  502    0 -0.99411013473E+01 -0.11596799852E+03  0.50309310069E+03  0.51638171960E+03  0.10100000352E+00 0.  1.
       -3    1    3    3    0  502  0.99411013473E+01  0.11596799852E+03 -0.15537067154E+03  0.19413257829E+03  0.10100000352E+00 0. -1.
</event>
<event>
 5   0  0.8699746E-02  0.6007940E+03  0.7818609E-02  0.9903760E-01
       -2   -1    0    0    0  501  0.00000000000E+00  0.00000000000E+00  0.25739951014E+03  0.25739951015E+03  0.25500000920E-02 0.  1.
        2   -1    0    0  501    0  0.00000000000E+00  0.00000000000E+00 -0.35057702621E+03  0.35057702621E+03  0.25500000920E-02 0. -1.
    10030    2    1    2    0    0  0.00000000000E+00  0.00000000000E+00 -0.93177516067E+02  0.60797653636E+03  0.60079399071E+03 0.  0.
        3    1    3    3  502    0  0.15893008332E+02  0.28253663233E+03 -0.14858463612E+03  0.31961999408E+03  0.10100000352E+00 0. -1.
       -3    1    3    3    0  502 -0.15893008332E+02 -0.28253663233E+03  0.55407120055E+02  0.28835654228E+03  0.10100000352E+00 0.  1.
</event>
<event>
 5   0  0.8420604E-02  0.6049143E+03  0.7818609E-02  0.9895263E-01
        2   -1    0    0  501    0  0.00000000000E+00  0.00000000000E+00  0.10854968686E+04  0.10854968686E+04  0.25500000920E-02 0.  1.
       -2   -1    0    0    0  501  0.00000000000E+00  0.00000000000E+00 -0.84275073972E+02  0.84275074011E+02  0.25500000920E-02 0. -1.
    10030    2    1    2    0    0  0.00000000000E+00  0.00000000000E+00  0.10012217947E+04  0.11697719427E+04  0.60491430443E+03 0.  0.
        2    1    3    3  502    0  0.75762662059E+02  0.21887753775E+03  0.12447691489E+03  0.26294839768E+03  0.25500000920E-02 0. -1.
       -2    1    3    3    0  502 -0.75762662059E+02 -0.21887753775E+03  0.87674487978E+03  0.90682354498E+03  0.25500000920E-02 0.  1.
</event>
<event>
 5   0  0.4987389E-02  0.5957266E+03  0.7818609E-02  0.9914312E-01
       -1   -1    0    0    0  501  0.00000000000E+00  0.00000000000E+00  0.15216703802E+03  0.15216703811E+03  0.50400001928E-02 0.  1.
        1   -1    0    0  501    0  0.00000000000E+00  0.00000000000E+00 -0.58306027411E+03  0.58306027413E+03  0.50400001928E-02 0. -1.
    10030    2    1    2    0    0  0.00000000000E+00  0.00000000000E+00 -0.43089323608E+03  0.73522731224E+03  0.59572663173E+03 0.  0.
        1    1    3    3  502    0 -0.24377810456E+03  0.11605194413E+03 -0.37071045267E+03  0.45860882868E+03  0.50400001928E-02 0. -1.
       -1    1    3    3    0  502  0.24377810456E+03 -0.11605194413E+03 -0.60182783414E+02  0.27661848355E+03  0.50400001928E-02 0.  1.
</event>
<event>
 5   0  0.8817544E-02  0.5588510E+03  0.7818609E-02  0.9994658E-01
        2   -1    0    0  501    0  0.00000000000E+00  0.00000000000E+00  0.47967851975E+03  0.47967851975E+03  0.25500000920E-02 0. -1.
       -2   -1    0    0    0  501  0.00000000000E+00  0.00000000000E+00 -0.16277276120E+03  0.16277276122E+03  0.25500000920E-02 0.  1.
    10030    2    1    2    0    0  0.00000000000E+00  0.00000000000E+00  0.31690575855E+03  0.64245128097E+03  0.55885095385E+03 0.  0.
        5    1    3    3  502    0 -0.15557178271E+03  0.61167934982E+02 -0.98892783507E+02  0.19428321717E+03  0.46999998093E+01 0.  1.
       -5    1    3    3    0  502  0.15557178271E+03 -0.61167934982E+02  0.41579854205E+03  0.44816806381E+03  0.46999998093E+01 0. -1.
</event>
<event>
 5   0  0.8420604E-02  0.5987721E+03  0.7818609E-02  0.9907957E-01
        2   -1    0    0  501    0  0.00000000000E+00  0.00000000000E+00  0.15060246325E+03  0.15060246327E+03  0.25500000920E-02 0. -1.
       -2   -1    0    0    0  501  0.00000000000E+00  0.00000000000E+00 -0.59515625036E+03  0.59515625036E+03  0.25500000920E-02 0.  1.
    10030    2    1    2    0    0  0.00000000000E+00  0.00000000000E+00 -0.44455378710E+03  0.74575871364E+03  0.59877206793E+03 0.  0.
        2    1    3    3  502    0 -0.24593332407E+03  0.30459813465E+02 -0.13047362550E+02  0.24815566445E+03  0.25500000920E-02 0. -1.
       -2    1    3    3    0  502  0.24593332407E+03 -0.30459813465E+02 -0.43150642455E+03  0.49760304919E+03  0.25500000920E-02 0.  1.
</event>
<event>
 5   0  0.4987389E-02  0.5936873E+03  0.7818609E-02  0.9918590E-01
       -1   -1    0    0    0  501  0.00000000000E+00  0.00000000000E+00  0.15475460994E+03  0.15475461003E+03  0.50400001928E-02 0. -1.
        1   -1    0    0  501    0  0.00000000000E+00  0.00000000000E+00 -0.56939273201E+03  0.56939273203E+03  0.50400001928E-02 0.  1.
    10030    2    1    2    0    0  0.00000000000E+00  0.00000000000E+00 -0.41463812206E+03  0.72414734205E+03  0.59368729205E+03 0.  0.
        1    1    3    3  502    0  0.26506124844E+03  0.52417679906E+02 -0.35725882376E+03  0.44792738895E+03  0.50400001928E-02 0.  1.
       -1    1    3    3    0  502 -0.26506124844E+03 -0.52417679906E+02 -0.57379298304E+02  0.27621995310E+03  0.50400001928E-02 0. -1.
</event>
<event>
 5   0  0.8817544E-02  0.6047303E+03  0.7818609E-02  0.9895640E-01
        2   -1    0    0  501    0  0.00000000000E+00  0.00000000000E+00  0.27008830861E+03  0.27008830862E+03  0.25500000920E-02 0.  1.
       -2   -1    0    0    0  501  0.00000000000E+00  0.00000000000E+00 -0.33849924058E+03  0.33849924059E+03  0.25500000920E-02 0. -1.
    10030    2    1    2    0    0  0.00000000000E+00  0.00000000000E+00 -0.68410931969E+02  0.60858754921E+03  0.60473031133E+03 0.  0.
        5    1    3    3  502    0 -0.68422821900E+02  0.17766429058E+03  0.20214635122E+03  0.27772562002E+03  0.46999998093E+01 0.  1.
       -5    1    3    3    0  502  0.68422821900E+02 -0.17766429058E+03 -0.27055728319E+03  0.33086192919E+03  0.46999998093E+01 0. -1.
</event>
<event>
 5   0  0.8817544E-02  0.5917719E+03  0.7818609E-02  0.9922625E-01
       -2   -1    0    0    0  501  0.00000000000E+00  0.00000000000E+00  0.11470202131E+03  0.11470202134E+03  0.25500000920E-02 0.  1.
        2   -1    0    0  501    0  0.00000000000E+00  0.00000000000E+00 -0.76326893238E+03  0.76326893238E+03  0.25500000920E-02 0. -1.
    10030    2    1    2    0    0  0.00000000000E+00  0.00000000000E+00 -0.64856691107E+03  0.87797095372E+03  0.59177187956E+03 0.  0.
        5    1    3    3  502    0 -0.18388176903E+03 -0.17447985873E+03 -0.55060729312E+03  0.60617341357E+03  0.46999998093E+01 0. -1.
       -5    1    3    3    0  502  0.18388176903E+03  0.17447985873E+03 -0.97959617953E+02  0.27179754015E+03  0.46999998093E+01 0.  1.
</event>
<event>
 5   0  0.3437375E-02  0.6075322E+03  0.7818609E-02  0.9889901E-01
       -3   -1    0    0    0  501  0.00000000000E+00  0.00000000000E+00  0.20044661760E+04  0.20044661786E+04  0.10100000352E+00 0.  1.
        3   -1    0    0  501    0  0.00000000000E+00  0.00000000000E+00 -0.46034068107E+02  0.46034178905E+02  0.10100000352E+00 0. -1.
    10030    2    1    2    0    0  0.00000000000E+00  0.00000000000E+00  0.19584321079E+04  0.20505003575E+04  0.60753221699E+03 0.  0.
        5    1    3    3  502    0  0.11065554647E+03 -0.97758881690E+02  0.18750592295E+04  0.18808696534E+04  0.46999998093E+01 0.  1.
       -5    1    3    3    0  502 -0.11065554647E+03  0.97758881690E+02  0.83372878414E+02  0.16963070408E+03  0.46999998093E+01 0. -1.
</event>
<event>
 5   0  0.8699746E-02  0.5933750E+03  0.7818609E-02  0.9919247E-01
        2   -1    0    0  501    0  0.00000000000E+00  0.00000000000E+00  0.19445920780E+04  0.19445920780E+04  0.25500000920E-02 0. -1.
       -2   -1    0    0    0  501  0.00000000000E+00  0.00000000000E+00 -0.45265776673E+02  0.45265776745E+02  0.25500000920E-02 0.  1.
    10030    2    1    2    0    0  0.00000000000E+00  0.00000000000E+00  0.18993263013E+04  0.19898578548E+04  0.59337499373E+03 0.  0.
        3    1    3    3  502    0  0.38657620748E+02 -0.29011692866E+02  0.19313008340E+04  0.19319055390E+04  0.10100000352E+00 0. -1.
       -3    1    3    3    0  502 -0.38657620748E+02  0.29011692866E+02 -0.31974532652E+02  0.57952315780E+02  0.10100000352E+00 0.  1.
</event>
<event>
 5   0  0.3437375E-02  0.5459826E+03  0.7818609E-02  0.1002428E+00
        4   -1    0    0  501    0  0.00000000000E+00  0.00000000000E+00  0.79394591293E+03  0.79394692868E+03  0.12699999809E+01 0.  1.
       -4   -1    0    0    0  501  0.00000000000E+00  0.00000000000E+00 -0.93860267019E+02  0.93868858653E+02  0.12699999809E+01 0. -1.
    10030    2    1    2    0    0  0.00000000000E+00  0.00000000000E+00  0.70008564591E+03  0.88781578733E+03  0.54598256439E+03 0.  0.
        1    1    3    3  502    0 -0.67706099581E+02  0.36666080221E+02 -0.75842435494E+02  0.10807678940E+03  0.50400001928E-02 0. -1.
       -1    1    3    3    0  502  0.67706099581E+02 -0.36666080221E+02  0.77592808140E+03  0.77973899793E+03  0.50400001928E-02 0.  1.
</event>
<event>
 5   0  0.5190380E-02  0.6024740E+03  0.7818609E-02  0.9900287E-01
        1   -1    0    0  501    0  0.00000000000E+00  0.00000000000E+00  0.11535509888E+04  0.11535509888E+04  0.50400001928E-02 0.  1.
       -1   -1    0    0    0  501  0.00000000000E+00  0.00000000000E+00 -0.78664685612E+02  0.78664685774E+02  0.50400001928E-02 0. -1.
    10030    2    1    2    0    0  0.00000000000E+00  0.00000000000E+00  0.10748863032E+04  0.12322156746E+04  0.60247398609E+03 0.  0.
        5    1    3    3  502    0 -0.22511698599E+02 -0.24107772908E+03  0.17102539629E+03  0.29647432301E+03  0.46999998093E+01 0. -1.
       -5    1    3    3    0  502  0.22511698599E+02  0.24107772908E+03  0.90386090692E+03  0.93574135160E+03  0.46999998093E+01 0.  1.
</event>
<event>
 5   0  0.8420604E-02  0.6408621E+03  0.7818609E-02  0.9824079E-01
       -2   -1    0    0    0  501  0.00000000000E+00  0.00000000000E+00  0.30723554987E+03  0.30723554988E+03  0.25500000920E-02 0. -1.
        2   -1    0    0  501    0  0.00000000000E+00  0.00000000000E+00 -0.33419327170E+03  0.33419327171E+03  0.25500000920E-02 0.  1.
    10030    2    1    2    0    0  0.00000000000E+00  0.00000000000E+00 -0.26957721827E+02  0.64142882159E+03  0.64086208688E+03 0.  0.
        2    1    3    3  502    0 -0.80422297004E+02 -0.30835687780E+03  0.20082025785E+02  0.31930392686E+03  0.25500000920E-02 0.  1.
       -2    1    3    3    0  502  0.80422297004E+02  0.30835687780E+03 -0.47039747612E+02  0.32212489473E+03  0.25500000920E-02 0. -1.
</event>
<event>
 5   0  0.8207443E-02  0.5988761E+03  0.7818609E-02  0.9907740E-01
       -2   -1    0    0    0  501  0.00000000000E+00  0.00000000000E+00  0.10060917395E+03  0.10060917398E+03  0.25500000920E-02 0.  1.
        2   -1    0    0  501    0  0.00000000000E+00  0.00000000000E+00 -0.89120257558E+03  0.89120257558E+03  0.25500000920E-02 0. -1.
    10030    2    1    2    0    0  0.00000000000E+00  0.00000000000E+00 -0.79059340163E+03  0.99181174957E+03  0.59887613066E+03 0.  0.
        1    1    3    3  502    0  0.48108412237E+02 -0.23130613507E+03 -0.90614382572E+02  0.25303737630E+03  0.50400001928E-02 0.  1.
       -1    1    3    3    0  502 -0.48108412237E+02  0.23130613507E+03 -0.69997901906E+03  0.73877437327E+03  0.50400001928E-02 0. -1.
</event>
<event>
 5   0  0.5166903E-02  0.5951601E+03  0.7818609E-02  0.9915499E-01
        1   -1    0    0  501    0  0.00000000000E+00  0.00000000000E+00  0.11136825035E+04  0.11136825035E+04  0.50400001928E-02 0. -1.
       -1   -1    0    0    0  501  0.00000000000E+00  0.00000000000E+00 -0.79514475333E+02  0.79514475493E+02  0.50400001928E-02 0.  1.
    10030    2    1    2    0    0  0.00000000000E+00  0.00000000000E+00  0.10341680282E+04  0.11931969790E+04  0.59516007950E+03 0.  0.
        2    1    3    3  502    0  0.18178658179E+03 -0.18343277657E+03  0.22066723271E+03  0.33968805166E+03  0.25500000920E-02 0.  1.
       -2    1    3    3    0  502 -0.18178658179E+03  0.18343277657E+03  0.81350079548E+03  0.85350892737E+03  0.25500000920E-02 0. -1.
</event>
<event>
 5   0  0.4987389E-02  0.6078507E+03  0.7818609E-02  0.9889251E-01
       -1   -1    0    0    0  501  0.00000000000E+00  0.00000000000E+00  0.24103992729E+03  0.24103992735E+03  0.50400001928E-02 0.  1.
        1   -1    0    0  501    0  0.00000000000E+00  0.00000000000E+00 -0.38321702287E+03  0.38321702290E+03  0.50400001928E-02 0. -1.
    10030    2    1    2    0    0  0.00000000000E+00  0.00000000000E+00 -0.14217709558E+03  0.62425695025E+03  0.60785065059E+03 0.  0.
        1    1    3    3  502    0  0.19475253718E+03  0.19251761069E+03  0.64299139317E+02  0.28129337089E+03  0.50400001928E-02 0. -1.
       -1    1    3    3    0  502 -0.19475253718E+03 -0.19251761069E+03 -0.20647623489E+03  0.34296357936E+03  0.50400001928E-02 0.  1.
</event>
<event>
 5   0  0.8420604E-02  0.6119023E+03  0.7818609E-02  0.9881016E-01
        2   -1    0    0  501    0  0.00000000000E+00  0.00000000000E+00  0.61986187781E+03  0.61986187781E+03  0.25500000920E-02 0.  1.
       -2   -1    0    0    0  501  0.00000000000E+00  0.00000000000E+00 -0.15101124079E+03  0.15101124081E+03  0.25500000920E-02 0. -1.
    10030    2    1    2    0    0  0.00000000000E+00  0.00000000000E+00  0.46885063702E+03  0.77087311862E+03  0.61190231670E+03 0.  0.
        2    1    3    3  502    0  0.16653214714E+03 -0.13925877889E+03 -0.37177676101E+02  0.22024564272E+03  0.25500000920E-02 0. -1.
       -2    1    3    3    0  502 -0.16653214714E+03  0.13925877889E+03  0.50602831312E+03  0.55062747590E+03  0.25500000920E-02 0.  1.
</event>
<event>
 5   0  0.4987389E-02  0.6088502E+03  0.7818609E-02  0.9887213E-01
        1   -1    0    0  501    0  0.00000000000E+00  0.00000000000E+00  0.58946747869E+03  0.58946747872E+03  0.50400001928E-02 0.  1.
       -1   -1    0    0    0  501  0.00000000000E+00  0.00000000000E+00 -0.15721757789E+03  0.15721757797E+03  0.50400001928E-02 0. -1.
    10030    2    1    2    0    0  0.00000000000E+00  0.00000000000E+00  0.43224990081E+03  0.74668505668E+03  0.60885022553E+03 0.  0.
        1    1    3    3  502    0  0.19221954327E+03 -0.88922598032E+02  0.48430566421E+03  0.52859016040E+03  0.50400001928E-02 0. -1.
       -1    1    3    3    0  502 -0.19221954327E+03  0.88922598032E+02 -0.52055763401E+02  0.21809489629E+03  0.50400001928E-02 0.  1.
</event>
<event>
 5   0  0.5125031E-02  0.5972778E+03  0.7818609E-02  0.9911070E-01
        1   -1    0    0  501    0  0.00000000000E+00  0.00000000000E+00  0.23895127712E+03  0.23895127717E+03  0.50400001928E-02 0.  1.
       -1   -1    0    0    0  501  0.00000000000E+00  0.00000000000E+00 -0.37323591456E+03  0.37323591460E+03  0.50400001928E-02 0. -1.
    10030    2    1    2    0    0  0.00000000000E+00  0.00000000000E+00 -0.13428463745E+03  0.61218719177E+03  0.59727781970E+03 0.  0.
        4    1    3    3  502    0  0.21487843215E+03 -0.16299014301E+03  0.64297078848E+02  0.27726206839E+03  0.12699999809E+01 0.  1.
       -4    1    3    3    0  502 -0.21487843215E+03  0.16299014301E+03 -0.19858171629E+03  0.33492512338E+03  0.12699999809E+01 0. -1.
</event>
<event>
 5   0  0.5166903E-02  0.5994236E+03  0.7818609E-02  0.9906603E-01
        1   -1    0    0  501    0  0.00000000000E+00  0.00000000000E+00  0.12447075689E+03  0.12447075700E+03  0.50400001928E-02 0. -1.
       -1   -1    0    0    0  501  0.00000000000E+00  0.00000000000E+00 -0.72167280999E+03  0.72167281001E+03  0.50400001928E-02 0.  1.
    10030    2    1    2    0    0  0.00000000000E+00  0.00000000000E+00 -0.59720205310E+03  0.84614356700E+03  0.59942359293E+03 0.  0.
        2    1    3    3  502    0 -0.96838789986E+02 -0.30732691701E+02  0.99421088620E+02  0.14215063297E+03  0.25500000920E-02 0. -1.
       -2    1    3    3    0  502  0.96838789986E+02  0.30732691701E+02 -0.69662314172E+03  0.70399293403E+03  0.25500000920E-02 0.  1.
</event>
<event>
 5   0  0.8575590E-02  0.6076190E+03  0.7818609E-02  0.9889724E-01
       -2   -1    0    0    0  501  0.00000000000E+00  0.00000000000E+00  0.30756681357E+03  0.30756681358E+03  0.25500000920E-02 0. -1.
        2   -1    0    0  501    0  0.00000000000E+00  0.00000000000E+00 -0.30009808042E+03  0.30009808043E+03  0.25500000920E-02 0.  1.
    10030    2    1    2    0    0  0.00000000000E+00  0.00000000000E+00  0.74687331507E+01  0.60766489401E+03  0.60761899364E+03 0.  0.
        4    1    3    3  502    0  0.26130621965E+03 -0.31855771649E+02  0.15541278400E+03  0.30569670745E+03  0.12699999809E+01 0. -1.
       -4    1    3    3    0  502 -0.26130621965E+03  0.31855771649E+02 -0.14794405085E+03  0.30196818656E+03  0.12699999809E+01 0.  1.
</event>
<event>
 5   0  0.3437375E-02  0.6042914E+03  0.7818609E-02  0.9896543E-01
        4   -1    0    0  501    0  0.00000000000E+00  0.00000000000E+00  0.11137376439E+04  0.11137383679E+04  0.12699999809E+01 0.  1.
       -4   -1    0    0    0  501  0.00000000000E+00  0.00000000000E+00 -0.81963380805E+02  0.81973219364E+02  0.12699999809E+01 0. -1.
    10030    2    1    2    0    0  0.00000000000E+00  0.00000000000E+00  0.10317742631E+04  0.11957115873E+04  0.60429137851E+03 0.  0.
        2    1    3    3  502    0  0.40402598710E+02 -0.24666696043E+03  0.18000276524E+03  0.30802265315E+03  0.25500000920E-02 0. -1.
       -2    1    3    3    0  502 -0.40402598710E+02  0.24666696043E+03  0.85177149781E+03  0.88768893417E+03  0.25500000920E-02 0.  1.
</event>
<event>
 5   0  0.8575590E-02  0.6011381E+03  0.7818609E-02  0.9903048E-01
       -2   -1    0    0    0  501  0.00000000000E+00  0.00000000000E+00  0.10051861187E+03  0.10051861190E+03  0.25500000920E-02 0. -1.
        2   -1    0    0  501    0  0.00000000000E+00  0.00000000000E+00 -0.89875648483E+03  0.89875648483E+03  0.25500000920E-02 0.  1.
    10030    2    1    2    0    0  0.00000000000E+00  0.00000000000E+00 -0.79823787296E+03  0.99927509673E+03  0.60113810153E+03 0.  0.
        4    1    3    3  502    0  0.78079179777E+02  0.15833834026E+03 -0.80348220353E+03  0.82264977518E+03  0.12699999809E+01 0.  1.
       -4    1    3    3    0  502 -0.78079179777E+02 -0.15833834026E+03  0.52443305698E+01  0.17662532155E+03  0.12699999809E+01 0. -1.
</event>
<event>
 5   0  0.8207443E-02  0.6008496E+03  0.7818609E-02  0.9903645E-01
       -2   -1    0    0    0  501  0.00000000000E+00  0.00000000000E+00  0.96408188789E+02  0.96408188822E+02  0.25500000920E-02 0.  1.
        2   -1    0    0  501    0  0.00000000000E+00  0.00000000000E+00 -0.93617618130E+03  0.93617618130E+03  0.25500000920E-02 0. -1.
    10030    2    1    2    0    0  0.00000000000E+00  0.00000000000E+00 -0.83976799251E+03  0.10325843701E+04  0.60084956535E+03 0.  0.
        1    1    3    3  502    0  0.17242018975E+03  0.11642002241E+03 -0.47421466942E+02  0.21338026854E+03  0.50400001928E-02 0.  1.
       -1    1    3    3    0  502 -0.17242018975E+03 -0.11642002241E+03 -0.79234652557E+03  0.81920410159E+03  0.50400001928E-02 0. -1.
</event>
<event>
 5   0  0.8817544E-02  0.6035672E+03  0.7818609E-02  0.9898033E-01
        2   -1    0    0  501    0  0.00000000000E+00  0.00000000000E+00  0.96708922254E+03  0.96708922254E+03  0.25500000920E-02 0. -1.
       -2   -1    0    0    0  501  0.00000000000E+00  0.00000000000E+00 -0.94172634433E+02  0.94172634467E+02  0.25500000920E-02 0.  1.
    10030    2    1    2    0    0  0.00000000000E+00  0.00000000000E+00  0.87291658811E+03  0.10612618570E+04  0.60356719539E+03 0.  0.
        5    1    3    3  502    0 -0.19021970345E+03 -0.59308932094E+02  0.38013782304E+02  0.20289953832E+03  0.46999998093E+01 0.  1.
       -5    1    3    3    0  502  0.19021970345E+03  0.59308932094E+02  0.83490280580E+03  0.85836231869E+03  0.46999998093E+01 0. -1.
</event>
<event>
 5   0  0.8699746E-02  0.5999073E+03  0.7818609E-02  0.9905598E-01
        2   -1    0    0  501    0  0.00000000000E+00  0.00000000000E+00  0.88647965144E+03  0.88647965144E+03  0.25500000920E-02 0. -1.
       -2   -1    0    0    0  501  0.00000000000E+00  0.00000000000E+00 -0.10149380617E+03  0.10149380620E+03  0.25500000920E-02 0.  1.
    10030    2    1    2    0    0  0.00000000000E+00  0.00000000000E+00  0.78498584526E+03  0.98797345764E+03  0.59990730595E+03 0.  0.
        3    1    3    3  502    0 -0.13320409176E+03  0.13128452853E+03  0.62898491892E+01  0.18713238602E+03  0.10100000352E+00 0.  1.
       -3    1    3    3    0  502  0.13320409176E+03 -0.13128452853E+03  0.77869599608E+03  0.80084107162E+03  0.10100000352E+00 0. -1.
</event>
<event>
 5   0  0.8575590E-02  0.5980576E+03  0.7818609E-02  0.9909444E-01
       -2   -1    0    0    0  501  0.00000000000E+00  0.00000000000E+00  0.19594498301E+03  0.19594498303E+03  0.25500000920E-02 0.  1.
        2   -1    0    0  501    0  0.00000000000E+00  0.00000000000E+00 -0.45634356386E+03  0.45634356387E+03  0.25500000920E-02 0. -1.
    10030    2    1    2    0    0  0.00000000000E+00  0.00000000000E+00 -0.26039858085E+03  0.65228854690E+03  0.59805762891E+03 0.  0.
        4    1    3    3  502    0  0.63718535502E+02  0.46876394024E+02  0.18432326371E+03  0.20058446233E+03  0.12699999809E+01 0.  1.
       -4    1    3    3    0  502 -0.63718535502E+02 -0.46876394024E+02 -0.44472184456E+03  0.45170408457E+03  0.12699999809E+01 0. -1.
</event>
<event>
 5   0  0.4987389E-02  0.5374533E+03  0.7818609E-02  0.1004440E+00
       -1   -1    0    0    0  501  0.00000000000E+00  0.00000000000E+00  0.45711919802E+03  0.45711919805E+03  0.50400001928E-02 0. -1.
        1   -1    0    0  501    0  0.00000000000E+00  0.00000000000E+00 -0.15797630207E+03  0.15797630215E+03  0.50400001928E-02 0.  1.
    10030    2    1    2    0    0  0.00000000000E+00  0.00000000000E+00  0.29914289595E+03  0.61509550020E+03  0.53745325579E+03 0.  0.
        1    1    3    3  502    0 -0.43558680924E+02  0.27503031465E+02 -0.15227240863E+03  0.16075030911E+03  0.50400001928E-02 0.  1.
       -1    1    3    3    0  502  0.43558680924E+02 -0.27503031465E+02  0.45141530458E+03  0.45434519108E+03  0.50400001928E-02 0. -1.
</event>
<event>
 5   0  0.5166903E-02  0.6023101E+03  0.7818609E-02  0.9900625E-01
       -1   -1    0    0    0  501  0.00000000000E+00  0.00000000000E+00  0.68378168941E+02  0.68378169126E+02  0.50400001928E-02 0.  1.
        1   -1    0    0  501    0  0.00000000000E+00  0.00000000000E+00 -0.13263644082E+04  0.13263644082E+04  0.50400001928E-02 0. -1.
    10030    2    1    2    0    0  0.00000000000E+00  0.00000000000E+00 -0.12579862393E+04  0.13947425774E+04  0.60231011852E+03 0.  0.
        2    1    3    3  502    0  0.47912033574E+01 -0.14047935973E+03 -0.12457445950E+04  0.12536494733E+04  0.25500000920E-02 0. -1.
       -2    1    3    3    0  502 -0.47912033574E+01  0.14047935973E+03 -0.12241644330E+02  0.14109310402E+03  0.25500000920E-02 0.  1.
</event>
<event>
 5   0  0.4881209E-02  0.5846590E+03  0.7818609E-02  0.9937755E-01
       -1   -1    0    0    0  501  0.00000000000E+00  0.00000000000E+00  0.83436184570E+02  0.83436184722E+02  0.50400001928E-02 0.  1.
        1   -1    0    0  501    0  0.00000000000E+00  0.00000000000E+00 -0.10242144443E+04  0.10242144444E+04  0.50400001928E-02 0. -1.
    10030    2    1    2    0    0  0.00000000000E+00  0.00000000000E+00 -0.94077825978E+03  0.11076506291E+04  0.58465903058E+03 0.  0.
        3    1    3    3  502    0 -0.77419203252E+02  0.32456427752E+02 -0.10008876215E+04  0.10044019085E+04  0.10100000352E+00 0. -1.
       -3    1    3    3    0  502  0.77419203252E+02 -0.32456427752E+02  0.60109361718E+02  0.10324872058E+03  0.10100000352E+00 0.  1.
</event>
<event>
 5   0  0.8575590E-02  0.6002615E+03  0.7818609E-02  0.9904864E-01
        2   -1    0    0  501    0  0.00000000000E+00  0.00000000000E+00  0.28782491047E+03  0.28782491048E+03  0.25500000920E-02 0. -1.
       -2   -1    0    0    0  501  0.00000000000E+00  0.00000000000E+00 -0.31296273108E+03  0.31296273109E+03  0.25500000920E-02 0.  1.
    10030    2    1    2    0    0  0.00000000000E+00  0.00000000000E+00 -0.25137820616E+02  0.60078764157E+03  0.60026150988E+03 0.  0.
        4    1    3    3  502    0 -0.28695637418E+03 -0.84311643713E+02  0.12441854297E+02  0.29934733436E+03  0.12699999809E+01 0.  1.
       -4    1    3    3    0  502  0.28695637418E+03  0.84311643713E+02 -0.37579674913E+02  0.30144030721E+03  0.12699999809E+01 0. -1.
</event>
<event>
 5   0  0.5125031E-02  0.5749276E+03  0.7818609E-02  0.9958833E-01
       -1   -1    0    0    0  501  0.00000000000E+00  0.00000000000E+00  0.14581451119E+03  0.14581451128E+03  0.50400001928E-02 0.  1.
        1   -1    0    0  501    0  0.00000000000E+00  0.00000000000E+00 -0.56671613251E+03  0.56671613253E+03  0.50400001928E-02 0. -1.
    10030    2    1    2    0    0  0.00000000000E+00  0.00000000000E+00 -0.42090162132E+03  0.71253064381E+03  0.57492759853E+03 0.  0.
        4    1    3    3  502    0  0.80768055859E+01  0.25629417554E+03 -0.49423016756E+02  0.26114399608E+03  0.12699999809E+01 0.  1.
       -4    1    3    3    0  502 -0.80768055859E+01 -0.25629417554E+03 -0.37147860456E+03  0.45138664773E+03  0.12699999809E+01 0. -1.
</event>
<event>
 5   0  0.5190380E-02  0.5970002E+03  0.7818609E-02  0.9911649E-01
        1   -1    0    0  501    0  0.00000000000E+00  0.00000000000E+00  0.19024545359E+03  0.19024545366E+03  0.50400001928E-02 0. -1.
       -1   -1    0    0    0  501  0.00000000000E+00  0.00000000000E+00 -0.46835447052E+03  0.46835447055E+03  0.50400001928E-02 0.  1.
    10030    2    1    2    0    0  0.00000000000E+00  0.00000000000E+00 -0.27810901693E+03  0.65859992421E+03  0.59700019671E+03 0.  0.
        5    1    3    3  502    0  0.24233093775E+03  0.13146244187E+03 -0.26519199205E+03  0.38256442551E+03  0.46999998093E+01 0.  1.
       -5    1    3    3    0  502 -0.24233093775E+03 -0.13146244187E+03 -0.12917024875E+02  0.27603549870E+03  0.46999998093E+01 0. -1.
</event>
<event>
 5   0  0.4987389E-02  0.6050057E+03  0.7818609E-02  0.9895075E-01
       -1   -1    0    0    0  501  0.00000000000E+00  0.00000000000E+00  0.53636759333E+02  0.53636759570E+02  0.50400001928E-02 0. -1.
        1   -1    0    0  501    0  0.00000000000E+00  0.00000000000E+00 -0.17060680053E+04  0.17060680053E+04  0.50400001928E-02 0.  1.
    10030    2    1    2    0    0  0.00000000000E+00  0.00000000000E+00 -0.16524312460E+04  0.17597047649E+04  0.60500565029E+03 0.  0.
        1    1    3    3  502    0 -0.15784424975E+03 -0.82384613348E+02 -0.15375151082E+04  0.15477902763E+04  0.50400001928E-02 0.  1.
       -1    1    3    3    0  502  0.15784424975E+03  0.82384613348E+02 -0.11491613780E+03  0.21191448853E+03  0.50400001928E-02 0. -1.
</event>
<event>
 5   0  0.5166903E-02  0.6005669E+03  0.7818609E-02  0.9904231E-01
       -1   -1    0    0    0  501  0.00000000000E+00  0.00000000000E+00  0.19948594137E+03  0.19948594143E+03  0.50400001928E-02 0.  1.
        1   -1    0    0  501    0  0.00000000000E+00  0.00000000000E+00 -0.45201257621E+03  0.45201257624E+03  0.50400001928E-02 0. -1.
    10030    2    1    2    0    0  0.00000000000E+00  0.00000000000E+00 -0.25252663484E+03  0.65149851767E+03  0.60056691320E+03 0.  0.
        2    1    3    3  502    0  0.25436134205E+03 -0.34380434678E+01  0.46825752941E+02  0.25865839174E+03  0.25500000920E-02 0.  1.
       -2    1    3    3    0  502 -0.25436134205E+03  0.34380434678E+01 -0.29935238778E+03  0.39284012594E+03  0.25500000920E-02 0. -1.
</event>
<event>
 5   0  0.8817544E-02  0.5128531E+03  0.7818609E-02  0.1010477E+00
       -2   -1    0    0    0  501  0.00000000000E+00  0.00000000000E+00  0.14607696420E+03  0.14607696422E+03  0.25500000920E-02 0. -1.
        2   -1    0    0  501    0  0.00000000000E+00  0.00000000000E+00 -0.45013654699E+03  0.45013654700E+03  0.25500000920E-02 0.  1.
    10030    2    1    2    0    0  0.00000000000E+00  0.00000000000E+00 -0.30405958279E+03  0.59621351123E+03  0.51285311843E+03 0.  0.
        5    1    3    3  502    0  0.34686885213E+02 -0.19225283572E+03 -0.34505440115E+03  0.39654629314E+03  0.46999998093E+01 0.  1.
       -5    1    3    3    0  502 -0.34686885213E+02  0.19225283572E+03  0.40994818358E+02  0.19966721809E+03  0.46999998093E+01 0. -1.
</event>
<event>
 5   0  0.8575590E-02  0.6028810E+03  0.7818609E-02  0.9899447E-01
       -2   -1    0    0    0  501  0.00000000000E+00  0.00000000000E+00  0.14944056917E+03  0.14944056919E+03  0.25500000920E-02 0. -1.
        2   -1    0    0  501    0  0.00000000000E+00  0.00000000000E+00 -0.60804348769E+03  0.60804348770E+03  0.25500000920E-02 0.  1.
    10030    2    1    2    0    0  0.00000000000E+00  0.00000000000E+00 -0.45860291852E+03  0.75748405689E+03  0.60288096633E+03 0.  0.
        4    1    3    3  502    0 -0.26756235133E+03 -0.84015931854E+01 -0.40341960333E+03  0.48415822607E+03  0.12699999809E+01 0.  1.
       -4    1    3    3    0  502  0.26756235133E+03  0.84015931854E+01 -0.55183315188E+02  0.27332583082E+03  0.12699999809E+01 0. -1.
</event>
<event>
 5   0  0.4881209E-02  0.6004445E+03  0.7818609E-02  0.9904484E-01
        1   -1    0    0  501    0  0.00000000000E+00  0.00000000000E+00  0.84518282507E+03  0.84518282508E+03  0.50400001928E-02 0.  1.
       -1   -1    0    0    0  501  0.00000000000E+00  0.00000000000E+00 -0.10664368507E+03  0.10664368519E+03  0.50400001928E-02 0. -1.
    10030    2    1    2    0    0  0.00000000000E+00  0.00000000000E+00  0.73853914000E+03  0.95182651027E+03  0.60044453894E+03 0.  0.
        3    1    3    3  502    0  0.16861177243E+03  0.18289228686E+03  0.10281451449E+03  0.26916603238E+03  0.10100000352E+00 0. -1.
       -3    1    3    3    0  502 -0.16861177243E+03 -0.18289228686E+03  0.63572462551E+03  0.68266047789E+03  0.10100000352E+00 0.  1.
</event>
<event>
 5   0  0.3437375E-02  0.5932700E+03  0.7818609E-02  0.9919468E-01
       -4   -1    0    0    0  501  0.00000000000E+00  0.00000000000E+00  0.15409259016E+03  0.15409782362E+03  0.12699999809E+01 0. -1.
        4   -1    0    0  501    0  0.00000000000E+00  0.00000000000E+00 -0.57101974430E+03  0.57102115660E+03  0.12699999809E+01 0.  1.
    10030    2    1    2    0    0  0.00000000000E+00  0.00000000000E+00 -0.41692715414E+03  0.72511898021E+03  0.59326999217E+03 0.  0.
        3    1    3    3  502    0 -0.20986218305E+03  0.80954840185E+02 -0.44482266427E+03  0.49846066532E+03  0.10100000352E+00 0.  1.
       -3    1    3    3    0  502  0.20986218305E+03 -0.80954840185E+02  0.27895510126E+02  0.22665831489E+03  0.10100000352E+00 0. -1.
</event>
<event>
 5   0  0.8575590E-02  0.6150307E+03  0.7818609E-02  0.9874704E-01
        2   -1    0    0  501    0  0.00000000000E+00  0.00000000000E+00  0.11792364625E+04  0.11792364625E+04  0.25500000920E-02 0. -1.
       -2   -1    0    0    0  501  0.00000000000E+00  0.00000000000E+00 -0.80192309852E+02  0.80192309893E+02  0.25500000920E-02 0.  1.
    10030    2    1    2    0    0  0.00000000000E+00  0.00000000000E+00  0.10990441527E+04  0.12594287724E+04  0.61503071734E+03 0.  0.
        4    1    3    3  502    0  0.27539897999E+03  0.81145089905E+02  0.77509967169E+03  0.82656532576E+03  0.12699999809E+01 0.  1.
       -4    1    3    3    0  502 -0.27539897999E+03 -0.81145089905E+02  0.32394448098E+03  0.43286344666E+03  0.12699999809E+01 0. -1.
</event>
<event>
 5   0  0.5125031E-02  0.5987971E+03  0.7818609E-02  0.9907905E-01
       -1   -1    0    0    0  501  0.00000000000E+00  0.00000000000E+00  0.86240560159E+02  0.86240560306E+02  0.50400001928E-02 0.  1.
        1   -1    0    0  501    0  0.00000000000E+00  0.00000000000E+00 -0.10394121856E+04  0.10394121856E+04  0.50400001928E-02 0. -1.
    10030    2    1    2    0    0  0.00000000000E+00  0.00000000000E+00 -0.95317162544E+03  0.11256527459E+04  0.59879709155E+03 0.  0.
        4    1    3    3  502    0  0.25137858951E+03  0.16257581999E+03 -0.46911736064E+03  0.55650229421E+03  0.12699999809E+01 0. -1.
       -4    1    3    3    0  502 -0.25137858951E+03 -0.16257581999E+03 -0.48405426480E+03  0.56915045171E+03  0.12699999809E+01 0.  1.
</event>
<event>
 5   0  0.8207443E-02  0.6254551E+03  0.7818609E-02  0.9853958E-01
        2   -1    0    0  501    0  0.00000000000E+00  0.00000000000E+00  0.39964500791E+03  0.39964500792E+03  0.25500000920E-02 0. -1.
       -2   -1    0    0    0  501  0.00000000000E+00  0.00000000000E+00 -0.24471351205E+03  0.24471351206E+03  0.25500000920E-02 0.  1.
    10030    2    1    2    0    0  0.00000000000E+00  0.00000000000E+00  0.15493149586E+03  0.64435851998E+03  0.62545514137E+03 0.  0.
        1    1    3    3  502    0 -0.78905327024E+02  0.11099850049E+03  0.36749113756E+03  0.39191383486E+03  0.50400001928E-02 0. -1.
       -1    1    3    3    0  502  0.78905327024E+02 -0.11099850049E+03 -0.21255964170E+03  0.25244468513E+03  0.50400001928E-02 0.  1.
</event>
<event>
 5   0  0.5125031E-02  0.6006727E+03  0.7818609E-02  0.9904011E-01
        1   -1    0    0  501    0  0.00000000000E+00  0.00000000000E+00  0.43396576193E+03  0.43396576196E+03  0.50400001928E-02 0.  1.
       -1   -1    0    0    0  501  0.00000000000E+00  0.00000000000E+00 -0.20785490006E+03  0.20785490012E+03  0.50400001928E-02 0. -1.
    10030    2    1    2    0    0  0.00000000000E+00  0.00000000000E+00  0.22611086187E+03  0.64182066208E+03  0.60067265662E+03 0.  0.
        4    1    3    3  502    0 -0.12122589113E+03 -0.23356864946E+03 -0.41601934394E+02  0.26642515748E+03  0.12699999809E+01 0. -1.
       -4    1    3    3    0  502  0.12122589113E+03  0.23356864946E+03  0.26771279626E+03  0.37539550460E+03  0.12699999809E+01 0.  1.
</event>
<event>
 5   0  0.4987389E-02  0.5895704E+03  0.7818609E-02  0.9927284E-01
       -1   -1    0    0    0  501  0.00000000000E+00  0.00000000000E+00  0.39512214742E+03  0.39512214745E+03  0.50400001928E-02 0.  1.
        1   -1    0    0  501    0  0.00000000000E+00  0.00000000000E+00 -0.21992771888E+03  0.21992771894E+03  0.50400001928E-02 0. -1.
    10030    2    1    2    0    0  0.00000000000E+00  0.00000000000E+00  0.17519442853E+03  0.61504986639E+03  0.58957039474E+03 0.  0.
        1    1    3    3  502    0  0.59283019428E+02 -0.25703245864E+02 -0.21244908175E+03  0.22205797802E+03  0.50400001928E-02 0. -1.
       -1    1    3    3    0  502 -0.59283019428E+02  0.25703245864E+02  0.38764351028E+03  0.39299188837E+03  0.50400001928E-02 0.  1.
</event>
<event>
 5   0  0.8699746E-02  0.6024480E+03  0.7818609E-02  0.9900340E-01
       -2   -1    0    0    0  501  0.00000000000E+00  0.00000000000E+00  0.34559171418E+03  0.34559171419E+03  0.25500000920E-02 0.  1.
        2   -1    0    0  501    0  0.00000000000E+00  0.00000000000E+00 -0.26255233682E+03  0.26255233683E+03  0.25500000920E-02 0. -1.
    10030    2    1    2    0    0  0.00000000000E+00  0.00000000000E+00  0.83039377354E+02  0.60814405102E+03  0.60244804639E+03 0.  0.
        3    1    3    3  502    0  0.80372656632E+02 -0.56134247181E+02  0.32903729420E+03  0.34333128144E+03  0.10100000352E+00 0.  1.
       -3    1    3    3    0  502 -0.80372656632E+02  0.56134247181E+02 -0.24599791684E+03  0.26481276958E+03  0.10100000352E+00 0. -1.
</event>
<event>
 5   0  0.5190380E-02  0.6051247E+03  0.7818609E-02  0.9894831E-01
        1   -1    0    0  501    0  0.00000000000E+00  0.00000000000E+00  0.86543945235E+03  0.86543945237E+03  0.50400001928E-02 0. -1.
       -1   -1    0    0    0  501  0.00000000000E+00  0.00000000000E+00 -0.10577744404E+03  0.10577744416E+03  0.50400001928E-02 0.  1.
    10030    2    1    2    0    0  0.00000000000E+00  0.00000000000E+00  0.75966200831E+03  0.97121689652E+03  0.60512469229E+03 0.  0.
        5    1    3    3  502    0 -0.15075923492E+03  0.20308136709E+03  0.64623696454E+03  0.69398464890E+03  0.46999998093E+01 0.  1.
       -5    1    3    3    0  502  0.15075923492E+03 -0.20308136709E+03  0.11342504378E+03  0.27723224763E+03  0.46999998093E+01 0. -1.
</event>
<event>
 5   0  0.8699746E-02  0.6116573E+03  0.7818609E-02  0.9881512E-01
       -2   -1    0    0    0  501  0.00000000000E+00  0.00000000000E+00  0.79768950862E+02  0.79768950903E+02  0.25500000920E-02 0.  1.
        2   -1    0    0  501    0  0.00000000000E+00  0.00000000000E+00 -0.11725261121E+04  0.11725261121E+04  0.25500000920E-02 0. -1.
    10030    2    1    2    0    0  0.00000000000E+00  0.00000000000E+00 -0.10927571612E+04  0.12522950630E+04  0.61165734803E+03 0.  0.
        3    1    3    3  502    0 -0.28146495360E+03 -0.63582418104E+02 -0.75382096042E+03  0.80716249576E+03  0.10100000352E+00 0. -1.
       -3    1    3    3    0  502  0.28146495360E+03  0.63582418104E+02 -0.33893620083E+03  0.44513256726E+03  0.10100000352E+00 0.  1.
</event>
<event>
 5   0  0.8575590E-02  0.6662870E+03  0.7818609E-02  0.9776689E-01
       -2   -1    0    0    0  501  0.00000000000E+00  0.00000000000E+00  0.13739295510E+03  0.13739295512E+03  0.25500000920E-02 0.  1.
        2   -1    0    0  501    0  0.00000000000E+00  0.00000000000E+00 -0.80778953756E+03  0.80778953757E+03  0.25500000920E-02 0. -1.
    10030    2    1    2    0    0  0.00000000000E+00  0.00000000000E+00 -0.67039658247E+03  0.94518249269E+03  0.66628700025E+03 0.  0.
        4    1    3    3  502    0  0.75750362557E+02  0.13614231832E+03 -0.75292211878E+03  0.76887331734E+03  0.12699999809E+01 0. -1.
       -4    1    3    3    0  502 -0.75750362557E+02 -0.13614231832E+03  0.82525536316E+02  0.17630917534E+03  0.12699999809E+01 0.  1.
</event>
<event>
 5   0  0.8699746E-02  0.5917356E+03  0.7818609E-02  0.9922702E-01
        2   -1    0    0  501    0  0.00000000000E+00  0.00000000000E+00  0.20065500505E+03  0.20065500507E+03  0.25500000920E-02 0.  1.
       -2   -1    0    0    0  501  0.00000000000E+00  0.00000000000E+00 -0.43626007714E+03  0.43626007715E+03  0.25500000920E-02 0. -1.
    10030    2    1    2    0    0  0.00000000000E+00  0.00000000000E+00 -0.23560507209E+03  0.63691508222E+03  0.59173564364E+03 0.  0.
        3    1    3    3  502    0  0.38110675346E+02 -0.24811817795E+03  0.50751043851E+02  0.25610687702E+03  0.10100000352E+00 0.  1.
       -3    1    3    3    0  502 -0.38110675346E+02  0.24811817795E+03 -0.28635611594E+03  0.38080820519E+03  0.10100000352E+00 0. -1.
</event>
<event>
 5   0  0.8207443E-02  0.6172251E+03  0.7818609E-02  0.9870300E-01
        2   -1    0    0  501    0  0.00000000000E+00  0.00000000000E+00  0.42615253599E+02  0.42615253675E+02  0.25500000920E-02 0. -1.
       -2   -1    0    0    0  501  0.00000000000E+00  0.00000000000E+00 -0.22349206614E+04  0.22349206614E+04  0.25500000920E-02 0.  1.
    10030    2    1    2    0    0  0.00000000000E+00  0.00000000000E+00 -0.21923054078E+04  0.22775359151E+04  0.61722511565E+03 0.  0.
        1    1    3    3  502    0 -0.21419700043E+03 -0.23393893025E+02 -0.19114090833E+04  0.19235156129E+04  0.50400001928E-02 0.  1.
       -1    1    3    3    0  502  0.21419700043E+03  0.23393893025E+02 -0.28089632448E+03  0.35402030218E+03  0.50400001928E-02 0. -1.
</event>
<event>
 5   0  0.3437375E-02  0.6006226E+03  0.7818609E-02  0.9904115E-01
        4   -1    0    0  501    0  0.00000000000E+00  0.00000000000E+00  0.74415846977E+03  0.74415955348E+03  0.12699999809E+01 0. -1.
       -4   -1    0    0    0  501  0.00000000000E+00  0.00000000000E+00 -0.12118862276E+03  0.12119527708E+03  0.12699999809E+01 0.  1.
    10030    2    1    2    0    0  0.00000000000E+00  0.00000000000E+00  0.62296984701E+03  0.86535483056E+03  0.60062263734E+03 0.  0.
        3    1    3    3  502    0 -0.18805240821E+03 -0.75293885566E+01  0.64865570455E+03  0.67540701297E+03  0.10100000352E+00 0. -1.
       -3    1    3    3    0  502  0.18805240821E+03  0.75293885566E+01 -0.25685857544E+02  0.18994781758E+03  0.10100000352E+00 0.  1.
</event>
<event>
 5   0  0.5125031E-02  0.5876756E+03  0.7818609E-02  0.9931310E-01
       -1   -1    0    0    0  501  0.00000000000E+00  0.00000000000E+00  0.26855264282E+03  0.26855264287E+03  0.50400001928E-02 0.  1.
        1   -1    0    0  501    0  0.00000000000E+00  0.00000000000E+00 -0.32150363762E+03  0.32150363766E+03  0.50400001928E-02 0. -1.
    10030    2    1    2    0    0  0.00000000000E+00  0.00000000000E+00 -0.52950994795E+02  0.59005628053E+03  0.58767559618E+03 0.  0.
        4    1    3    3  502    0 -0.99426995664E+02 -0.11507467127E+03  0.22596124208E+03  0.27237474784E+03  0.12699999809E+01 0.  1.
       -4    1    3    3    0  502  0.99426995664E+02  0.11507467127E+03 -0.27891223688E+03  0.31768153269E+03  0.12699999809E+01 0. -1.
</event>
<event>
 5   0  0.8817544E-02  0.5947918E+03  0.7818609E-02  0.9916271E-01
       -2   -1    0    0    0  501  0.00000000000E+00  0.00000000000E+00  0.16366926126E+03  0.16366926128E+03  0.25500000920E-02 0. -1.
        2   -1    0    0  501    0  0.00000000000E+00  0.00000000000E+00 -0.54038449945E+03  0.54038449946E+03  0.25500000920E-02 0.  1.
    10030    2    1    2    0    0  0.00000000000E+00  0.00000000000E+00 -0.37671523819E+03  0.70405376074E+03  0.59479183529E+03 0.  0.
        5    1    3    3  502    0 -0.12791943165E+02  0.25388447823E+03 -0.37097452434E+03  0.44973897963E+03  0.46999998093E+01 0.  1.
       -5    1    3    3    0  502  0.12791943165E+02 -0.25388447823E+03 -0.57407138474E+01  0.25431478110E+03  0.46999998093E+01 0. -1.
</event>
<event>
 5   0  0.4987389E-02  0.6059740E+03  0.7818609E-02  0.9893089E-01
       -1   -1    0    0    0  501  0.00000000000E+00  0.00000000000E+00  0.25303954777E+03  0.25303954782E+03  0.50400001928E-02 0. -1.
        1   -1    0    0  501    0  0.00000000000E+00  0.00000000000E+00 -0.36279359376E+03  0.36279359379E+03  0.50400001928E-02 0.  1.
    10030    2    1    2    0    0  0.00000000000E+00  0.00000000000E+00 -0.10975404599E+03  0.61583314161E+03  0.60597401569E+03 0.  0.
        1    1    3    3  502    0  0.59210946181E+02  0.95467150325E+02  0.23109275165E+03  0.25695091522E+03  0.50400001928E-02 0. -1.
       -1    1    3    3    0  502 -0.59210946181E+02 -0.95467150325E+02 -0.34084679764E+03  0.35888222640E+03  0.50400001928E-02 0.  1.
</event>
<event>
 5   0  0.3437375E-02  0.5991840E+03  0.7818609E-02  0.9907100E-01
       -3   -1    0    0    0  501  0.00000000000E+00  0.00000000000E+00  0.12680543832E+04  0.12680543872E+04  0.10100000352E+00 0. -1.
        3   -1    0    0  501    0  0.00000000000E+00  0.00000000000E+00 -0.70781910465E+02  0.70781982524E+02  0.10100000352E+00 0.  1.
    10030    2    1    2    0    0  0.00000000000E+00  0.00000000000E+00  0.11972724727E+04  0.13388363697E+04  0.59918398759E+03 0.  0.
        1    1    3    3  502    0  0.59208204668E+02  0.24248903749E+03  0.96883002348E+03  0.10004689696E+04  0.50400001928E-02 0. -1.
       -1    1    3    3    0  502 -0.59208204668E+02 -0.24248903749E+03  0.22844244926E+03  0.33836740010E+03  0.50400001928E-02 0.  1.
</event>
<event>
 5   0  0.5125031E-02  0.5279108E+03  0.7818609E-02  0.1006740E+00
        1   -1    0    0  501    0  0.00000000000E+00  0.00000000000E+00  0.32672047922E+03  0.32672047926E+03  0.50400001928E-02 0.  1.
       -1   -1    0    0    0  501  0.00000000000E+00  0.00000000000E+00 -0.21324787340E+03  0.21324787346E+03  0.50400001928E-02 0. -1.
    10030    2    1    2    0    0  0.00000000000E+00  0.00000000000E+00  0.11347260582E+03  0.53996835273E+03  0.52791077814E+03 0.  0.
        4    1    3    3  502    0  0.74576918779E+02  0.13449926423E+03  0.27615653804E+03  0.31609463029E+03  0.12699999809E+01 0.  1.
       -4    1    3    3    0  502 -0.74576918779E+02 -0.13449926423E+03 -0.16268393222E+03  0.22387372244E+03  0.12699999809E+01 0. -1.
</event>
<event>
 5   0  0.5190380E-02  0.5943285E+03  0.7818609E-02  0.9917243E-01
        1   -1    0    0  501    0  0.00000000000E+00  0.00000000000E+00  0.60800346881E+03  0.60800346883E+03  0.50400001928E-02 0.  1.
       -1   -1    0    0    0  501  0.00000000000E+00  0.00000000000E+00 -0.14524026057E+03  0.14524026066E+03  0.50400001928E-02 0. -1.
    10030    2    1    2    0    0  0.00000000000E+00  0.00000000000E+00  0.46276320824E+03  0.75324372949E+03  0.59432846905E+03 0.  0.
        5    1    3    3  502    0 -0.19258009686E+03 -0.17522188983E+02  0.51728992931E+03  0.55227265167E+03  0.46999998093E+01 0.  1.
       -5    1    3    3    0  502  0.19258009686E+03  0.17522188983E+02 -0.54526721073E+02  0.20097107783E+03  0.46999998093E+01 0. -1.
</event>
<event>
 5   0  0.8575590E-02  0.5974287E+03  0.7818609E-02  0.9910755E-01
        2   -1    0    0  501    0  0.00000000000E+00  0.00000000000E+00  0.99297719943E+03  0.99297719943E+03  0.25500000920E-02 0.  1.
       -2   -1    0    0    0  501  0.00000000000E+00  0.00000000000E+00 -0.89861354366E+02  0.89861354402E+02  0.25500000920E-02 0. -1.
    10030    2    1    2    0    0  0.00000000000E+00  0.00000000000E+00  0.90311584506E+03  0.10828385538E+04  0.59742874392E+03 0.  0.
        4    1    3    3  502    0  0.43286329844E+02  0.44292448054E+02  0.98120804535E+03  0.98316141527E+03  0.12699999809E+01 0.  1.
       -4    1    3    3    0  502 -0.43286329844E+02 -0.44292448054E+02 -0.78092200292E+02  0.99677138565E+02  0.12699999809E+01 0. -1.
</event>
<event>
 5   0  0.4987389E-02  0.5952565E+03  0.7818609E-02  0.9915297E-01
       -1   -1    0    0    0  501  0.00000000000E+00  0.00000000000E+00  0.52441423707E+03  0.52441423709E+03  0.50400001928E-02 0. -1.
        1   -1    0    0  501    0  0.00000000000E+00  0.00000000000E+00 -0.16891716328E+03  0.16891716336E+03  0.50400001928E-02 0.  1.
    10030    2    1    2    0    0  0.00000000000E+00  0.00000000000E+00  0.35549707379E+03  0.69333140045E+03  0.59525646689E+03 0.  0.
        1    1    3    3  502    0 -0.90341572014E+02 -0.74992138531E+02  0.49629974564E+03  0.50999888041E+03  0.50400001928E-02 0. -1.
       -1    1    3    3    0  502  0.90341572014E+02  0.74992138531E+02 -0.14080267185E+03  0.18333252003E+03  0.50400001928E-02 0.  1.
</event>
<event>
 5   0  0.8420604E-02  0.6173256E+03  0.7818609E-02  0.9870099E-01
        2   -1    0    0  501    0  0.00000000000E+00  0.00000000000E+00  0.20513796793E+03  0.20513796795E+03  0.25500000920E-02 0.  1.
       -2   -1    0    0    0  501  0.00000000000E+00  0.00000000000E+00 -0.46443245358E+03  0.46443245359E+03  0.25500000920E-02 0. -1.
    10030    2    1    2    0    0  0.00000000000E+00  0.00000000000E+00 -0.25929448565E+03  0.66957042154E+03  0.61732561838E+03 0.  0.
        2    1    3    3  502    0 -0.19118701603E+02 -0.30473292495E+03 -0.80597823586E+02  0.31579057850E+03  0.25500000920E-02 0. -1.
       -2    1    3    3    0  502  0.19118701603E+02  0.30473292495E+03 -0.17869666207E+03  0.35377984304E+03  0.25500000920E-02 0.  1.
</event>
<event>
 5   0  0.8817544E-02  0.5148551E+03  0.7818609E-02  0.1009973E+00
       -2   -1    0    0    0  501  0.00000000000E+00  0.00000000000E+00  0.10355971740E+03  0.10355971743E+03  0.25500000920E-02 0. -1.
        2   -1    0    0  501    0  0.00000000000E+00  0.00000000000E+00 -0.63991053577E+03  0.63991053578E+03  0.25500000920E-02 0.  1.
    10030    2    1    2    0    0  0.00000000000E+00  0.00000000000E+00 -0.53635081837E+03  0.74347025321E+03  0.51485514181E+03 0.  0.
        5    1    3    3  502    0 -0.17048149504E+02  0.44275213899E+02 -0.63347965572E+03  0.63527120049E+03  0.46999998093E+01 0.  1.
       -5    1    3    3    0  502  0.17048149504E+02 -0.44275213899E+02  0.97128837347E+02  0.10819905272E+03  0.46999998093E+01 0. -1.
</event>
<event>
 5   0  0.4881209E-02  0.5982401E+03  0.7818609E-02  0.9909064E-01
        1   -1    0    0  501    0  0.00000000000E+00  0.00000000000E+00  0.11539710283E+03  0.11539710294E+03  0.50400001928E-02 0.  1.
       -1   -1    0    0    0  501  0.00000000000E+00  0.00000000000E+00 -0.77534710980E+03  0.77534710982E+03  0.50400001928E-02 0. -1.
    10030    2    1    2    0    0  0.00000000000E+00  0.00000000000E+00 -0.65995000697E+03  0.89074421275E+03  0.59824011972E+03 0.  0.
        3    1    3    3  502    0 -0.77419589743E+02 -0.25534091467E+03 -0.53128524069E+03  0.59452232318E+03  0.10100000352E+00 0. -1.
       -3    1    3    3    0  502  0.77419589743E+02  0.25534091467E+03 -0.12866476628E+03  0.29622188957E+03  0.10100000352E+00 0.  1.
</event>
<event>
 5   0  0.5190380E-02  0.6068712E+03  0.7818609E-02  0.9891252E-01
        1   -1    0    0  501    0  0.00000000000E+00  0.00000000000E+00  0.49934387431E+03  0.49934387434E+03  0.50400001928E-02 0. -1.
       -1   -1    0    0    0  501  0.00000000000E+00  0.00000000000E+00 -0.18438827570E+03  0.18438827577E+03  0.50400001928E-02 0.  1.
    10030    2    1    2    0    0  0.00000000000E+00  0.00000000000E+00  0.31495559861E+03  0.68373215011E+03  0.60687117578E+03 0.  0.
        5    1    3    3  502    0  0.15096816865E+03 -0.19942694598E+03  0.35094901326E+03  0.43098700055E+03  0.46999998093E+01 0.  1.
       -5    1    3    3    0  502 -0.15096816865E+03  0.19942694598E+03 -0.35993414650E+02  0.25274514956E+03  0.46999998093E+01 0. -1.
</event>
<event>
 5   0  0.4881209E-02  0.5508343E+03  0.7818609E-02  0.1001301E+00
       -1   -1    0    0    0  501  0.00000000000E+00  0.00000000000E+00  0.36354745072E+03  0.36354745075E+03  0.50400001928E-02 0. -1.
        1   -1    0    0  501    0  0.00000000000E+00  0.00000000000E+00 -0.20865121772E+03  0.20865121778E+03  0.50400001928E-02 0.  1.
    10030    2    1    2    0    0  0.00000000000E+00  0.00000000000E+00  0.15489623299E+03  0.57219866853E+03  0.55083434286E+03 0.  0.
        3    1    3    3  502    0  0.70786942333E+02  0.18339786136E+03 -0.12292990037E+03  0.23185628601E+03  0.10100000352E+00 0.  1.
       -3    1    3    3    0  502 -0.70786942333E+02 -0.18339786136E+03  0.27782613337E+03  0.34034238252E+03  0.10100000352E+00 0. -1.
</event>
<event>
 5   0  0.8420604E-02  0.6023855E+03  0.7818609E-02  0.9900469E-01
       -2   -1    0    0    0  501  0.00000000000E+00  0.00000000000E+00  0.12946364590E+03  0.12946364593E+03  0.25500000920E-02 0. -1.
        2   -1    0    0  501    0  0.00000000000E+00  0.00000000000E+00 -0.70071463834E+03  0.70071463834E+03  0.25500000920E-02 0.  1.
    10030    2    1    2    0    0  0.00000000000E+00  0.00000000000E+00 -0.57125099244E+03  0.83017828427E+03  0.60238549726E+03 0.  0.
        2    1    3    3  502    0 -0.23201756871E+02 -0.27166524175E+03 -0.10926119671E+03  0.29373173851E+03  0.25500000920E-02 0. -1.
       -2    1    3    3    0  502  0.23201756871E+02  0.27166524175E+03 -0.46198979572E+03  0.53644654576E+03  0.25500000920E-02 0.  1.
</event>
<event>
 5   0  0.5125031E-02  0.5969691E+03  0.7818609E-02  0.9911714E-01
       -1   -1    0    0    0  501  0.00000000000E+00  0.00000000000E+00  0.14913584003E+03  0.14913584011E+03  0.50400001928E-02 0. -1.
        1   -1    0    0  501    0  0.00000000000E+00  0.00000000000E+00 -0.59739510507E+03  0.59739510509E+03  0.50400001928E-02 0.  1.
    10030    2    1    2    0    0  0.00000000000E+00  0.00000000000E+00 -0.44825926504E+03  0.74653094520E+03  0.59696908082E+03 0.  0.
        4    1    3    3  502    0 -0.47960434070E+02  0.12180430834E+03  0.11131914199E+03  0.17184311752E+03  0.12699999809E+01 0. -1.
       -4    1    3    3    0  502  0.47960434070E+02 -0.12180430834E+03 -0.55957840703E+03  0.57468782768E+03  0.12699999809E+01 0.  1.
</event>
<event>
 5   0  0.8699746E-02  0.6091915E+03  0.7818609E-02  0.9886518E-01
        2   -1    0    0  501    0  0.00000000000E+00  0.00000000000E+00  0.16523508451E+04  0.16523508451E+04  0.25500000920E-02 0.  1.
       -2   -1    0    0    0  501  0.00000000000E+00  0.00000000000E+00 -0.56149437960E+02  0.56149438018E+02  0.25500000920E-02 0. -1.
    10030    2    1    2    0    0  0.00000000000E+00  0.00000000000E+00  0.15962014072E+04  0.17085002832E+04  0.60919150131E+03 0.  0.
        3    1    3    3  502    0 -0.78705661185E+02  0.25786907687E+03  0.40061238355E+03  0.48288853161E+03  0.10100000352E+00 0. -1.
       -3    1    3    3    0  502  0.78705661185E+02 -0.25786907687E+03  0.11955890236E+04  0.12256117515E+04  0.10100000352E+00 0.  1.
</event>
<event>
 5   0  0.8817544E-02  0.5680361E+03  0.7818609E-02  0.9974034E-01
       -2   -1    0    0    0  501  0.00000000000E+00  0.00000000000E+00  0.13233064283E+03  0.13233064285E+03  0.25500000920E-02 0.  1.
        2   -1    0    0  501    0  0.00000000000E+00  0.00000000000E+00 -0.60958100407E+03  0.60958100407E+03  0.25500000920E-02 0. -1.
    10030    2    1    2    0    0  0.00000000000E+00  0.00000000000E+00 -0.47725036124E+03  0.74191164693E+03  0.56803607680E+03 0.  0.
        5    1    3    3  502    0  0.20711408166E+02 -0.21527278734E+03 -0.47900718467E+03  0.52558663259E+03  0.46999998093E+01 0. -1.
       -5    1    3    3    0  502 -0.20711408166E+02  0.21527278734E+03  0.17568234303E+01  0.21632501433E+03  0.46999998093E+01 0.  1.
</event>
<event>
 5   0  0.8207443E-02  0.5897764E+03  0.7818609E-02  0.9926847E-01
       -2   -1    0    0    0  501  0.00000000000E+00  0.00000000000E+00  0.89298663235E+02  0.89298663272E+02  0.25500000920E-02 0.  1.
        2   -1    0    0  501    0  0.00000000000E+00  0.00000000000E+00 -0.97380022501E+03  0.97380022501E+03  0.25500000920E-02 0. -1.
    10030    2    1    2    0    0  0.00000000000E+00  0.00000000000E+00 -0.88450156177E+03  0.10630988883E+04  0.58977642670E+03 0.  0.
        1    1    3    3  502    0 -0.13791315922E+03  0.35873349897E+02  0.23113711450E+02  0.14436474778E+03  0.50400001928E-02 0.  1.
       -1    1    3    3    0  502  0.13791315922E+03 -0.35873349897E+02 -0.90761527322E+03  0.91873414051E+03  0.50400001928E-02 0. -1.
</event>
<event>
 5   0  0.5125031E-02  0.5971590E+03  0.7818609E-02  0.9911318E-01
        1   -1    0    0  501    0  0.00000000000E+00  0.00000000000E+00  0.39701042886E+03  0.39701042889E+03  0.50400001928E-02 0.  1.
       -1   -1    0    0    0  501  0.00000000000E+00  0.00000000000E+00 -0.22455255353E+03  0.22455255359E+03  0.50400001928E-02 0. -1.
    10030    2    1    2    0    0  0.00000000000E+00  0.00000000000E+00  0.17245787532E+03  0.62156298248E+03  0.59715895909E+03 0.  0.
        4    1    3    3  502    0 -0.61010425394E+02  0.24436824917E+03  0.25312498633E+03  0.35708820313E+03  0.12699999809E+01 0.  1.
       -4    1    3    3    0  502  0.61010425394E+02 -0.24436824917E+03 -0.80667111007E+02  0.26447477934E+03  0.12699999809E+01 0. -1.
</event>
<event>
 5   0  0.8207443E-02  0.5962408E+03  0.7818609E-02  0.9913236E-01
       -2   -1    0    0    0  501  0.00000000000E+00  0.00000000000E+00  0.83442266371E+02  0.83442266410E+02  0.25500000920E-02 0. -1.
        2   -1    0    0  501    0  0.00000000000E+00  0.00000000000E+00 -0.10651169076E+04  0.10651169076E+04  0.25500000920E-02 0.  1.
    10030    2    1    2    0    0  0.00000000000E+00  0.00000000000E+00 -0.98167464127E+03  0.11485591741E+04  0.59624078608E+03 0.  0.
        1    1    3    3  502    0  0.21744597740E+03 -0.11616050581E+03 -0.16792624461E+03  0.29828717682E+03  0.50400001928E-02 0. -1.
       -1    1    3    3    0  502 -0.21744597740E+03  0.11616050581E+03 -0.81374839665E+03  0.85027199723E+03  0.50400001928E-02 0.  1.
</event>
<event>
 5   0  0.5125031E-02  0.5998369E+03  0.7818609E-02  0.9905745E-01
       -1   -1    0    0    0  501  0.00000000000E+00  0.00000000000E+00  0.32771475730E+02  0.32771476118E+02  0.50400001928E-02 0. -1.
        1   -1    0    0  501    0  0.00000000000E+00  0.00000000000E+00 -0.27447974007E+04  0.27447974007E+04  0.50400001928E-02 0.  1.
    10030    2    1    2    0    0  0.00000000000E+00  0.00000000000E+00 -0.27120259249E+04  0.27775688768E+04  0.59983685097E+03 0.  0.
        4    1    3    3  502    0  0.15941939596E+02 -0.29566871527E+03 -0.11351349919E+04  0.11731185777E+04  0.12699999809E+01 0.  1.
       -4    1    3    3    0  502 -0.15941939596E+02  0.29566871527E+03 -0.15768909330E+04  0.16044502990E+04  0.12699999809E+01 0. -1.
</event>
<event>
 5   0  0.8575590E-02  0.6026723E+03  0.7818609E-02  0.9899877E-01
       -2   -1    0    0    0  501  0.00000000000E+00  0.00000000000E+00  0.78229780292E+02  0.78229780333E+02  0.25500000920E-02 0.  1.
        2   -1    0    0  501    0  0.00000000000E+00  0.00000000000E+00 -0.11607279138E+04  0.11607279138E+04  0.25500000920E-02 0. -1.
    10030    2    1    2    0    0  0.00000000000E+00  0.00000000000E+00 -0.10824981335E+04  0.12389576941E+04  0.60267234780E+03 0.  0.
        4    1    3    3  502    0 -0.31124075509E+02 -0.53285350140E+02 -0.11475935952E+04  0.11492522392E+04  0.12699999809E+01 0. -1.
       -4    1    3    3    0  502  0.31124075509E+02  0.53285350140E+02  0.65095461693E+02  0.89705454955E+02  0.12699999809E+01 0.  1.
</event>
<event>
 5   0  0.4987389E-02  0.5928350E+03  0.7818609E-02  0.9920384E-01
        1   -1    0    0  501    0  0.00000000000E+00  0.00000000000E+00  0.13309773975E+03  0.13309773985E+03  0.50400001928E-02 0.  1.
       -1   -1    0    0    0  501  0.00000000000E+00  0.00000000000E+00 -0.66014138621E+03  0.66014138622E+03  0.50400001928E-02 0. -1.
    10030    2    1    2    0    0  0.00000000000E+00  0.00000000000E+00 -0.52704364645E+03  0.79323912607E+03  0.59283497355E+03 0.  0.
        1    1    3    3  502    0 -0.23425419806E+03  0.12037139936E+03 -0.81533002297E+02  0.27570261801E+03  0.50400001928E-02 0.  1.
       -1    1    3    3    0  502  0.23425419806E+03 -0.12037139936E+03 -0.44551064416E+03  0.51753650806E+03  0.50400001928E-02 0. -1.
</event>
<event>
 5   0  0.8817544E-02  0.5911906E+03  0.7818609E-02  0.9923853E-01
       -2   -1    0    0    0  501  0.00000000000E+00  0.00000000000E+00  0.57168041343E+03  0.57168041344E+03  0.25500000920E-02 0.  1.
        2   -1    0    0  501    0  0.00000000000E+00  0.00000000000E+00 -0.15284165016E+03  0.15284165018E+03  0.25500000920E-02 0. -1.
    10030    2    1    2    0    0  0.00000000000E+00  0.00000000000E+00  0.41883876327E+03  0.72452206361E+03  0.59119058775E+03 0.  0.
        5    1    3    3  502    0  0.91385636085E+02  0.20953891534E+03  0.43901130381E+03  0.49498576384E+03  0.46999998093E+01 0.  1.
       -5    1    3    3    0  502 -0.91385636085E+02 -0.20953891534E+03 -0.20172540542E+02  0.22953629978E+03  0.46999998093E+01 0. -1.
</event>
<event>
 5   0  0.8817544E-02  0.5961258E+03  0.7818609E-02  0.9913477E-01
       -2   -1    0    0    0  501  0.00000000000E+00  0.00000000000E+00  0.58830707464E+02  0.58830707519E+02  0.25500000920E-02 0.  1.
        2   -1    0    0  501    0  0.00000000000E+00  0.00000000000E+00 -0.15101210835E+04  0.15101210835E+04  0.25500000920E-02 0. -1.
    10030    2    1    2    0    0  0.00000000000E+00  0.00000000000E+00 -0.14512903761E+04  0.15689517911E+04  0.59612579795E+03 0.  0.
        5    1    3    3  502    0  0.66210063447E+02 -0.20010378343E+03 -0.17110332712E+03  0.27152115055E+03  0.46999998093E+01 0.  1.
       -5    1    3    3    0  502 -0.66210063447E+02  0.20010378343E+03 -0.12801870489E+04  0.12974306405E+04  0.46999998093E+01 0. -1.
</event>
<event>
 5   0  0.8420604E-02  0.5731046E+03  0.7818609E-02  0.9962832E-01
        2   -1    0    0  501    0  0.00000000000E+00  0.00000000000E+00  0.91095025385E+03  0.91095025385E+03  0.25500000920E-02 0. -1.
       -2   -1    0    0    0  501  0.00000000000E+00  0.00000000000E+00 -0.90139080482E+02  0.90139080518E+02  0.25500000920E-02 0.  1.
    10030    2    1    2    0    0  0.00000000000E+00  0.00000000000E+00  0.82081117336E+03  0.10010893344E+04  0.57310459173E+03 0.  0.
        2    1    3    3  502    0 -0.28488704390E+03 -0.84985165919E+01  0.46220486455E+03  0.54301582793E+03  0.25500000920E-02 0. -1.
       -2    1    3    3    0  502  0.28488704390E+03  0.84985165919E+01  0.35860630882E+03  0.45807350643E+03  0.25500000920E-02 0.  1.
</event>
<event>
 5   0  0.8420604E-02  0.5939057E+03  0.7818609E-02  0.9918131E-01
       -2   -1    0    0    0  501  0.00000000000E+00  0.00000000000E+00  0.26600017318E+03  0.26600017320E+03  0.25500000920E-02 0. -1.
        2   -1    0    0  501    0  0.00000000000E+00  0.00000000000E+00 -0.33150726131E+03  0.33150726132E+03  0.25500000920E-02 0.  1.
    10030    2    1    2    0    0  0.00000000000E+00  0.00000000000E+00 -0.65507088128E+02  0.59750743452E+03  0.59390567914E+03 0.  0.
        2    1    3    3  502    0  0.25471850893E+03  0.14930170734E+03 -0.64702553281E+02  0.30225641269E+03  0.25500000920E-02 0.  1.
       -2    1    3    3    0  502 -0.25471850893E+03 -0.14930170734E+03 -0.80453484726E+00  0.29525102183E+03  0.25500000920E-02 0. -1.
</event>
<event>
 5   0  0.8207443E-02  0.6005531E+03  0.7818609E-02  0.9904259E-01
       -2   -1    0    0    0  501  0.00000000000E+00  0.00000000000E+00  0.25545108807E+03  0.25545108809E+03  0.25500000920E-02 0.  1.
        2   -1    0    0  501    0  0.00000000000E+00  0.00000000000E+00 -0.35296778508E+03  0.35296778509E+03  0.25500000920E-02 0. -1.
    10030    2    1    2    0    0  0.00000000000E+00  0.00000000000E+00 -0.97516697010E+02  0.60841887318E+03  0.60055309428E+03 0.  0.
        1    1    3    3  502    0  0.13235881849E+03 -0.26189057785E+03 -0.11331479093E+03  0.31455647103E+03  0.50400001928E-02 0.  1.
       -1    1    3    3    0  502 -0.13235881849E+03  0.26189057785E+03  0.15798093919E+02  0.29386240215E+03  0.50400001928E-02 0. -1.
</event>
<event>
 5   0  0.4881209E-02  0.6108108E+03  0.7818609E-02  0.9883228E-01
       -1   -1    0    0    0  501  0.00000000000E+00  0.00000000000E+00  0.11873617158E+03  0.11873617169E+03  0.50400001928E-02 0.  1.
        1   -1    0    0  501    0  0.00000000000E+00  0.00000000000E+00 -0.78554365493E+03  0.78554365495E+03  0.50400001928E-02 0. -1.
    10030    2    1    2    0    0  0.00000000000E+00  0.00000000000E+00 -0.66680748335E+03  0.90427982664E+03  0.61081076039E+03 0.  0.
        3    1    3    3  502    0  0.20856203936E+03 -0.54863360366E+02 -0.13253752763E+02  0.21606430695E+03  0.10100000352E+00 0.  1.
       -3    1    3    3    0  502 -0.20856203936E+03  0.54863360366E+02 -0.65355373059E+03  0.68821551969E+03  0.10100000352E+00 0. -1.
</event>
<event>
 5   0  0.4881209E-02  0.6146983E+03  0.7818609E-02  0.9875372E-01
       -1   -1    0    0    0  501  0.00000000000E+00  0.00000000000E+00  0.30311504226E+03  0.30311504230E+03  0.50400001928E-02 0.  1.
        1   -1    0    0  501    0  0.00000000000E+00  0.00000000000E+00 -0.31164239324E+03  0.31164239328E+03  0.50400001928E-02 0. -1.
    10030    2    1    2    0    0  0.00000000000E+00  0.00000000000E+00 -0.85273509874E+01  0.61475743558E+03  0.61469829094E+03 0.  0.
        3    1    3    3  502    0 -0.63164774633E+02 -0.10647289031E+03  0.27707677907E+03  0.30347622119E+03  0.10100000352E+00 0.  1.
       -3    1    3    3    0  502  0.63164774633E+02  0.10647289031E+03 -0.28560413006E+03  0.31128121439E+03  0.10100000352E+00 0. -1.
</event>
<event>
 5   0  0.5190380E-02  0.6015841E+03  0.7818609E-02  0.9902125E-01
       -1   -1    0    0    0  501  0.00000000000E+00  0.00000000000E+00  0.14143445720E+03  0.14143445729E+03  0.50400001928E-02 0. -1.
        1   -1    0    0  501    0  0.00000000000E+00  0.00000000000E+00 -0.63970159662E+03  0.63970159664E+03  0.50400001928E-02 0.  1.
    10030    2    1    2    0    0  0.00000000000E+00  0.00000000000E+00 -0.49826713942E+03  0.78113605393E+03  0.60158406937E+03 0.  0.
        5    1    3    3  502    0  0.21553024612E+03  0.16049079356E+03 -0.73753360353E+02  0.27869738063E+03  0.46999998093E+01 0.  1.
       -5    1    3    3    0  502 -0.21553024612E+03 -0.16049079356E+03 -0.42451377907E+03  0.50243867330E+03  0.46999998093E+01 0. -1.
</event>
<event>
 5   0  0.8699746E-02  0.5944618E+03  0.7818609E-02  0.9916963E-01
        2   -1    0    0  501    0  0.00000000000E+00  0.00000000000E+00  0.38091853909E+03  0.38091853910E+03  0.25500000920E-02 0. -1.
       -2   -1    0    0    0  501  0.00000000000E+00  0.00000000000E+00 -0.23192940887E+03  0.23192940888E+03  0.25500000920E-02 0.  1.
    10030    2    1    2    0    0  0.00000000000E+00  0.00000000000E+00  0.14898913022E+03  0.61284794798E+03  0.59446181242E+03 0.  0.
        3    1    3    3  502    0 -0.48954608233E+02  0.61409990607E+02  0.37002878588E+03  0.37827113714E+03  0.10100000352E+00 0. -1.
       -3    1    3    3    0  502  0.48954608233E+02 -0.61409990607E+02 -0.22103965565E+03  0.23457681084E+03  0.10100000352E+00 0.  1.
</event>
<event>
 5   0  0.3437375E-02  0.5965520E+03  0.7818609E-02  0.9912586E-01
        3   -1    0    0  501    0  0.00000000000E+00  0.00000000000E+00  0.53317527881E+03  0.53317528838E+03  0.10100000352E+00 0. -1.
       -3   -1    0    0    0  501  0.00000000000E+00  0.00000000000E+00 -0.16686548449E+03  0.16686551505E+03  0.10100000352E+00 0.  1.
    10030    2    1    2    0    0  0.00000000000E+00  0.00000000000E+00  0.36630979433E+03  0.70004080343E+03  0.59655197682E+03 0.  0.
        5    1    3    3  502    0  0.16154126476E+03  0.24885689169E+03  0.14753944383E+03  0.33138393178E+03  0.46999998093E+01 0.  1.
       -5    1    3    3    0  502 -0.16154126476E+03 -0.24885689169E+03  0.21877035050E+03  0.36865687165E+03  0.46999998093E+01 0. -1.
</event>
<event>
 5   0  0.5125031E-02  0.5951847E+03  0.7818609E-02  0.9915447E-01
        1   -1    0    0  501    0  0.00000000000E+00  0.00000000000E+00  0.73098438262E+02  0.73098438436E+02  0.50400001928E-02 0.  1.
       -1   -1    0    0    0  501  0.00000000000E+00  0.00000000000E+00 -0.12115336568E+04  0.12115336568E+04  0.50400001928E-02 0. -1.
    10030    2    1    2    0    0  0.00000000000E+00  0.00000000000E+00 -0.11384352185E+04  0.12846320952E+04  0.59518473882E+03 0.  0.
        4    1    3    3  502    0 -0.13438842912E+03  0.12137161440E+03 -0.59510568390E+02  0.19061594717E+03  0.12699999809E+01 0.  1.
       -4    1    3    3    0  502  0.13438842912E+03 -0.12137161440E+03 -0.10789246501E+04  0.10940161481E+04  0.12699999809E+01 0. -1.
</event>
<event>
 5   0  0.8420604E-02  0.5991673E+03  0.7818609E-02  0.9907135E-01
       -2   -1    0    0    0  501  0.00000000000E+00  0.00000000000E+00  0.69196942142E+02  0.69196942189E+02  0.25500000920E-02 0.  1.
        2   -1    0    0  501    0  0.00000000000E+00  0.00000000000E+00 -0.12970279017E+04  0.12970279017E+04  0.25500000920E-02 0. -1.
    10030    2    1    2    0    0  0.00000000000E+00  0.00000000000E+00 -0.12278309596E+04  0.13662248439E+04  0.59916730453E+03 0.  0.
        2    1    3    3  502    0  0.17335263326E+02  0.28308019501E+03 -0.39383772657E+03  0.48532778927E+03  0.25500000920E-02 0.  1.
       -2    1    3    3    0  502 -0.17335263326E+02 -0.28308019501E+03 -0.83399323299E+03  0.88089705462E+03  0.25500000920E-02 0. -1.
</event>
<event>
 5   0  0.5125031E-02  0.5976908E+03  0.7818609E-02  0.9910209E-01
        1   -1    0    0  501    0  0.00000000000E+00  0.00000000000E+00  0.16665025490E+03  0.16665025498E+03  0.50400001928E-02 0.  1.
       -1   -1    0    0    0  501  0.00000000000E+00  0.00000000000E+00 -0.53590417605E+03  0.53590417607E+03  0.50400001928E-02 0. -1.
    10030    2    1    2    0    0  0.00000000000E+00  0.00000000000E+00 -0.36925392115E+03  0.70255443105E+03  0.59769078151E+03 0.  0.
        4    1    3    3  502    0 -0.19334976614E+03 -0.13559585417E+03  0.30632798878E+02  0.23813934787E+03  0.12699999809E+01 0.  1.
       -4    1    3    3    0  502  0.19334976614E+03  0.13559585417E+03 -0.39988672003E+03  0.46441508318E+03  0.12699999809E+01 0. -1.
</event>
<event>
 5   0  0.4987389E-02  0.5952621E+03  0.7818609E-02  0.9915285E-01
       -1   -1    0    0    0  501  0.00000000000E+00  0.00000000000E+00  0.34936440185E+02  0.34936440548E+02  0.50400001928E-02 0. -1.
        1   -1    0    0  501    0  0.00000000000E+00  0.00000000000E+00 -0.25355831626E+04  0.25355831626E+04  0.50400001928E-02 0.  1.
    10030    2    1    2    0    0  0.00000000000E+00  0.00000000000E+00 -0.25006467225E+04  0.25705196032E+04  0.59526212703E+03 0.  0.
        1    1    3    3  502    0 -0.28642471302E+03  0.19545823405E+02 -0.15893330277E+04  0.16150543732E+04  0.50400001928E-02 0.  1.
       -1    1    3    3    0  502  0.28642471302E+03 -0.19545823405E+02 -0.91131369474E+03  0.95546522998E+03  0.50400001928E-02 0. -1.
</event>
<event>
 5   0  0.5166903E-02  0.6049897E+03  0.7818609E-02  0.9895108E-01
       -1   -1    0    0    0  501  0.00000000000E+00  0.00000000000E+00  0.77321752929E+02  0.77321753093E+02  0.50400001928E-02 0.  1.
        1   -1    0    0  501    0  0.00000000000E+00  0.00000000000E+00 -0.11834075510E+04  0.11834075510E+04  0.50400001928E-02 0. -1.
    10030    2    1    2    0    0  0.00000000000E+00  0.00000000000E+00 -0.11060857981E+04  0.12607293041E+04  0.60498974003E+03 0.  0.
        2    1    3    3  502    0 -0.12251373731E+03 -0.23889055526E+03 -0.84348026320E+03  0.88517640482E+03  0.25500000920E-02 0. -1.
       -2    1    3    3    0  502  0.12251373731E+03  0.23889055526E+03 -0.26260553489E+03  0.37555289931E+03  0.25500000920E-02 0.  1.
</event>
<event>
 5   0  0.4881209E-02  0.5975374E+03  0.7818609E-02  0.9910528E-01
        1   -1    0    0  501    0  0.00000000000E+00  0.00000000000E+00  0.10077913530E+04  0.10077913530E+04  0.50400001928E-02 0.  1.
       -1   -1    0    0    0  501  0.00000000000E+00  0.00000000000E+00 -0.88572644675E+02  0.88572644818E+02  0.50400001928E-02 0. -1.
    10030    2    1    2    0    0  0.00000000000E+00  0.00000000000E+00  0.91921870829E+03  0.10963639978E+04  0.59753743146E+03 0.  0.
        3    1    3    3  502    0 -0.23620897258E+03  0.17805817274E+03  0.53665678004E+03  0.61278046752E+03  0.10100000352E+00 0.  1.
       -3    1    3    3    0  502  0.23620897258E+03 -0.17805817274E+03  0.38256192825E+03  0.48358353028E+03  0.10100000352E+00 0. -1.
</event>
<event>
 5   0  0.8575590E-02  0.5963241E+03  0.7818609E-02  0.9913062E-01
        2   -1    0    0  501    0  0.00000000000E+00  0.00000000000E+00  0.37595731400E+03  0.37595731401E+03  0.25500000920E-02 0.  1.
       -2   -1    0    0    0  501  0.00000000000E+00  0.00000000000E+00 -0.23646460175E+03  0.23646460176E+03  0.25500000920E-02 0. -1.
    10030    2    1    2    0    0  0.00000000000E+00  0.00000000000E+00  0.13949271225E+03  0.61242191577E+03  0.59632406135E+03 0.  0.
        4    1    3    3  502    0 -0.70543063520E+02 -0.27825898359E+03 -0.13018225423E+02  0.28735948366E+03  0.12699999809E+01 0.  1.
       -4    1    3    3    0  502  0.70543063520E+02  0.27825898359E+03  0.15251093768E+03  0.32506243211E+03  0.12699999809E+01 0. -1.
</event>
<event>
 5   0  0.8575590E-02  0.6027812E+03  0.7818609E-02  0.9899653E-01
       -2   -1    0    0    0  501  0.00000000000E+00  0.00000000000E+00  0.21316970140E+03  0.21316970141E+03  0.25500000920E-02 0.  1.
        2   -1    0    0  501    0  0.00000000000E+00  0.00000000000E+00 -0.42612193847E+03  0.42612193848E+03  0.25500000920E-02 0. -1.
    10030    2    1    2    0    0  0.00000000000E+00  0.00000000000E+00 -0.21295223707E+03  0.63929163990E+03  0.60278117552E+03 0.  0.
        4    1    3    3  502    0  0.17800446147E+03  0.19140934538E+02 -0.36361286551E+03  0.40529975641E+03  0.12699999809E+01 0. -1.
       -4    1    3    3    0  502 -0.17800446147E+03 -0.19140934538E+02  0.15066062844E+03  0.23399188349E+03  0.12699999809E+01 0.  1.
</event>
<event>
 5   0  0.5166903E-02  0.5979599E+03  0.7818609E-02  0.9909648E-01
        1   -1    0    0  501    0  0.00000000000E+00  0.00000000000E+00  0.61025432497E+03  0.61025432499E+03  0.50400001928E-02 0. -1.
       -1   -1    0    0    0  501  0.00000000000E+00  0.00000000000E+00 -0.14647826836E+03  0.14647826844E+03  0.50400001928E-02 0.  1.
    10030    2    1    2    0    0  0.00000000000E+00  0.00000000000E+00  0.46377605661E+03  0.75673259344E+03  0.59795985424E+03 0.  0.
        2    1    3    3  502    0  0.22904599207E+03  0.18685904718E+03  0.17514191149E+03  0.34358850267E+03  0.25500000920E-02 0. -1.
       -2    1    3    3    0  502 -0.22904599207E+03 -0.18685904718E+03  0.28863414513E+03  0.41314409077E+03  0.25500000920E-02 0.  1.
</event>
<event>
 5   0  0.8575590E-02  0.6082081E+03  0.7818609E-02  0.9888522E-01
        2   -1    0    0  501    0  0.00000000000E+00  0.00000000000E+00  0.10020911671E+04  0.10020911671E+04  0.25500000920E-02 0. -1.
       -2   -1    0    0    0  501  0.00000000000E+00  0.00000000000E+00 -0.92286276447E+02  0.92286276482E+02  0.25500000920E-02 0.  1.
    10030    2    1    2    0    0  0.00000000000E+00  0.00000000000E+00  0.90980489070E+03  0.10943774436E+04  0.60820806472E+03 0.  0.
        4    1    3    3  502    0 -0.16728307273E+03 -0.18710888240E+03  0.14593672974E+03  0.29033171077E+03  0.12699999809E+01 0. -1.
       -4    1    3    3    0  502  0.16728307273E+03  0.18710888240E+03  0.76386816096E+03  0.80404573286E+03  0.12699999809E+01 0.  1.
</event>
<event>
 5   0  0.8207443E-02  0.5992346E+03  0.7818609E-02  0.9906995E-01
       -2   -1    0    0    0  501  0.00000000000E+00  0.00000000000E+00  0.64609626266E+02  0.64609626316E+02  0.25500000920E-02 0.  1.
        2   -1    0    0  501    0  0.00000000000E+00  0.00000000000E+00 -0.13894297177E+04  0.13894297178E+04  0.25500000920E-02 0. -1.
    10030    2    1    2    0    0  0.00000000000E+00  0.00000000000E+00 -0.13248200915E+04  0.14540393441E+04  0.59923462792E+03 0.  0.
        1    1    3    3  502    0 -0.42321645840E+02 -0.22808902309E+03 -0.20230419166E+03  0.30780303792E+03  0.50400001928E-02 0.  1.
       -1    1    3    3    0  502  0.42321645840E+02  0.22808902309E+03 -0.11225158998E+04  0.11462363062E+04  0.50400001928E-02 0. -1.
</event>
<event>
 5   0  0.3437375E-02  0.6138701E+03  0.7818609E-02  0.9877041E-01
        3   -1    0    0  501    0  0.00000000000E+00  0.00000000000E+00  0.43463408638E+03  0.43463409812E+03  0.10100000352E+00 0.  1.
       -3   -1    0    0    0  501  0.00000000000E+00  0.00000000000E+00 -0.21675498818E+03  0.21675501171E+03  0.10100000352E+00 0. -1.
    10030    2    1    2    0    0  0.00000000000E+00  0.00000000000E+00  0.21787909821E+03  0.65138910983E+03  0.61387007661E+03 0.  0.
        4    1    3    3  502    0 -0.19056299401E+03  0.55109901392E+02 -0.13958923055E+03  0.24256570677E+03  0.12699999809E+01 0. -1.
       -4    1    3    3    0  502  0.19056299401E+03 -0.55109901392E+02  0.35746832876E+03  0.40882340305E+03  0.12699999809E+01 0.  1.
</event>
<event>
 5   0  0.8575590E-02  0.5793678E+03  0.7818609E-02  0.9949161E-01
       -2   -1    0    0    0  501  0.00000000000E+00  0.00000000000E+00  0.33663387057E+03  0.33663387058E+03  0.25500000920E-02 0. -1.
        2   -1    0    0  501    0  0.00000000000E+00  0.00000000000E+00 -0.24928197235E+03  0.24928197236E+03  0.25500000920E-02 0.  1.
    10030    2    1    2    0    0  0.00000000000E+00  0.00000000000E+00  0.87351898228E+02  0.58591584294E+03  0.57936777688E+03 0.  0.
        4    1    3    3  502    0  0.76229163891E+02  0.18552030594E+03 -0.16769942826E+03  0.26144479433E+03  0.12699999809E+01 0.  1.
       -4    1    3    3    0  502 -0.76229163891E+02 -0.18552030594E+03  0.25505132649E+03  0.32447104861E+03  0.12699999809E+01 0. -1.
</event>
<event>
 5   0  0.4881209E-02  0.6086410E+03  0.7818609E-02  0.9887639E-01
        1   -1    0    0  501    0  0.00000000000E+00  0.00000000000E+00  0.11534063595E+03  0.11534063606E+03  0.50400001928E-02 0. -1.
       -1   -1    0    0    0  501  0.00000000000E+00  0.00000000000E+00 -0.80293448735E+03  0.80293448737E+03  0.50400001928E-02 0.  1.
    10030    2    1    2    0    0  0.00000000000E+00  0.00000000000E+00 -0.68759385140E+03  0.91827512343E+03  0.60864102542E+03 0.  0.
        3    1    3    3  502    0 -0.26458025037E+03 -0.78468425479E+02 -0.15028522021E+03  0.31423822221E+03  0.10100000352E+00 0.  1.
       -3    1    3    3    0  502  0.26458025037E+03  0.78468425479E+02 -0.53730863119E+03  0.60403690122E+03  0.10100000352E+00 0. -1.
</event>
<event>
 5   0  0.8817544E-02  0.6248733E+03  0.7818609E-02  0.9855105E-01
       -2   -1    0    0    0  501  0.00000000000E+00  0.00000000000E+00  0.20871262692E+03  0.20871262694E+03  0.25500000920E-02 0. -1.
        2   -1    0    0  501    0  0.00000000000E+00  0.00000000000E+00 -0.46770840033E+03  0.46770840034E+03  0.25500000920E-02 0.  1.
    10030    2    1    2    0    0  0.00000000000E+00  0.00000000000E+00 -0.25899577341E+03  0.67642102728E+03  0.62487326355E+03 0.  0.
        5    1    3    3  502    0  0.16067450268E+03  0.16702728160E+03  0.97258333857E+02  0.25138751383E+03  0.46999998093E+01 0. -1.
       -5    1    3    3    0  502 -0.16067450268E+03 -0.16702728160E+03 -0.35625410727E+03  0.42503351344E+03  0.46999998093E+01 0.  1.
</event>
<event>
 5   0  0.4881209E-02  0.5935890E+03  0.7818609E-02  0.9918797E-01
        1   -1    0    0  501    0  0.00000000000E+00  0.00000000000E+00  0.62132286321E+03  0.62132286323E+03  0.50400001928E-02 0. -1.
       -1   -1    0    0    0  501  0.00000000000E+00  0.00000000000E+00 -0.14177327450E+03  0.14177327459E+03  0.50400001928E-02 0.  1.
    10030    2    1    2    0    0  0.00000000000E+00  0.00000000000E+00  0.47954958871E+03  0.76309613783E+03  0.59358900557E+03 0.  0.
        3    1    3    3  502    0 -0.24149855592E+03  0.16869218013E+02  0.46050580967E+03  0.52026121705E+03  0.10100000352E+00 0. -1.
       -3    1    3    3    0  502  0.24149855592E+03 -0.16869218013E+02  0.19043779036E+02  0.24283492077E+03  0.10100000352E+00 0.  1.
</event>
<event>
 5   0  0.4881209E-02  0.5998430E+03  0.7818609E-02  0.9905732E-01
        1   -1    0    0  501    0  0.00000000000E+00  0.00000000000E+00  0.37687268188E+03  0.37687268192E+03  0.50400001928E-02 0.  1.
       -1   -1    0    0    0  501  0.00000000000E+00  0.00000000000E+00 -0.23868251576E+03  0.23868251582E+03  0.50400001928E-02 0. -1.
    10030    2    1    2    0    0  0.00000000000E+00  0.00000000000E+00  0.13819016612E+03  0.61555519773E+03  0.59984304568E+03 0.  0.
        3    1    3    3  502    0 -0.13952170696E+02 -0.26592907848E+03 -0.72504679530E+02  0.27598890666E+03  0.10100000352E+00 0. -1.
       -3    1    3    3    0  502  0.13952170696E+02  0.26592907848E+03  0.21069484565E+03  0.33956629107E+03  0.10100000352E+00 0.  1.
</event>
<event>
 5   0  0.8699746E-02  0.5977928E+03  0.7818609E-02  0.9909996E-01
        2   -1    0    0  501    0  0.00000000000E+00  0.00000000000E+00  0.17538045284E+03  0.17538045286E+03  0.25500000920E-02 0.  1.
       -2   -1    0    0    0  501  0.00000000000E+00  0.00000000000E+00 -0.50940148551E+03  0.50940148551E+03  0.25500000920E-02 0. -1.
    10030    2    1    2    0    0  0.00000000000E+00  0.00000000000E+00 -0.33402103267E+03  0.68478193837E+03  0.59779281767E+03 0.  0.
        3    1    3    3  502    0  0.12779688244E+03 -0.12793718482E+03  0.10561074616E+03  0.20941252667E+03  0.10100000352E+00 0.  1.
       -3    1    3    3    0  502 -0.12779688244E+03  0.12793718482E+03 -0.43963177883E+03  0.47536941170E+03  0.10100000352E+00 0. -1.
</event>
<event>
 5   0  0.3437375E-02  0.6028185E+03  0.7818609E-02  0.9899576E-01
        3   -1    0    0  501    0  0.00000000000E+00  0.00000000000E+00  0.48756290034E+03  0.48756291080E+03  0.10100000352E+00 0. -1.
       -3   -1    0    0    0  501  0.00000000000E+00  0.00000000000E+00 -0.18632982587E+03  0.18632985324E+03  0.10100000352E+00 0.  1.
    10030    2    1    2    0    0  0.00000000000E+00  0.00000000000E+00  0.30123307447E+03  0.67389276404E+03  0.60281845715E+03 0.  0.
        1    1    3    3  502    0  0.14965536435E+03 -0.83279575942E+02  0.42788204789E+03  0.46088530328E+03  0.50400001928E-02 0. -1.
       -1    1    3    3    0  502 -0.14965536435E+03  0.83279575942E+02 -0.12664897342E+03  0.21300746077E+03  0.50400001928E-02 0.  1.
</event>
<event>
 5   0  0.4987389E-02  0.5913141E+03  0.7818609E-02  0.9923592E-01
        1   -1    0    0  501    0  0.00000000000E+00  0.00000000000E+00  0.63452379850E+03  0.63452379852E+03  0.50400001928E-02 0. -1.
       -1   -1    0    0    0  501  0.00000000000E+00  0.00000000000E+00 -0.13776171152E+03  0.13776171162E+03  0.50400001928E-02 0.  1.
    10030    2    1    2    0    0  0.00000000000E+00  0.00000000000E+00  0.49676208697E+03  0.77228551013E+03  0.59131407738E+03 0.  0.
        1    1    3    3  502    0 -0.31725078897E+02  0.27906472029E+03  0.12776055234E+03  0.30855527462E+03  0.50400001928E-02 0.  1.
       -1    1    3    3    0  502  0.31725078897E+02 -0.27906472029E+03  0.36900153463E+03  0.46373023551E+03  0.50400001928E-02 0. -1.
</event>
<event>
 5   0  0.5125031E-02  0.5993024E+03  0.7818609E-02  0.9906854E-01
        1   -1    0    0  501    0  0.00000000000E+00  0.00000000000E+00  0.16974622903E+04  0.16974622904E+04  0.50400001928E-02 0. -1.
       -1   -1    0    0    0  501  0.00000000000E+00  0.00000000000E+00 -0.52897112123E+02  0.52897112363E+02  0.50400001928E-02 0.  1.
    10030    2    1    2    0    0  0.00000000000E+00  0.00000000000E+00  0.16445651782E+04  0.17503594027E+04  0.59930243888E+03 0.  0.
        4    1    3    3  502    0 -0.91272769010E+02 -0.26406421119E+03  0.11385864852E+04  0.11723657378E+04  0.12699999809E+01 0. -1.
       -4    1    3    3    0  502  0.91272769010E+02  0.26406421119E+03  0.50597869306E+03  0.57799366495E+03  0.12699999809E+01 0.  1.
</event>
<event>
 5   0  0.5190380E-02  0.6031591E+03  0.7818609E-02  0.9898874E-01
        1   -1    0    0  501    0  0.00000000000E+00  0.00000000000E+00  0.84408628231E+03  0.84408628233E+03  0.50400001928E-02 0. -1.
       -1   -1    0    0    0  501  0.00000000000E+00  0.00000000000E+00 -0.10774991368E+03  0.10774991380E+03  0.50400001928E-02 0.  1.
    10030    2    1    2    0    0  0.00000000000E+00  0.00000000000E+00  0.73633636863E+03  0.95183619613E+03  0.60315909716E+03 0.  0.
        5    1    3    3  502    0 -0.15447770916E+03 -0.19575413458E+03  0.10061373832E+03  0.26893913469E+03  0.46999998093E+01 0.  1.
       -5    1    3    3    0  502  0.15447770916E+03  0.19575413458E+03  0.63572263031E+03  0.68289706144E+03  0.46999998093E+01 0. -1.
</event>
<event>
 5   0  0.3437375E-02  0.6029688E+03  0.7818609E-02  0.9899266E-01
       -3   -1    0    0    0  501  0.00000000000E+00  0.00000000000E+00  0.66301436156E+02  0.66301513084E+02  0.10100000352E+00 0.  1.
        3   -1    0    0  501    0  0.00000000000E+00  0.00000000000E+00 -0.13709020407E+04  0.13709020445E+04  0.10100000352E+00 0. -1.
    10030    2    1    2    0    0  0.00000000000E+00  0.00000000000E+00 -0.13046006046E+04  0.14372035575E+04  0.60296876232E+03 0.  0.
        1    1    3    3  502    0  0.28515730420E+03  0.83376629438E+02 -0.77445513406E+03  0.82948604881E+03  0.50400001928E-02 0. -1.
       -1    1    3    3    0  502 -0.28515730420E+03 -0.83376629438E+02 -0.53014547051E+03  0.60771750872E+03  0.50400001928E-02 0.  1.
</event>
<event>
 5   0  0.5125031E-02  0.4643346E+03  0.7818609E-02  0.1023532E+00
        1   -1    0    0  501    0  0.00000000000E+00  0.00000000000E+00  0.25401591758E+03  0.25401591763E+03  0.50400001928E-02 0. -1.
       -1   -1    0    0    0  501  0.00000000000E+00  0.00000000000E+00 -0.21219793098E+03  0.21219793104E+03  0.50400001928E-02 0.  1.
    10030    2    1    2    0    0  0.00000000000E+00  0.00000000000E+00  0.41817986601E+02  0.46621384868E+03  0.46433458701E+03 0.  0.
        4    1    3    3  502    0 -0.87643053300E+02  0.21465680284E+03  0.89785007481E+01  0.23203679487E+03  0.12699999809E+01 0.  1.
       -4    1    3    3    0  502  0.87643053300E+02 -0.21465680284E+03  0.32839485853E+02  0.23417705381E+03  0.12699999809E+01 0. -1.
</event>
<event>
 5   0  0.4987389E-02  0.5945397E+03  0.7818609E-02  0.9916800E-01
       -1   -1    0    0    0  501  0.00000000000E+00  0.00000000000E+00  0.14368821677E+03  0.14368821686E+03  0.50400001928E-02 0.  1.
        1   -1    0    0  501    0  0.00000000000E+00  0.00000000000E+00 -0.61500780278E+03  0.61500780280E+03  0.50400001928E-02 0. -1.
    10030    2    1    2    0    0  0.00000000000E+00  0.00000000000E+00 -0.47131958601E+03  0.75869601966E+03  0.59453973634E+03 0.  0.
        1    1    3    3  502    0 -0.14112355743E+03 -0.10367717426E+03 -0.54220320339E+03  0.56977989498E+03  0.50400001928E-02 0. -1.
       -1    1    3    3    0  502  0.14112355743E+03  0.10367717426E+03  0.70883617384E+02  0.18891612468E+03  0.50400001928E-02 0.  1.
</event>
<event>
 5   0  0.8575590E-02  0.5915119E+03  0.7818609E-02  0.9923174E-01
       -2   -1    0    0    0  501  0.00000000000E+00  0.00000000000E+00  0.69707413888E+03  0.69707413888E+03  0.25500000920E-02 0. -1.
        2   -1    0    0  501    0  0.00000000000E+00  0.00000000000E+00 -0.12548388985E+03  0.12548388987E+03  0.25500000920E-02 0.  1.
    10030    2    1    2    0    0  0.00000000000E+00  0.00000000000E+00  0.57159024903E+03  0.82255802876E+03  0.59151187468E+03 0.  0.
        4    1    3    3  502    0 -0.15231603687E+02  0.16221079723E+02 -0.12431443099E+03  0.12629653926E+03  0.12699999809E+01 0.  1.
       -4    1    3    3    0  502  0.15231603687E+02 -0.16221079723E+02  0.69590468002E+03  0.69626148949E+03  0.12699999809E+01 0. -1.
</event>
<event>
 5   0  0.5125031E-02  0.5900198E+03  0.7818609E-02  0.9926331E-01
        1   -1    0    0  501    0  0.00000000000E+00  0.00000000000E+00  0.35821759572E+03  0.35821759575E+03  0.50400001928E-02 0. -1.
       -1   -1    0    0    0  501  0.00000000000E+00  0.00000000000E+00 -0.24295525099E+03  0.24295525104E+03  0.50400001928E-02 0.  1.
    10030    2    1    2    0    0  0.00000000000E+00  0.00000000000E+00  0.11526234473E+03  0.60117284680E+03  0.59001981629E+03 0.  0.
        4    1    3    3  502    0 -0.70579310655E+02  0.61685761725E+02 -0.22737519572E+03  0.24594240143E+03  0.12699999809E+01 0.  1.
       -4    1    3    3    0  502  0.70579310655E+02 -0.61685761725E+02  0.34263754045E+03  0.35523044537E+03  0.12699999809E+01 0. -1.
</event>
<event>
 5   0  0.5125031E-02  0.5971554E+03  0.7818609E-02  0.9911325E-01
        1   -1    0    0  501    0  0.00000000000E+00  0.00000000000E+00  0.17611919565E+03  0.17611919572E+03  0.50400001928E-02 0. -1.
       -1   -1    0    0    0  501  0.00000000000E+00  0.00000000000E+00 -0.50618365283E+03  0.50618365286E+03  0.50400001928E-02 0.  1.
    10030    2    1    2    0    0  0.00000000000E+00  0.00000000000E+00 -0.33006445718E+03  0.68230284858E+03  0.59715544985E+03 0.  0.
        4    1    3    3  502    0 -0.13074466625E+03  0.95046898934E+02  0.12179832724E+03  0.20239695197E+03  0.12699999809E+01 0. -1.
       -4    1    3    3    0  502  0.13074466625E+03 -0.95046898934E+02 -0.45186278443E+03  0.47990589661E+03  0.12699999809E+01 0.  1.
</event>
<event>
 5   0  0.4881209E-02  0.6076487E+03  0.7818609E-02  0.9889663E-01
        1   -1    0    0  501    0  0.00000000000E+00  0.00000000000E+00  0.24337868778E+03  0.24337868783E+03  0.50400001928E-02 0. -1.
       -1   -1    0    0    0  501  0.00000000000E+00  0.00000000000E+00 -0.37928229088E+03  0.37928229092E+03  0.50400001928E-02 0.  1.
    10030    2    1    2    0    0  0.00000000000E+00  0.00000000000E+00 -0.13590360310E+03  0.62266097875E+03  0.60764866915E+03 0.  0.
        3    1    3    3  502    0  0.20619514027E+03 -0.89294851936E+02  0.14159788192E+03  0.26559363098E+03  0.10100000352E+00 0. -1.
       -3    1    3    3    0  502 -0.20619514027E+03  0.89294851936E+02 -0.27750148502E+03  0.35706734777E+03  0.10100000352E+00 0.  1.
</event>
<event>
 5   0  0.4881209E-02  0.6012272E+03  0.7818609E-02  0.9902863E-01
       -1   -1    0    0    0  501  0.00000000000E+00  0.00000000000E+00  0.82282386755E+03  0.82282386757E+03  0.50400001928E-02 0.  1.
        1   -1    0    0  501    0  0.00000000000E+00  0.00000000000E+00 -0.10982730688E+03  0.10982730699E+03  0.50400001928E-02 0. -1.
    10030    2    1    2    0    0  0.00000000000E+00  0.00000000000E+00  0.71299656068E+03  0.93265117456E+03  0.60122717659E+03 0.  0.
        3    1    3    3  502    0  0.39217752567E+02 -0.28468462715E+03  0.21962643056E+03  0.36168929795E+03  0.10100000352E+00 0.  1.
       -3    1    3    3    0  502 -0.39217752567E+02  0.28468462715E+03  0.49337013012E+03  0.57096187661E+03  0.10100000352E+00 0. -1.
</event>
<event>
 5   0  0.3437375E-02  0.5357351E+03  0.7818609E-02  0.1004851E+00
       -3   -1    0    0    0  501  0.00000000000E+00  0.00000000000E+00  0.96236239614E+03  0.96236240144E+03  0.10100000352E+00 0.  1.
        3   -1    0    0  501    0  0.00000000000E+00  0.00000000000E+00 -0.74559226243E+02  0.74559294651E+02  0.10100000352E+00 0. -1.
    10030    2    1    2    0    0  0.00000000000E+00  0.00000000000E+00  0.88780316989E+03  0.10369216961E+04  0.53573513544E+03 0.  0.
        4    1    3    3  502    0  0.14432256848E+03  0.19350490831E+03  0.21919651603E+03  0.32607035875E+03  0.12699999809E+01 0. -1.
       -4    1    3    3    0  502 -0.14432256848E+03 -0.19350490831E+03  0.66860665386E+03  0.71085133734E+03  0.12699999809E+01 0.  1.
</event>
<event>
 5   0  0.8575590E-02  0.5974199E+03  0.7818609E-02  0.9910773E-01
       -2   -1    0    0    0  501  0.00000000000E+00  0.00000000000E+00  0.30017142629E+03  0.30017142630E+03  0.25500000920E-02 0.  1.
        2   -1    0    0  501    0  0.00000000000E+00  0.00000000000E+00 -0.29725556677E+03  0.29725556678E+03  0.25500000920E-02 0. -1.
    10030    2    1    2    0    0  0.00000000000E+00  0.00000000000E+00  0.29158595274E+01  0.59742699308E+03  0.59741987733E+03 0.  0.
        4    1    3    3  502    0  0.22462631519E+03 -0.55064151538E+02 -0.18758657191E+03  0.29779082780E+03  0.12699999809E+01 0. -1.
       -4    1    3    3    0  502 -0.22462631519E+03  0.55064151538E+02  0.19050243143E+03  0.29963616528E+03  0.12699999809E+01 0.  1.
</event>
<event>
 5   0  0.5166903E-02  0.5948519E+03  0.7818609E-02  0.9916145E-01
       -1   -1    0    0    0  501  0.00000000000E+00  0.00000000000E+00  0.61251162617E+02  0.61251162824E+02  0.50400001928E-02 0. -1.
        1   -1    0    0  501    0  0.00000000000E+00  0.00000000000E+00 -0.14442532241E+04  0.14442532241E+04  0.50400001928E-02 0.  1.
    10030    2    1    2    0    0  0.00000000000E+00  0.00000000000E+00 -0.13830020615E+04  0.15055043870E+04  0.59485187821E+03 0.  0.
        2    1    3    3  502    0  0.86222778710E+02 -0.17051494376E+03 -0.12683688493E+04  0.12826804947E+04  0.25500000920E-02 0.  1.
       -2    1    3    3    0  502 -0.86222778710E+02  0.17051494376E+03 -0.11463321222E+03  0.22282389227E+03  0.25500000920E-02 0. -1.
</event>
<event>
 5   0  0.5125031E-02  0.5928722E+03  0.7818609E-02  0.9920305E-01
        1   -1    0    0  501    0  0.00000000000E+00  0.00000000000E+00  0.13057108614E+04  0.13057108614E+04  0.50400001928E-02 0.  1.
       -1   -1    0    0    0  501  0.00000000000E+00  0.00000000000E+00 -0.67300017000E+02  0.67300017188E+02  0.50400001928E-02 0. -1.
    10030    2    1    2    0    0  0.00000000000E+00  0.00000000000E+00  0.12384108444E+04  0.13730108786E+04  0.59287220648E+03 0.  0.
        4    1    3    3  502    0  0.28886028052E+03  0.28458020206E+02  0.75859325511E+03  0.81222869943E+03  0.12699999809E+01 0.  1.
       -4    1    3    3    0  502 -0.28886028052E+03 -0.28458020206E+02  0.47981758927E+03  0.56078217915E+03  0.12699999809E+01 0. -1.
</event>
<event>
 5   0  0.8575590E-02  0.6012298E+03  0.7818609E-02  0.9902858E-01
        2   -1    0    0  501    0  0.00000000000E+00  0.00000000000E+00  0.43271641108E+03  0.43271641109E+03  0.25500000920E-02 0.  1.
       -2   -1    0    0    0  501  0.00000000000E+00  0.00000000000E+00 -0.20884187591E+03  0.20884187593E+03  0.25500000920E-02 0. -1.
    10030    2    1    2    0    0  0.00000000000E+00  0.00000000000E+00  0.22387453517E+03  0.64155828702E+03  0.60122976319E+03 0.  0.
        4    1    3    3  502    0  0.96591335375E+02  0.21507619793E+03 -0.87066211119E+02  0.25133602011E+03  0.12699999809E+01 0. -1.
       -4    1    3    3    0  502 -0.96591335375E+02 -0.21507619793E+03  0.31094074628E+03  0.39022226690E+03  0.12699999809E+01 0.  1.
</event>
<event>
 5   0  0.8817544E-02  0.6027167E+03  0.7818609E-02  0.9899786E-01
        2   -1    0    0  501    0  0.00000000000E+00  0.00000000000E+00  0.16673337083E+04  0.16673337083E+04  0.25500000920E-02 0.  1.
       -2   -1    0    0    0  501  0.00000000000E+00  0.00000000000E+00 -0.54468306687E+02  0.54468306747E+02  0.25500000920E-02 0. -1.
    10030    2    1    2    0    0  0.00000000000E+00  0.00000000000E+00  0.16128654016E+04  0.17218020151E+04  0.60271666255E+03 0.  0.
        5    1    3    3  502    0  0.16981202284E+03  0.19862021750E+03  0.37784012814E+03  0.45942503886E+03  0.46999998093E+01 0. -1.
       -5    1    3    3    0  502 -0.16981202284E+03 -0.19862021750E+03  0.12350252735E+04  0.12623769762E+04  0.46999998093E+01 0.  1.
</event>
<event>
 5   0  0.5125031E-02  0.5537034E+03  0.7818609E-02  0.1000640E+00
        1   -1    0    0  501    0  0.00000000000E+00  0.00000000000E+00  0.95903832528E+02  0.95903832660E+02  0.50400001928E-02 0.  1.
       -1   -1    0    0    0  501  0.00000000000E+00  0.00000000000E+00 -0.79920554504E+03  0.79920554505E+03  0.50400001928E-02 0. -1.
    10030    2    1    2    0    0  0.00000000000E+00  0.00000000000E+00 -0.70330171251E+03  0.89510937771E+03  0.55370343980E+03 0.  0.
        4    1    3    3  502    0  0.89340995991E+00  0.19490093940E+03 -0.33803159850E+02  0.19781668503E+03  0.12699999809E+01 0.  1.
       -4    1    3    3    0  502 -0.89340995991E+00 -0.19490093940E+03 -0.66949855266E+03  0.69729269269E+03  0.12699999809E+01 0. -1.
</event>
<event>
 5   0  0.8575590E-02  0.5486909E+03  0.7818609E-02  0.1001797E+00
       -2   -1    0    0    0  501  0.00000000000E+00  0.00000000000E+00  0.59629198788E+02  0.59629198843E+02  0.25500000920E-02 0. -1.
        2   -1    0    0  501    0  0.00000000000E+00  0.00000000000E+00 -0.12622242554E+04  0.12622242554E+04  0.25500000920E-02 0.  1.
    10030    2    1    2    0    0  0.00000000000E+00  0.00000000000E+00 -0.12025950567E+04  0.13218534543E+04  0.54869088230E+03 0.  0.
        4    1    3    3  502    0  0.16345251960E+03  0.62317386730E+02 -0.11104320587E+04  0.11241268401E+04  0.12699999809E+01 0.  1.
       -4    1    3    3    0  502 -0.16345251960E+03 -0.62317386730E+02 -0.92162997986E+02  0.19772661417E+03  0.12699999809E+01 0. -1.
</event>
<event>
 5   0  0.8699746E-02  0.5922224E+03  0.7818609E-02  0.9921675E-01
        2   -1    0    0  501    0  0.00000000000E+00  0.00000000000E+00  0.14121587749E+03  0.14121587752E+03  0.25500000920E-02 0. -1.
       -2   -1    0    0    0  501  0.00000000000E+00  0.00000000000E+00 -0.62090643075E+03  0.62090643076E+03  0.25500000920E-02 0.  1.
    10030    2    1    2    0    0  0.00000000000E+00  0.00000000000E+00 -0.47969055326E+03  0.76212230828E+03  0.59222241251E+03 0.  0.
        3    1    3    3  502    0  0.18789782323E+03  0.19134694244E+03 -0.78277908322E+02  0.27936836881E+03  0.10100000352E+00 0. -1.
       -3    1    3    3    0  502 -0.18789782323E+03 -0.19134694244E+03 -0.40141264494E+03  0.48275393947E+03  0.10100000352E+00 0.  1.
</event>
<event>
 5   0  0.5190380E-02  0.5932762E+03  0.7818609E-02  0.9919455E-01
       -1   -1    0    0    0  501  0.00000000000E+00  0.00000000000E+00  0.13772204165E+03  0.13772204174E+03  0.50400001928E-02 0. -1.
        1   -1    0    0  501    0  0.00000000000E+00  0.00000000000E+00 -0.63892582305E+03  0.63892582307E+03  0.50400001928E-02 0.  1.
    10030    2    1    2    0    0  0.00000000000E+00  0.00000000000E+00 -0.50120378141E+03  0.77664786481E+03  0.59327622185E+03 0.  0.
        5    1    3    3  502    0  0.25788392191E+03  0.26010110809E+02 -0.43936166573E+03  0.51013861485E+03  0.46999998093E+01 0.  1.
       -5    1    3    3    0  502 -0.25788392191E+03 -0.26010110809E+02 -0.61842115673E+02  0.26650924996E+03  0.46999998093E+01 0. -1.
</event>
<event>
 5   0  0.8420604E-02  0.6050041E+03  0.7818609E-02  0.9895078E-01
        2   -1    0    0  501    0  0.00000000000E+00  0.00000000000E+00  0.11433425498E+04  0.11433425498E+04  0.25500000920E-02 0.  1.
       -2   -1    0    0    0  501  0.00000000000E+00  0.00000000000E+00 -0.80035059340E+02  0.80035059380E+02  0.25500000920E-02 0. -1.
    10030    2    1    2    0    0  0.00000000000E+00  0.00000000000E+00  0.10633074904E+04  0.12233776092E+04  0.60500409534E+03 0.  0.
        2    1    3    3  502    0  0.65991838522E+02 -0.14892609801E+03  0.16222641040E+02  0.16369813533E+03  0.25500000920E-02 0. -1.
       -2    1    3    3    0  502 -0.65991838522E+02  0.14892609801E+03  0.10470848494E+04  0.10596794738E+04  0.25500000920E-02 0.  1.
</event>
<event>
 5   0  0.5190380E-02  0.6011530E+03  0.7818609E-02  0.9903017E-01
        1   -1    0    0  501    0  0.00000000000E+00  0.00000000000E+00  0.53360792351E+03  0.53360792354E+03  0.50400001928E-02 0.  1.
       -1   -1    0    0    0  501  0.00000000000E+00  0.00000000000E+00 -0.16931204058E+03  0.16931204066E+03  0.50400001928E-02 0. -1.
    10030    2    1    2    0    0  0.00000000000E+00  0.00000000000E+00  0.36429588293E+03  0.70291996420E+03  0.60115304686E+03 0.  0.
        5    1    3    3  502    0 -0.10028641601E+03 -0.24292114647E+03  0.35262372594E+03  0.43981090338E+03  0.46999998093E+01 0.  1.
       -5    1    3    3    0  502  0.10028641601E+03  0.24292114647E+03  0.11672156991E+02  0.26310906082E+03  0.46999998093E+01 0. -1.
</event>
<event>
 5   0  0.8420604E-02  0.6615188E+03  0.7818609E-02  0.9785402E-01
        2   -1    0    0  501    0  0.00000000000E+00  0.00000000000E+00  0.29569175480E+03  0.29569175482E+03  0.25500000920E-02 0.  1.
       -2   -1    0    0    0  501  0.00000000000E+00  0.00000000000E+00 -0.36998586910E+03  0.36998586910E+03  0.25500000920E-02 0. -1.
    10030    2    1    2    0    0  0.00000000000E+00  0.00000000000E+00 -0.74294114291E+02  0.66567762392E+03  0.66151877038E+03 0.  0.
        2    1    3    3  502    0 -0.26905671721E+03 -0.17697936199E+03  0.38749649267E+02  0.32436822743E+03  0.25500000920E-02 0.  1.
       -2    1    3    3    0  502  0.26905671721E+03  0.17697936199E+03 -0.11304376356E+03  0.34130939649E+03  0.25500000920E-02 0. -1.
</event>
<event>
 5   0  0.4881209E-02  0.5873139E+03  0.7818609E-02  0.9932081E-01
        1   -1    0    0  501    0  0.00000000000E+00  0.00000000000E+00  0.32940073325E+03  0.32940073329E+03  0.50400001928E-02 0.  1.
       -1   -1    0    0    0  501  0.00000000000E+00  0.00000000000E+00 -0.26179174576E+03  0.26179174581E+03  0.50400001928E-02 0. -1.
    10030    2    1    2    0    0  0.00000000000E+00  0.00000000000E+00  0.67608987490E+02  0.59119247910E+03  0.58731386170E+03 0.  0.
        3    1    3    3  502    0  0.20385965820E+03  0.60183403515E+02  0.23775940596E+03  0.31892059768E+03  0.10100000352E+00 0.  1.
       -3    1    3    3    0  502 -0.20385965820E+03 -0.60183403515E+02 -0.17015041847E+03  0.27227188141E+03  0.10100000352E+00 0. -1.
</event>
<event>
 5   0  0.8699746E-02  0.6022853E+03  0.7818609E-02  0.9900676E-01
        2   -1    0    0  501    0  0.00000000000E+00  0.00000000000E+00  0.77196734779E+03  0.77196734780E+03  0.25500000920E-02 0. -1.
       -2   -1    0    0    0  501  0.00000000000E+00  0.00000000000E+00 -0.11747504065E+03  0.11747504068E+03  0.25500000920E-02 0.  1.
    10030    2    1    2    0    0  0.00000000000E+00  0.00000000000E+00  0.65449230715E+03  0.88944238847E+03  0.60228529976E+03 0.  0.
        3    1    3    3  502    0 -0.27411208988E+03  0.12252322760E+03  0.29300823770E+03  0.41952737298E+03  0.10100000352E+00 0.  1.
       -3    1    3    3    0  502  0.27411208988E+03 -0.12252322760E+03  0.36148406945E+03  0.46991501549E+03  0.10100000352E+00 0. -1.
</event>
<event>
 5   0  0.5166903E-02  0.6067812E+03  0.7818609E-02  0.9891436E-01
        1   -1    0    0  501    0  0.00000000000E+00  0.00000000000E+00  0.11004819899E+04  0.11004819899E+04  0.50400001928E-02 0. -1.
       -1   -1    0    0    0  501  0.00000000000E+00  0.00000000000E+00 -0.83641388888E+02  0.83641389040E+02  0.50400001928E-02 0.  1.
    10030    2    1    2    0    0  0.00000000000E+00  0.00000000000E+00  0.10168406010E+04  0.11841233790E+04  0.60678115389E+03 0.  0.
        2    1    3    3  502    0 -0.19742486306E+03  0.56152168678E+02  0.94441943633E+03  0.96646661315E+03  0.25500000920E-02 0. -1.
       -2    1    3    3    0  502  0.19742486306E+03 -0.56152168678E+02  0.72421164691E+02  0.21765676581E+03  0.25500000920E-02 0.  1.
</event>
<event>
 5   0  0.4987389E-02  0.6081654E+03  0.7818609E-02  0.9888609E-01
        1   -1    0    0  501    0  0.00000000000E+00  0.00000000000E+00  0.97124326742E+03  0.97124326743E+03  0.50400001928E-02 0.  1.
       -1   -1    0    0    0  501  0.00000000000E+00  0.00000000000E+00 -0.95204056488E+02  0.95204056621E+02  0.50400001928E-02 0. -1.
    10030    2    1    2    0    0  0.00000000000E+00  0.00000000000E+00  0.87603921093E+03  0.10664473241E+04  0.60816543464E+03 0.  0.
        1    1    3    3  502    0 -0.54937361973E+02  0.29768779523E+03  0.48854375862E+03  0.57472701458E+03  0.50400001928E-02 0.  1.
       -1    1    3    3    0  502  0.54937361973E+02 -0.29768779523E+03  0.38749545231E+03  0.49172030948E+03  0.50400001928E-02 0. -1.
</event>
<event>
 5   0  0.8420604E-02  0.6073514E+03  0.7818609E-02  0.9890270E-01
        2   -1    0    0  501    0  0.00000000000E+00  0.00000000000E+00  0.10979775741E+04  0.10979775741E+04  0.25500000920E-02 0. -1.
       -2   -1    0    0    0  501  0.00000000000E+00  0.00000000000E+00 -0.83989820138E+02  0.83989820177E+02  0.25500000920E-02 0.  1.
    10030    2    1    2    0    0  0.00000000000E+00  0.00000000000E+00  0.10139877539E+04  0.11819673943E+04  0.60735142706E+03 0.  0.
        2    1    3    3  502    0  0.27703256459E+03 -0.70092265897E+02  0.30701862771E+03  0.41942866539E+03  0.25500000920E-02 0. -1.
       -2    1    3    3    0  502 -0.27703256459E+03  0.70092265897E+02  0.70696912623E+03  0.76253872888E+03  0.25500000920E-02 0.  1.
</event>
<event>
 5   0  0.4881209E-02  0.6038931E+03  0.7818609E-02  0.9897362E-01
        1   -1    0    0  501    0  0.00000000000E+00  0.00000000000E+00  0.23818487866E+03  0.23818487871E+03  0.50400001928E-02 0. -1.
       -1   -1    0    0    0  501  0.00000000000E+00  0.00000000000E+00 -0.38277710238E+03  0.38277710241E+03  0.50400001928E-02 0.  1.
    10030    2    1    2    0    0  0.00000000000E+00  0.00000000000E+00 -0.14459222372E+03  0.62096198113E+03  0.60389309554E+03 0.  0.
        3    1    3    3  502    0 -0.29544170043E+03 -0.48010454840E+02 -0.31411687676E+02  0.30096097164E+03  0.10100000352E+00 0. -1.
       -3    1    3    3    0  502  0.29544170043E+03  0.48010454840E+02 -0.11318053605E+03  0.32000100948E+03  0.10100000352E+00 0.  1.
</event>
<event>
 5   0  0.8575590E-02  0.6036678E+03  0.7818609E-02  0.9897826E-01
       -2   -1    0    0    0  501  0.00000000000E+00  0.00000000000E+00  0.59248247698E+02  0.59248247752E+02  0.25500000920E-02 0. -1.
        2   -1    0    0  501    0  0.00000000000E+00  0.00000000000E+00 -0.15376606593E+04  0.15376606593E+04  0.25500000920E-02 0.  1.
    10030    2    1    2    0    0  0.00000000000E+00  0.00000000000E+00 -0.14784124116E+04  0.15969089071E+04  0.60366778832E+03 0.  0.
        4    1    3    3  502    0  0.26044393376E+03 -0.15124720329E+03 -0.79180317553E+03  0.84714853528E+03  0.12699999809E+01 0.  1.
       -4    1    3    3    0  502 -0.26044393376E+03  0.15124720329E+03 -0.68660923609E+03  0.74976037180E+03  0.12699999809E+01 0. -1.
</event>
<event>
 5   0  0.8699746E-02  0.5778728E+03  0.7818609E-02  0.9952407E-01
       -2   -1    0    0    0  501  0.00000000000E+00  0.00000000000E+00  0.49607239450E+02  0.49607239516E+02  0.25500000920E-02 0.  1.
        2   -1    0    0  501    0  0.00000000000E+00  0.00000000000E+00 -0.16829047231E+04  0.16829047231E+04  0.25500000920E-02 0. -1.
    10030    2    1    2    0    0  0.00000000000E+00  0.00000000000E+00 -0.16332974837E+04  0.17325119627E+04  0.57787284979E+03 0.  0.
        3    1    3    3  502    0  0.63538234898E+02  0.28639254206E+02  0.24029137392E+02  0.73720579354E+02  0.10100000352E+00 0.  1.
       -3    1    3    3    0  502 -0.63538234898E+02 -0.28639254206E+02 -0.16573266211E+04  0.16587913833E+04  0.10100000352E+00 0. -1.
</event>
<event>
 5   0  0.8817544E-02  0.5984156E+03  0.7818609E-02  0.9908699E-01
        2   -1    0    0  501    0  0.00000000000E+00  0.00000000000E+00  0.15101370780E+04  0.15101370780E+04  0.25500000920E-02 0. -1.
       -2   -1    0    0    0  501  0.00000000000E+00  0.00000000000E+00 -0.59282904528E+02  0.59282904582E+02  0.25500000920E-02 0.  1.
    10030    2    1    2    0    0  0.00000000000E+00  0.00000000000E+00  0.14508541735E+04  0.15694199826E+04  0.59841561565E+03 0.  0.
        5    1    3    3  502    0  0.11883500722E+03  0.12077923112E+03  0.78781898269E+02  0.18691725203E+03  0.46999998093E+01 0.  1.
       -5    1    3    3    0  502 -0.11883500722E+03 -0.12077923112E+03  0.13720722752E+04  0.13825027306E+04  0.46999998093E+01 0. -1.
</event>
<event>
 5   0  0.5125031E-02  0.6158262E+03  0.7818609E-02  0.9873105E-01
       -1   -1    0    0    0  501  0.00000000000E+00  0.00000000000E+00  0.85857503171E+03  0.85857503172E+03  0.50400001928E-02 0. -1.
        1   -1    0    0  501    0  0.00000000000E+00  0.00000000000E+00 -0.11042772061E+03  0.11042772072E+03  0.50400001928E-02 0.  1.
    10030    2    1    2    0    0  0.00000000000E+00  0.00000000000E+00  0.74814731110E+03  0.96900275244E+03  0.61582622154E+03 0.  0.
        4    1    3    3  502    0  0.54969673695E+02 -0.57701058926E+01 -0.10255387926E+03  0.11650695344E+03  0.12699999809E+01 0.  1.
       -4    1    3    3    0  502 -0.54969673695E+02  0.57701058926E+01  0.85070119036E+03  0.85249579901E+03  0.12699999809E+01 0. -1.
</event>
<event>
 5   0  0.4987389E-02  0.5994115E+03  0.7818609E-02  0.9906628E-01
        1   -1    0    0  501    0  0.00000000000E+00  0.00000000000E+00  0.42299806314E+03  0.42299806317E+03  0.50400001928E-02 0.  1.
       -1   -1    0    0    0  501  0.00000000000E+00  0.00000000000E+00 -0.21234975766E+03  0.21234975772E+03  0.50400001928E-02 0. -1.
    10030    2    1    2    0    0  0.00000000000E+00  0.00000000000E+00  0.21064830548E+03  0.63534782089E+03  0.59941149881E+03 0.  0.
        1    1    3    3  502    0  0.13102246600E+03  0.77611843158E+02  0.37893374928E+03  0.40838862761E+03  0.50400001928E-02 0.  1.
       -1    1    3    3    0  502 -0.13102246600E+03 -0.77611843158E+02 -0.16828544380E+03  0.22695919328E+03  0.50400001928E-02 0. -1.
</event>
<event>
 5   0  0.4881209E-02  0.5355498E+03  0.7818609E-02  0.1004895E+00
       -1   -1    0    0    0  501  0.00000000000E+00  0.00000000000E+00  0.57565589664E+03  0.57565589666E+03  0.50400001928E-02 0.  1.
        1   -1    0    0  501    0  0.00000000000E+00  0.00000000000E+00 -0.12455947646E+03  0.12455947656E+03  0.50400001928E-02 0. -1.
    10030    2    1    2    0    0  0.00000000000E+00  0.00000000000E+00  0.45109642018E+03  0.70021537323E+03  0.53554980030E+03 0.  0.
        3    1    3    3  502    0  0.92810927940E+02  0.17958596855E+03 -0.40548584404E+01  0.20219159360E+03  0.10100000352E+00 0. -1.
       -3    1    3    3    0  502 -0.92810927940E+02 -0.17958596855E+03  0.45515127862E+03  0.49802377963E+03  0.10100000352E+00 0.  1.
</event>
<event>
 5   0  0.8575590E-02  0.5984723E+03  0.7818609E-02  0.9908581E-01
       -2   -1    0    0    0  501  0.00000000000E+00  0.00000000000E+00  0.10413353707E+04  0.10413353707E+04  0.25500000920E-02 0. -1.
        2   -1    0    0  501    0  0.00000000000E+00  0.00000000000E+00 -0.85987926188E+02  0.85987926225E+02  0.25500000920E-02 0.  1.
    10030    2    1    2    0    0  0.00000000000E+00  0.00000000000E+00  0.95534744452E+03  0.11273232969E+04  0.59847228513E+03 0.  0.
        4    1    3    3  502    0 -0.11156941222E+03  0.18835518319E+03  0.86193858906E+03  0.88930599514E+03  0.12699999809E+01 0. -1.
       -4    1    3    3    0  502  0.11156941222E+03 -0.18835518319E+03  0.93408855458E+02  0.23801730180E+03  0.12699999809E+01 0.  1.
</event>
<event>
 5   0  0.8207443E-02  0.5090826E+03  0.7818609E-02  0.1011435E+00
       -2   -1    0    0    0  501  0.00000000000E+00  0.00000000000E+00  0.70213739136E+02  0.70213739182E+02  0.25500000920E-02 0.  1.
        2   -1    0    0  501    0  0.00000000000E+00  0.00000000000E+00 -0.92277208695E+03  0.92277208696E+03  0.25500000920E-02 0. -1.
    10030    2    1    2    0    0  0.00000000000E+00  0.00000000000E+00 -0.85255834782E+03  0.99298582614E+03  0.50908262049E+03 0.  0.
        1    1    3    3  502    0 -0.85832476579E+02 -0.77552435288E+02  0.15980404009E+02  0.11677742758E+03  0.50400001928E-02 0.  1.
       -1    1    3    3    0  502  0.85832476579E+02  0.77552435288E+02 -0.86853875183E+03  0.87620839856E+03  0.50400001928E-02 0. -1.
</event>
<event>
 5   0  0.8817544E-02  0.6005533E+03  0.7818609E-02  0.9904259E-01
        2   -1    0    0  501    0  0.00000000000E+00  0.00000000000E+00  0.19553821859E+04  0.19553821859E+04  0.25500000920E-02 0.  1.
       -2   -1    0    0    0  501  0.00000000000E+00  0.00000000000E+00 -0.46111730607E+02  0.46111730678E+02  0.25500000920E-02 0. -1.
    10030    2    1    2    0    0  0.00000000000E+00  0.00000000000E+00  0.19092704553E+04  0.20014939166E+04  0.60055326713E+03 0.  0.
        5    1    3    3  502    0  0.29768148867E+03 -0.27209348849E+02  0.86100041280E+03  0.91142658409E+03  0.46999998093E+01 0. -1.
       -5    1    3    3    0  502 -0.29768148867E+03  0.27209348849E+02  0.10482700425E+04  0.10900673325E+04  0.46999998093E+01 0.  1.
</event>
<event>
 5   0  0.8575590E-02  0.6015953E+03  0.7818609E-02  0.9902102E-01
       -2   -1    0    0    0  501  0.00000000000E+00  0.00000000000E+00  0.74776026450E+03  0.74776026450E+03  0.25500000920E-02 0. -1.
        2   -1    0    0  501    0  0.00000000000E+00  0.00000000000E+00 -0.12100033324E+03  0.12100033327E+03  0.25500000920E-02 0.  1.
    10030    2    1    2    0    0  0.00000000000E+00  0.00000000000E+00  0.62675993126E+03  0.86876059777E+03  0.60159534972E+03 0.  0.
        4    1    3    3  502    0 -0.25242806507E+02  0.20605738128E+03 -0.95795010142E+00  0.20760388780E+03  0.12699999809E+01 0.  1.
       -4    1    3    3    0  502  0.25242806507E+02 -0.20605738128E+03  0.62771788136E+03  0.66115670997E+03  0.12699999809E+01 0. -1.
</event>
<event>
 5   0  0.8420604E-02  0.6209654E+03  0.7818609E-02  0.9862839E-01
       -2   -1    0    0    0  501  0.00000000000E+00  0.00000000000E+00  0.63735779207E+02  0.63735779258E+02  0.25500000920E-02 0.  1.
        2   -1    0    0  501    0  0.00000000000E+00  0.00000000000E+00 -0.15124865511E+04  0.15124865511E+04  0.25500000920E-02 0. -1.
    10030    2    1    2    0    0  0.00000000000E+00  0.00000000000E+00 -0.14487507719E+04  0.15762223304E+04  0.62096540618E+03 0.  0.
        2    1    3    3  502    0 -0.20903744062E+03  0.22881751771E+03 -0.67720039612E+03  0.74475129037E+03  0.25500000920E-02 0. -1.
       -2    1    3    3    0  502  0.20903744062E+03 -0.22881751771E+03 -0.77155037581E+03  0.83147104003E+03  0.25500000920E-02 0.  1.
</event>
<event>
 5   0  0.8817544E-02  0.6344848E+03  0.7818609E-02  0.9836336E-01
       -2   -1    0    0    0  501  0.00000000000E+00  0.00000000000E+00  0.89972212231E+03  0.89972212231E+03  0.25500000920E-02 0.  1.
        2   -1    0    0  501    0  0.00000000000E+00  0.00000000000E+00 -0.11185979903E+03  0.11185979906E+03  0.25500000920E-02 0. -1.
    10030    2    1    2    0    0  0.00000000000E+00  0.00000000000E+00  0.78786232327E+03  0.10115819214E+04  0.63448478565E+03 0.  0.
        5    1    3    3  502    0  0.23476312412E+02  0.20919703126E+03  0.15612633448E+02  0.21114066272E+03  0.46999998093E+01 0. -1.
       -5    1    3    3    0  502 -0.23476312412E+02 -0.20919703126E+03  0.77224968982E+03  0.80044125866E+03  0.46999998093E+01 0.  1.
</event>
<event>
 5   0  0.8817544E-02  0.6003444E+03  0.7818609E-02  0.9904692E-01
       -2   -1    0    0    0  501  0.00000000000E+00  0.00000000000E+00  0.73170138295E+02  0.73170138340E+02  0.25500000920E-02 0. -1.
        2   -1    0    0  501    0  0.00000000000E+00  0.00000000000E+00 -0.12314225290E+04  0.12314225290E+04  0.25500000920E-02 0.  1.
    10030    2    1    2    0    0  0.00000000000E+00  0.00000000000E+00 -0.11582523907E+04  0.13045926673E+04  0.60034442374E+03 0.  0.
        5    1    3    3  502    0  0.27858505971E+02 -0.26076678373E+03 -0.26193294672E+03  0.37068365276E+03  0.46999998093E+01 0. -1.
       -5    1    3    3    0  502 -0.27858505971E+02  0.26076678373E+03 -0.89631944399E+03  0.93390901458E+03  0.46999998093E+01 0.  1.
</event>
<event>
 5   0  0.3437375E-02  0.5937397E+03  0.7818609E-02  0.9918480E-01
        4   -1    0    0  501    0  0.00000000000E+00  0.00000000000E+00  0.20078584119E+03  0.20078985762E+03  0.12699999809E+01 0.  1.
       -4   -1    0    0    0  501  0.00000000000E+00  0.00000000000E+00 -0.43892456855E+03  0.43892640588E+03  0.12699999809E+01 0. -1.
    10030    2    1    2    0    0  0.00000000000E+00  0.00000000000E+00 -0.23813872736E+03  0.63971626350E+03  0.59373971092E+03 0.  0.
        3    1    3    3  502    0  0.11756231803E+03 -0.27164778846E+03 -0.14359803684E+03  0.32898909706E+03  0.10100000352E+00 0. -1.
       -3    1    3    3    0  502 -0.11756231803E+03  0.27164778846E+03 -0.94540690516E+02  0.31072716644E+03  0.10100000352E+00 0.  1.
</event>
<event>
 5   0  0.5166903E-02  0.5958114E+03  0.7818609E-02  0.9914134E-01
        1   -1    0    0  501    0  0.00000000000E+00  0.00000000000E+00  0.75386981600E+03  0.75386981601E+03  0.50400001928E-02 0. -1.
       -1   -1    0    0    0  501  0.00000000000E+00  0.00000000000E+00 -0.11772297588E+03  0.11772297598E+03  0.50400001928E-02 0.  1.
    10030    2    1    2    0    0  0.00000000000E+00  0.00000000000E+00  0.63614684012E+03  0.87159279200E+03  0.59581137356E+03 0.  0.
        2    1    3    3  502    0  0.43885721730E+01  0.24200678859E+03  0.57212946330E+03  0.62122352505E+03  0.25500000920E-02 0. -1.
       -2    1    3    3    0  502 -0.43885721730E+01 -0.24200678859E+03  0.64017376815E+02  0.25036926695E+03  0.25500000920E-02 0.  1.
</event>
<event>
 5   0  0.3437375E-02  0.6033324E+03  0.7818609E-02  0.9898516E-01
       -4   -1    0    0    0  501  0.00000000000E+00  0.00000000000E+00  0.39684446072E+03  0.39684649287E+03  0.12699999809E+01 0. -1.
        4   -1    0    0  501    0  0.00000000000E+00  0.00000000000E+00 -0.22931089301E+03  0.22931440982E+03  0.12699999809E+01 0.  1.
    10030    2    1    2    0    0  0.00000000000E+00  0.00000000000E+00  0.16753356771E+03  0.62616090269E+03  0.60333239574E+03 0.  0.
        4    1    3    3  502    0  0.16007680090E+03  0.99280554719E+02  0.32830838127E+03  0.37850920311E+03  0.12699999809E+01 0. -1.
       -4    1    3    3    0  502 -0.16007680090E+03 -0.99280554719E+02 -0.16077481356E+03  0.24765169958E+03  0.12699999809E+01 0.  1.
</event>
<event>
 5   0  0.4881209E-02  0.5864770E+03  0.7818609E-02  0.9933866E-01
       -1   -1    0    0    0  501  0.00000000000E+00  0.00000000000E+00  0.11437598226E+03  0.11437598237E+03  0.50400001928E-02 0.  1.
        1   -1    0    0  501    0  0.00000000000E+00  0.00000000000E+00 -0.75180839537E+03  0.75180839539E+03  0.50400001928E-02 0. -1.
    10030    2    1    2    0    0  0.00000000000E+00  0.00000000000E+00 -0.63743241311E+03  0.86618437776E+03  0.58647702001E+03 0.  0.
        3    1    3    3  502    0  0.22751747973E+03  0.33243174651E+02 -0.58749886264E+03  0.63089161989E+03  0.10100000352E+00 0. -1.
       -3    1    3    3    0  502 -0.22751747973E+03 -0.33243174651E+02 -0.49933550469E+02  0.23529275787E+03  0.10100000352E+00 0.  1.
</event>
<event>
 5   0  0.8699746E-02  0.5938941E+03  0.7818609E-02  0.9918155E-01
        2   -1    0    0  501    0  0.00000000000E+00  0.00000000000E+00  0.81729146241E+03  0.81729146241E+03  0.25500000920E-02 0.  1.
       -2   -1    0    0    0  501  0.00000000000E+00  0.00000000000E+00 -0.10788996537E+03  0.10788996540E+03  0.25500000920E-02 0. -1.
    10030    2    1    2    0    0  0.00000000000E+00  0.00000000000E+00  0.70940149704E+03  0.92518142782E+03  0.59389409020E+03 0.  0.
        3    1    3    3  502    0 -0.12367787115E+03 -0.51658676697E+02  0.76748749788E+03  0.77910326934E+03  0.10100000352E+00 0.  1.
       -3    1    3    3    0  502  0.12367787115E+03  0.51658676697E+02 -0.58086000845E+02  0.14607815848E+03  0.10100000352E+00 0. -1.
</event>
<event>
 5   0  0.4987389E-02  0.5833624E+03  0.7818609E-02  0.9940538E-01
        1   -1    0    0  501    0  0.00000000000E+00  0.00000000000E+00  0.78183598374E+03  0.78183598376E+03  0.50400001928E-02 0.  1.
       -1   -1    0    0    0  501  0.00000000000E+00  0.00000000000E+00 -0.10881813534E+03  0.10881813546E+03  0.50400001928E-02 0. -1.
    10030    2    1    2    0    0  0.00000000000E+00  0.00000000000E+00  0.67301784840E+03  0.89065411922E+03  0.58336243950E+03 0.  0.
        1    1    3    3  502    0 -0.60479209587E+02 -0.19642578268E+03  0.65250428358E+03  0.68410720140E+03  0.50400001928E-02 0.  1.
       -1    1    3    3    0  502  0.60479209587E+02  0.19642578268E+03  0.20513564819E+02  0.20654691782E+03  0.50400001928E-02 0. -1.
</event>
<event>
 5   0  0.5166903E-02  0.5525112E+03  0.7818609E-02  0.1000914E+00
        1   -1    0    0  501    0  0.00000000000E+00  0.00000000000E+00  0.11929252998E+04  0.11929252998E+04  0.50400001928E-02 0.  1.
       -1   -1    0    0    0  501  0.00000000000E+00  0.00000000000E+00 -0.63974802075E+02  0.63974802273E+02  0.50400001928E-02 0. -1.
    10030    2    1    2    0    0  0.00000000000E+00  0.00000000000E+00  0.11289504977E+04  0.12569001021E+04  0.55251121283E+03 0.  0.
        2    1    3    3  502    0  0.29315718244E+02  0.24041217718E+03  0.26216578592E+03  0.35691501171E+03  0.25500000920E-02 0. -1.
       -2    1    3    3    0  502 -0.29315718244E+02 -0.24041217718E+03  0.86678471178E+03  0.89998509035E+03  0.25500000920E-02 0.  1.
</event>
<event>
 5   0  0.5190380E-02  0.5972906E+03  0.7818609E-02  0.9911043E-01
       -1   -1    0    0    0  501  0.00000000000E+00  0.00000000000E+00  0.53327017238E+03  0.53327017240E+03  0.50400001928E-02 0.  1.
        1   -1    0    0  501    0  0.00000000000E+00  0.00000000000E+00 -0.16724921420E+03  0.16724921428E+03  0.50400001928E-02 0. -1.
    10030    2    1    2    0    0  0.00000000000E+00  0.00000000000E+00  0.36602095818E+03  0.70051938669E+03  0.59729060707E+03 0.  0.
        5    1    3    3  502    0 -0.63510705918E+02  0.12065041122E+03  0.49458751570E+03  0.51305850756E+03  0.46999998093E+01 0.  1.
       -5    1    3    3    0  502  0.63510705918E+02 -0.12065041122E+03 -0.12856655752E+03  0.18746087913E+03  0.46999998093E+01 0. -1.
</event>
<event>
 5   0  0.8420604E-02  0.5803366E+03  0.7818609E-02  0.9947063E-01
       -2   -1    0    0    0  501  0.00000000000E+00  0.00000000000E+00  0.79447142080E+02  0.79447142121E+02  0.25500000920E-02 0. -1.
        2   -1    0    0  501    0  0.00000000000E+00  0.00000000000E+00 -0.10597943082E+04  0.10597943082E+04  0.25500000920E-02 0.  1.
    10030    2    1    2    0    0  0.00000000000E+00  0.00000000000E+00 -0.98034716612E+03  0.11392414503E+04  0.58033655409E+03 0.  0.
        2    1    3    3  502    0  0.68068130562E+02  0.74875627266E+02  0.43687702206E+02  0.11021907860E+03  0.25500000920E-02 0. -1.
       -2    1    3    3    0  502 -0.68068130562E+02 -0.74875627266E+02 -0.10240348683E+04  0.10290223717E+04  0.25500000920E-02 0.  1.
</event>
<event>
 5   0  0.8575590E-02  0.6074868E+03  0.7818609E-02  0.9889994E-01
       -2   -1    0    0    0  501  0.00000000000E+00  0.00000000000E+00  0.14987105060E+03  0.14987105062E+03  0.25500000920E-02 0.  1.
        2   -1    0    0  501    0  0.00000000000E+00  0.00000000000E+00 -0.61559621903E+03  0.61559621903E+03  0.25500000920E-02 0. -1.
    10030    2    1    2    0    0  0.00000000000E+00  0.00000000000E+00 -0.46572516843E+03  0.76546726965E+03  0.60748679690E+03 0.  0.
        4    1    3    3  502    0 -0.22888943304E+03 -0.13117358857E+03 -0.42254830897E+03  0.49814211748E+03  0.12699999809E+01 0. -1.
       -4    1    3    3    0  502  0.22888943304E+03  0.13117358857E+03 -0.43176859461E+02  0.26732515218E+03  0.12699999809E+01 0.  1.
</event>
<event>
 5   0  0.4881209E-02  0.6012527E+03  0.7818609E-02  0.9902810E-01
        1   -1    0    0  501    0  0.00000000000E+00  0.00000000000E+00  0.32635768933E+03  0.32635768937E+03  0.50400001928E-02 0. -1.
       -1   -1    0    0    0  501  0.00000000000E+00  0.00000000000E+00 -0.27692377860E+03  0.27692377865E+03  0.50400001928E-02 0.  1.
    10030    2    1    2    0    0  0.00000000000E+00  0.00000000000E+00  0.49433910729E+02  0.60328146802E+03  0.60125270737E+03 0.  0.
        3    1    3    3  502    0  0.89534705665E+02  0.29431271141E+01 -0.26322010049E+03  0.27804668137E+03  0.10100000352E+00 0.  1.
       -3    1    3    3    0  502 -0.89534705665E+02 -0.29431271141E+01  0.31265401122E+03  0.32523478665E+03  0.10100000352E+00 0. -1.
</event>
<event>
 5   0  0.8420604E-02  0.5973848E+03  0.7818609E-02  0.9910847E-01
       -2   -1    0    0    0  501  0.00000000000E+00  0.00000000000E+00  0.36813809292E+02  0.36813809380E+02  0.25500000920E-02 0.  1.
        2   -1    0    0  501    0  0.00000000000E+00  0.00000000000E+00 -0.24234697622E+04  0.24234697622E+04  0.25500000920E-02 0. -1.
    10030    2    1    2    0    0  0.00000000000E+00  0.00000000000E+00 -0.23866559530E+04  0.24602835716E+04  0.59738481320E+03 0.  0.
        2    1    3    3  502    0  0.15365400862E+03 -0.19216321014E+03 -0.49585501375E+03  0.55354173137E+03  0.25500000920E-02 0.  1.
       -2    1    3    3    0  502 -0.15365400862E+03  0.19216321014E+03 -0.18908009392E+04  0.19067418403E+04  0.25500000920E-02 0. -1.
</event>
<event>
 5   0  0.5190380E-02  0.5989108E+03  0.7818609E-02  0.9907668E-01
       -1   -1    0    0    0  501  0.00000000000E+00  0.00000000000E+00  0.27997918344E+03  0.27997918348E+03  0.50400001928E-02 0.  1.
        1   -1    0    0  501    0  0.00000000000E+00  0.00000000000E+00 -0.32028645124E+03  0.32028645128E+03  0.50400001928E-02 0. -1.
    10030    2    1    2    0    0  0.00000000000E+00  0.00000000000E+00 -0.40307267797E+02  0.60026563476E+03  0.59891080841E+03 0.  0.
        5    1    3    3  502    0  0.12286165548E+03 -0.26563019963E+03  0.43211688811E+02  0.29587789609E+03  0.46999998093E+01 0.  1.
       -5    1    3    3    0  502 -0.12286165548E+03  0.26563019963E+03 -0.83518956608E+02  0.30438773867E+03  0.46999998093E+01 0. -1.
</event>
<event>
 5   0  0.5190380E-02  0.5956768E+03  0.7818609E-02  0.9914416E-01
       -1   -1    0    0    0  501  0.00000000000E+00  0.00000000000E+00  0.71424027195E+03  0.71424027196E+03  0.50400001928E-02 0.  1.
        1   -1    0    0  501    0  0.00000000000E+00  0.00000000000E+00 -0.12419869715E+03  0.12419869725E+03  0.50400001928E-02 0. -1.
    10030    2    1    2    0    0  0.00000000000E+00  0.00000000000E+00  0.59004157480E+03  0.83843896921E+03  0.59567679585E+03 0.  0.
        5    1    3    3  502    0  0.13441574255E+03 -0.73832392695E+02 -0.64293092989E+02  0.16635656242E+03  0.46999998093E+01 0. -1.
       -5    1    3    3    0  502 -0.13441574255E+03  0.73832392695E+02  0.65433466779E+03  0.67208240679E+03  0.46999998093E+01 0.  1.
</event>
<event>
 5   0  0.5125031E-02  0.5898368E+03  0.7818609E-02  0.9926719E-01
        1   -1    0    0  501    0  0.00000000000E+00  0.00000000000E+00  0.23165384530E+03  0.23165384535E+03  0.50400001928E-02 0. -1.
       -1   -1    0    0    0  501  0.00000000000E+00  0.00000000000E+00 -0.37546049801E+03  0.37546049804E+03  0.50400001928E-02 0.  1.
    10030    2    1    2    0    0  0.00000000000E+00  0.00000000000E+00 -0.14380665271E+03  0.60711434339E+03  0.58983681861E+03 0.  0.
        4    1    3    3  502    0  0.93813405885E+02 -0.25845683890E+03 -0.18167799843E+03  0.32955940392E+03  0.12699999809E+01 0.  1.
       -4    1    3    3    0  502 -0.93813405885E+02  0.25845683890E+03  0.37871345720E+02  0.27755493947E+03  0.12699999809E+01 0. -1.
</event>
<event>
 5   0  0.5166903E-02  0.5961390E+03  0.7818609E-02  0.9913449E-01
       -1   -1    0    0    0  501  0.00000000000E+00  0.00000000000E+00  0.95580418159E+02  0.95580418292E+02  0.50400001928E-02 0.  1.
        1   -1    0    0  501    0  0.00000000000E+00  0.00000000000E+00 -0.92953578397E+03  0.92953578398E+03  0.50400001928E-02 0. -1.
    10030    2    1    2    0    0  0.00000000000E+00  0.00000000000E+00 -0.83395536581E+03  0.10251162023E+04  0.59613897373E+03 0.  0.
        2    1    3    3  502    0  0.28813485797E+03  0.72836644603E+02 -0.45613556112E+03  0.54441392644E+03  0.25500000920E-02 0.  1.
       -2    1    3    3    0  502 -0.28813485797E+03 -0.72836644603E+02 -0.37781980469E+03  0.48070227584E+03  0.25500000920E-02 0. -1.
</event>
<event>
 5   0  0.5190380E-02  0.5980876E+03  0.7818609E-02  0.9909382E-01
        1   -1    0    0  501    0  0.00000000000E+00  0.00000000000E+00  0.58164020346E+03  0.58164020349E+03  0.50400001928E-02 0. -1.
       -1   -1    0    0    0  501  0.00000000000E+00  0.00000000000E+00 -0.15375003356E+03  0.15375003364E+03  0.50400001928E-02 0.  1.
    10030    2    1    2    0    0  0.00000000000E+00  0.00000000000E+00  0.42789016990E+03  0.73539023713E+03  0.59808762181E+03 0.  0.
        5    1    3    3  502    0  0.68483052595E+02 -0.23332931795E+03  0.11981596229E-01  0.24321716479E+03  0.46999998093E+01 0.  1.
       -5    1    3    3    0  502 -0.68483052595E+02  0.23332931795E+03  0.42787818831E+03  0.49217307234E+03  0.46999998093E+01 0. -1.
</event>
<event>
 5   0  0.4987389E-02  0.5938092E+03  0.7818609E-02  0.9918334E-01
        1   -1    0    0  501    0  0.00000000000E+00  0.00000000000E+00  0.52554006318E+03  0.52554006320E+03  0.50400001928E-02 0.  1.
       -1   -1    0    0    0  501  0.00000000000E+00  0.00000000000E+00 -0.16773669262E+03  0.16773669269E+03  0.50400001928E-02 0. -1.
    10030    2    1    2    0    0  0.00000000000E+00  0.00000000000E+00  0.35780337056E+03  0.69327675590E+03  0.59380923560E+03 0.  0.
        1    1    3    3  502    0 -0.74107870794E+02  0.96318589029E+02 -0.13736812147E+03  0.18341005405E+03  0.50400001928E-02 0. -1.
       -1    1    3    3    0  502  0.74107870794E+02 -0.96318589029E+02  0.49517149203E+03  0.50986670184E+03  0.50400001928E-02 0.  1.
</event>
<event>
 5   0  0.8699746E-02  0.6056813E+03  0.7818609E-02  0.9893689E-01
        2   -1    0    0  501    0  0.00000000000E+00  0.00000000000E+00  0.45937469191E+03  0.45937469192E+03  0.25500000920E-02 0. -1.
       -2   -1    0    0    0  501  0.00000000000E+00  0.00000000000E+00 -0.19964630826E+03  0.19964630827E+03  0.25500000920E-02 0.  1.
    10030    2    1    2    0    0  0.00000000000E+00  0.00000000000E+00  0.25972838365E+03  0.65902100019E+03  0.60568130681E+03 0.  0.
        3    1    3    3  502    0  0.17373486394E+03 -0.30182766632E+02 -0.13802465167E+03  0.22393217057E+03  0.10100000352E+00 0.  1.
       -3    1    3    3    0  502 -0.17373486394E+03  0.30182766632E+02  0.39775303532E+03  0.43508882962E+03  0.10100000352E+00 0. -1.
</event>
<event>
 5   0  0.8699746E-02  0.6025141E+03  0.7818609E-02  0.9900204E-01
       -2   -1    0    0    0  501  0.00000000000E+00  0.00000000000E+00  0.10183158417E+03  0.10183158420E+03  0.25500000920E-02 0.  1.
        2   -1    0    0  501    0  0.00000000000E+00  0.00000000000E+00 -0.89123449942E+03  0.89123449942E+03  0.25500000920E-02 0. -1.
    10030    2    1    2    0    0  0.00000000000E+00  0.00000000000E+00 -0.78940291525E+03  0.99306608363E+03  0.60251413580E+03 0.  0.
        3    1    3    3  502    0  0.12987861917E+03 -0.20830434231E+03 -0.10687082005E+03  0.26773221159E+03  0.10100000352E+00 0.  1.
       -3    1    3    3    0  502 -0.12987861917E+03  0.20830434231E+03 -0.68253209521E+03  0.72533387204E+03  0.10100000352E+00 0. -1.
</event>
<event>
 5   0  0.4881209E-02  0.5911394E+03  0.7818609E-02  0.9923961E-01
       -1   -1    0    0    0  501  0.00000000000E+00  0.00000000000E+00  0.13489025545E+03  0.13489025554E+03  0.50400001928E-02 0. -1.
        1   -1    0    0  501    0  0.00000000000E+00  0.00000000000E+00 -0.64764831951E+03  0.64764831953E+03  0.50400001928E-02 0.  1.
    10030    2    1    2    0    0  0.00000000000E+00  0.00000000000E+00 -0.51275806407E+03  0.78253857507E+03  0.59113939914E+03 0.  0.
        3    1    3    3  502    0 -0.90390127502E+01 -0.93781568624E+02 -0.62723774863E+03  0.63427430176E+03  0.10100000352E+00 0.  1.
       -3    1    3    3    0  502  0.90390127502E+01  0.93781568624E+02  0.11447968456E+03  0.14826427332E+03  0.10100000352E+00 0. -1.
</event>
<event>
 5   0  0.4987389E-02  0.5973804E+03  0.7818609E-02  0.9910856E-01
        1   -1    0    0  501    0  0.00000000000E+00  0.00000000000E+00  0.21828920128E+04  0.21828920128E+04  0.50400001928E-02 0. -1.
       -1   -1    0    0    0  501  0.00000000000E+00  0.00000000000E+00 -0.40870478787E+02  0.40870479098E+02  0.50400001928E-02 0.  1.
    10030    2    1    2    0    0  0.00000000000E+00  0.00000000000E+00  0.21420215340E+04  0.22237624919E+04  0.59738042170E+03 0.  0.
        1    1    3    3  502    0  0.26563461819E+03 -0.10706374166E+03  0.13866896664E+04  0.14159564351E+04  0.50400001928E-02 0.  1.
       -1    1    3    3    0  502 -0.26563461819E+03  0.10706374166E+03  0.75533186760E+03  0.80780605680E+03  0.50400001928E-02 0. -1.
</event>
<event>
 5   0  0.4881209E-02  0.5912980E+03  0.7818609E-02  0.9923626E-01
        1   -1    0    0  501    0  0.00000000000E+00  0.00000000000E+00  0.25978267318E+03  0.25978267323E+03  0.50400001928E-02 0. -1.
       -1   -1    0    0    0  501  0.00000000000E+00  0.00000000000E+00 -0.33646714140E+03  0.33646714144E+03  0.50400001928E-02 0.  1.
    10030    2    1    2    0    0  0.00000000000E+00  0.00000000000E+00 -0.76684468218E+02  0.59624981467E+03  0.59129800763E+03 0.  0.
        3    1    3    3  502    0 -0.53609802338E+02  0.21604050754E+03 -0.23455027447E+03  0.32335947993E+03  0.10100000352E+00 0.  1.
       -3    1    3    3    0  502  0.53609802338E+02 -0.21604050754E+03  0.15786580625E+03  0.27289033473E+03  0.10100000352E+00 0. -1.
</event>
<event>
 5   0  0.8420604E-02  0.6054033E+03  0.7818609E-02  0.9894259E-01
        2   -1    0    0  501    0  0.00000000000E+00  0.00000000000E+00  0.28822428403E+03  0.28822428405E+03  0.25500000920E-02 0. -1.
       -2   -1    0    0    0  501  0.00000000000E+00  0.00000000000E+00 -0.31790617349E+03  0.31790617350E+03  0.25500000920E-02 0.  1.
    10030    2    1    2    0    0  0.00000000000E+00  0.00000000000E+00 -0.29681889453E+02  0.60613045754E+03  0.60540326808E+03 0.  0.
        2    1    3    3  502    0 -0.32609119380E+02 -0.29164655370E+03 -0.89140678123E+02  0.30670364761E+03  0.25500000920E-02 0.  1.
       -2    1    3    3    0  502  0.32609119380E+02  0.29164655370E+03  0.59458788671E+02  0.29942680994E+03  0.25500000920E-02 0. -1.
</event>
<event>
 5   0  0.8420604E-02  0.5998172E+03  0.7818609E-02  0.9905785E-01
        2   -1    0    0  501    0  0.00000000000E+00  0.00000000000E+00  0.45251627910E+03  0.45251627911E+03  0.25500000920E-02 0.  1.
       -2   -1    0    0    0  501  0.00000000000E+00  0.00000000000E+00 -0.19876672224E+03  0.19876672225E+03  0.25500000920E-02 0. -1.
    10030    2    1    2    0    0  0.00000000000E+00  0.00000000000E+00  0.25374955686E+03  0.65128300136E+03  0.59981723071E+03 0.  0.
        2    1    3    3  502    0 -0.47617087084E+02 -0.25039170247E+03  0.29849266396E+03  0.39250638478E+03  0.25500000920E-02 0.  1.
       -2    1    3    3    0  502  0.47617087084E+02  0.25039170247E+03 -0.44743107102E+02  0.25877661658E+03  0.25500000920E-02 0. -1.
</event>
<event>
 5   0  0.5125031E-02  0.5773113E+03  0.7818609E-02  0.9953629E-01
        1   -1    0    0  501    0  0.00000000000E+00  0.00000000000E+00  0.82302748543E+03  0.82302748545E+03  0.50400001928E-02 0.  1.
       -1   -1    0    0    0  501  0.00000000000E+00  0.00000000000E+00 -0.10123853305E+03  0.10123853317E+03  0.50400001928E-02 0. -1.
    10030    2    1    2    0    0  0.00000000000E+00  0.00000000000E+00  0.72178895239E+03  0.92426601862E+03  0.57731133836E+03 0.  0.
        4    1    3    3  502    0  0.14393101558E+03 -0.22237965049E+03  0.54449621646E+03  0.60551349187E+03  0.12699999809E+01 0.  1.
       -4    1    3    3    0  502 -0.14393101558E+03  0.22237965049E+03  0.17729273593E+03  0.31875252675E+03  0.12699999809E+01 0. -1.
</event>
<event>
 5   0  0.8207443E-02  0.5981121E+03  0.7818609E-02  0.9909331E-01
       -2   -1    0    0    0  501  0.00000000000E+00  0.00000000000E+00  0.84724123345E+02  0.84724123383E+02  0.25500000920E-02 0. -1.
        2   -1    0    0  501    0  0.00000000000E+00  0.00000000000E+00 -0.10555970361E+04  0.10555970361E+04  0.25500000920E-02 0.  1.
    10030    2    1    2    0    0  0.00000000000E+00  0.00000000000E+00 -0.97087291275E+03  0.11403211595E+04  0.59811214170E+03 0.  0.
        1    1    3    3  502    0 -0.32344321015E+02 -0.10368409614E+03  0.45792447146E+02  0.11787067123E+03  0.50400001928E-02 0. -1.
       -1    1    3    3    0  502  0.32344321015E+02  0.10368409614E+03 -0.10166653599E+04  0.10224504883E+04  0.50400001928E-02 0.  1.
</event>
<event>
 5   0  0.5190380E-02  0.6367610E+03  0.7818609E-02  0.9831943E-01
        1   -1    0    0  501    0  0.00000000000E+00  0.00000000000E+00  0.11541761010E+03  0.11541761021E+03  0.50400001928E-02 0. -1.
       -1   -1    0    0    0  501  0.00000000000E+00  0.00000000000E+00 -0.87825550582E+03  0.87825550584E+03  0.50400001928E-02 0.  1.
    10030    2    1    2    0    0  0.00000000000E+00  0.00000000000E+00 -0.76283789572E+03  0.99367311604E+03  0.63676102769E+03 0.  0.
        5    1    3    3  502    0  0.17405889359E+03 -0.84347834303E+02 -0.77599400439E+03  0.79974986116E+03  0.46999998093E+01 0.  1.
       -5    1    3    3    0  502 -0.17405889359E+03  0.84347834303E+02  0.13156108663E+02  0.19392325488E+03  0.46999998093E+01 0. -1.
</event>
<event>
 5   0  0.8817544E-02  0.6071558E+03  0.7818609E-02  0.9890670E-01
       -2   -1    0    0    0  501  0.00000000000E+00  0.00000000000E+00  0.22317163671E+03  0.22317163673E+03  0.25500000920E-02 0.  1.
        2   -1    0    0  501    0  0.00000000000E+00  0.00000000000E+00 -0.41295370688E+03  0.41295370688E+03  0.25500000920E-02 0. -1.
    10030    2    1    2    0    0  0.00000000000E+00  0.00000000000E+00 -0.18978207016E+03  0.63612534361E+03  0.60715584378E+03 0.  0.
        5    1    3    3  502    0 -0.71932290004E+02  0.28672300652E+03 -0.16712347202E+03  0.33961254645E+03  0.46999998093E+01 0. -1.
       -5    1    3    3    0  502  0.71932290004E+02 -0.28672300652E+03 -0.22658598147E+02  0.29651279716E+03  0.46999998093E+01 0.  1.
</event>
<event>
 5   0  0.8817544E-02  0.5974363E+03  0.7818609E-02  0.9910739E-01
        2   -1    0    0  501    0  0.00000000000E+00  0.00000000000E+00  0.33258671507E+03  0.33258671508E+03  0.25500000920E-02 0. -1.
       -2   -1    0    0    0  501  0.00000000000E+00  0.00000000000E+00 -0.26829852071E+03  0.26829852072E+03  0.25500000920E-02 0.  1.
    10030    2    1    2    0    0  0.00000000000E+00  0.00000000000E+00  0.64288194356E+02  0.60088523580E+03  0.59743626829E+03 0.  0.
        5    1    3    3  502    0  0.70618563129E+02  0.15222455597E+03 -0.21636759528E+03  0.27385456575E+03  0.46999998093E+01 0.  1.
       -5    1    3    3    0  502 -0.70618563129E+02 -0.15222455597E+03  0.28065578963E+03  0.32703067005E+03  0.46999998093E+01 0. -1.
</event>
<event>
 5   0  0.3437375E-02  0.5946918E+03  0.7818609E-02  0.9916481E-01
       -3   -1    0    0    0  501  0.00000000000E+00  0.00000000000E+00  0.14041070754E+04  0.14041070790E+04  0.10100000352E+00 0.  1.
        3   -1    0    0  501    0  0.00000000000E+00  0.00000000000E+00 -0.62968495963E+02  0.62968576964E+02  0.10100000352E+00 0. -1.
    10030    2    1    2    0    0  0.00000000000E+00  0.00000000000E+00  0.13411385794E+04  0.14670756560E+04  0.59469176147E+03 0.  0.
        4    1    3    3  502    0 -0.17418124729E+03  0.23353514477E+03  0.81724794373E+03  0.86762525619E+03  0.12699999809E+01 0.  1.
       -4    1    3    3    0  502  0.17418124729E+03 -0.23353514477E+03  0.52389063572E+03  0.59945039982E+03  0.12699999809E+01 0. -1.
</event>
<event>
 5   0  0.8420604E-02  0.5999467E+03  0.7818609E-02  0.9905517E-01
       -2   -1    0    0    0  501  0.00000000000E+00  0.00000000000E+00  0.16645890840E+03  0.16645890842E+03  0.25500000920E-02 0. -1.
        2   -1    0    0  501    0  0.00000000000E+00  0.00000000000E+00 -0.54057790289E+03  0.54057790290E+03  0.25500000920E-02 0.  1.
    10030    2    1    2    0    0  0.00000000000E+00  0.00000000000E+00 -0.37411899450E+03  0.70703681131E+03  0.59994668972E+03 0.  0.
        2    1    3    3  502    0 -0.22299424046E+03 -0.19291444218E+03 -0.25205450650E+03  0.38790963836E+03  0.25500000920E-02 0.  1.
       -2    1    3    3    0  502  0.22299424046E+03  0.19291444218E+03 -0.12206448799E+03  0.31912717295E+03  0.25500000920E-02 0. -1.
</event>
<event>
 5   0  0.5190380E-02  0.6059485E+03  0.7818609E-02  0.9893141E-01
       -1   -1    0    0    0  501  0.00000000000E+00  0.00000000000E+00  0.48940847624E+03  0.48940847627E+03  0.50400001928E-02 0.  1.
        1   -1    0    0  501    0  0.00000000000E+00  0.00000000000E+00 -0.18755990077E+03  0.18755990084E+03  0.50400001928E-02 0. -1.
    10030    2    1    2    0    0  0.00000000000E+00  0.00000000000E+00  0.30184857547E+03  0.67696837710E+03  0.60594853006E+03 0.  0.
        5    1    3    3  502    0 -0.64510861737E+00 -0.18756512111E+03  0.41669269525E+03  0.45698575809E+03  0.46999998093E+01 0.  1.
       -5    1    3    3    0  502  0.64510861737E+00  0.18756512111E+03 -0.11484411978E+03  0.21998261902E+03  0.46999998093E+01 0. -1.
</event>
<event>
 5   0  0.8699746E-02  0.5867384E+03  0.7818609E-02  0.9933308E-01
       -2   -1    0    0    0  501  0.00000000000E+00  0.00000000000E+00  0.16981713637E+03  0.16981713639E+03  0.25500000920E-02 0. -1.
        2   -1    0    0  501    0  0.00000000000E+00  0.00000000000E+00 -0.50681270863E+03  0.50681270863E+03  0.25500000920E-02 0.  1.
    10030    2    1    2    0    0  0.00000000000E+00  0.00000000000E+00 -0.33699557225E+03  0.67662984503E+03  0.58673838417E+03 0.  0.
        3    1    3    3  502    0  0.27151729494E+03 -0.10418172399E+03 -0.12398346796E+03  0.31614456122E+03  0.10100000352E+00 0. -1.
       -3    1    3    3    0  502 -0.27151729494E+03  0.10418172399E+03 -0.21301210430E+03  0.36048528381E+03  0.10100000352E+00 0.  1.
</event>
<event>
 5   0  0.4881209E-02  0.6113042E+03  0.7818609E-02  0.9882227E-01
        1   -1    0    0  501    0  0.00000000000E+00  0.00000000000E+00  0.16844120252E+03  0.16844120260E+03  0.50400001928E-02 0. -1.
       -1   -1    0    0    0  501  0.00000000000E+00  0.00000000000E+00 -0.55463401887E+03  0.55463401890E+03  0.50400001928E-02 0.  1.
    10030    2    1    2    0    0  0.00000000000E+00  0.00000000000E+00 -0.38619281635E+03  0.72307522150E+03  0.61130424875E+03 0.  0.
        3    1    3    3  502    0 -0.83591725030E+02 -0.45104359397E+02 -0.53673383312E+03  0.54507357077E+03  0.10100000352E+00 0.  1.
       -3    1    3    3    0  502  0.83591725030E+02  0.45104359397E+02  0.15054101677E+03  0.17800165073E+03  0.10100000352E+00 0. -1.
</event>
<event>
 5   0  0.8575590E-02  0.6013802E+03  0.7818609E-02  0.9902547E-01
        2   -1    0    0  501    0  0.00000000000E+00  0.00000000000E+00  0.64052817433E+03  0.64052817433E+03  0.25500000920E-02 0. -1.
       -2   -1    0    0    0  501  0.00000000000E+00  0.00000000000E+00 -0.14115623998E+03  0.14115624000E+03  0.25500000920E-02 0.  1.
    10030    2    1    2    0    0  0.00000000000E+00  0.00000000000E+00  0.49937193435E+03  0.78168441434E+03  0.60138024145E+03 0.  0.
        4    1    3    3  502    0 -0.26191657231E+02  0.27662706877E+03  0.39904847475E+03  0.48626107821E+03  0.12699999809E+01 0. -1.
       -4    1    3    3    0  502  0.26191657231E+02 -0.27662706877E+03  0.10032345960E+03  0.29542333613E+03  0.12699999809E+01 0.  1.
</event>
<event>
 5   0  0.5166903E-02  0.6003791E+03  0.7818609E-02  0.9904620E-01
        1   -1    0    0  501    0  0.00000000000E+00  0.00000000000E+00  0.57327797364E+03  0.57327797367E+03  0.50400001928E-02 0. -1.
       -1   -1    0    0    0  501  0.00000000000E+00  0.00000000000E+00 -0.15719034996E+03  0.15719035005E+03  0.50400001928E-02 0.  1.
    10030    2    1    2    0    0  0.00000000000E+00  0.00000000000E+00  0.41608762368E+03  0.73046832371E+03  0.60037909804E+03 0.  0.
        2    1    3    3  502    0  0.94922442372E+02 -0.24908937650E+03  0.37600704734E+03  0.46090897930E+03  0.25500000920E-02 0. -1.
       -2    1    3    3    0  502 -0.94922442372E+02  0.24908937650E+03  0.40080576341E+02  0.26955934441E+03  0.25500000920E-02 0.  1.
</event>
<event>
 5   0  0.4987389E-02  0.6930119E+03  0.7818609E-02  0.9729258E-01
        1   -1    0    0  501    0  0.00000000000E+00  0.00000000000E+00  0.48617618534E+03  0.48617618536E+03  0.50400001928E-02 0. -1.
       -1   -1    0    0    0  501  0.00000000000E+00  0.00000000000E+00 -0.24696059755E+03  0.24696059760E+03  0.50400001928E-02 0.  1.
    10030    2    1    2    0    0  0.00000000000E+00  0.00000000000E+00  0.23921558779E+03  0.73313678296E+03  0.69301186505E+03 0.  0.
        1    1    3    3  502    0 -0.19331822721E+03  0.16490163906E+03  0.36883655677E+03  0.44788937604E+03  0.50400001928E-02 0. -1.
       -1    1    3    3    0  502  0.19331822721E+03 -0.16490163906E+03 -0.12962096898E+03  0.28524740693E+03  0.50400001928E-02 0.  1.
</event>
<event>
 5   0  0.8817544E-02  0.6043584E+03  0.7818609E-02  0.9896405E-01
       -2   -1    0    0    0  501  0.00000000000E+00  0.00000000000E+00  0.23035748663E+03  0.23035748665E+03  0.25500000920E-02 0. -1.
        2   -1    0    0  501    0  0.00000000000E+00  0.00000000000E+00 -0.39639377587E+03  0.39639377588E+03  0.25500000920E-02 0.  1.
    10030    2    1    2    0    0  0.00000000000E+00  0.00000000000E+00 -0.16603628924E+03  0.62675126253E+03  0.60435841662E+03 0.  0.
        5    1    3    3  502    0 -0.10368502110E+03  0.23818166770E+03  0.77001047363E+02  0.27098402485E+03  0.46999998093E+01 0.  1.
       -5    1    3    3    0  502  0.10368502110E+03 -0.23818166770E+03 -0.24303733660E+03  0.35576723768E+03  0.46999998093E+01 0. -1.
</event>
<event>
 5   0  0.4881209E-02  0.6034410E+03  0.7818609E-02  0.9898293E-01
        1   -1    0    0  501    0  0.00000000000E+00  0.00000000000E+00  0.19047084596E+03  0.19047084603E+03  0.50400001928E-02 0. -1.
       -1   -1    0    0    0  501  0.00000000000E+00  0.00000000000E+00 -0.47794846814E+03  0.47794846817E+03  0.50400001928E-02 0.  1.
    10030    2    1    2    0    0  0.00000000000E+00  0.00000000000E+00 -0.28747762218E+03  0.66841931420E+03  0.60344096343E+03 0.  0.
        3    1    3    3  502    0 -0.17134870628E+03  0.17489591610E+03 -0.33903715814E+03  0.41820469320E+03  0.10100000352E+00 0.  1.
       -3    1    3    3    0  502  0.17134870628E+03 -0.17489591610E+03  0.51559535957E+02  0.25021462100E+03  0.10100000352E+00 0. -1.
</event>
<event>
 5   0  0.8699746E-02  0.5968726E+03  0.7818609E-02  0.9911916E-01
       -2   -1    0    0    0  501  0.00000000000E+00  0.00000000000E+00  0.10836963476E+03  0.10836963479E+03  0.25500000920E-02 0.  1.
        2   -1    0    0  501    0  0.00000000000E+00  0.00000000000E+00 -0.82185582663E+03  0.82185582663E+03  0.25500000920E-02 0. -1.
    10030    2    1    2    0    0  0.00000000000E+00  0.00000000000E+00 -0.71348619186E+03  0.93022546142E+03  0.59687256857E+03 0.  0.
        3    1    3    3  502    0 -0.21125811188E+03  0.52544019803E+02 -0.38590283734E+02  0.22108840777E+03  0.10100000352E+00 0.  1.
       -3    1    3    3    0  502  0.21125811188E+03 -0.52544019803E+02 -0.67489590813E+03  0.70913705365E+03  0.10100000352E+00 0. -1.
</event>
<event>
 5   0  0.8207443E-02  0.6232971E+03  0.7818609E-02  0.9858217E-01
       -2   -1    0    0    0  501  0.00000000000E+00  0.00000000000E+00  0.33564097832E+03  0.33564097833E+03  0.25500000920E-02 0.  1.
        2   -1    0    0  501    0  0.00000000000E+00  0.00000000000E+00 -0.28937116397E+03  0.28937116398E+03  0.25500000920E-02 0. -1.
    10030    2    1    2    0    0  0.00000000000E+00  0.00000000000E+00  0.46269814353E+02  0.62501214231E+03  0.62329710597E+03 0.  0.
        1    1    3    3  502    0 -0.16095945495E+03  0.24879541752E+03  0.11992882017E+03  0.31967175016E+03  0.50400001928E-02 0. -1.
       -1    1    3    3    0  502  0.16095945495E+03 -0.24879541752E+03 -0.73659005812E+02  0.30534039215E+03  0.50400001928E-02 0.  1.
</event>
<event>
 5   0  0.5166903E-02  0.6007666E+03  0.7818609E-02  0.9903817E-01
        1   -1    0    0  501    0  0.00000000000E+00  0.00000000000E+00  0.78936247779E+02  0.78936247940E+02  0.50400001928E-02 0. -1.
       -1   -1    0    0    0  501  0.00000000000E+00  0.00000000000E+00 -0.11430758398E+04  0.11430758398E+04  0.50400001928E-02 0.  1.
    10030    2    1    2    0    0  0.00000000000E+00  0.00000000000E+00 -0.10641395920E+04  0.12220120878E+04  0.60076656973E+03 0.  0.
        2    1    3    3  502    0 -0.10541991432E+03  0.27814807711E+03 -0.44696790198E+03  0.53689851605E+03  0.25500000920E-02 0.  1.
       -2    1    3    3    0  502  0.10541991432E+03 -0.27814807711E+03 -0.61717169007E+03  0.68511357172E+03  0.25500000920E-02 0. -1.
</event>
<event>
 5   0  0.3437375E-02  0.6008964E+03  0.7818609E-02  0.9903548E-01
       -4   -1    0    0    0  501  0.00000000000E+00  0.00000000000E+00  0.13790386041E+03  0.13790970820E+03  0.12699999809E+01 0. -1.
        4   -1    0    0  501    0  0.00000000000E+00  0.00000000000E+00 -0.65455975869E+03  0.65456099074E+03  0.12699999809E+01 0.  1.
    10030    2    1    2    0    0  0.00000000000E+00  0.00000000000E+00 -0.51665589828E+03  0.79247069895E+03  0.60089640660E+03 0.  0.
        5    1    3    3  502    0 -0.16475432966E+02  0.16842633929E+03  0.69014803378E+02  0.18282233108E+03  0.46999998093E+01 0. -1.
       -5    1    3    3    0  502  0.16475432966E+02 -0.16842633929E+03 -0.58567070166E+03  0.60964836786E+03  0.46999998093E+01 0.  1.
</event>
<event>
 5   0  0.8699746E-02  0.5967959E+03  0.7818609E-02  0.9912076E-01
        2   -1    0    0  501    0  0.00000000000E+00  0.00000000000E+00  0.35655684661E+03  0.35655684662E+03  0.25500000920E-02 0.  1.
       -2   -1    0    0    0  501  0.00000000000E+00  0.00000000000E+00 -0.24972548203E+03  0.24972548204E+03  0.25500000920E-02 0. -1.
    10030    2    1    2    0    0  0.00000000000E+00  0.00000000000E+00  0.10683136459E+03  0.60628232866E+03  0.59679587933E+03 0.  0.
        3    1    3    3  502    0  0.16799985243E+03 -0.12454418104E+03 -0.16282007624E+03  0.26503884786E+03  0.10100000352E+00 0. -1.
       -3    1    3    3    0  502 -0.16799985243E+03  0.12454418104E+03  0.26965144083E+03  0.34124348080E+03  0.10100000352E+00 0.  1.
</event>
<event>
 5   0  0.8699746E-02  0.5827510E+03  0.7818609E-02  0.9941853E-01
        2   -1    0    0  501    0  0.00000000000E+00  0.00000000000E+00  0.58167637247E+03  0.58167637248E+03  0.25500000920E-02 0. -1.
       -2   -1    0    0    0  501  0.00000000000E+00  0.00000000000E+00 -0.14595688844E+03  0.14595688847E+03  0.25500000920E-02 0.  1.
    10030    2    1    2    0    0  0.00000000000E+00  0.00000000000E+00  0.43571948403E+03  0.72763326095E+03  0.58275097055E+03 0.  0.
        3    1    3    3  502    0 -0.53071023048E+02 -0.24977605428E+03  0.39308959967E+03  0.46874732463E+03  0.10100000352E+00 0.  1.
       -3    1    3    3    0  502  0.53071023048E+02  0.24977605428E+03  0.42629884354E+02  0.25888593631E+03  0.10100000352E+00 0. -1.
</event>
<event>
 5   0  0.5166903E-02  0.6319412E+03  0.7818609E-02  0.9841268E-01
        1   -1    0    0  501    0  0.00000000000E+00  0.00000000000E+00  0.10795821356E+04  0.10795821356E+04  0.50400001928E-02 0. -1.
       -1   -1    0    0    0  501  0.00000000000E+00  0.00000000000E+00 -0.92477823558E+02  0.92477823695E+02  0.50400001928E-02 0.  1.
    10030    2    1    2    0    0  0.00000000000E+00  0.00000000000E+00  0.98710431206E+03  0.11720599593E+04  0.63194115657E+03 0.  0.
        2    1    3    3  502    0 -0.23513322385E+03 -0.10874893000E+03  0.82906000817E+03  0.86859338006E+03  0.25500000920E-02 0. -1.
       -2    1    3    3    0  502  0.23513322385E+03  0.10874893000E+03  0.15804430390E+03  0.30346657927E+03  0.25500000920E-02 0.  1.
</event>
<event>
 5   0  0.5125031E-02  0.6072415E+03  0.7818609E-02  0.9890495E-01
       -1   -1    0    0    0  501  0.00000000000E+00  0.00000000000E+00  0.28417275415E+03  0.28417275420E+03  0.50400001928E-02 0.  1.
        1   -1    0    0  501    0  0.00000000000E+00  0.00000000000E+00 -0.32439969543E+03  0.32439969547E+03  0.50400001928E-02 0. -1.
    10030    2    1    2    0    0  0.00000000000E+00  0.00000000000E+00 -0.40226941275E+02  0.60857244967E+03  0.60724148383E+03 0.  0.
        4    1    3    3  502    0  0.25095189153E+03 -0.29450298699E+02 -0.18882665250E+03  0.31543824997E+03  0.12699999809E+01 0. -1.
       -4    1    3    3    0  502 -0.25095189153E+03  0.29450298699E+02  0.14859971122E+03  0.29313419969E+03  0.12699999809E+01 0.  1.
</event>
<event>
 5   0  0.4987389E-02  0.5933393E+03  0.7818609E-02  0.9919322E-01
        1   -1    0    0  501    0  0.00000000000E+00  0.00000000000E+00  0.99129965130E+02  0.99129965258E+02  0.50400001928E-02 0. -1.
       -1   -1    0    0    0  501  0.00000000000E+00  0.00000000000E+00 -0.88785337355E+03  0.88785337356E+03  0.50400001928E-02 0.  1.
    10030    2    1    2    0    0  0.00000000000E+00  0.00000000000E+00 -0.78872340842E+03  0.98698333882E+03  0.59333927573E+03 0.  0.
        1    1    3    3  502    0 -0.14795600402E+03  0.19163653920E+03 -0.10915437561E+03  0.26557526244E+03  0.50400001928E-02 0. -1.
       -1    1    3    3    0  502  0.14795600402E+03 -0.19163653920E+03 -0.67956903281E+03  0.72140807638E+03  0.50400001928E-02 0.  1.
</event>
<event>
 5   0  0.4987389E-02  0.5658238E+03  0.7818609E-02  0.9978963E-01
       -1   -1    0    0    0  501  0.00000000000E+00  0.00000000000E+00  0.97288212653E+02  0.97288212783E+02  0.50400001928E-02 0. -1.
        1   -1    0    0  501    0  0.00000000000E+00  0.00000000000E+00 -0.82270145737E+03  0.82270145738E+03  0.50400001928E-02 0.  1.
    10030    2    1    2    0    0  0.00000000000E+00  0.00000000000E+00 -0.72541324471E+03  0.91998967016E+03  0.56582383973E+03 0.  0.
        1    1    3    3  502    0 -0.23966715561E+03  0.88555737945E+02 -0.16519339336E+03  0.30425535564E+03  0.50400001928E-02 0. -1.
       -1    1    3    3    0  502  0.23966715561E+03 -0.88555737945E+02 -0.56021985135E+03  0.61573431452E+03  0.50400001928E-02 0.  1.
</event>
<event>
 5   0  0.5166903E-02  0.6211805E+03  0.7818609E-02  0.9862412E-01
       -1   -1    0    0    0  501  0.00000000000E+00  0.00000000000E+00  0.81597506863E+03  0.81597506865E+03  0.50400001928E-02 0.  1.
        1   -1    0    0  501    0  0.00000000000E+00  0.00000000000E+00 -0.11822210597E+03  0.11822210608E+03  0.50400001928E-02 0. -1.
    10030    2    1    2    0    0  0.00000000000E+00  0.00000000000E+00  0.69775296266E+03  0.93419717473E+03  0.62118046039E+03 0.  0.
        2    1    3    3  502    0 -0.19544588418E+03  0.11850806560E+02  0.71146062315E+03  0.73791310706E+03  0.25500000920E-02 0.  1.
       -2    1    3    3    0  502  0.19544588418E+03 -0.11850806560E+02 -0.13707660493E+02  0.19628406767E+03  0.25500000920E-02 0. -1.
</event>
<event>
 5   0  0.4881209E-02  0.6078339E+03  0.7818609E-02  0.9889285E-01
       -1   -1    0    0    0  501  0.00000000000E+00  0.00000000000E+00  0.63198920042E+03  0.63198920044E+03  0.50400001928E-02 0. -1.
        1   -1    0    0  501    0  0.00000000000E+00  0.00000000000E+00 -0.14615048291E+03  0.14615048300E+03  0.50400001928E-02 0.  1.
    10030    2    1    2    0    0  0.00000000000E+00  0.00000000000E+00  0.48583871751E+03  0.77813968343E+03  0.60783394731E+03 0.  0.
        3    1    3    3  502    0  0.17493323745E+03  0.94066618043E+02  0.53740454355E+03  0.57293439400E+03  0.10100000352E+00 0. -1.
       -3    1    3    3    0  502 -0.17493323745E+03 -0.94066618043E+02 -0.51565826044E+02  0.20520528943E+03  0.10100000352E+00 0.  1.
</event>
<event>
 5   0  0.3437375E-02  0.6001381E+03  0.7818609E-02  0.9905120E-01
        3   -1    0    0  501    0  0.00000000000E+00  0.00000000000E+00  0.44820616005E+03  0.44820617143E+03  0.10100000352E+00 0.  1.
       -3   -1    0    0    0  501  0.00000000000E+00  0.00000000000E+00 -0.20089288608E+03  0.20089291147E+03  0.10100000352E+00 0. -1.
    10030    2    1    2    0    0  0.00000000000E+00  0.00000000000E+00  0.24731327397E+03  0.64909908290E+03  0.60013812072E+03 0.  0.
        4    1    3    3  502    0  0.23930807791E+03 -0.97309668288E+02  0.28876123942E+03  0.38745605426E+03  0.12699999809E+01 0.  1.
       -4    1    3    3    0  502 -0.23930807791E+03  0.97309668288E+02 -0.41447965446E+02  0.26164302864E+03  0.12699999809E+01 0. -1.
</event>
<event>
 5   0  0.5166903E-02  0.6020113E+03  0.7818609E-02  0.9901242E-01
       -1   -1    0    0    0  501  0.00000000000E+00  0.00000000000E+00  0.31289382152E+03  0.31289382156E+03  0.50400001928E-02 0.  1.
        1   -1    0    0  501    0  0.00000000000E+00  0.00000000000E+00 -0.28956920811E+03  0.28956920816E+03  0.50400001928E-02 0. -1.
    10030    2    1    2    0    0  0.00000000000E+00  0.00000000000E+00  0.23324613404E+02  0.60246302972E+03  0.60201134922E+03 0.  0.
        2    1    3    3  502    0  0.21994499373E+03 -0.19144269208E+03 -0.63081825618E+02  0.29833776386E+03  0.25500000920E-02 0. -1.
       -2    1    3    3    0  502 -0.21994499373E+03  0.19144269208E+03  0.86406439022E+02  0.30412526585E+03  0.25500000920E-02 0.  1.
</event>
<event>
 5   0  0.8207443E-02  0.5969377E+03  0.7818609E-02  0.9911780E-01
        2   -1    0    0  501    0  0.00000000000E+00  0.00000000000E+00  0.22124003496E+04  0.22124003496E+04  0.25500000920E-02 0.  1.
       -2   -1    0    0    0  501  0.00000000000E+00  0.00000000000E+00 -0.40265608023E+02  0.40265608104E+02  0.25500000920E-02 0. -1.
    10030    2    1    2    0    0  0.00000000000E+00  0.00000000000E+00  0.21721347416E+04  0.22526659577E+04  0.59693766965E+03 0.  0.
        1    1    3    3  502    0 -0.17229384596E+02 -0.21927197558E+03  0.32468959652E+03  0.39217392199E+03  0.50400001928E-02 0. -1.
       -1    1    3    3    0  502  0.17229384596E+02  0.21927197558E+03  0.18474451451E+04  0.18604920357E+04  0.50400001928E-02 0.  1.
</event>
<event>
 5   0  0.8207443E-02  0.6046018E+03  0.7818609E-02  0.9895904E-01
       -2   -1    0    0    0  501  0.00000000000E+00  0.00000000000E+00  0.11367087215E+03  0.11367087218E+03  0.25500000920E-02 0.  1.
        2   -1    0    0  501    0  0.00000000000E+00  0.00000000000E+00 -0.80395122569E+03  0.80395122570E+03  0.25500000920E-02 0. -1.
    10030    2    1    2    0    0  0.00000000000E+00  0.00000000000E+00 -0.69028035354E+03  0.91762209788E+03  0.60460180948E+03 0.  0.
        1    1    3    3  502    0  0.27335533644E+03  0.12092704310E+02 -0.15008703401E+03  0.31208250714E+03  0.50400001928E-02 0.  1.
       -1    1    3    3    0  502 -0.27335533644E+03 -0.12092704310E+02 -0.54019331953E+03  0.60553959074E+03  0.50400001928E-02 0. -1.
</event>
<event>
 5   0  0.8420604E-02  0.6028205E+03  0.7818609E-02  0.9899572E-01
       -2   -1    0    0    0  501  0.00000000000E+00  0.00000000000E+00  0.18575547440E+03  0.18575547442E+03  0.25500000920E-02 0. -1.
        2   -1    0    0  501    0  0.00000000000E+00  0.00000000000E+00 -0.48907377453E+03  0.48907377454E+03  0.25500000920E-02 0.  1.
    10030    2    1    2    0    0  0.00000000000E+00  0.00000000000E+00 -0.30331830013E+03  0.67482924896E+03  0.60282047415E+03 0.  0.
        2    1    3    3  502    0  0.80358760405E+01 -0.12517486129E+03  0.15515026986E+03  0.19951172258E+03  0.25500000920E-02 0. -1.
       -2    1    3    3    0  502 -0.80358760405E+01  0.12517486129E+03 -0.45846857000E+03  0.47531752638E+03  0.25500000920E-02 0.  1.
</event>
<event>
 5   0  0.5166903E-02  0.6053820E+03  0.7818609E-02  0.9894303E-01
        1   -1    0    0  501    0  0.00000000000E+00  0.00000000000E+00  0.12730612595E+04  0.12730612595E+04  0.50400001928E-02 0. -1.
       -1   -1    0    0    0  501  0.00000000000E+00  0.00000000000E+00 -0.71969702189E+02  0.71969702365E+02  0.50400001928E-02 0.  1.
    10030    2    1    2    0    0  0.00000000000E+00  0.00000000000E+00  0.12010915573E+04  0.13450309619E+04  0.60538199459E+03 0.  0.
        2    1    3    3  502    0  0.35983703370E+02  0.39102571234E+02 -0.61524936348E+02  0.81296714475E+02  0.25500000920E-02 0.  1.
       -2    1    3    3    0  502 -0.35983703370E+02 -0.39102571234E+02  0.12626164937E+04  0.12637342474E+04  0.25500000920E-02 0. -1.
</event>
<event>
 5   0  0.5125031E-02  0.5914207E+03  0.7818609E-02  0.9923367E-01
       -1   -1    0    0    0  501  0.00000000000E+00  0.00000000000E+00  0.17882857241E+03  0.17882857249E+03  0.50400001928E-02 0. -1.
        1   -1    0    0  501    0  0.00000000000E+00  0.00000000000E+00 -0.48898575243E+03  0.48898575246E+03  0.50400001928E-02 0.  1.
    10030    2    1    2    0    0  0.00000000000E+00  0.00000000000E+00 -0.31015718002E+03  0.66781432494E+03  0.59142074387E+03 0.  0.
        4    1    3    3  502    0  0.19355856020E+02  0.29303439906E+03 -0.11597599986E+03  0.31574650218E+03  0.12699999809E+01 0. -1.
       -4    1    3    3    0  502 -0.19355856020E+02 -0.29303439906E+03 -0.19418118015E+03  0.35206782276E+03  0.12699999809E+01 0.  1.
</event>
<event>
 5   0  0.4987389E-02  0.5380869E+03  0.7818609E-02  0.1004290E+00
        1   -1    0    0  501    0  0.00000000000E+00  0.00000000000E+00  0.54510016632E+03  0.54510016634E+03  0.50400001928E-02 0. -1.
       -1   -1    0    0    0  501  0.00000000000E+00  0.00000000000E+00 -0.13279094905E+03  0.13279094914E+03  0.50400001928E-02 0.  1.
    10030    2    1    2    0    0  0.00000000000E+00  0.00000000000E+00  0.41230921727E+03  0.67789111548E+03  0.53808686456E+03 0.  0.
        1    1    3    3  502    0  0.15312075368E+03 -0.71939231797E+01 -0.72395090424E+02  0.16952512168E+03  0.50400001928E-02 0.  1.
       -1    1    3    3    0  502 -0.15312075368E+03  0.71939231797E+01  0.48470430769E+03  0.50836599380E+03  0.50400001928E-02 0. -1.
</event>
<event>
 5   0  0.5166903E-02  0.5986095E+03  0.7818609E-02  0.9908295E-01
        1   -1    0    0  501    0  0.00000000000E+00  0.00000000000E+00  0.21848753139E+03  0.21848753145E+03  0.50400001928E-02 0.  1.
       -1   -1    0    0    0  501  0.00000000000E+00  0.00000000000E+00 -0.41001582926E+03  0.41001582929E+03  0.50400001928E-02 0. -1.
    10030    2    1    2    0    0  0.00000000000E+00  0.00000000000E+00 -0.19152829787E+03  0.62850336074E+03  0.59860954350E+03 0.  0.
        2    1    3    3  502    0  0.29563831329E+03  0.36632642954E+02 -0.65345200190E+02  0.30498189783E+03  0.25500000920E-02 0.  1.
       -2    1    3    3    0  502 -0.29563831329E+03 -0.36632642954E+02 -0.12618309768E+03  0.32352146290E+03  0.25500000920E-02 0. -1.
</event>
<event>
 5   0  0.3437375E-02  0.5869341E+03  0.7818609E-02  0.9932891E-01
       -4   -1    0    0    0  501  0.00000000000E+00  0.00000000000E+00  0.44312363931E+03  0.44312545922E+03  0.12699999809E+01 0. -1.
        4   -1    0    0  501    0  0.00000000000E+00  0.00000000000E+00 -0.19434981122E+03  0.19435396065E+03  0.12699999809E+01 0.  1.
    10030    2    1    2    0    0  0.00000000000E+00  0.00000000000E+00  0.24877382809E+03  0.63747941987E+03  0.58693406207E+03 0.  0.
        1    1    3    3  502    0 -0.14010730203E+03 -0.21940488652E+03 -0.22758325678E+02  0.26131686077E+03  0.50400001928E-02 0.  1.
       -1    1    3    3    0  502  0.14010730203E+03  0.21940488652E+03  0.27153215377E+03  0.37616255910E+03  0.50400001928E-02 0. -1.
</event>
<event>
 5   0  0.8699746E-02  0.6007856E+03  0.7818609E-02  0.9903778E-01
        2   -1    0    0  501    0  0.00000000000E+00  0.00000000000E+00  0.35414338767E+03  0.35414338768E+03  0.25500000920E-02 0.  1.
       -2   -1    0    0    0  501  0.00000000000E+00  0.00000000000E+00 -0.25480025506E+03  0.25480025507E+03  0.25500000920E-02 0. -1.
    10030    2    1    2    0    0  0.00000000000E+00  0.00000000000E+00  0.99343132614E+02  0.60894364275E+03  0.60078557077E+03 0.  0.
        3    1    3    3  502    0 -0.23912530947E+03  0.13912278897E+03 -0.68963737977E+02  0.28511764483E+03  0.10100000352E+00 0. -1.
       -3    1    3    3    0  502  0.23912530947E+03 -0.13912278897E+03  0.16830687059E+03  0.32382599792E+03  0.10100000352E+00 0.  1.
</event>
<event>
 5   0  0.8207443E-02  0.5421921E+03  0.7818609E-02  0.1003317E+00
       -2   -1    0    0    0  501  0.00000000000E+00  0.00000000000E+00  0.73956911018E+02  0.73956911062E+02  0.25500000920E-02 0.  1.
        2   -1    0    0  501    0  0.00000000000E+00  0.00000000000E+00 -0.99372822491E+03  0.99372822492E+03  0.25500000920E-02 0. -1.
    10030    2    1    2    0    0  0.00000000000E+00  0.00000000000E+00 -0.91977131390E+03  0.10676851360E+04  0.54219210592E+03 0.  0.
        1    1    3    3  502    0  0.17639916912E+03  0.13771741104E+03 -0.15858945259E+03  0.27428701512E+03  0.50400001928E-02 0.  1.
       -1    1    3    3    0  502 -0.17639916912E+03 -0.13771741104E+03 -0.76118186131E+03  0.79339812085E+03  0.50400001928E-02 0. -1.
</event>
<event>
 5   0  0.8699746E-02  0.5722158E+03  0.7818609E-02  0.9964787E-01
        2   -1    0    0  501    0  0.00000000000E+00  0.00000000000E+00  0.28066829552E+03  0.28066829553E+03  0.25500000920E-02 0. -1.
       -2   -1    0    0    0  501  0.00000000000E+00  0.00000000000E+00 -0.29165292590E+03  0.29165292592E+03  0.25500000920E-02 0.  1.
    10030    2    1    2    0    0  0.00000000000E+00  0.00000000000E+00 -0.10984630382E+02  0.57232122145E+03  0.57221579707E+03 0.  0.
        3    1    3    3  502    0 -0.15068457722E+03 -0.22757698632E+03 -0.91302019489E+02  0.28780756675E+03  0.10100000352E+00 0. -1.
       -3    1    3    3    0  502  0.15068457722E+03  0.22757698632E+03  0.80317389107E+02  0.28451365470E+03  0.10100000352E+00 0.  1.
</event>
<event>
 5   0  0.5125031E-02  0.5989547E+03  0.7818609E-02  0.9907577E-01
       -1   -1    0    0    0  501  0.00000000000E+00  0.00000000000E+00  0.71366192239E+02  0.71366192417E+02  0.50400001928E-02 0.  1.
        1   -1    0    0  501    0  0.00000000000E+00  0.00000000000E+00 -0.12567109166E+04  0.12567109166E+04  0.50400001928E-02 0. -1.
    10030    2    1    2    0    0  0.00000000000E+00  0.00000000000E+00 -0.11853447243E+04  0.13280771090E+04  0.59895466601E+03 0.  0.
        4    1    3    3  502    0 -0.24761204662E+03  0.72191146103E+02 -0.25521785121E+03  0.36285128039E+03  0.12699999809E+01 0. -1.
       -4    1    3    3    0  502  0.24761204662E+03 -0.72191146103E+02 -0.93012687312E+03  0.96522582861E+03  0.12699999809E+01 0.  1.
</event>
<event>
 5   0  0.8420604E-02  0.6024984E+03  0.7818609E-02  0.9900236E-01
        2   -1    0    0  501    0  0.00000000000E+00  0.00000000000E+00  0.17268184581E+04  0.17268184581E+04  0.25500000920E-02 0. -1.
       -2   -1    0    0    0  501  0.00000000000E+00  0.00000000000E+00 -0.52553915619E+02  0.52553915681E+02  0.25500000920E-02 0.  1.
    10030    2    1    2    0    0  0.00000000000E+00  0.00000000000E+00  0.16742645425E+04  0.17793723738E+04  0.60249837043E+03 0.  0.
        2    1    3    3  502    0  0.17102300219E+03 -0.20182115641E+03  0.41150087101E+03  0.48919690647E+03  0.25500000920E-02 0. -1.
       -2    1    3    3    0  502 -0.17102300219E+03  0.20182115641E+03  0.12627636714E+04  0.12901754673E+04  0.25500000920E-02 0.  1.
</event>
<event>
 5   0  0.8420604E-02  0.5841321E+03  0.7818609E-02  0.9938885E-01
        2   -1    0    0  501    0  0.00000000000E+00  0.00000000000E+00  0.23574553921E+03  0.23574553923E+03  0.25500000920E-02 0.  1.
       -2   -1    0    0    0  501  0.00000000000E+00  0.00000000000E+00 -0.36184173388E+03  0.36184173389E+03  0.25500000920E-02 0. -1.
    10030    2    1    2    0    0  0.00000000000E+00  0.00000000000E+00 -0.12609619466E+03  0.59758727311E+03  0.58413209009E+03 0.  0.
        2    1    3    3  502    0 -0.13638828643E+03  0.16666054040E+03 -0.26488705703E+03  0.34138344042E+03  0.25500000920E-02 0. -1.
       -2    1    3    3    0  502  0.13638828643E+03 -0.16666054040E+03  0.13879086237E+03  0.25620383269E+03  0.25500000920E-02 0.  1.
</event>
<event>
 5   0  0.5125031E-02  0.6030266E+03  0.7818609E-02  0.9899147E-01
       -1   -1    0    0    0  501  0.00000000000E+00  0.00000000000E+00  0.56792851030E+03  0.56792851032E+03  0.50400001928E-02 0.  1.
        1   -1    0    0  501    0  0.00000000000E+00  0.00000000000E+00 -0.16007344752E+03  0.16007344760E+03  0.50400001928E-02 0. -1.
    10030    2    1    2    0    0  0.00000000000E+00  0.00000000000E+00  0.40785506278E+03  0.72800195792E+03  0.60302661509E+03 0.  0.
        4    1    3    3  502    0  0.23550098960E+03 -0.17878686813E+03  0.13267745068E+03  0.32408390755E+03  0.12699999809E+01 0.  1.
       -4    1    3    3    0  502 -0.23550098960E+03  0.17878686813E+03  0.27517761209E+03  0.40391805037E+03  0.12699999809E+01 0. -1.
</event>
<event>
 5   0  0.5166903E-02  0.6062010E+03  0.7818609E-02  0.9892624E-01
        1   -1    0    0  501    0  0.00000000000E+00  0.00000000000E+00  0.60162073539E+03  0.60162073541E+03  0.50400001928E-02 0.  1.
       -1   -1    0    0    0  501  0.00000000000E+00  0.00000000000E+00 -0.15270403094E+03  0.15270403102E+03  0.50400001928E-02 0. -1.
    10030    2    1    2    0    0  0.00000000000E+00  0.00000000000E+00  0.44891670446E+03  0.75432476643E+03  0.60620099448E+03 0.  0.
        2    1    3    3  502    0  0.16316891169E+03  0.25004013628E+03  0.15949258560E+03  0.33849970216E+03  0.25500000920E-02 0.  1.
       -2    1    3    3    0  502 -0.16316891169E+03 -0.25004013628E+03  0.28942411885E+03  0.41582506427E+03  0.25500000920E-02 0. -1.
</event>
<event>
 5   0  0.5190380E-02  0.5872610E+03  0.7818609E-02  0.9932194E-01
       -1   -1    0    0    0  501  0.00000000000E+00  0.00000000000E+00  0.94844763919E+02  0.94844764053E+02  0.50400001928E-02 0. -1.
        1   -1    0    0  501    0  0.00000000000E+00  0.00000000000E+00 -0.90905262703E+03  0.90905262705E+03  0.50400001928E-02 0.  1.
    10030    2    1    2    0    0  0.00000000000E+00  0.00000000000E+00 -0.81420786311E+03  0.10038973911E+04  0.58726103864E+03 0.  0.
        5    1    3    3  502    0  0.24079743104E+03  0.16769959103E+03 -0.42334253406E+03  0.51511896371E+03  0.46999998093E+01 0. -1.
       -5    1    3    3    0  502 -0.24079743104E+03 -0.16769959103E+03 -0.39086532905E+03  0.48877842739E+03  0.46999998093E+01 0.  1.
</event>
<event>
 5   0  0.8575590E-02  0.5855591E+03  0.7818609E-02  0.9935828E-01
       -2   -1    0    0    0  501  0.00000000000E+00  0.00000000000E+00  0.23884466832E+03  0.23884466833E+03  0.25500000920E-02 0. -1.
        2   -1    0    0  501    0  0.00000000000E+00  0.00000000000E+00 -0.35889378252E+03  0.35889378253E+03  0.25500000920E-02 0.  1.
    10030    2    1    2    0    0  0.00000000000E+00  0.00000000000E+00 -0.12004911420E+03  0.59773845086E+03  0.58555910532E+03 0.  0.
        4    1    3    3  502    0 -0.51954148909E+02  0.26235568984E+03  0.61568528848E+02  0.27444860762E+03  0.12699999809E+01 0. -1.
       -4    1    3    3    0  502  0.51954148909E+02 -0.26235568984E+03 -0.18161764305E+03  0.32328984325E+03  0.12699999809E+01 0.  1.
</event>
<event>
 5   0  0.4881209E-02  0.5823788E+03  0.7818609E-02  0.9942654E-01
        1   -1    0    0  501    0  0.00000000000E+00  0.00000000000E+00  0.92364923050E+03  0.92364923051E+03  0.50400001928E-02 0. -1.
       -1   -1    0    0    0  501  0.00000000000E+00  0.00000000000E+00 -0.91800280483E+02  0.91800280622E+02  0.50400001928E-02 0.  1.
    10030    2    1    2    0    0  0.00000000000E+00  0.00000000000E+00  0.83184895001E+03  0.10154495111E+04  0.58237877195E+03 0.  0.
        3    1    3    3  502    0 -0.17008178277E+03  0.72871496410E+02  0.80796145993E+03  0.82887863934E+03  0.10100000352E+00 0.  1.
       -3    1    3    3    0  502  0.17008178277E+03 -0.72871496410E+02  0.23887490085E+02  0.18657087180E+03  0.10100000352E+00 0. -1.
</event>
<event>
 5   0  0.8207443E-02  0.5963478E+03  0.7818609E-02  0.9913012E-01
        2   -1    0    0  501    0  0.00000000000E+00  0.00000000000E+00  0.67414130145E+03  0.67414130146E+03  0.25500000920E-02 0. -1.
       -2   -1    0    0    0  501  0.00000000000E+00  0.00000000000E+00 -0.13188283905E+03  0.13188283907E+03  0.25500000920E-02 0.  1.
    10030    2    1    2    0    0  0.00000000000E+00  0.00000000000E+00  0.54225846241E+03  0.80602414053E+03  0.59634778030E+03 0.  0.
        1    1    3    3  502    0  0.29542869169E+03 -0.37607460046E+02  0.29095845490E+03  0.41635232127E+03  0.50400001928E-02 0. -1.
       -1    1    3    3    0  502 -0.29542869169E+03  0.37607460046E+02  0.25130000751E+03  0.38967181926E+03  0.50400001928E-02 0.  1.
</event>
<event>
 5   0  0.5190380E-02  0.6029769E+03  0.7818609E-02  0.9899249E-01
       -1   -1    0    0    0  501  0.00000000000E+00  0.00000000000E+00  0.21891367130E+03  0.21891367136E+03  0.50400001928E-02 0.  1.
        1   -1    0    0  501    0  0.00000000000E+00  0.00000000000E+00 -0.41521058654E+03  0.41521058657E+03  0.50400001928E-02 0. -1.
    10030    2    1    2    0    0  0.00000000000E+00  0.00000000000E+00 -0.19629691524E+03  0.63412425794E+03  0.60297686156E+03 0.  0.
        5    1    3    3  502    0  0.39646190124E+02  0.25036775708E+03  0.73427379108E+02  0.26394981374E+03  0.46999998093E+01 0.  1.
       -5    1    3    3    0  502 -0.39646190124E+02 -0.25036775708E+03 -0.26972429435E+03  0.37017444419E+03  0.46999998093E+01 0. -1.
</event>
<event>
 5   0  0.4987389E-02  0.6024680E+03  0.7818609E-02  0.9900299E-01
        1   -1    0    0  501    0  0.00000000000E+00  0.00000000000E+00  0.26741892229E+03  0.26741892233E+03  0.50400001928E-02 0.  1.
       -1   -1    0    0    0  501  0.00000000000E+00  0.00000000000E+00 -0.33932499136E+03  0.33932499140E+03  0.50400001928E-02 0. -1.
    10030    2    1    2    0    0  0.00000000000E+00  0.00000000000E+00 -0.71906069073E+02  0.60674391373E+03  0.60246800254E+03 0.  0.
        1    1    3    3  502    0  0.38444734933E+02 -0.24229042000E+03 -0.21200585563E+03  0.32423622271E+03  0.50400001928E-02 0. -1.
       -1    1    3    3    0  502 -0.38444734933E+02  0.24229042000E+03  0.14009978656E+03  0.28250769102E+03  0.50400001928E-02 0.  1.
</event>
<event>
 5   0  0.4987389E-02  0.6674849E+03  0.7818609E-02  0.9774512E-01
       -1   -1    0    0    0  501  0.00000000000E+00  0.00000000000E+00  0.35978669201E+03  0.35978669205E+03  0.50400001928E-02 0. -1.
        1   -1    0    0  501    0  0.00000000000E+00  0.00000000000E+00 -0.30958354415E+03  0.30958354419E+03  0.50400001928E-02 0.  1.
    10030    2    1    2    0    0  0.00000000000E+00  0.00000000000E+00  0.50203147867E+02  0.66937023623E+03  0.66748494897E+03 0.  0.
        1    1    3    3  502    0  0.75894662527E+02 -0.31868284481E+03  0.89041239256E+02  0.33948062933E+03  0.50400001928E-02 0. -1.
       -1    1    3    3    0  502 -0.75894662527E+02  0.31868284481E+03 -0.38838091389E+02  0.32988960691E+03  0.50400001928E-02 0.  1.
</event>
<event>
 5   0  0.5190380E-02  0.6016970E+03  0.7818609E-02  0.9901892E-01
       -1   -1    0    0    0  501  0.00000000000E+00  0.00000000000E+00  0.90581554836E+02  0.90581554977E+02  0.50400001928E-02 0. -1.
        1   -1    0    0  501    0  0.00000000000E+00  0.00000000000E+00 -0.99920799448E+03  0.99920799449E+03  0.50400001928E-02 0.  1.
    10030    2    1    2    0    0  0.00000000000E+00  0.00000000000E+00 -0.90862643964E+03  0.10897895495E+04  0.60169697964E+03 0.  0.
        5    1    3    3  502    0 -0.91014731311E+02  0.28632527056E+03 -0.42733422302E+03  0.52240067960E+03  0.46999998093E+01 0. -1.
       -5    1    3    3    0  502  0.91014731311E+02 -0.28632527056E+03 -0.48129221662E+03  0.56738886987E+03  0.46999998093E+01 0.  1.
</event>
<event>
 5   0  0.8575590E-02  0.5995396E+03  0.7818609E-02  0.9906362E-01
       -2   -1    0    0    0  501  0.00000000000E+00  0.00000000000E+00  0.71441939279E+03  0.71441939279E+03  0.25500000920E-02 0.  1.
        2   -1    0    0  501    0  0.00000000000E+00  0.00000000000E+00 -0.12578314678E+03  0.12578314680E+03  0.25500000920E-02 0. -1.
    10030    2    1    2    0    0  0.00000000000E+00  0.00000000000E+00  0.58863624601E+03  0.84020253959E+03  0.59953955451E+03 0.  0.
        4    1    3    3  502    0  0.27711978295E+03 -0.85488524196E+02  0.40064690949E+03  0.49459399598E+03  0.12699999809E+01 0.  1.
       -4    1    3    3    0  502 -0.27711978295E+03  0.85488524196E+02  0.18798933652E+03  0.34560854361E+03  0.12699999809E+01 0. -1.
</event>
<event>
 5   0  0.8699746E-02  0.6051718E+03  0.7818609E-02  0.9894734E-01
        2   -1    0    0  501    0  0.00000000000E+00  0.00000000000E+00  0.90452283572E+03  0.90452283573E+03  0.25500000920E-02 0.  1.
       -2   -1    0    0    0  501  0.00000000000E+00  0.00000000000E+00 -0.10122267056E+03  0.10122267059E+03  0.25500000920E-02 0. -1.
    10030    2    1    2    0    0  0.00000000000E+00  0.00000000000E+00  0.80330016516E+03  0.10057455063E+04  0.60517176746E+03 0.  0.
        3    1    3    3  502    0  0.22636337171E+03  0.38331580747E+02  0.72921447403E+03  0.76450208990E+03  0.10100000352E+00 0.  1.
       -3    1    3    3    0  502 -0.22636337171E+03 -0.38331580747E+02  0.74085691133E+02  0.24124341642E+03  0.10100000352E+00 0. -1.
</event>
<event>
 5   0  0.8420604E-02  0.5878267E+03  0.7818609E-02  0.9930989E-01
        2   -1    0    0  501    0  0.00000000000E+00  0.00000000000E+00  0.44879475134E+03  0.44879475134E+03  0.25500000920E-02 0.  1.
       -2   -1    0    0    0  501  0.00000000000E+00  0.00000000000E+00 -0.19248233201E+03  0.19248233202E+03  0.25500000920E-02 0. -1.
    10030    2    1    2    0    0  0.00000000000E+00  0.00000000000E+00  0.25631241933E+03  0.64127708337E+03  0.58782671030E+03 0.  0.
        2    1    3    3  502    0  0.20950494542E+03  0.16697724304E+03 -0.37123932103E+01  0.26793190127E+03  0.25500000920E-02 0. -1.
       -2    1    3    3    0  502 -0.20950494542E+03 -0.16697724304E+03  0.26002481254E+03  0.37334518209E+03  0.25500000920E-02 0.  1.
</event>
<event>
 5   0  0.8207443E-02  0.5880029E+03  0.7818609E-02  0.9930614E-01
       -2   -1    0    0    0  501  0.00000000000E+00  0.00000000000E+00  0.25978727543E+03  0.25978727544E+03  0.25500000920E-02 0. -1.
        2   -1    0    0  501    0  0.00000000000E+00  0.00000000000E+00 -0.33272163485E+03  0.33272163486E+03  0.25500000920E-02 0.  1.
    10030    2    1    2    0    0  0.00000000000E+00  0.00000000000E+00 -0.72934359420E+02  0.59250891030E+03  0.58800288095E+03 0.  0.
        1    1    3    3  502    0 -0.77560975564E+02  0.27602022441E+03  0.29100485317E+02  0.28818346151E+03  0.50400001928E-02 0. -1.
       -1    1    3    3    0  502  0.77560975564E+02 -0.27602022441E+03 -0.10203484474E+03  0.30432544879E+03  0.50400001928E-02 0.  1.
</event>
<event>
 5   0  0.8817544E-02  0.5984207E+03  0.7818609E-02  0.9908688E-01
       -2   -1    0    0    0  501  0.00000000000E+00  0.00000000000E+00  0.49203819750E+03  0.49203819751E+03  0.25500000920E-02 0.  1.
        2   -1    0    0  501    0  0.00000000000E+00  0.00000000000E+00 -0.18195095694E+03  0.18195095695E+03  0.25500000920E-02 0. -1.
    10030    2    1    2    0    0  0.00000000000E+00  0.00000000000E+00  0.31008724057E+03  0.67398915446E+03  0.59842065771E+03 0.  0.
        5    1    3    3  502    0 -0.16020520627E+03 -0.25213610422E+03  0.13666047847E+03  0.32853690743E+03  0.46999998093E+01 0. -1.
       -5    1    3    3    0  502  0.16020520627E+03  0.25213610422E+03  0.17342676210E+03  0.34545224703E+03  0.46999998093E+01 0.  1.
</event>
<event>
 5   0  0.8699746E-02  0.6127342E+03  0.7818609E-02  0.9879333E-01
        2   -1    0    0  501    0  0.00000000000E+00  0.00000000000E+00  0.25300697350E+03  0.25300697351E+03  0.25500000920E-02 0. -1.
       -2   -1    0    0    0  501  0.00000000000E+00  0.00000000000E+00 -0.37098112607E+03  0.37098112608E+03  0.25500000920E-02 0.  1.
    10030    2    1    2    0    0  0.00000000000E+00  0.00000000000E+00 -0.11797415257E+03  0.62398809959E+03  0.61273423909E+03 0.  0.
        3    1    3    3  502    0  0.25215548407E+03  0.16238907460E+03 -0.12265089158E+03  0.32403063297E+03  0.10100000352E+00 0. -1.
       -3    1    3    3    0  502 -0.25215548407E+03 -0.16238907460E+03  0.46767390089E+01  0.29995746663E+03  0.10100000352E+00 0.  1.
</event>
<event>
 5   0  0.4987389E-02  0.5987262E+03  0.7818609E-02  0.9908052E-01
        1   -1    0    0  501    0  0.00000000000E+00  0.00000000000E+00  0.85684019654E+03  0.85684019656E+03  0.50400001928E-02 0.  1.
       -1   -1    0    0    0  501  0.00000000000E+00  0.00000000000E+00 -0.10459157874E+03  0.10459157886E+03  0.50400001928E-02 0. -1.
    10030    2    1    2    0    0  0.00000000000E+00  0.00000000000E+00  0.75224861780E+03  0.96143177542E+03  0.59872621106E+03 0.  0.
        1    1    3    3  502    0 -0.19017202404E+03 -0.23046273985E+03  0.40572481711E+03  0.50387607646E+03  0.50400001928E-02 0. -1.
       -1    1    3    3    0  502  0.19017202404E+03  0.23046273985E+03  0.34652380069E+03  0.45755569896E+03  0.50400001928E-02 0.  1.
</event>
<event>
 5   0  0.4881209E-02  0.5939502E+03  0.7818609E-02  0.9918038E-01
        1   -1    0    0  501    0  0.00000000000E+00  0.00000000000E+00  0.53589870454E+03  0.53589870456E+03  0.50400001928E-02 0.  1.
       -1   -1    0    0    0  501  0.00000000000E+00  0.00000000000E+00 -0.16457254093E+03  0.16457254100E+03  0.50400001928E-02 0. -1.
    10030    2    1    2    0    0  0.00000000000E+00  0.00000000000E+00  0.37132616361E+03  0.70047124557E+03  0.59395020505E+03 0.  0.
        3    1    3    3  502    0  0.28747344042E+03  0.34164757531E+02  0.10755891945E+03  0.30883189757E+03  0.10100000352E+00 0. -1.
       -3    1    3    3    0  502 -0.28747344042E+03 -0.34164757531E+02  0.26376724416E+03  0.39163934799E+03  0.10100000352E+00 0.  1.
</event>
<event>
 5   0  0.5190380E-02  0.6148020E+03  0.7818609E-02  0.9875164E-01
       -1   -1    0    0    0  501  0.00000000000E+00  0.00000000000E+00  0.10544538496E+04  0.10544538496E+04  0.50400001928E-02 0. -1.
        1   -1    0    0  501    0  0.00000000000E+00  0.00000000000E+00 -0.89615462589E+02  0.89615462731E+02  0.50400001928E-02 0.  1.
    10030    2    1    2    0    0  0.00000000000E+00  0.00000000000E+00  0.96483838701E+03  0.11440693123E+04  0.61480198308E+03 0.  0.
        5    1    3    3  502    0 -0.16272168443E+03 -0.13371799022E+03  0.89899925865E+03  0.92335291441E+03  0.46999998093E+01 0. -1.
       -5    1    3    3    0  502  0.16272168443E+03  0.13371799022E+03  0.65839128355E+02  0.22071639793E+03  0.46999998093E+01 0.  1.
</event>
<event>
 5   0  0.4881209E-02  0.6119038E+03  0.7818609E-02  0.9881013E-01
       -1   -1    0    0    0  501  0.00000000000E+00  0.00000000000E+00  0.12873357539E+03  0.12873357549E+03  0.50400001928E-02 0. -1.
        1   -1    0    0  501    0  0.00000000000E+00  0.00000000000E+00 -0.72713410756E+03  0.72713410757E+03  0.50400001928E-02 0.  1.
    10030    2    1    2    0    0  0.00000000000E+00  0.00000000000E+00 -0.59840053216E+03  0.85586768307E+03  0.61190382743E+03 0.  0.
        3    1    3    3  502    0  0.11719706307E+03  0.25101988952E+03 -0.48081778568E+03  0.55491611056E+03  0.10100000352E+00 0.  1.
       -3    1    3    3    0  502 -0.11719706307E+03 -0.25101988952E+03 -0.11758274648E+03  0.30095157251E+03  0.10100000352E+00 0. -1.
</event>
<event>
 5   0  0.8420604E-02  0.6101159E+03  0.7818609E-02  0.9884638E-01
       -2   -1    0    0    0  501  0.00000000000E+00  0.00000000000E+00  0.59003350586E+02  0.59003350641E+02  0.25500000920E-02 0.  1.
        2   -1    0    0  501    0  0.00000000000E+00  0.00000000000E+00 -0.15772046082E+04  0.15772046082E+04  0.25500000920E-02 0. -1.
    10030    2    1    2    0    0  0.00000000000E+00  0.00000000000E+00 -0.15182012576E+04  0.16362079589E+04  0.61011591191E+03 0.  0.
        2    1    3    3  502    0  0.99828735255E+02  0.88790811124E+02 -0.14945726778E+04  0.15005322635E+04  0.25500000920E-02 0. -1.
       -2    1    3    3    0  502 -0.99828735255E+02 -0.88790811124E+02 -0.23628579822E+02  0.13567569537E+03  0.25500000920E-02 0.  1.
</event>
<event>
 5   0  0.8699746E-02  0.6015769E+03  0.7818609E-02  0.9902140E-01
        2   -1    0    0  501    0  0.00000000000E+00  0.00000000000E+00  0.64465500832E+03  0.64465500833E+03  0.25500000920E-02 0. -1.
       -2   -1    0    0    0  501  0.00000000000E+00  0.00000000000E+00 -0.14034435885E+03  0.14034435887E+03  0.25500000920E-02 0.  1.
    10030    2    1    2    0    0  0.00000000000E+00  0.00000000000E+00  0.50431064947E+03  0.78499936720E+03  0.60157690725E+03 0.  0.
        3    1    3    3  502    0  0.17346440282E+03 -0.21045850784E+03  0.86628005407E+02  0.28615922856E+03  0.10100000352E+00 0.  1.
       -3    1    3    3    0  502 -0.17346440282E+03  0.21045850784E+03  0.41768264406E+03  0.49884013864E+03  0.10100000352E+00 0. -1.
</event>
<event>
 5   0  0.4881209E-02  0.6050939E+03  0.7818609E-02  0.9894894E-01
       -1   -1    0    0    0  501  0.00000000000E+00  0.00000000000E+00  0.39633338735E+03  0.39633338739E+03  0.50400001928E-02 0. -1.
        1   -1    0    0  501    0  0.00000000000E+00  0.00000000000E+00 -0.23095365996E+03  0.23095366002E+03  0.50400001928E-02 0.  1.
    10030    2    1    2    0    0  0.00000000000E+00  0.00000000000E+00  0.16537972739E+03  0.62728704740E+03  0.60509386512E+03 0.  0.
        3    1    3    3  502    0  0.58409479137E+01  0.16490229333E+03 -0.18020084575E+03  0.24433427518E+03  0.10100000352E+00 0.  1.
       -3    1    3    3    0  502 -0.58409479137E+01 -0.16490229333E+03  0.34558057314E+03  0.38295277222E+03  0.10100000352E+00 0. -1.
</event>
<event>
 5   0  0.5166903E-02  0.5534076E+03  0.7818609E-02  0.1000708E+00
        1   -1    0    0  501    0  0.00000000000E+00  0.00000000000E+00  0.77275392661E+03  0.77275392663E+03  0.50400001928E-02 0. -1.
       -1   -1    0    0    0  501  0.00000000000E+00  0.00000000000E+00 -0.99080683840E+02  0.99080683969E+02  0.50400001928E-02 0.  1.
    10030    2    1    2    0    0  0.00000000000E+00  0.00000000000E+00  0.67367324277E+03  0.87183461060E+03  0.55340758055E+03 0.  0.
        2    1    3    3  502    0  0.16260590578E+03 -0.10546745945E+03  0.25717689711E+02  0.19551333757E+03  0.25500000920E-02 0.  1.
       -2    1    3    3    0  502 -0.16260590578E+03  0.10546745945E+03  0.64795555306E+03  0.67632127303E+03  0.25500000920E-02 0. -1.
</event>
<event>
 5   0  0.8420604E-02  0.5930566E+03  0.7818609E-02  0.9919917E-01
        2   -1    0    0  501    0  0.00000000000E+00  0.00000000000E+00  0.67319939672E+03  0.67319939673E+03  0.25500000920E-02 0.  1.
       -2   -1    0    0    0  501  0.00000000000E+00  0.00000000000E+00 -0.13061363373E+03  0.13061363375E+03  0.25500000920E-02 0. -1.
    10030    2    1    2    0    0  0.00000000000E+00  0.00000000000E+00  0.54258576300E+03  0.80381303048E+03  0.59305655529E+03 0.  0.
        2    1    3    3  502    0 -0.20665203534E+03  0.30709979484E+02 -0.13918544530E+02  0.20938455636E+03  0.25500000920E-02 0. -1.
       -2    1    3    3    0  502  0.20665203534E+03 -0.30709979484E+02  0.55650430752E+03  0.59442847413E+03  0.25500000920E-02 0.  1.
</event>
<event>
 5   0  0.5166903E-02  0.6084827E+03  0.7818609E-02  0.9887962E-01
       -1   -1    0    0    0  501  0.00000000000E+00  0.00000000000E+00  0.34085011603E+03  0.34085011607E+03  0.50400001928E-02 0.  1.
        1   -1    0    0  501    0  0.00000000000E+00  0.00000000000E+00 -0.27156452770E+03  0.27156452774E+03  0.50400001928E-02 0. -1.
    10030    2    1    2    0    0  0.00000000000E+00  0.00000000000E+00  0.69285588331E+02  0.61241464381E+03  0.60848270576E+03 0.  0.
        2    1    3    3  502    0  0.13996914636E+03 -0.17884186825E+03  0.23840354206E+03  0.32925981328E+03  0.25500000920E-02 0.  1.
       -2    1    3    3    0  502 -0.13996914636E+03  0.17884186825E+03 -0.16911795373E+03  0.28315483053E+03  0.25500000920E-02 0. -1.
</event>
<event>
 5   0  0.5190380E-02  0.5915682E+03  0.7818609E-02  0.9923055E-01
       -1   -1    0    0    0  501  0.00000000000E+00  0.00000000000E+00  0.14675718825E+03  0.14675718833E+03  0.50400001928E-02 0.  1.
        1   -1    0    0  501    0  0.00000000000E+00  0.00000000000E+00 -0.59614275218E+03  0.59614275220E+03  0.50400001928E-02 0. -1.
    10030    2    1    2    0    0  0.00000000000E+00  0.00000000000E+00 -0.44938556393E+03  0.74289994053E+03  0.59156820112E+03 0.  0.
        5    1    3    3  502    0 -0.53079783337E+02  0.12015160756E+03 -0.55745347156E+03  0.57273932566E+03  0.46999998093E+01 0. -1.
       -5    1    3    3    0  502  0.53079783337E+02 -0.12015160756E+03  0.10806790763E+03  0.17016061488E+03  0.46999998093E+01 0.  1.
</event>
<event>
 5   0  0.8207443E-02  0.7030260E+03  0.7818609E-02  0.9712071E-01
        2   -1    0    0  501    0  0.00000000000E+00  0.00000000000E+00  0.40311626924E+03  0.40311626925E+03  0.25500000920E-02 0. -1.
       -2   -1    0    0    0  501  0.00000000000E+00  0.00000000000E+00 -0.30651554479E+03  0.30651554480E+03  0.25500000920E-02 0.  1.
    10030    2    1    2    0    0  0.00000000000E+00  0.00000000000E+00  0.96600724457E+02  0.70963181405E+03  0.70302603902E+03 0.  0.
        1    1    3    3  502    0  0.19177300008E+03 -0.76998524035E+02 -0.23872291065E+03  0.31574401714E+03  0.50400001928E-02 0.  1.
       -1    1    3    3    0  502 -0.19177300008E+03  0.76998524035E+02  0.33532363511E+03  0.39388779691E+03  0.50400001928E-02 0. -1.
</event>
<event>
 5   0  0.5166903E-02  0.6039479E+03  0.7818609E-02  0.9897249E-01
       -1   -1    0    0    0  501  0.00000000000E+00  0.00000000000E+00  0.16421621339E+03  0.16421621346E+03  0.50400001928E-02 0.  1.
        1   -1    0    0  501    0  0.00000000000E+00  0.00000000000E+00 -0.55529386141E+03  0.55529386144E+03  0.50400001928E-02 0. -1.
    10030    2    1    2    0    0  0.00000000000E+00  0.00000000000E+00 -0.39107764803E+03  0.71951007490E+03  0.60394786289E+03 0.  0.
        2    1    3    3  502    0 -0.46987122393E+02 -0.69665644415E+02 -0.54108457256E+03  0.54757064051E+03  0.25500000920E-02 0. -1.
       -2    1    3    3    0  502  0.46987122393E+02  0.69665644415E+02  0.15000692453E+03  0.17193943439E+03  0.25500000920E-02 0.  1.
</event>
<event>
 5   0  0.4987389E-02  0.6017356E+03  0.7818609E-02  0.9901812E-01
       -1   -1    0    0    0  501  0.00000000000E+00  0.00000000000E+00  0.26399762371E+03  0.26399762376E+03  0.50400001928E-02 0. -1.
        1   -1    0    0  501    0  0.00000000000E+00  0.00000000000E+00 -0.34288725819E+03  0.34288725822E+03  0.50400001928E-02 0.  1.
    10030    2    1    2    0    0  0.00000000000E+00  0.00000000000E+00 -0.78889634479E+02  0.60688488198E+03  0.60173556115E+03 0.  0.
        1    1    3    3  502    0  0.97172706427E+02  0.17271022561E+03  0.18887722950E+03  0.27376260657E+03  0.50400001928E-02 0. -1.
       -1    1    3    3    0  502 -0.97172706427E+02 -0.17271022561E+03 -0.26776686398E+03  0.33312227541E+03  0.50400001928E-02 0.  1.
</event>
<event>
 5   0  0.5166903E-02  0.5956583E+03  0.7818609E-02  0.9914455E-01
        1   -1    0    0  501    0  0.00000000000E+00  0.00000000000E+00  0.37837443907E+03  0.37837443910E+03  0.50400001928E-02 0. -1.
       -1   -1    0    0    0  501  0.00000000000E+00  0.00000000000E+00 -0.23442971371E+03  0.23442971377E+03  0.50400001928E-02 0.  1.
    10030    2    1    2    0    0  0.00000000000E+00  0.00000000000E+00  0.14394472535E+03  0.61280415287E+03  0.59565832977E+03 0.  0.
        2    1    3    3  502    0 -0.74462145259E+02  0.32533181276E+02 -0.22280486028E+03  0.23716033550E+03  0.25500000920E-02 0.  1.
       -2    1    3    3    0  502  0.74462145259E+02 -0.32533181276E+02  0.36674958564E+03  0.37564381738E+03  0.25500000920E-02 0. -1.
</event>
<event>
 5   0  0.8207443E-02  0.5846297E+03  0.7818609E-02  0.9937818E-01
       -2   -1    0    0    0  501  0.00000000000E+00  0.00000000000E+00  0.23999793273E+03  0.23999793275E+03  0.25500000920E-02 0.  1.
        2   -1    0    0  501    0  0.00000000000E+00  0.00000000000E+00 -0.35603624119E+03  0.35603624119E+03  0.25500000920E-02 0. -1.
    10030    2    1    2    0    0  0.00000000000E+00  0.00000000000E+00 -0.11603830845E+03  0.59603417394E+03  0.58462966695E+03 0.  0.
        1    1    3    3  502    0 -0.23970136263E+03  0.13617680225E+03 -0.15711136127E+03  0.31730875276E+03  0.50400001928E-02 0. -1.
       -1    1    3    3    0  502  0.23970136263E+03 -0.13617680225E+03  0.41073052811E+02  0.27872542118E+03  0.50400001928E-02 0.  1.
</event>
<event>
 5   0  0.8817544E-02  0.5982890E+03  0.7818609E-02  0.9908962E-01
       -2   -1    0    0    0  501  0.00000000000E+00  0.00000000000E+00  0.14485709626E+03  0.14485709629E+03  0.25500000920E-02 0.  1.
        2   -1    0    0  501    0  0.00000000000E+00  0.00000000000E+00 -0.61776345666E+03  0.61776345666E+03  0.25500000920E-02 0. -1.
    10030    2    1    2    0    0  0.00000000000E+00  0.00000000000E+00 -0.47290636040E+03  0.76262055295E+03  0.59828896202E+03 0.  0.
        5    1    3    3  502    0  0.27634713948E+03 -0.11114503389E+03 -0.20167618290E+03  0.35974481623E+03  0.46999998093E+01 0. -1.
       -5    1    3    3    0  502 -0.27634713948E+03  0.11114503389E+03 -0.27123017750E+03  0.40287573672E+03  0.46999998093E+01 0.  1.
</event>
<event>
 5   0  0.4881209E-02  0.6054555E+03  0.7818609E-02  0.9894152E-01
        1   -1    0    0  501    0  0.00000000000E+00  0.00000000000E+00  0.22313076389E+03  0.22313076395E+03  0.50400001928E-02 0.  1.
       -1   -1    0    0    0  501  0.00000000000E+00  0.00000000000E+00 -0.41071923124E+03  0.41071923128E+03  0.50400001928E-02 0. -1.
    10030    2    1    2    0    0  0.00000000000E+00  0.00000000000E+00 -0.18758846735E+03  0.63384999522E+03  0.60545551724E+03 0.  0.
        3    1    3    3  502    0 -0.29909735418E+03  0.57057737438E+00 -0.14272517103E+03  0.33140615185E+03  0.10100000352E+00 0.  1.
       -3    1    3    3    0  502  0.29909735418E+03 -0.57057737438E+00 -0.44863296324E+02  0.30244384337E+03  0.10100000352E+00 0. -1.
</event>
<event>
 5   0  0.8575590E-02  0.5979264E+03  0.7818609E-02  0.9909718E-01
        2   -1    0    0  501    0  0.00000000000E+00  0.00000000000E+00  0.15055134425E+03  0.15055134427E+03  0.25500000920E-02 0. -1.
       -2   -1    0    0    0  501  0.00000000000E+00  0.00000000000E+00 -0.59367777736E+03  0.59367777737E+03  0.25500000920E-02 0.  1.
    10030    2    1    2    0    0  0.00000000000E+00  0.00000000000E+00 -0.44312643311E+03  0.74422912164E+03  0.59792637488E+03 0.  0.
        4    1    3    3  502    0  0.74518820504E+02 -0.78556480336E+02 -0.56841076232E+03  0.57863337515E+03  0.12699999809E+01 0.  1.
       -4    1    3    3    0  502 -0.74518820504E+02  0.78556480336E+02  0.12528432921E+03  0.16559574650E+03  0.12699999809E+01 0. -1.
</event>
<event>
 5   0  0.5125031E-02  0.5978115E+03  0.7818609E-02  0.9909957E-01
       -1   -1    0    0    0  501  0.00000000000E+00  0.00000000000E+00  0.91007484553E+02  0.91007484693E+02  0.50400001928E-02 0. -1.
        1   -1    0    0  501    0  0.00000000000E+00  0.00000000000E+00 -0.98172856088E+03  0.98172856090E+03  0.50400001928E-02 0.  1.
    10030    2    1    2    0    0  0.00000000000E+00  0.00000000000E+00 -0.89072107633E+03  0.10727360456E+04  0.59781149846E+03 0.  0.
        4    1    3    3  502    0 -0.63505008290E+02 -0.77882100031E+02 -0.95050226778E+03  0.95580054485E+03  0.12699999809E+01 0.  1.
       -4    1    3    3    0  502  0.63505008290E+02  0.77882100031E+02  0.59781191446E+02  0.11693550074E+03  0.12699999809E+01 0. -1.
</event>
<event>
 5   0  0.5190380E-02  0.5862280E+03  0.7818609E-02  0.9934398E-01
        1   -1    0    0  501    0  0.00000000000E+00  0.00000000000E+00  0.59850098530E+03  0.59850098532E+03  0.50400001928E-02 0. -1.
       -1   -1    0    0    0  501  0.00000000000E+00  0.00000000000E+00 -0.14355167639E+03  0.14355167648E+03  0.50400001928E-02 0.  1.
    10030    2    1    2    0    0  0.00000000000E+00  0.00000000000E+00  0.45494930891E+03  0.74205266180E+03  0.58622800958E+03 0.  0.
        5    1    3    3  502    0 -0.25934704583E+03 -0.11981276298E+03  0.31026418663E+03  0.42178423851E+03  0.46999998093E+01 0. -1.
       -5    1    3    3    0  502  0.25934704583E+03  0.11981276298E+03  0.14468512227E+03  0.32026842329E+03  0.46999998093E+01 0.  1.
</event>
<event>
 5   0  0.5166903E-02  0.5998723E+03  0.7818609E-02  0.9905671E-01
       -1   -1    0    0    0  501  0.00000000000E+00  0.00000000000E+00  0.44972026843E+03  0.44972026846E+03  0.50400001928E-02 0.  1.
        1   -1    0    0  501    0  0.00000000000E+00  0.00000000000E+00 -0.20003922870E+03  0.20003922877E+03  0.50400001928E-02 0. -1.
    10030    2    1    2    0    0  0.00000000000E+00  0.00000000000E+00  0.24968103973E+03  0.64975949723E+03  0.59987230527E+03 0.  0.
        2    1    3    3  502    0 -0.90457824474E+02  0.23198436643E+03  0.30596640180E+03  0.39448042197E+03  0.25500000920E-02 0.  1.
       -2    1    3    3    0  502  0.90457824474E+02 -0.23198436643E+03 -0.56285362071E+02  0.25527907526E+03  0.25500000920E-02 0. -1.
</event>
<event>
 5   0  0.5166903E-02  0.6008401E+03  0.7818609E-02  0.9903665E-01
        1   -1    0    0  501    0  0.00000000000E+00  0.00000000000E+00  0.11123151443E+04  0.11123151443E+04  0.50400001928E-02 0. -1.
       -1   -1    0    0    0  501  0.00000000000E+00  0.00000000000E+00 -0.81139052228E+02  0.81139052385E+02  0.50400001928E-02 0.  1.
    10030    2    1    2    0    0  0.00000000000E+00  0.00000000000E+00  0.10311760921E+04  0.11934541967E+04  0.60084006753E+03 0.  0.
        2    1    3    3  502    0 -0.20264778668E+03 -0.82974883875E+02  0.92411754203E+03  0.94970742247E+03  0.25500000920E-02 0. -1.
       -2    1    3    3    0  502  0.20264778668E+03  0.82974883875E+02  0.10705855003E+03  0.24374677422E+03  0.25500000920E-02 0.  1.
</event>
<event>
 5   0  0.5190380E-02  0.5682855E+03  0.7818609E-02  0.9973480E-01
       -1   -1    0    0    0  501  0.00000000000E+00  0.00000000000E+00  0.11952721410E+03  0.11952721421E+03  0.50400001928E-02 0. -1.
        1   -1    0    0  501    0  0.00000000000E+00  0.00000000000E+00 -0.67547035423E+03  0.67547035425E+03  0.50400001928E-02 0.  1.
    10030    2    1    2    0    0  0.00000000000E+00  0.00000000000E+00 -0.55594314013E+03  0.79499756845E+03  0.56828545537E+03 0.  0.
        5    1    3    3  502    0 -0.11085977774E+03  0.26130835691E+03 -0.26123963346E+03  0.38579811275E+03  0.46999998093E+01 0.  1.
       -5    1    3    3    0  502  0.11085977774E+03 -0.26130835691E+03 -0.29470350666E+03  0.40919945570E+03  0.46999998093E+01 0. -1.
</event>
<event>
 5   0  0.5190380E-02  0.5988080E+03  0.7818609E-02  0.9907882E-01
       -1   -1    0    0    0  501  0.00000000000E+00  0.00000000000E+00  0.11842608149E+03  0.11842608160E+03  0.50400001928E-02 0. -1.
        1   -1    0    0  501    0  0.00000000000E+00  0.00000000000E+00 -0.75695102041E+03  0.75695102042E+03  0.50400001928E-02 0.  1.
    10030    2    1    2    0    0  0.00000000000E+00  0.00000000000E+00 -0.63852493891E+03  0.87537710203E+03  0.59880796015E+03 0.  0.
        5    1    3    3  502    0 -0.19755914008E+03 -0.20419013352E+03 -0.18137021291E+03  0.33710601980E+03  0.46999998093E+01 0. -1.
       -5    1    3    3    0  502  0.19755914008E+03  0.20419013352E+03 -0.45715472601E+03  0.53827108223E+03  0.46999998093E+01 0.  1.
</event>
<event>
 5   0  0.5166903E-02  0.6068363E+03  0.7818609E-02  0.9891324E-01
       -1   -1    0    0    0  501  0.00000000000E+00  0.00000000000E+00  0.10819693862E+03  0.10819693874E+03  0.50400001928E-02 0. -1.
        1   -1    0    0  501    0  0.00000000000E+00  0.00000000000E+00 -0.85087966057E+03  0.85087966058E+03  0.50400001928E-02 0.  1.
    10030    2    1    2    0    0  0.00000000000E+00  0.00000000000E+00 -0.74268272195E+03  0.95907659932E+03  0.60683630237E+03 0.  0.
        2    1    3    3  502    0 -0.30845467492E+02  0.25680494272E+03 -0.12063961036E+03  0.28540171174E+03  0.25500000920E-02 0. -1.
       -2    1    3    3    0  502  0.30845467492E+02 -0.25680494272E+03 -0.62204311159E+03  0.67367488758E+03  0.25500000920E-02 0.  1.
</event>
<event>
 5   0  0.3437375E-02  0.6011714E+03  0.7818609E-02  0.9902979E-01
       -4   -1    0    0    0  501  0.00000000000E+00  0.00000000000E+00  0.23541717504E+03  0.23542060063E+03  0.12699999809E+01 0. -1.
        4   -1    0    0  501    0  0.00000000000E+00  0.00000000000E+00 -0.38378702972E+03  0.38378913101E+03  0.12699999809E+01 0.  1.
    10030    2    1    2    0    0  0.00000000000E+00  0.00000000000E+00 -0.14836985468E+03  0.61920973164E+03  0.60117142146E+03 0.  0.
        3    1    3    3  502    0 -0.21814314700E+03  0.51045926858E+02  0.13222679238E+03  0.26014621668E+03  0.10100000352E+00 0. -1.
       -3    1    3    3    0  502  0.21814314700E+03 -0.51045926858E+02 -0.28059664706E+03  0.35906351496E+03  0.10100000352E+00 0.  1.
</event>
<event>
 5   0  0.3437375E-02  0.6098204E+03  0.7818609E-02  0.9885239E-01
       -3   -1    0    0    0  501  0.00000000000E+00  0.00000000000E+00  0.16994519174E+03  0.16994522175E+03  0.10100000352E+00 0. -1.
        3   -1    0    0  501    0  0.00000000000E+00  0.00000000000E+00 -0.54705996549E+03  0.54705997481E+03  0.10100000352E+00 0.  1.
    10030    2    1    2    0    0  0.00000000000E+00  0.00000000000E+00 -0.37711477375E+03  0.71700519656E+03  0.60982038283E+03 0.  0.
        1    1    3    3  502    0 -0.54140779247E+02 -0.63636740385E+02 -0.53333792305E+03  0.53984275385E+03  0.50400001928E-02 0.  1.
       -1    1    3    3    0  502  0.54140779247E+02  0.63636740385E+02  0.15622314930E+03  0.17716244271E+03  0.50400001928E-02 0. -1.
</event>
<event>
 5   0  0.3437375E-02  0.5982281E+03  0.7818609E-02  0.9909089E-01
       -4   -1    0    0    0  501  0.00000000000E+00  0.00000000000E+00  0.39622432418E+03  0.39622635951E+03  0.12699999809E+01 0.  1.
        4   -1    0    0  501    0  0.00000000000E+00  0.00000000000E+00 -0.22580004977E+03  0.22580362127E+03  0.12699999809E+01 0. -1.
    10030    2    1    2    0    0  0.00000000000E+00  0.00000000000E+00  0.17042427441E+03  0.62202998077E+03  0.59822810338E+03 0.  0.
        4    1    3    3  502    0 -0.38401397008E+02 -0.99529662544E+02 -0.20534615147E+03  0.23140759677E+03  0.12699999809E+01 0. -1.
       -4    1    3    3    0  502  0.38401397008E+02  0.99529662544E+02  0.37577042588E+03  0.39062238400E+03  0.12699999809E+01 0.  1.
</event>
<event>
 5   0  0.8207443E-02  0.5760735E+03  0.7818609E-02  0.9956328E-01
        2   -1    0    0  501    0  0.00000000000E+00  0.00000000000E+00  0.91107427431E+03  0.91107427431E+03  0.25500000920E-02 0.  1.
       -2   -1    0    0    0  501  0.00000000000E+00  0.00000000000E+00 -0.91063028694E+02  0.91063028729E+02  0.25500000920E-02 0. -1.
    10030    2    1    2    0    0  0.00000000000E+00  0.00000000000E+00  0.82001124561E+03  0.10021373030E+04  0.57607354670E+03 0.  0.
        1    1    3    3  502    0  0.17638605102E+03 -0.21924103624E+03  0.30295999010E+03  0.41347723830E+03  0.50400001928E-02 0. -1.
       -1    1    3    3    0  502 -0.17638605102E+03  0.21924103624E+03  0.51705125551E+03  0.58866006474E+03  0.50400001928E-02 0.  1.
</event>
<event>
 5   0  0.5190380E-02  0.5867749E+03  0.7818609E-02  0.9933230E-01
        1   -1    0    0  501    0  0.00000000000E+00  0.00000000000E+00  0.43279878896E+03  0.43279878899E+03  0.50400001928E-02 0. -1.
       -1   -1    0    0    0  501  0.00000000000E+00  0.00000000000E+00 -0.19888269377E+03  0.19888269383E+03  0.50400001928E-02 0.  1.
    10030    2    1    2    0    0  0.00000000000E+00  0.00000000000E+00  0.23391609519E+03  0.63168148282E+03  0.58677487689E+03 0.  0.
        5    1    3    3  502    0 -0.27534929351E+03  0.29156570225E+01  0.80826549580E+01  0.27552341789E+03  0.46999998093E+01 0. -1.
       -5    1    3    3    0  502  0.27534929351E+03 -0.29156570225E+01  0.22583344024E+03  0.35615806494E+03  0.46999998093E+01 0.  1.
</event>
<event>
 5   0  0.5166903E-02  0.5911527E+03  0.7818609E-02  0.9923933E-01
       -1   -1    0    0    0  501  0.00000000000E+00  0.00000000000E+00  0.11150684140E+03  0.11150684151E+03  0.50400001928E-02 0. -1.
        1   -1    0    0  501    0  0.00000000000E+00  0.00000000000E+00 -0.78349787126E+03  0.78349787127E+03  0.50400001928E-02 0.  1.
    10030    2    1    2    0    0  0.00000000000E+00  0.00000000000E+00 -0.67199102986E+03  0.89500471279E+03  0.59115268053E+03 0.  0.
        2    1    3    3  502    0 -0.17966257597E+03 -0.34172709681E+02  0.15562013713E+02  0.18354452203E+03  0.25500000920E-02 0. -1.
       -2    1    3    3    0  502  0.17966257597E+03  0.34172709681E+02 -0.68755304357E+03  0.71146019075E+03  0.25500000920E-02 0.  1.
</event>
<event>
 5   0  0.4987389E-02  0.6478337E+03  0.7818609E-02  0.9810853E-01
        1   -1    0    0  501    0  0.00000000000E+00  0.00000000000E+00  0.14022907307E+04  0.14022907307E+04  0.50400001928E-02 0.  1.
       -1   -1    0    0    0  501  0.00000000000E+00  0.00000000000E+00 -0.74821944325E+02  0.74821944494E+02  0.50400001928E-02 0. -1.
    10030    2    1    2    0    0  0.00000000000E+00  0.00000000000E+00  0.13274687864E+04  0.14771126752E+04  0.64783367963E+03 0.  0.
        1    1    3    3  502    0  0.59819556179E+02  0.25615901489E+03  0.10947014919E+04  0.11258628587E+04  0.50400001928E-02 0.  1.
       -1    1    3    3    0  502 -0.59819556179E+02 -0.25615901489E+03  0.23276729456E+03  0.35124981658E+03  0.50400001928E-02 0. -1.
</event>
<event>
 5   0  0.8817544E-02  0.6098001E+03  0.7818609E-02  0.9885280E-01
       -2   -1    0    0    0  501  0.00000000000E+00  0.00000000000E+00  0.77813568258E+02  0.77813568300E+02  0.25500000920E-02 0.  1.
        2   -1    0    0  501    0  0.00000000000E+00  0.00000000000E+00 -0.11947022178E+04  0.11947022179E+04  0.25500000920E-02 0. -1.
    10030    2    1    2    0    0  0.00000000000E+00  0.00000000000E+00 -0.11168886496E+04  0.12725157862E+04  0.60980010694E+03 0.  0.
        5    1    3    3  502    0  0.21302952993E+03 -0.55952754044E+02 -0.99830200934E+03  0.10223215165E+04  0.46999998093E+01 0.  1.
       -5    1    3    3    0  502 -0.21302952993E+03  0.55952754044E+02 -0.11858664025E+03  0.25019426962E+03  0.46999998093E+01 0. -1.
</event>
<event>
 5   0  0.8817544E-02  0.6586279E+03  0.7818609E-02  0.9790723E-01
       -2   -1    0    0    0  501  0.00000000000E+00  0.00000000000E+00  0.15710803789E+03  0.15710803791E+03  0.25500000920E-02 0. -1.
        2   -1    0    0  501    0  0.00000000000E+00  0.00000000000E+00 -0.69027448418E+03  0.69027448419E+03  0.25500000920E-02 0.  1.
    10030    2    1    2    0    0  0.00000000000E+00  0.00000000000E+00 -0.53316644629E+03  0.84738252209E+03  0.65862787619E+03 0.  0.
        5    1    3    3  502    0  0.45943267414E+02  0.28392881926E+03 -0.60330648490E+02  0.29391875642E+03  0.46999998093E+01 0. -1.
       -5    1    3    3    0  502 -0.45943267414E+02 -0.28392881926E+03 -0.47283579780E+03  0.55346376567E+03  0.46999998093E+01 0.  1.
</event>
<event>
 5   0  0.8575590E-02  0.5959014E+03  0.7818609E-02  0.9913946E-01
        2   -1    0    0  501    0  0.00000000000E+00  0.00000000000E+00  0.12512551654E+04  0.12512551654E+04  0.25500000920E-02 0.  1.
       -2   -1    0    0    0  501  0.00000000000E+00  0.00000000000E+00 -0.70948452516E+02  0.70948452562E+02  0.25500000920E-02 0. -1.
    10030    2    1    2    0    0  0.00000000000E+00  0.00000000000E+00  0.11803067129E+04  0.13222036179E+04  0.59590139358E+03 0.  0.
        4    1    3    3  502    0  0.62277884364E+02 -0.73527407393E+02 -0.35415680614E+02  0.10266790079E+03  0.12699999809E+01 0. -1.
       -4    1    3    3    0  502 -0.62277884364E+02  0.73527407393E+02  0.12157223935E+04  0.12195357171E+04  0.12699999809E+01 0.  1.
</event>
<event>
 5   0  0.5190380E-02  0.5697273E+03  0.7818609E-02  0.9970282E-01
        1   -1    0    0  501    0  0.00000000000E+00  0.00000000000E+00  0.97810407785E+03  0.97810407786E+03  0.50400001928E-02 0. -1.
       -1   -1    0    0    0  501  0.00000000000E+00  0.00000000000E+00 -0.82963879596E+02  0.82963879749E+02  0.50400001928E-02 0.  1.
    10030    2    1    2    0    0  0.00000000000E+00  0.00000000000E+00  0.89514019825E+03  0.10610679576E+04  0.56972733491E+03 0.  0.
        5    1    3    3  502    0  0.15324533228E+03  0.16755654592E+03  0.76780718809E+03  0.80069300985E+03  0.46999998093E+01 0. -1.
       -5    1    3    3    0  502 -0.15324533228E+03 -0.16755654592E+03  0.12733301017E+03  0.26037494776E+03  0.46999998093E+01 0.  1.
</event>
<event>
 5   0  0.8420604E-02  0.5953517E+03  0.7818609E-02  0.9915097E-01
       -2   -1    0    0    0  501  0.00000000000E+00  0.00000000000E+00  0.31754476101E+03  0.31754476102E+03  0.25500000920E-02 0. -1.
        2   -1    0    0  501    0  0.00000000000E+00  0.00000000000E+00 -0.27905015209E+03  0.27905015210E+03  0.25500000920E-02 0.  1.
    10030    2    1    2    0    0  0.00000000000E+00  0.00000000000E+00  0.38494608924E+02  0.59659491312E+03  0.59535170735E+03 0.  0.
        2    1    3    3  502    0  0.12712665792E+03  0.16939596771E+03  0.22886042371E+03  0.31182250492E+03  0.25500000920E-02 0. -1.
       -2    1    3    3    0  502 -0.12712665792E+03 -0.16939596771E+03 -0.19036581478E+03  0.28477240820E+03  0.25500000920E-02 0.  1.
</event>
<event>
 5   0  0.5166903E-02  0.5965355E+03  0.7818609E-02  0.9912620E-01
        1   -1    0    0  501    0  0.00000000000E+00  0.00000000000E+00  0.51358039959E+03  0.51358039961E+03  0.50400001928E-02 0.  1.
       -1   -1    0    0    0  501  0.00000000000E+00  0.00000000000E+00 -0.17322245816E+03  0.17322245824E+03  0.50400001928E-02 0. -1.
    10030    2    1    2    0    0  0.00000000000E+00  0.00000000000E+00  0.34035794143E+03  0.68680285785E+03  0.59653552892E+03 0.  0.
        2    1    3    3  502    0 -0.26608458654E+02 -0.19483424145E+02  0.51147483930E+03  0.51253695002E+03  0.25500000920E-02 0.  1.
       -2    1    3    3    0  502  0.26608458654E+02  0.19483424145E+02 -0.17111689788E+03  0.17426590783E+03  0.25500000920E-02 0. -1.
</event>
<event>
 5   0  0.8420604E-02  0.5683118E+03  0.7818609E-02  0.9973421E-01
       -2   -1    0    0    0  501  0.00000000000E+00  0.00000000000E+00  0.31955759487E+02  0.31955759589E+02  0.25500000920E-02 0.  1.
        2   -1    0    0  501    0  0.00000000000E+00  0.00000000000E+00 -0.25267612005E+04  0.25267612005E+04  0.25500000920E-02 0. -1.
    10030    2    1    2    0    0  0.00000000000E+00  0.00000000000E+00 -0.24948054410E+04  0.25587169601E+04  0.56831179236E+03 0.  0.
        2    1    3    3  502    0  0.12435592383E+03  0.15939078579E+03 -0.34835117145E+03  0.40276340083E+03  0.25500000920E-02 0.  1.
       -2    1    3    3    0  502 -0.12435592383E+03 -0.15939078579E+03 -0.21464542695E+04  0.21559535592E+04  0.25500000920E-02 0. -1.
</event>
<event>
 5   0  0.4881209E-02  0.6011232E+03  0.7818609E-02  0.9903079E-01
        1   -1    0    0  501    0  0.00000000000E+00  0.00000000000E+00  0.33433869072E+03  0.33433869076E+03  0.50400001928E-02 0.  1.
       -1   -1    0    0    0  501  0.00000000000E+00  0.00000000000E+00 -0.27019688385E+03  0.27019688390E+03  0.50400001928E-02 0. -1.
    10030    2    1    2    0    0  0.00000000000E+00  0.00000000000E+00  0.64141806869E+02  0.60453557466E+03  0.60112319007E+03 0.  0.
        3    1    3    3  502    0 -0.29381945356E+03 -0.45966353207E+02  0.75843670295E+02  0.30691212006E+03  0.10100000352E+00 0.  1.
       -3    1    3    3    0  502  0.29381945356E+03  0.45966353207E+02 -0.11701863426E+02  0.29762345460E+03  0.10100000352E+00 0. -1.
</event>
<event>
 5   0  0.8575590E-02  0.6022017E+03  0.7818609E-02  0.9900849E-01
       -2   -1    0    0    0  501  0.00000000000E+00  0.00000000000E+00  0.35453157028E+03  0.35453157029E+03  0.25500000920E-02 0.  1.
        2   -1    0    0  501    0  0.00000000000E+00  0.00000000000E+00 -0.25572259619E+03  0.25572259620E+03  0.25500000920E-02 0. -1.
    10030    2    1    2    0    0  0.00000000000E+00  0.00000000000E+00  0.98808974087E+02  0.61025416649E+03  0.60220173892E+03 0.  0.
        4    1    3    3  502    0  0.17077804987E+03 -0.23216011969E+03  0.13772874807E+03  0.31942805831E+03  0.12699999809E+01 0.  1.
       -4    1    3    3    0  502 -0.17077804987E+03  0.23216011969E+03 -0.38919773981E+02  0.29082610818E+03  0.12699999809E+01 0. -1.
</event>
<event>
 5   0  0.4987389E-02  0.6051420E+03  0.7818609E-02  0.9894795E-01
       -1   -1    0    0    0  501  0.00000000000E+00  0.00000000000E+00  0.26005020283E+03  0.26005020288E+03  0.50400001928E-02 0. -1.
        1   -1    0    0  501    0  0.00000000000E+00  0.00000000000E+00 -0.35204437629E+03  0.35204437632E+03  0.50400001928E-02 0.  1.
    10030    2    1    2    0    0  0.00000000000E+00  0.00000000000E+00 -0.91994173457E+02  0.61209457920E+03  0.60514200477E+03 0.  0.
        1    1    3    3  502    0 -0.14954409129E+03 -0.91497797976E+02  0.20344099942E+03  0.26855822934E+03  0.50400001928E-02 0. -1.
       -1    1    3    3    0  502  0.14954409129E+03  0.91497797976E+02 -0.29543517288E+03  0.34353634986E+03  0.50400001928E-02 0.  1.
</event>
<event>
 5   0  0.5190380E-02  0.6011425E+03  0.7818609E-02  0.9903039E-01
       -1   -1    0    0    0  501  0.00000000000E+00  0.00000000000E+00  0.21061281475E+03  0.21061281481E+03  0.50400001928E-02 0. -1.
        1   -1    0    0  501    0  0.00000000000E+00  0.00000000000E+00 -0.42895331373E+03  0.42895331376E+03  0.50400001928E-02 0.  1.
    10030    2    1    2    0    0  0.00000000000E+00  0.00000000000E+00 -0.21834049898E+03  0.63956612858E+03  0.60114246176E+03 0.  0.
        5    1    3    3  502    0 -0.95702138316E+01  0.28129686302E+03  0.29278146712E+01  0.28151407822E+03  0.46999998093E+01 0.  1.
       -5    1    3    3    0  502  0.95702138316E+01 -0.28129686302E+03 -0.22126831365E+03  0.35805205035E+03  0.46999998093E+01 0. -1.
</event>
<event>
 5   0  0.5125031E-02  0.6450069E+03  0.7818609E-02  0.9816194E-01
       -1   -1    0    0    0  501  0.00000000000E+00  0.00000000000E+00  0.70560949079E+02  0.70560949259E+02  0.50400001928E-02 0.  1.
        1   -1    0    0  501    0  0.00000000000E+00  0.00000000000E+00 -0.14740230776E+04  0.14740230777E+04  0.50400001928E-02 0. -1.
    10030    2    1    2    0    0  0.00000000000E+00  0.00000000000E+00 -0.14034621286E+04  0.15445840269E+04  0.64500687584E+03 0.  0.
        4    1    3    3  502    0 -0.14677665221E+02  0.18534233852E+03 -0.13327623913E+04  0.13456687634E+04  0.12699999809E+01 0. -1.
       -4    1    3    3    0  502  0.14677665221E+02 -0.18534233852E+03 -0.70699737299E+02  0.19891526352E+03  0.12699999809E+01 0.  1.
</event>
<event>
 5   0  0.8420604E-02  0.6165077E+03  0.7818609E-02  0.9871738E-01
       -2   -1    0    0    0  501  0.00000000000E+00  0.00000000000E+00  0.59380598156E+02  0.59380598211E+02  0.25500000920E-02 0. -1.
        2   -1    0    0  501    0  0.00000000000E+00  0.00000000000E+00 -0.16001933471E+04  0.16001933471E+04  0.25500000920E-02 0.  1.
    10030    2    1    2    0    0  0.00000000000E+00  0.00000000000E+00 -0.15408127489E+04  0.16595739453E+04  0.61650770689E+03 0.  0.
        2    1    3    3  502    0  0.24945502958E+03  0.10309005460E+03 -0.11711739915E+04  0.12018751555E+04  0.25500000920E-02 0.  1.
       -2    1    3    3    0  502 -0.24945502958E+03 -0.10309005460E+03 -0.36963875742E+03  0.45769878975E+03  0.25500000920E-02 0. -1.
</event>
<event>
 5   0  0.8699746E-02  0.6000437E+03  0.7818609E-02  0.9905315E-01
       -2   -1    0    0    0  501  0.00000000000E+00  0.00000000000E+00  0.20809123750E+03  0.20809123751E+03  0.25500000920E-02 0. -1.
        2   -1    0    0  501    0  0.00000000000E+00  0.00000000000E+00 -0.43256553038E+03  0.43256553039E+03  0.25500000920E-02 0.  1.
    10030    2    1    2    0    0  0.00000000000E+00  0.00000000000E+00 -0.22447429288E+03  0.64065676790E+03  0.60004365349E+03 0.  0.
        3    1    3    3  502    0 -0.92421782020E+02  0.26471574614E+03 -0.22621893052E+03  0.36026549484E+03  0.10100000352E+00 0. -1.
       -3    1    3    3    0  502  0.92421782020E+02 -0.26471574614E+03  0.17446376383E+01  0.28039127306E+03  0.10100000352E+00 0.  1.
</event>
<event>
 5   0  0.4881209E-02  0.5932423E+03  0.7818609E-02  0.9919526E-01
       -1   -1    0    0    0  501  0.00000000000E+00  0.00000000000E+00  0.30822843487E+03  0.30822843491E+03  0.50400001928E-02 0. -1.
        1   -1    0    0  501    0  0.00000000000E+00  0.00000000000E+00 -0.28545094249E+03  0.28545094254E+03  0.50400001928E-02 0.  1.
    10030    2    1    2    0    0  0.00000000000E+00  0.00000000000E+00  0.22777492373E+02  0.59367937745E+03  0.59324226843E+03 0.  0.
        3    1    3    3  502    0 -0.47270490419E+02  0.16040262712E+03 -0.23378275618E+03  0.28743327806E+03  0.10100000352E+00 0.  1.
       -3    1    3    3    0  502  0.47270490419E+02 -0.16040262712E+03  0.25656024855E+03  0.30624609938E+03  0.10100000352E+00 0. -1.
</event>
<event>
 5   0  0.8817544E-02  0.6029251E+03  0.7818609E-02  0.9899356E-01
       -2   -1    0    0    0  501  0.00000000000E+00  0.00000000000E+00  0.60344370508E+02  0.60344370562E+02  0.25500000920E-02 0.  1.
        2   -1    0    0  501    0  0.00000000000E+00  0.00000000000E+00 -0.15060175583E+04  0.15060175583E+04  0.25500000920E-02 0. -1.
    10030    2    1    2    0    0  0.00000000000E+00  0.00000000000E+00 -0.14456731878E+04  0.15663619288E+04  0.60292514153E+03 0.  0.
        5    1    3    3  502    0  0.16360701085E+03  0.17379385288E+03 -0.24460408185E+03  0.34179643672E+03  0.46999998093E+01 0.  1.
       -5    1    3    3    0  502 -0.16360701085E+03 -0.17379385288E+03 -0.12010691059E+04  0.12245654921E+04  0.46999998093E+01 0. -1.
</event>
<event>
 5   0  0.8817544E-02  0.5801357E+03  0.7818609E-02  0.9947497E-01
       -2   -1    0    0    0  501  0.00000000000E+00  0.00000000000E+00  0.10422332818E+03  0.10422332821E+03  0.25500000920E-02 0.  1.
        2   -1    0    0  501    0  0.00000000000E+00  0.00000000000E+00 -0.80729877048E+03  0.80729877049E+03  0.25500000920E-02 0. -1.
    10030    2    1    2    0    0  0.00000000000E+00  0.00000000000E+00 -0.70307544230E+03  0.91152209870E+03  0.58013572451E+03 0.  0.
        5    1    3    3  502    0  0.97347306435E+02 -0.25996505940E+03 -0.48354791743E+03  0.55758318539E+03  0.46999998093E+01 0. -1.
       -5    1    3    3    0  502 -0.97347306435E+02  0.25996505940E+03 -0.21952752487E+03  0.35393891331E+03  0.46999998093E+01 0.  1.
</event>
<event>
 5   0  0.8817544E-02  0.4851391E+03  0.7818609E-02  0.1017732E+00
        2   -1    0    0  501    0  0.00000000000E+00  0.00000000000E+00  0.14778726311E+04  0.14778726311E+04  0.25500000920E-02 0.  1.
       -2   -1    0    0    0  501  0.00000000000E+00  0.00000000000E+00 -0.39813983364E+02  0.39813983446E+02  0.25500000920E-02 0. -1.
    10030    2    1    2    0    0  0.00000000000E+00  0.00000000000E+00  0.14380586478E+04  0.15176866146E+04  0.48513914051E+03 0.  0.
        5    1    3    3  502    0  0.14499382379E+03  0.45390610065E+02  0.12765975051E+03  0.19850092775E+03  0.46999998093E+01 0. -1.
       -5    1    3    3    0  502 -0.14499382379E+03 -0.45390610065E+02  0.13103988972E+04  0.13191856868E+04  0.46999998093E+01 0.  1.
</event>
<event>
 5   0  0.5125031E-02  0.6071959E+03  0.7818609E-02  0.9890588E-01
       -1   -1    0    0    0  501  0.00000000000E+00  0.00000000000E+00  0.62506819489E+02  0.62506819692E+02  0.50400001928E-02 0.  1.
        1   -1    0    0  501    0  0.00000000000E+00  0.00000000000E+00 -0.14745864574E+04  0.14745864574E+04  0.50400001928E-02 0. -1.
    10030    2    1    2    0    0  0.00000000000E+00  0.00000000000E+00 -0.14120796379E+04  0.15370932771E+04  0.60719588166E+03 0.  0.
        4    1    3    3  502    0  0.22485208497E+02 -0.21741118777E+03 -0.17264638096E+03  0.27853472840E+03  0.12699999809E+01 0.  1.
       -4    1    3    3    0  502 -0.22485208497E+02  0.21741118777E+03 -0.12394332569E+04  0.12585585487E+04  0.12699999809E+01 0. -1.
</event>
<event>
 5   0  0.8575590E-02  0.6001884E+03  0.7818609E-02  0.9905015E-01
       -2   -1    0    0    0  501  0.00000000000E+00  0.00000000000E+00  0.28422813762E+03  0.28422813763E+03  0.25500000920E-02 0.  1.
        2   -1    0    0  501    0  0.00000000000E+00  0.00000000000E+00 -0.31684588439E+03  0.31684588440E+03  0.25500000920E-02 0. -1.
    10030    2    1    2    0    0  0.00000000000E+00  0.00000000000E+00 -0.32617746771E+02  0.60107402203E+03  0.60018835590E+03 0.  0.
        4    1    3    3  502    0  0.21656216789E+03 -0.58863599271E+02 -0.21582837751E+03  0.31136409125E+03  0.12699999809E+01 0. -1.
       -4    1    3    3    0  502 -0.21656216789E+03  0.58863599271E+02  0.18321063073E+03  0.28970993079E+03  0.12699999809E+01 0.  1.
</event>
<event>
 5   0  0.5125031E-02  0.5974975E+03  0.7818609E-02  0.9910612E-01
       -1   -1    0    0    0  501  0.00000000000E+00  0.00000000000E+00  0.16626055609E+03  0.16626055617E+03  0.50400001928E-02 0.  1.
        1   -1    0    0  501    0  0.00000000000E+00  0.00000000000E+00 -0.53681284811E+03  0.53681284813E+03  0.50400001928E-02 0. -1.
    10030    2    1    2    0    0  0.00000000000E+00  0.00000000000E+00 -0.37055229202E+03  0.70307340430E+03  0.59749745665E+03 0.  0.
        4    1    3    3  502    0 -0.34595438114E+02  0.25839268387E+03 -0.13601083569E+02  0.26105598210E+03  0.12699999809E+01 0.  1.
       -4    1    3    3    0  502  0.34595438114E+02 -0.25839268387E+03 -0.35695120845E+03  0.44201742220E+03  0.12699999809E+01 0. -1.
</event>
<event>
 5   0  0.3437375E-02  0.6023742E+03  0.7818609E-02  0.9900493E-01
       -3   -1    0    0    0  501  0.00000000000E+00  0.00000000000E+00  0.25379681892E+03  0.25379683902E+03  0.10100000352E+00 0.  1.
        3   -1    0    0  501    0  0.00000000000E+00  0.00000000000E+00 -0.35742629517E+03  0.35742630944E+03  0.10100000352E+00 0. -1.
    10030    2    1    2    0    0  0.00000000000E+00  0.00000000000E+00 -0.10362947625E+03  0.61122314846E+03  0.60237419339E+03 0.  0.
        2    1    3    3  502    0  0.10189539278E+03  0.10172964496E+03 -0.32024213826E+03  0.35112194300E+03  0.25500000920E-02 0. -1.
       -2    1    3    3    0  502 -0.10189539278E+03 -0.10172964496E+03  0.21661266201E+03  0.26010120546E+03  0.25500000920E-02 0.  1.
</event>
<event>
 5   0  0.4987389E-02  0.5982839E+03  0.7818609E-02  0.9908973E-01
        1   -1    0    0  501    0  0.00000000000E+00  0.00000000000E+00  0.84004240610E+03  0.84004240612E+03  0.50400001928E-02 0. -1.
       -1   -1    0    0    0  501  0.00000000000E+00  0.00000000000E+00 -0.10652545765E+03  0.10652545777E+03  0.50400001928E-02 0.  1.
    10030    2    1    2    0    0  0.00000000000E+00  0.00000000000E+00  0.73351694845E+03  0.94656786389E+03  0.59828388519E+03 0.  0.
        1    1    3    3  502    0 -0.26592429804E+03 -0.31666262132E+02  0.57764877329E+03  0.63670761717E+03  0.50400001928E-02 0. -1.
       -1    1    3    3    0  502  0.26592429804E+03  0.31666262132E+02  0.15586817516E+03  0.30986024672E+03  0.50400001928E-02 0.  1.
</event>
<event>
 5   0  0.5166903E-02  0.6142887E+03  0.7818609E-02  0.9876197E-01
        1   -1    0    0  501    0  0.00000000000E+00  0.00000000000E+00  0.11940718502E+04  0.11940718502E+04  0.50400001928E-02 0.  1.
       -1   -1    0    0    0  501  0.00000000000E+00  0.00000000000E+00 -0.79005008086E+02  0.79005008247E+02  0.50400001928E-02 0. -1.
    10030    2    1    2    0    0  0.00000000000E+00  0.00000000000E+00  0.11150668421E+04  0.12730768584E+04  0.61428871481E+03 0.  0.
        2    1    3    3  502    0 -0.27867242310E+03  0.12898156239E+03  0.57113808128E+03  0.64845452480E+03  0.25500000920E-02 0.  1.
       -2    1    3    3    0  502  0.27867242310E+03 -0.12898156239E+03  0.54392876079E+03  0.62462233362E+03  0.25500000920E-02 0. -1.
</event>
<event>
 5   0  0.8575590E-02  0.6027708E+03  0.7818609E-02  0.9899674E-01
       -2   -1    0    0    0  501  0.00000000000E+00  0.00000000000E+00  0.96718414634E+02  0.96718414667E+02  0.25500000920E-02 0.  1.
        2   -1    0    0  501    0  0.00000000000E+00  0.00000000000E+00 -0.93915072212E+03  0.93915072212E+03  0.25500000920E-02 0. -1.
    10030    2    1    2    0    0  0.00000000000E+00  0.00000000000E+00 -0.84243230748E+03  0.10358691368E+04  0.60277083196E+03 0.  0.
        4    1    3    3  502    0 -0.20341005873E+03  0.19188920860E+03 -0.22805019692E+03  0.36084016626E+03  0.12699999809E+01 0. -1.
       -4    1    3    3    0  502  0.20341005873E+03 -0.19188920860E+03 -0.61438211056E+03  0.67502897053E+03  0.12699999809E+01 0.  1.
</event>
<event>
 5   0  0.5125031E-02  0.6016912E+03  0.7818609E-02  0.9901903E-01
       -1   -1    0    0    0  501  0.00000000000E+00  0.00000000000E+00  0.19197936529E+03  0.19197936535E+03  0.50400001928E-02 0. -1.
        1   -1    0    0  501    0  0.00000000000E+00  0.00000000000E+00 -0.47144696477E+03  0.47144696479E+03  0.50400001928E-02 0.  1.
    10030    2    1    2    0    0  0.00000000000E+00  0.00000000000E+00 -0.27946759948E+03  0.66342633015E+03  0.60169124671E+03 0.  0.
        4    1    3    3  502    0 -0.48422238438E+02 -0.12431983982E+03  0.15757321295E+03  0.20647291854E+03  0.12699999809E+01 0. -1.
       -4    1    3    3    0  502  0.48422238438E+02  0.12431983982E+03 -0.43704081243E+03  0.45695341161E+03  0.12699999809E+01 0.  1.
</event>
<event>
 5   0  0.4987389E-02  0.6067247E+03  0.7818609E-02  0.9891552E-01
        1   -1    0    0  501    0  0.00000000000E+00  0.00000000000E+00  0.83260518579E+03  0.83260518580E+03  0.50400001928E-02 0. -1.
       -1   -1    0    0    0  501  0.00000000000E+00  0.00000000000E+00 -0.11053104805E+03  0.11053104817E+03  0.50400001928E-02 0.  1.
    10030    2    1    2    0    0  0.00000000000E+00  0.00000000000E+00  0.72207413773E+03  0.94313623397E+03  0.60672472789E+03 0.  0.
        1    1    3    3  502    0  0.75097277897E+02 -0.28303318651E+03  0.48423653251E+03  0.56589080683E+03  0.50400001928E-02 0. -1.
       -1    1    3    3    0  502 -0.75097277897E+02  0.28303318651E+03  0.23783760523E+03  0.37724542714E+03  0.50400001928E-02 0.  1.
</event>
<event>
 5   0  0.8207443E-02  0.6023916E+03  0.7818609E-02  0.9900457E-01
        2   -1    0    0  501    0  0.00000000000E+00  0.00000000000E+00  0.11385521617E+04  0.11385521617E+04  0.25500000920E-02 0. -1.
       -2   -1    0    0    0  501  0.00000000000E+00  0.00000000000E+00 -0.79679193114E+02  0.79679193154E+02  0.25500000920E-02 0.  1.
    10030    2    1    2    0    0  0.00000000000E+00  0.00000000000E+00  0.10588729686E+04  0.12182313549E+04  0.60239162541E+03 0.  0.
        1    1    3    3  502    0 -0.11165444263E+03 -0.88975723631E+02 -0.69010734433E+01  0.14293711483E+03  0.50400001928E-02 0.  1.
       -1    1    3    3    0  502  0.11165444263E+03  0.88975723631E+02  0.10657740420E+04  0.10752942401E+04  0.50400001928E-02 0. -1.
</event>
<event>
 5   0  0.3437375E-02  0.6111810E+03  0.7818609E-02  0.9882477E-01
        3   -1    0    0  501    0  0.00000000000E+00  0.00000000000E+00  0.22710164693E+03  0.22710166939E+03  0.10100000352E+00 0. -1.
       -3   -1    0    0    0  501  0.00000000000E+00  0.00000000000E+00 -0.41120598768E+03  0.41120600009E+03  0.10100000352E+00 0.  1.
    10030    2    1    2    0    0  0.00000000000E+00  0.00000000000E+00 -0.18410434075E+03  0.63830766947E+03  0.61118104734E+03 0.  0.
        1    1    3    3  502    0 -0.91790791730E+02 -0.28315784616E+03 -0.16427079370E+03  0.33998354222E+03  0.50400001928E-02 0.  1.
       -1    1    3    3    0  502  0.91790791730E+02  0.28315784616E+03 -0.19833547057E+02  0.29832412726E+03  0.50400001928E-02 0. -1.
</event>
<event>
 5   0  0.8817544E-02  0.6025726E+03  0.7818609E-02  0.9900083E-01
        2   -1    0    0  501    0  0.00000000000E+00  0.00000000000E+00  0.35263474695E+03  0.35263474696E+03  0.25500000920E-02 0. -1.
       -2   -1    0    0    0  501  0.00000000000E+00  0.00000000000E+00 -0.25741491448E+03  0.25741491449E+03  0.25500000920E-02 0.  1.
    10030    2    1    2    0    0  0.00000000000E+00  0.00000000000E+00  0.95219832477E+02  0.61004966145E+03  0.60257262877E+03 0.  0.
        5    1    3    3  502    0 -0.13575586864E+03 -0.20395752183E+03 -0.12984489918E+03  0.27732672865E+03  0.46999998093E+01 0.  1.
       -5    1    3    3    0  502  0.13575586864E+03  0.20395752183E+03  0.22506473166E+03  0.33272293281E+03  0.46999998093E+01 0. -1.
</event>
<event>
 5   0  0.5125031E-02  0.6368685E+03  0.7818609E-02  0.9831736E-01
       -1   -1    0    0    0  501  0.00000000000E+00  0.00000000000E+00  0.10947244857E+03  0.10947244868E+03  0.50400001928E-02 0. -1.
        1   -1    0    0  501    0  0.00000000000E+00  0.00000000000E+00 -0.92626377128E+03  0.92626377130E+03  0.50400001928E-02 0.  1.
    10030    2    1    2    0    0  0.00000000000E+00  0.00000000000E+00 -0.81679132272E+03  0.10357362200E+04  0.63686847348E+03 0.  0.
        4    1    3    3  502    0  0.28289416043E+03 -0.85606687986E+02 -0.60110403467E+03  0.66983974533E+03  0.12699999809E+01 0. -1.
       -4    1    3    3    0  502 -0.28289416043E+03  0.85606687986E+02 -0.21568728805E+03  0.36589647465E+03  0.12699999809E+01 0.  1.
</event>
<event>
 5   0  0.8575590E-02  0.5670134E+03  0.7818609E-02  0.9976309E-01
        2   -1    0    0  501    0  0.00000000000E+00  0.00000000000E+00  0.13608562149E+04  0.13608562149E+04  0.25500000920E-02 0. -1.
       -2   -1    0    0    0  501  0.00000000000E+00  0.00000000000E+00 -0.59062844898E+02  0.59062844953E+02  0.25500000920E-02 0.  1.
    10030    2    1    2    0    0  0.00000000000E+00  0.00000000000E+00  0.13017933700E+04  0.14199190598E+04  0.56701336700E+03 0.  0.
        4    1    3    3  502    0  0.76902372146E+02  0.27220453341E+03  0.69874892595E+03  0.75383085455E+03  0.12699999809E+01 0.  1.
       -4    1    3    3    0  502 -0.76902372146E+02 -0.27220453341E+03  0.60304444403E+03  0.66608820529E+03  0.12699999809E+01 0. -1.
</event>
<event>
 5   0  0.8420604E-02  0.5160711E+03  0.7818609E-02  0.1009667E+00
        2   -1    0    0  501    0  0.00000000000E+00  0.00000000000E+00  0.53167128697E+03  0.53167128697E+03  0.25500000920E-02 0.  1.
       -2   -1    0    0    0  501  0.00000000000E+00  0.00000000000E+00 -0.12523216916E+03  0.12523216919E+03  0.25500000920E-02 0. -1.
    10030    2    1    2    0    0  0.00000000000E+00  0.00000000000E+00  0.40643911781E+03  0.65690345616E+03  0.51607111354E+03 0.  0.
        2    1    3    3  502    0 -0.34667746194E+02 -0.23876046502E+03  0.86738094532E+02  0.25638234988E+03  0.25500000920E-02 0. -1.
       -2    1    3    3    0  502  0.34667746194E+02  0.23876046502E+03  0.31970102327E+03  0.40052110628E+03  0.25500000920E-02 0.  1.
</event>
<event>
 5   0  0.4987389E-02  0.5965993E+03  0.7818609E-02  0.9912487E-01
       -1   -1    0    0    0  501  0.00000000000E+00  0.00000000000E+00  0.61601359279E+02  0.61601359485E+02  0.50400001928E-02 0. -1.
        1   -1    0    0  501    0  0.00000000000E+00  0.00000000000E+00 -0.14444922588E+04  0.14444922588E+04  0.50400001928E-02 0.  1.
    10030    2    1    2    0    0  0.00000000000E+00  0.00000000000E+00 -0.13828908995E+04  0.15060936183E+04  0.59659931871E+03 0.  0.
        1    1    3    3  502    0  0.23501687765E+03  0.31506839830E+02 -0.11483460826E+04  0.11725716776E+04  0.50400001928E-02 0.  1.
       -1    1    3    3    0  502 -0.23501687765E+03 -0.31506839830E+02 -0.23454481695E+03  0.33352194069E+03  0.50400001928E-02 0. -1.
</event>
<event>
 5   0  0.8420604E-02  0.5967422E+03  0.7818609E-02  0.9912188E-01
        2   -1    0    0  501    0  0.00000000000E+00  0.00000000000E+00  0.99112917810E+03  0.99112917810E+03  0.25500000920E-02 0. -1.
       -2   -1    0    0    0  501  0.00000000000E+00  0.00000000000E+00 -0.89822123877E+02  0.89822123913E+02  0.25500000920E-02 0.  1.
    10030    2    1    2    0    0  0.00000000000E+00  0.00000000000E+00  0.90130705422E+03  0.10809513020E+04  0.59674224866E+03 0.  0.
        2    1    3    3  502    0  0.11303216122E+03  0.26747432885E+03  0.32638238182E+03  0.43685723667E+03  0.25500000920E-02 0.  1.
       -2    1    3    3    0  502 -0.11303216122E+03 -0.26747432885E+03  0.57492467240E+03  0.64409406534E+03  0.25500000920E-02 0. -1.
</event>
<event>
 5   0  0.5166903E-02  0.5970876E+03  0.7818609E-02  0.9911467E-01
        1   -1    0    0  501    0  0.00000000000E+00  0.00000000000E+00  0.96696145519E+03  0.96696145520E+03  0.50400001928E-02 0.  1.
       -1   -1    0    0    0  501  0.00000000000E+00  0.00000000000E+00 -0.92173672785E+02  0.92173672923E+02  0.50400001928E-02 0. -1.
    10030    2    1    2    0    0  0.00000000000E+00  0.00000000000E+00  0.87478778240E+03  0.10591351281E+04  0.59708756090E+03 0.  0.
        2    1    3    3  502    0 -0.13853361688E+03  0.26220623397E+03  0.37633897994E+03  0.47913954123E+03  0.25500000920E-02 0. -1.
       -2    1    3    3    0  502  0.13853361688E+03 -0.26220623397E+03  0.49844880246E+03  0.57999558690E+03  0.25500000920E-02 0.  1.
</event>
<event>
 5   0  0.5125031E-02  0.5980095E+03  0.7818609E-02  0.9909544E-01
       -1   -1    0    0    0  501  0.00000000000E+00  0.00000000000E+00  0.20158971506E+03  0.20158971512E+03  0.50400001928E-02 0. -1.
        1   -1    0    0  501    0  0.00000000000E+00  0.00000000000E+00 -0.44349408879E+03  0.44349408882E+03  0.50400001928E-02 0.  1.
    10030    2    1    2    0    0  0.00000000000E+00  0.00000000000E+00 -0.24190437373E+03  0.64508380395E+03  0.59800952173E+03 0.  0.
        4    1    3    3  502    0  0.69517667693E+02  0.16473546108E+02 -0.43414880345E+03  0.43998963656E+03  0.12699999809E+01 0.  1.
       -4    1    3    3    0  502 -0.69517667693E+02 -0.16473546108E+02  0.19224442971E+03  0.20509416739E+03  0.12699999809E+01 0. -1.
</event>
<event>
 5   0  0.8207443E-02  0.6083366E+03  0.7818609E-02  0.9888260E-01
        2   -1    0    0  501    0  0.00000000000E+00  0.00000000000E+00  0.17078498836E+03  0.17078498838E+03  0.25500000920E-02 0.  1.
       -2   -1    0    0    0  501  0.00000000000E+00  0.00000000000E+00 -0.54172407581E+03  0.54172407581E+03  0.25500000920E-02 0. -1.
    10030    2    1    2    0    0  0.00000000000E+00  0.00000000000E+00 -0.37093908745E+03  0.71250906419E+03  0.60833655156E+03 0.  0.
        1    1    3    3  502    0 -0.17911384292E+02 -0.13951555817E+03  0.13040310889E+03  0.19180818411E+03  0.50400001928E-02 0.  1.
       -1    1    3    3    0  502  0.17911384292E+02  0.13951555817E+03 -0.50134219634E+03  0.52070088008E+03  0.50400001928E-02 0. -1.
</event>
<event>
 5   0  0.8420604E-02  0.6094394E+03  0.7818609E-02  0.9886013E-01
       -2   -1    0    0    0  501  0.00000000000E+00  0.00000000000E+00  0.91440182955E+02  0.91440182991E+02  0.25500000920E-02 0. -1.
        2   -1    0    0  501    0  0.00000000000E+00  0.00000000000E+00 -0.10154628519E+04  0.10154628519E+04  0.25500000920E-02 0.  1.
    10030    2    1    2    0    0  0.00000000000E+00  0.00000000000E+00 -0.92402266892E+03  0.11069030349E+04  0.60943944402E+03 0.  0.
        2    1    3    3  502    0  0.30160784679E+03 -0.40853139389E+02 -0.48881810982E+03  0.57582932952E+03  0.25500000920E-02 0.  1.
       -2    1    3    3    0  502 -0.30160784679E+03  0.40853139389E+02 -0.43520455910E+03  0.53107370535E+03  0.25500000920E-02 0. -1.
</event>
<event>
 5   0  0.4987389E-02  0.5803951E+03  0.7818609E-02  0.9946936E-01
        1   -1    0    0  501    0  0.00000000000E+00  0.00000000000E+00  0.20177471388E+03  0.20177471394E+03  0.50400001928E-02 0. -1.
       -1   -1    0    0    0  501  0.00000000000E+00  0.00000000000E+00 -0.41736952829E+03  0.41736952832E+03  0.50400001928E-02 0.  1.
    10030    2    1    2    0    0  0.00000000000E+00  0.00000000000E+00 -0.21559481441E+03  0.61914424226E+03  0.58039509709E+03 0.  0.
        1    1    3    3  502    0 -0.19681991628E+02 -0.10943700367E+03 -0.39374328676E+03  0.40914253563E+03  0.50400001928E-02 0.  1.
       -1    1    3    3    0  502  0.19681991628E+02  0.10943700367E+03  0.17814847234E+03  0.21000170664E+03  0.50400001928E-02 0. -1.
</event>
<event>
 5   0  0.5166903E-02  0.5985187E+03  0.7818609E-02  0.9908484E-01
       -1   -1    0    0    0  501  0.00000000000E+00  0.00000000000E+00  0.26161156169E+03  0.26161156174E+03  0.50400001928E-02 0.  1.
        1   -1    0    0  501    0  0.00000000000E+00  0.00000000000E+00 -0.34232492680E+03  0.34232492684E+03  0.50400001928E-02 0. -1.
    10030    2    1    2    0    0  0.00000000000E+00  0.00000000000E+00 -0.80713365112E+02  0.60393648858E+03  0.59851870057E+03 0.  0.
        2    1    3    3  502    0 -0.10659887415E+03  0.27837817208E+03 -0.67023772811E+02  0.30553217963E+03  0.25500000920E-02 0.  1.
       -2    1    3    3    0  502  0.10659887415E+03 -0.27837817208E+03 -0.13689592301E+02  0.29840430895E+03  0.25500000920E-02 0. -1.
</event>
<event>
 5   0  0.8207443E-02  0.6024303E+03  0.7818609E-02  0.9900377E-01
       -2   -1    0    0    0  501  0.00000000000E+00  0.00000000000E+00  0.14141847904E+03  0.14141847907E+03  0.25500000920E-02 0. -1.
        2   -1    0    0  501    0  0.00000000000E+00  0.00000000000E+00 -0.64157497067E+03  0.64157497068E+03  0.25500000920E-02 0.  1.
    10030    2    1    2    0    0  0.00000000000E+00  0.00000000000E+00 -0.50015649163E+03  0.78299344974E+03  0.60243026669E+03 0.  0.
        1    1    3    3  502    0 -0.14983938975E+03  0.24666841356E+03 -0.36213687832E+03  0.46307695649E+03  0.50400001928E-02 0.  1.
       -1    1    3    3    0  502  0.14983938975E+03 -0.24666841356E+03 -0.13801961331E+03  0.31991649325E+03  0.50400001928E-02 0. -1.
</event>
<event>
 5   0  0.5166903E-02  0.6023826E+03  0.7818609E-02  0.9900475E-01
        1   -1    0    0  501    0  0.00000000000E+00  0.00000000000E+00  0.74442712112E+03  0.74442712113E+03  0.50400001928E-02 0. -1.
       -1   -1    0    0    0  501  0.00000000000E+00  0.00000000000E+00 -0.12186043146E+03  0.12186043156E+03  0.50400001928E-02 0.  1.
    10030    2    1    2    0    0  0.00000000000E+00  0.00000000000E+00  0.62256668966E+03  0.86628755269E+03  0.60238263660E+03 0.  0.
        2    1    3    3  502    0 -0.18776493834E+03  0.22656638437E+03  0.21888363550E+03  0.36673975036E+03  0.25500000920E-02 0.  1.
       -2    1    3    3    0  502  0.18776493834E+03 -0.22656638437E+03  0.40368305416E+03  0.49954780234E+03  0.25500000920E-02 0. -1.
</event>
<event>
 5   0  0.4987389E-02  0.6070459E+03  0.7818609E-02  0.9890895E-01
        1   -1    0    0  501    0  0.00000000000E+00  0.00000000000E+00  0.51808136666E+03  0.51808136668E+03  0.50400001928E-02 0. -1.
       -1   -1    0    0    0  501  0.00000000000E+00  0.00000000000E+00 -0.17782181272E+03  0.17782181279E+03  0.50400001928E-02 0.  1.
    10030    2    1    2    0    0  0.00000000000E+00  0.00000000000E+00  0.34025955394E+03  0.69590317947E+03  0.60704585588E+03 0.  0.
        1    1    3    3  502    0  0.73064643764E+02  0.13395714638E+03 -0.13065639983E+03  0.20088318515E+03  0.50400001928E-02 0.  1.
       -1    1    3    3    0  502 -0.73064643764E+02 -0.13395714638E+03  0.47091595377E+03  0.49501999432E+03  0.50400001928E-02 0. -1.
</event>
<event>
 5   0  0.3437375E-02  0.4425597E+03  0.7818609E-02  0.1029964E+00
       -3   -1    0    0    0  501  0.00000000000E+00  0.00000000000E+00  0.33380058543E+03  0.33380060071E+03  0.10100000352E+00 0. -1.
        3   -1    0    0  501    0  0.00000000000E+00  0.00000000000E+00 -0.14668863033E+03  0.14668866511E+03  0.10100000352E+00 0.  1.
    10030    2    1    2    0    0  0.00000000000E+00  0.00000000000E+00  0.18711195509E+03  0.48048926581E+03  0.44255965792E+03 0.  0.
        1    1    3    3  502    0  0.93579045558E+00 -0.17064282330E+03  0.24650139737E+03  0.29980458265E+03  0.50400001928E-02 0. -1.
       -1    1    3    3    0  502 -0.93579045558E+00  0.17064282330E+03 -0.59389442281E+02  0.18068468316E+03  0.50400001928E-02 0.  1.
</event>
<event>
 5   0  0.8575590E-02  0.5991991E+03  0.7818609E-02  0.9907069E-01
        2   -1    0    0  501    0  0.00000000000E+00  0.00000000000E+00  0.10091425804E+04  0.10091425804E+04  0.25500000920E-02 0. -1.
       -2   -1    0    0    0  501  0.00000000000E+00  0.00000000000E+00 -0.88946686076E+02  0.88946686113E+02  0.25500000920E-02 0.  1.
    10030    2    1    2    0    0  0.00000000000E+00  0.00000000000E+00  0.92019589433E+03  0.10980892665E+04  0.59919909321E+03 0.  0.
        4    1    3    3  502    0  0.61891844425E+02  0.27229777326E+03  0.65901343239E+03  0.71573528256E+03  0.12699999809E+01 0. -1.
       -4    1    3    3    0  502 -0.61891844425E+02 -0.27229777326E+03  0.26118246194E+03  0.38235398397E+03  0.12699999809E+01 0.  1.
</event>
<event>
 5   0  0.8575590E-02  0.6089338E+03  0.7818609E-02  0.9887043E-01
        2   -1    0    0  501    0  0.00000000000E+00  0.00000000000E+00  0.80552605535E+03  0.80552605536E+03  0.25500000920E-02 0. -1.
       -2   -1    0    0    0  501  0.00000000000E+00  0.00000000000E+00 -0.11508020534E+03  0.11508020536E+03  0.25500000920E-02 0.  1.
    10030    2    1    2    0    0  0.00000000000E+00  0.00000000000E+00  0.69044585002E+03  0.92060626072E+03  0.60893383506E+03 0.  0.
        4    1    3    3  502    0 -0.29881812307E+03  0.30595023190E+02  0.27008368698E+03  0.40394942380E+03  0.12699999809E+01 0.  1.
       -4    1    3    3    0  502  0.29881812307E+03 -0.30595023190E+02  0.42036216304E+03  0.51665683692E+03  0.12699999809E+01 0. -1.
</event>
<event>
 5   0  0.8575590E-02  0.6240036E+03  0.7818609E-02  0.9856821E-01
        2   -1    0    0  501    0  0.00000000000E+00  0.00000000000E+00  0.59763178647E+03  0.59763178647E+03  0.25500000920E-02 0.  1.
       -2   -1    0    0    0  501  0.00000000000E+00  0.00000000000E+00 -0.16288479023E+03  0.16288479025E+03  0.25500000920E-02 0. -1.
    10030    2    1    2    0    0  0.00000000000E+00  0.00000000000E+00  0.43474699623E+03  0.76051657672E+03  0.62400361596E+03 0.  0.
        4    1    3    3  502    0  0.11805927651E+02  0.12487079269E+03 -0.13080107104E+03  0.18122535109E+03  0.12699999809E+01 0. -1.
       -4    1    3    3    0  502 -0.11805927651E+02 -0.12487079269E+03  0.56554806727E+03  0.57929122563E+03  0.12699999809E+01 0.  1.
</event>
<event>
 5   0  0.8699746E-02  0.5991413E+03  0.7818609E-02  0.9907189E-01
        2   -1    0    0  501    0  0.00000000000E+00  0.00000000000E+00  0.27369123278E+03  0.27369123279E+03  0.25500000920E-02 0. -1.
       -2   -1    0    0    0  501  0.00000000000E+00  0.00000000000E+00 -0.32789716882E+03  0.32789716883E+03  0.25500000920E-02 0.  1.
    10030    2    1    2    0    0  0.00000000000E+00  0.00000000000E+00 -0.54205936046E+02  0.60158840162E+03  0.59914132011E+03 0.  0.
        3    1    3    3  502    0  0.16851673217E+03 -0.21983270830E+03 -0.14166657488E+03  0.31111691902E+03  0.10100000352E+00 0.  1.
       -3    1    3    3    0  502 -0.16851673217E+03  0.21983270830E+03  0.87460638833E+02  0.29047148260E+03  0.10100000352E+00 0. -1.
</event>
<event>
 5   0  0.4987389E-02  0.6022340E+03  0.7818609E-02  0.9900782E-01
        1   -1    0    0  501    0  0.00000000000E+00  0.00000000000E+00  0.11850229861E+04  0.11850229861E+04  0.50400001928E-02 0.  1.
       -1   -1    0    0    0  501  0.00000000000E+00  0.00000000000E+00 -0.76514493892E+02  0.76514494058E+02  0.50400001928E-02 0. -1.
    10030    2    1    2    0    0  0.00000000000E+00  0.00000000000E+00  0.11085084922E+04  0.12615374802E+04  0.60223395502E+03 0.  0.
        1    1    3    3  502    0 -0.93646838912E+02 -0.20418200284E+03  0.13419592818E+03  0.26166499171E+03  0.50400001928E-02 0. -1.
       -1    1    3    3    0  502  0.93646838912E+02  0.20418200284E+03  0.97431256406E+03  0.99987248849E+03  0.50400001928E-02 0.  1.
</event>
<event>
 5   0  0.8420604E-02  0.6002995E+03  0.7818609E-02  0.9904785E-01
       -2   -1    0    0    0  501  0.00000000000E+00  0.00000000000E+00  0.25142383126E+03  0.25142383127E+03  0.25500000920E-02 0. -1.
        2   -1    0    0  501    0  0.00000000000E+00  0.00000000000E+00 -0.35831871833E+03  0.35831871834E+03  0.25500000920E-02 0.  1.
    10030    2    1    2    0    0  0.00000000000E+00  0.00000000000E+00 -0.10689488707E+03  0.60974254962E+03  0.60029947520E+03 0.  0.
        2    1    3    3  502    0  0.45373110883E+02  0.83798507643E+02 -0.34254542283E+03  0.35555347809E+03  0.25500000920E-02 0.  1.
       -2    1    3    3    0  502 -0.45373110883E+02 -0.83798507643E+02  0.23565053576E+03  0.25418907152E+03  0.25500000920E-02 0. -1.
</event>
<event>
 5   0  0.8207443E-02  0.6400019E+03  0.7818609E-02  0.9825723E-01
        2   -1    0    0  501    0  0.00000000000E+00  0.00000000000E+00  0.37730559918E+03  0.37730559919E+03  0.25500000920E-02 0. -1.
       -2   -1    0    0    0  501  0.00000000000E+00  0.00000000000E+00 -0.27139968504E+03  0.27139968505E+03  0.25500000920E-02 0.  1.
    10030    2    1    2    0    0  0.00000000000E+00  0.00000000000E+00  0.10590591414E+03  0.64870528424E+03  0.64000193996E+03 0.  0.
        1    1    3    3  502    0  0.90493063652E+02 -0.88302250086E+02  0.35091370169E+03  0.37299692760E+03  0.50400001928E-02 0. -1.
       -1    1    3    3    0  502 -0.90493063652E+02  0.88302250086E+02 -0.24500778755E+03  0.27570835664E+03  0.50400001928E-02 0.  1.
</event>
<event>
 5   0  0.5166903E-02  0.6215746E+03  0.7818609E-02  0.9861630E-01
       -1   -1    0    0    0  501  0.00000000000E+00  0.00000000000E+00  0.50043624654E+02  0.50043624908E+02  0.50400001928E-02 0. -1.
        1   -1    0    0  501    0  0.00000000000E+00  0.00000000000E+00 -0.19300908522E+04  0.19300908522E+04  0.50400001928E-02 0.  1.
    10030    2    1    2    0    0  0.00000000000E+00  0.00000000000E+00 -0.18800472275E+04  0.19801344771E+04  0.62157458897E+03 0.  0.
        2    1    3    3  502    0 -0.26216915575E+03  0.70923589613E+02 -0.14213233076E+04  0.14470393106E+04  0.25500000920E-02 0.  1.
       -2    1    3    3    0  502  0.26216915575E+03 -0.70923589613E+02 -0.45872391995E+03  0.53309516648E+03  0.25500000920E-02 0. -1.
</event>
<event>
 5   0  0.5166903E-02  0.6011273E+03  0.7818609E-02  0.9903070E-01
       -1   -1    0    0    0  501  0.00000000000E+00  0.00000000000E+00  0.87733237545E+02  0.87733237690E+02  0.50400001928E-02 0.  1.
        1   -1    0    0  501    0  0.00000000000E+00  0.00000000000E+00 -0.10296952613E+04  0.10296952613E+04  0.50400001928E-02 0. -1.
    10030    2    1    2    0    0  0.00000000000E+00  0.00000000000E+00 -0.94196202372E+03  0.11174284990E+04  0.60112727119E+03 0.  0.
        2    1    3    3  502    0  0.68522763436E+02  0.23989972983E+03 -0.78253896462E+03  0.82134918314E+03  0.25500000920E-02 0.  1.
       -2    1    3    3    0  502 -0.68522763436E+02 -0.23989972983E+03 -0.15942305910E+03  0.29607931583E+03  0.25500000920E-02 0. -1.
</event>
<event>
 5   0  0.8575590E-02  0.6083272E+03  0.7818609E-02  0.9888279E-01
        2   -1    0    0  501    0  0.00000000000E+00  0.00000000000E+00  0.40886856129E+03  0.40886856130E+03  0.25500000920E-02 0.  1.
       -2   -1    0    0    0  501  0.00000000000E+00  0.00000000000E+00 -0.22627200572E+03  0.22627200574E+03  0.25500000920E-02 0. -1.
    10030    2    1    2    0    0  0.00000000000E+00  0.00000000000E+00  0.18259655557E+03  0.63514056703E+03  0.60832724564E+03 0.  0.
        4    1    3    3  502    0  0.87537170209E+02 -0.27934308488E+03  0.50839202288E+01  0.29278451868E+03  0.12699999809E+01 0.  1.
       -4    1    3    3    0  502 -0.87537170209E+02  0.27934308488E+03  0.17751263534E+03  0.34235604835E+03  0.12699999809E+01 0. -1.
</event>
<event>
 5   0  0.8575590E-02  0.4764698E+03  0.7818609E-02  0.1020110E+00
        2   -1    0    0  501    0  0.00000000000E+00  0.00000000000E+00  0.21902231403E+03  0.21902231405E+03  0.25500000920E-02 0. -1.
       -2   -1    0    0    0  501  0.00000000000E+00  0.00000000000E+00 -0.25913284713E+03  0.25913284714E+03  0.25500000920E-02 0.  1.
    10030    2    1    2    0    0  0.00000000000E+00  0.00000000000E+00 -0.40110533100E+02  0.47815516119E+03  0.47646983462E+03 0.  0.
        4    1    3    3  502    0  0.16612869870E+03 -0.12667463372E+03  0.94844498193E+02  0.22943909671E+03  0.12699999809E+01 0. -1.
       -4    1    3    3    0  502 -0.16612869870E+03  0.12667463372E+03 -0.13495503129E+03  0.24871606448E+03  0.12699999809E+01 0.  1.
</event>
<event>
 5   0  0.8575590E-02  0.5991814E+03  0.7818609E-02  0.9907106E-01
        2   -1    0    0  501    0  0.00000000000E+00  0.00000000000E+00  0.53114610034E+03  0.53114610035E+03  0.25500000920E-02 0.  1.
       -2   -1    0    0    0  501  0.00000000000E+00  0.00000000000E+00 -0.16898287099E+03  0.16898287101E+03  0.25500000920E-02 0. -1.
    10030    2    1    2    0    0  0.00000000000E+00  0.00000000000E+00  0.36216322935E+03  0.70012897136E+03  0.59918141814E+03 0.  0.
        4    1    3    3  502    0 -0.33182401812E+02 -0.28074006723E+03  0.65190711648E+02  0.29011635411E+03  0.12699999809E+01 0. -1.
       -4    1    3    3    0  502  0.33182401812E+02  0.28074006723E+03  0.29697251770E+03  0.41001261725E+03  0.12699999809E+01 0.  1.
</event>
<event>
 5   0  0.4881209E-02  0.6495328E+03  0.7818609E-02  0.9807656E-01
        1   -1    0    0  501    0  0.00000000000E+00  0.00000000000E+00  0.29898018683E+03  0.29898018687E+03  0.50400001928E-02 0.  1.
       -1   -1    0    0    0  501  0.00000000000E+00  0.00000000000E+00 -0.35277663430E+03  0.35277663434E+03  0.50400001928E-02 0. -1.
    10030    2    1    2    0    0  0.00000000000E+00  0.00000000000E+00 -0.53796447472E+02  0.65175682121E+03  0.64953282922E+03 0.  0.
        3    1    3    3  502    0 -0.19551766543E+03  0.23274906177E+03  0.87834569401E+02  0.31640828850E+03  0.10100000352E+00 0.  1.
       -3    1    3    3    0  502  0.19551766543E+03 -0.23274906177E+03 -0.14163101687E+03  0.33534853271E+03  0.10100000352E+00 0. -1.
</event>
<event>
 5   0  0.5190380E-02  0.6071013E+03  0.7818609E-02  0.9890782E-01
       -1   -1    0    0    0  501  0.00000000000E+00  0.00000000000E+00  0.85188628327E+03  0.85188628328E+03  0.50400001928E-02 0.  1.
        1   -1    0    0  501    0  0.00000000000E+00  0.00000000000E+00 -0.10816350290E+03  0.10816350302E+03  0.50400001928E-02 0. -1.
    10030    2    1    2    0    0  0.00000000000E+00  0.00000000000E+00  0.74372278037E+03  0.96004978630E+03  0.60710132444E+03 0.  0.
        5    1    3    3  502    0 -0.48555810500E+02  0.11250738121E+02 -0.10159003572E+03  0.11325577777E+03  0.46999998093E+01 0. -1.
       -5    1    3    3    0  502  0.48555810500E+02 -0.11250738121E+02  0.84531281609E+03  0.84679400853E+03  0.46999998093E+01 0.  1.
</event>
<event>
 5   0  0.4881209E-02  0.5990907E+03  0.7818609E-02  0.9907294E-01
        1   -1    0    0  501    0  0.00000000000E+00  0.00000000000E+00  0.14884618667E+03  0.14884618675E+03  0.50400001928E-02 0.  1.
       -1   -1    0    0    0  501  0.00000000000E+00  0.00000000000E+00 -0.60281969790E+03  0.60281969792E+03  0.50400001928E-02 0. -1.
    10030    2    1    2    0    0  0.00000000000E+00  0.00000000000E+00 -0.45397351123E+03  0.75166588467E+03  0.59909068869E+03 0.  0.
        3    1    3    3  502    0 -0.67846471132E+02 -0.16622997993E+03  0.73853136440E+02  0.19413872832E+03  0.10100000352E+00 0.  1.
       -3    1    3    3    0  502  0.67846471132E+02  0.16622997993E+03 -0.52782664767E+03  0.55752715635E+03  0.10100000352E+00 0. -1.
</event>
<event>
 5   0  0.8420604E-02  0.5827905E+03  0.7818609E-02  0.9941768E-01
       -2   -1    0    0    0  501  0.00000000000E+00  0.00000000000E+00  0.65308196423E+02  0.65308196473E+02  0.25500000920E-02 0. -1.
        2   -1    0    0  501    0  0.00000000000E+00  0.00000000000E+00 -0.13001614504E+04  0.13001614504E+04  0.25500000920E-02 0.  1.
    10030    2    1    2    0    0  0.00000000000E+00  0.00000000000E+00 -0.12348532540E+04  0.13654696469E+04  0.58279052641E+03 0.  0.
        2    1    3    3  502    0 -0.13944651718E+03  0.24918482879E+03 -0.75349718845E+03  0.80578931680E+03  0.25500000920E-02 0.  1.
       -2    1    3    3    0  502  0.13944651718E+03 -0.24918482879E+03 -0.48135606552E+03  0.55968033008E+03  0.25500000920E-02 0. -1.
</event>
<event>
 5   0  0.5166903E-02  0.6079232E+03  0.7818609E-02  0.9889103E-01
        1   -1    0    0  501    0  0.00000000000E+00  0.00000000000E+00  0.10793082095E+04  0.10793082095E+04  0.50400001928E-02 0.  1.
       -1   -1    0    0    0  501  0.00000000000E+00  0.00000000000E+00 -0.85603584940E+02  0.85603585088E+02  0.50400001928E-02 0. -1.
    10030    2    1    2    0    0  0.00000000000E+00  0.00000000000E+00  0.99370462454E+03  0.11649117946E+04  0.60792319278E+03 0.  0.
        2    1    3    3  502    0 -0.13835397251E+03  0.26732888173E+03  0.41586870138E+03  0.51337445350E+03  0.25500000920E-02 0. -1.
       -2    1    3    3    0  502  0.13835397251E+03 -0.26732888173E+03  0.57783592316E+03  0.65153734108E+03  0.25500000920E-02 0.  1.
</event>
<event>
 5   0  0.5166903E-02  0.5921925E+03  0.7818609E-02  0.9921738E-01
       -1   -1    0    0    0  501  0.00000000000E+00  0.00000000000E+00  0.18634931116E+03  0.18634931123E+03  0.50400001928E-02 0. -1.
        1   -1    0    0  501    0  0.00000000000E+00  0.00000000000E+00 -0.47047663554E+03  0.47047663556E+03  0.50400001928E-02 0.  1.
    10030    2    1    2    0    0  0.00000000000E+00  0.00000000000E+00 -0.28412732438E+03  0.65682594679E+03  0.59219252606E+03 0.  0.
        2    1    3    3  502    0 -0.71241283149E+01  0.22618126916E+02 -0.46942172415E+03  0.47002030592E+03  0.25500000920E-02 0.  1.
       -2    1    3    3    0  502  0.71241283149E+01 -0.22618126916E+02  0.18529439977E+03  0.18680564087E+03  0.25500000920E-02 0. -1.
</event>
<event>
 5   0  0.4987389E-02  0.6353327E+03  0.7818609E-02  0.9834697E-01
        1   -1    0    0  501    0  0.00000000000E+00  0.00000000000E+00  0.32937439686E+03  0.32937439690E+03  0.50400001928E-02 0. -1.
       -1   -1    0    0    0  501  0.00000000000E+00  0.00000000000E+00 -0.30637444606E+03  0.30637444610E+03  0.50400001928E-02 0.  1.
    10030    2    1    2    0    0  0.00000000000E+00  0.00000000000E+00  0.22999950801E+02  0.63574884300E+03  0.63533266376E+03 0.  0.
        1    1    3    3  502    0  0.22326644392E+02 -0.15537801873E+03  0.28785309590E+03  0.32787225043E+03  0.50400001928E-02 0. -1.
       -1    1    3    3    0  502 -0.22326644392E+02  0.15537801873E+03 -0.26485314510E+03  0.30787659257E+03  0.50400001928E-02 0.  1.
</event>
<event>
 5   0  0.8420604E-02  0.6326628E+03  0.7818609E-02  0.9839866E-01
        2   -1    0    0  501    0  0.00000000000E+00  0.00000000000E+00  0.82587921168E+03  0.82587921168E+03  0.25500000920E-02 0. -1.
       -2   -1    0    0    0  501  0.00000000000E+00  0.00000000000E+00 -0.12116243984E+03  0.12116243987E+03  0.25500000920E-02 0.  1.
    10030    2    1    2    0    0  0.00000000000E+00  0.00000000000E+00  0.70471677184E+03  0.94704165155E+03  0.63266275476E+03 0.  0.
        2    1    3    3  502    0 -0.13849744628E+03  0.34298490288E+02 -0.70258367058E+02  0.15904140093E+03  0.25500000920E-02 0.  1.
       -2    1    3    3    0  502  0.13849744628E+03 -0.34298490288E+02  0.77497513890E+03  0.78800025062E+03  0.25500000920E-02 0. -1.
</event>
<event>
 5   0  0.8575590E-02  0.5606963E+03  0.7818609E-02  0.9990480E-01
       -2   -1    0    0    0  501  0.00000000000E+00  0.00000000000E+00  0.75839543450E+02  0.75839543493E+02  0.25500000920E-02 0. -1.
        2   -1    0    0  501    0  0.00000000000E+00  0.00000000000E+00 -0.10363337500E+04  0.10363337500E+04  0.25500000920E-02 0.  1.
    10030    2    1    2    0    0  0.00000000000E+00  0.00000000000E+00 -0.96049420654E+03  0.11121732935E+04  0.56069627602E+03 0.  0.
        4    1    3    3  502    0 -0.31037578535E+02 -0.21983090378E+03 -0.81980357172E+03  0.84933413133E+03  0.12699999809E+01 0.  1.
       -4    1    3    3    0  502  0.31037578535E+02  0.21983090378E+03 -0.14069063481E+03  0.26283916215E+03  0.12699999809E+01 0. -1.
</event>
<event>
 5   0  0.4987389E-02  0.5814237E+03  0.7818609E-02  0.9944714E-01
       -1   -1    0    0    0  501  0.00000000000E+00  0.00000000000E+00  0.81796535970E+03  0.81796535972E+03  0.50400001928E-02 0.  1.
        1   -1    0    0  501    0  0.00000000000E+00  0.00000000000E+00 -0.10332144822E+03  0.10332144834E+03  0.50400001928E-02 0. -1.
    10030    2    1    2    0    0  0.00000000000E+00  0.00000000000E+00  0.71464391148E+03  0.92128680806E+03  0.58142365147E+03 0.  0.
        1    1    3    3  502    0  0.26794597913E+03 -0.11064053412E+02  0.53515679201E+03  0.59859022132E+03  0.50400001928E-02 0.  1.
       -1    1    3    3    0  502 -0.26794597913E+03  0.11064053412E+02  0.17948711947E+03  0.32269658674E+03  0.50400001928E-02 0. -1.
</event>
<event>
 5   0  0.8207443E-02  0.6041976E+03  0.7818609E-02  0.9896735E-01
        2   -1    0    0  501    0  0.00000000000E+00  0.00000000000E+00  0.80741763662E+02  0.80741763702E+02  0.25500000920E-02 0.  1.
       -2   -1    0    0    0  501  0.00000000000E+00  0.00000000000E+00 -0.11303158147E+04  0.11303158147E+04  0.25500000920E-02 0. -1.
    10030    2    1    2    0    0  0.00000000000E+00  0.00000000000E+00 -0.10495740510E+04  0.12110575784E+04  0.60419762462E+03 0.  0.
        1    1    3    3  502    0  0.22816463960E+02 -0.76658093496E+02  0.59134220306E+02  0.99468137425E+02  0.50400001928E-02 0.  1.
       -1    1    3    3    0  502 -0.22816463960E+02  0.76658093496E+02 -0.11087082713E+04  0.11115894409E+04  0.50400001928E-02 0. -1.
</event>
<event>
 5   0  0.5166903E-02  0.5392387E+03  0.7818609E-02  0.1004016E+00
        1   -1    0    0  501    0  0.00000000000E+00  0.00000000000E+00  0.21184208286E+04  0.21184208286E+04  0.50400001928E-02 0. -1.
       -1   -1    0    0    0  501  0.00000000000E+00  0.00000000000E+00 -0.34315459777E+02  0.34315460147E+02  0.50400001928E-02 0.  1.
    10030    2    1    2    0    0  0.00000000000E+00  0.00000000000E+00  0.20841053688E+04  0.21527362888E+04  0.53923866753E+03 0.  0.
        2    1    3    3  502    0 -0.24917489277E+02 -0.18676875293E+02 -0.27112269489E+02  0.41289007083E+02  0.25500000920E-02 0.  1.
       -2    1    3    3    0  502  0.24917489277E+02  0.18676875293E+02  0.21112176383E+04  0.21114472817E+04  0.25500000920E-02 0. -1.
</event>
<event>
 5   0  0.5125031E-02  0.4449301E+03  0.7818609E-02  0.1029245E+00
       -1   -1    0    0    0  501  0.00000000000E+00  0.00000000000E+00  0.42498419510E+02  0.42498419809E+02  0.50400001928E-02 0.  1.
        1   -1    0    0  501    0  0.00000000000E+00  0.00000000000E+00 -0.11645302196E+04  0.11645302196E+04  0.50400001928E-02 0. -1.
    10030    2    1    2    0    0  0.00000000000E+00  0.00000000000E+00 -0.11220318001E+04  0.12070286394E+04  0.44493007986E+03 0.  0.
        4    1    3    3  502    0  0.17180350387E+03 -0.61394135951E+02 -0.21569024317E+03  0.28250588980E+03  0.12699999809E+01 0. -1.
       -4    1    3    3    0  502 -0.17180350387E+03  0.61394135951E+02 -0.90634155691E+03  0.92452274961E+03  0.12699999809E+01 0.  1.
</event>
<event>
 5   0  0.4987389E-02  0.6011235E+03  0.7818609E-02  0.9903078E-01
        1   -1    0    0  501    0  0.00000000000E+00  0.00000000000E+00  0.10993105819E+04  0.10993105819E+04  0.50400001928E-02 0. -1.
       -1   -1    0    0    0  501  0.00000000000E+00  0.00000000000E+00 -0.82176388565E+02  0.82176388719E+02  0.50400001928E-02 0.  1.
    10030    2    1    2    0    0  0.00000000000E+00  0.00000000000E+00  0.10171341933E+04  0.11814869706E+04  0.60112352684E+03 0.  0.
        1    1    3    3  502    0  0.94789239019E+02 -0.44111359794E+02  0.10624186864E+04  0.10675505970E+04  0.50400001928E-02 0. -1.
       -1    1    3    3    0  502 -0.94789239019E+02  0.44111359794E+02 -0.45284493078E+02  0.11393637363E+03  0.50400001928E-02 0.  1.
</event>
<event>
 5   0  0.4987389E-02  0.5843123E+03  0.7818609E-02  0.9938498E-01
        1   -1    0    0  501    0  0.00000000000E+00  0.00000000000E+00  0.75461703028E+03  0.75461703030E+03  0.50400001928E-02 0.  1.
       -1   -1    0    0    0  501  0.00000000000E+00  0.00000000000E+00 -0.11311063452E+03  0.11311063463E+03  0.50400001928E-02 0. -1.
    10030    2    1    2    0    0  0.00000000000E+00  0.00000000000E+00  0.64150639577E+03  0.86772766493E+03  0.58431228353E+03 0.  0.
        1    1    3    3  502    0 -0.28552871694E+03 -0.14369785854E+02  0.41012838812E+03  0.49993842992E+03  0.50400001928E-02 0.  1.
       -1    1    3    3    0  502  0.28552871694E+03  0.14369785854E+02  0.23137800765E+03  0.36778923501E+03  0.50400001928E-02 0. -1.
</event>
<event>
 5   0  0.4987389E-02  0.6103556E+03  0.7818609E-02  0.9884151E-01
        1   -1    0    0  501    0  0.00000000000E+00  0.00000000000E+00  0.20162328439E+03  0.20162328445E+03  0.50400001928E-02 0.  1.
       -1   -1    0    0    0  501  0.00000000000E+00  0.00000000000E+00 -0.46191826871E+03  0.46191826874E+03  0.50400001928E-02 0. -1.
    10030    2    1    2    0    0  0.00000000000E+00  0.00000000000E+00 -0.26029498433E+03  0.66354155319E+03  0.61035556354E+03 0.  0.
        1    1    3    3  502    0 -0.89918051584E+01  0.24306547708E+03 -0.33052293499E+03  0.41037432825E+03  0.50400001928E-02 0.  1.
       -1    1    3    3    0  502  0.89918051584E+01 -0.24306547708E+03  0.70227950661E+02  0.25316722494E+03  0.50400001928E-02 0. -1.
</event>
<event>
 5   0  0.3437375E-02  0.6013332E+03  0.7818609E-02  0.9902644E-01
       -3   -1    0    0    0  501  0.00000000000E+00  0.00000000000E+00  0.64362099953E+03  0.64362100745E+03  0.10100000352E+00 0.  1.
        3   -1    0    0  501    0  0.00000000000E+00  0.00000000000E+00 -0.14045592422E+03  0.14045596053E+03  0.10100000352E+00 0. -1.
    10030    2    1    2    0    0  0.00000000000E+00  0.00000000000E+00  0.50316507531E+03  0.78407696798E+03  0.60133318444E+03 0.  0.
        1    1    3    3  502    0  0.27031301576E+03 -0.12172092528E+03  0.18618859596E+03  0.35007328295E+03  0.50400001928E-02 0.  1.
       -1    1    3    3    0  502 -0.27031301576E+03  0.12172092528E+03  0.31697647935E+03  0.43400368504E+03  0.50400001928E-02 0. -1.
</event>
<event>
 5   0  0.5166903E-02  0.6501736E+03  0.7818609E-02  0.9806453E-01
       -1   -1    0    0    0  501  0.00000000000E+00  0.00000000000E+00  0.47654627193E+03  0.47654627196E+03  0.50400001928E-02 0.  1.
        1   -1    0    0  501    0  0.00000000000E+00  0.00000000000E+00 -0.22176530827E+03  0.22176530832E+03  0.50400001928E-02 0. -1.
    10030    2    1    2    0    0  0.00000000000E+00  0.00000000000E+00  0.25478096366E+03  0.69831158028E+03  0.65017361044E+03 0.  0.
        2    1    3    3  502    0 -0.15804850602E+03  0.23028089351E+03  0.30605838577E+03  0.41434328241E+03  0.25500000920E-02 0. -1.
       -2    1    3    3    0  502  0.15804850602E+03 -0.23028089351E+03 -0.51277422109E+02  0.28396829787E+03  0.25500000920E-02 0.  1.
</event>
<event>
 5   0  0.5125031E-02  0.5978388E+03  0.7818609E-02  0.9909900E-01
       -1   -1    0    0    0  501  0.00000000000E+00  0.00000000000E+00  0.93335638003E+02  0.93335638139E+02  0.50400001928E-02 0.  1.
        1   -1    0    0  501    0  0.00000000000E+00  0.00000000000E+00 -0.95732786734E+03  0.95732786735E+03  0.50400001928E-02 0. -1.
    10030    2    1    2    0    0  0.00000000000E+00  0.00000000000E+00 -0.86399222933E+03  0.10506635055E+04  0.59783879886E+03 0.  0.
        4    1    3    3  502    0  0.21370316486E+03  0.13923295037E+02 -0.65503072123E+02  0.22395349110E+03  0.12699999809E+01 0.  1.
       -4    1    3    3    0  502 -0.21370316486E+03 -0.13923295037E+02 -0.79848915721E+03  0.82671001439E+03  0.12699999809E+01 0. -1.
</event>
<event>
 5   0  0.8420604E-02  0.5982684E+03  0.7818609E-02  0.9909005E-01
       -2   -1    0    0    0  501  0.00000000000E+00  0.00000000000E+00  0.78210678789E+02  0.78210678831E+02  0.25500000920E-02 0.  1.
        2   -1    0    0  501    0  0.00000000000E+00  0.00000000000E+00 -0.11441054384E+04  0.11441054384E+04  0.25500000920E-02 0. -1.
    10030    2    1    2    0    0  0.00000000000E+00  0.00000000000E+00 -0.10658947596E+04  0.12223161172E+04  0.59826837781E+03 0.  0.
        2    1    3    3  502    0 -0.12697106046E+03  0.17851794262E+03 -0.94911109864E+03  0.97406477382E+03  0.25500000920E-02 0. -1.
       -2    1    3    3    0  502  0.12697106046E+03 -0.17851794262E+03 -0.11678366098E+03  0.24825134342E+03  0.25500000920E-02 0.  1.
</event>
<event>
 5   0  0.3437375E-02  0.5485980E+03  0.7818609E-02  0.1001819E+00
       -4   -1    0    0    0  501  0.00000000000E+00  0.00000000000E+00  0.37721098215E+03  0.37721312008E+03  0.12699999809E+01 0.  1.
        4   -1    0    0  501    0  0.00000000000E+00  0.00000000000E+00 -0.19945909400E+03  0.19946313715E+03  0.12699999809E+01 0. -1.
    10030    2    1    2    0    0  0.00000000000E+00  0.00000000000E+00  0.17775188815E+03  0.57667625722E+03  0.54859800574E+03 0.  0.
        5    1    3    3  502    0  0.11761173211E+03  0.19378154442E+03  0.25116033042E+03  0.33835987951E+03  0.46999998093E+01 0.  1.
       -5    1    3    3    0  502 -0.11761173211E+03 -0.19378154442E+03 -0.73408442268E+02  0.23831637771E+03  0.46999998093E+01 0. -1.
</event>
<event>
 5   0  0.4881209E-02  0.5934659E+03  0.7818609E-02  0.9919056E-01
       -1   -1    0    0    0  501  0.00000000000E+00  0.00000000000E+00  0.30626570135E+03  0.30626570140E+03  0.50400001928E-02 0.  1.
        1   -1    0    0  501    0  0.00000000000E+00  0.00000000000E+00 -0.28749693751E+03  0.28749693755E+03  0.50400001928E-02 0. -1.
    10030    2    1    2    0    0  0.00000000000E+00  0.00000000000E+00  0.18768763847E+02  0.59376263895E+03  0.59346592565E+03 0.  0.
        3    1    3    3  502    0 -0.44773577537E+02  0.28663620048E+03  0.71748975452E+02  0.29885265659E+03  0.10100000352E+00 0.  1.
       -3    1    3    3    0  502  0.44773577537E+02 -0.28663620048E+03 -0.52980211606E+02  0.29490998236E+03  0.10100000352E+00 0. -1.
</event>
<event>
 5   0  0.8207443E-02  0.6082260E+03  0.7818609E-02  0.9888485E-01
       -2   -1    0    0    0  501  0.00000000000E+00  0.00000000000E+00  0.10198197743E+03  0.10198197746E+03  0.25500000920E-02 0. -1.
        2   -1    0    0  501    0  0.00000000000E+00  0.00000000000E+00 -0.90687325496E+03  0.90687325497E+03  0.25500000920E-02 0.  1.
    10030    2    1    2    0    0  0.00000000000E+00  0.00000000000E+00 -0.80489127754E+03  0.10088552324E+04  0.60822603639E+03 0.  0.
        1    1    3    3  502    0 -0.14386365520E+03 -0.24671180206E+03 -0.22910504440E+03  0.36613192426E+03  0.50400001928E-02 0.  1.
       -1    1    3    3    0  502  0.14386365520E+03  0.24671180206E+03 -0.57578623314E+03  0.64272330817E+03  0.50400001928E-02 0. -1.
</event>
<event>
 5   0  0.8207443E-02  0.5981368E+03  0.7818609E-02  0.9909279E-01
       -2   -1    0    0    0  501  0.00000000000E+00  0.00000000000E+00  0.47772078651E+03  0.47772078652E+03  0.25500000920E-02 0.  1.
        2   -1    0    0  501    0  0.00000000000E+00  0.00000000000E+00 -0.18722632833E+03  0.18722632834E+03  0.25500000920E-02 0. -1.
    10030    2    1    2    0    0  0.00000000000E+00  0.00000000000E+00  0.29049445819E+03  0.66494711486E+03  0.59813680319E+03 0.  0.
        1    1    3    3  502    0  0.18058113761E+02  0.25065930672E+03 -0.34990855363E+02  0.25373321325E+03  0.50400001928E-02 0. -1.
       -1    1    3    3    0  502 -0.18058113761E+02 -0.25065930672E+03  0.32548531355E+03  0.41121390162E+03  0.50400001928E-02 0.  1.
</event>
<event>
 5   0  0.8420604E-02  0.5970604E+03  0.7818609E-02  0.9911524E-01
       -2   -1    0    0    0  501  0.00000000000E+00  0.00000000000E+00  0.10723742692E+03  0.10723742695E+03  0.25500000920E-02 0. -1.
        2   -1    0    0  501    0  0.00000000000E+00  0.00000000000E+00 -0.83105585550E+03  0.83105585550E+03  0.25500000920E-02 0.  1.
    10030    2    1    2    0    0  0.00000000000E+00  0.00000000000E+00 -0.72381842858E+03  0.93829328245E+03  0.59706043776E+03 0.  0.
        2    1    3    3  502    0 -0.22156483557E+03  0.13443835056E+03 -0.12905000780E+03  0.28951433641E+03  0.25500000920E-02 0. -1.
       -2    1    3    3    0  502  0.22156483557E+03 -0.13443835056E+03 -0.59476842078E+03  0.64877894604E+03  0.25500000920E-02 0.  1.
</event>
<event>
 5   0  0.8817544E-02  0.5910197E+03  0.7818609E-02  0.9924215E-01
       -2   -1    0    0    0  501  0.00000000000E+00  0.00000000000E+00  0.52375622543E+03  0.52375622543E+03  0.25500000920E-02 0.  1.
        2   -1    0    0  501    0  0.00000000000E+00  0.00000000000E+00 -0.16673035386E+03  0.16673035388E+03  0.25500000920E-02 0. -1.
    10030    2    1    2    0    0  0.00000000000E+00  0.00000000000E+00  0.35702587156E+03  0.69048657932E+03  0.59101966402E+03 0.  0.
        5    1    3    3  502    0 -0.73374081592E+02 -0.83370607399E+02 -0.14137346893E+03  0.17984149060E+03  0.46999998093E+01 0. -1.
       -5    1    3    3    0  502  0.73374081592E+02  0.83370607399E+02  0.49839934049E+03  0.51064508871E+03  0.46999998093E+01 0.  1.
</event>
<event>
 5   0  0.5166903E-02  0.5829591E+03  0.7818609E-02  0.9941405E-01
        1   -1    0    0  501    0  0.00000000000E+00  0.00000000000E+00  0.11133892392E+03  0.11133892403E+03  0.50400001928E-02 0. -1.
       -1   -1    0    0    0  501  0.00000000000E+00  0.00000000000E+00 -0.76307833134E+03  0.76307833135E+03  0.50400001928E-02 0.  1.
    10030    2    1    2    0    0  0.00000000000E+00  0.00000000000E+00 -0.65173940742E+03  0.87441725539E+03  0.58295907347E+03 0.  0.
        2    1    3    3  502    0 -0.13967353986E+03  0.60917509683E+02  0.46836271803E+02  0.15941542299E+03  0.25500000920E-02 0. -1.
       -2    1    3    3    0  502  0.13967353986E+03 -0.60917509683E+02 -0.69857567922E+03  0.71500183240E+03  0.25500000920E-02 0.  1.
</event>
<event>
 5   0  0.8207443E-02  0.6087304E+03  0.7818609E-02  0.9887457E-01
       -2   -1    0    0    0  501  0.00000000000E+00  0.00000000000E+00  0.19395538924E+03  0.19395538925E+03  0.25500000920E-02 0. -1.
        2   -1    0    0  501    0  0.00000000000E+00  0.00000000000E+00 -0.47762612300E+03  0.47762612301E+03  0.25500000920E-02 0.  1.
    10030    2    1    2    0    0  0.00000000000E+00  0.00000000000E+00 -0.28367073376E+03  0.67158151226E+03  0.60873035280E+03 0.  0.
        1    1    3    3  502    0 -0.13141651470E+03 -0.35264484671E+02  0.15853287193E+03  0.20891758117E+03  0.50400001928E-02 0. -1.
       -1    1    3    3    0  502  0.13141651470E+03  0.35264484671E+02 -0.44220360570E+03  0.46266393109E+03  0.50400001928E-02 0.  1.
</event>
<event>
 5   0  0.5125031E-02  0.6055149E+03  0.7818609E-02  0.9894030E-01
        1   -1    0    0  501    0  0.00000000000E+00  0.00000000000E+00  0.68967930105E+03  0.68967930107E+03  0.50400001928E-02 0. -1.
       -1   -1    0    0    0  501  0.00000000000E+00  0.00000000000E+00 -0.13290533569E+03  0.13290533578E+03  0.50400001928E-02 0.  1.
    10030    2    1    2    0    0  0.00000000000E+00  0.00000000000E+00  0.55677396536E+03  0.82258463685E+03  0.60551485224E+03 0.  0.
        4    1    3    3  502    0 -0.58769161186E+02  0.16981954949E+03  0.60938990606E+03  0.63533468676E+03  0.12699999809E+01 0. -1.
       -4    1    3    3    0  502  0.58769161186E+02 -0.16981954949E+03 -0.52615940696E+02  0.18724995009E+03  0.12699999809E+01 0.  1.
</event>
<event>
 5   0  0.3437375E-02  0.6073461E+03  0.7818609E-02  0.9890281E-01
        4   -1    0    0  501    0  0.00000000000E+00  0.00000000000E+00  0.68323707884E+02  0.68335510234E+02  0.12699999809E+01 0.  1.
       -4   -1    0    0    0  501  0.00000000000E+00  0.00000000000E+00 -0.13495831489E+04  0.13495837465E+04  0.12699999809E+01 0. -1.
    10030    2    1    2    0    0  0.00000000000E+00  0.00000000000E+00 -0.12812594411E+04  0.14179192567E+04  0.60734608199E+03 0.  0.
        1    1    3    3  502    0 -0.88876676424E+01  0.29050619812E+03 -0.84608212588E+03  0.89461042110E+03  0.50400001928E-02 0. -1.
       -1    1    3    3    0  502  0.88876676424E+01 -0.29050619812E+03 -0.43517731518E+03  0.52330883564E+03  0.50400001928E-02 0.  1.
</event>
<event>
 5   0  0.3437375E-02  0.6004908E+03  0.7818609E-02  0.9904388E-01
        3   -1    0    0  501    0  0.00000000000E+00  0.00000000000E+00  0.75131320110E+02  0.75131387997E+02  0.10100000352E+00 0.  1.
       -3   -1    0    0    0  501  0.00000000000E+00  0.00000000000E+00 -0.11998626644E+04  0.11998626687E+04  0.10100000352E+00 0. -1.
    10030    2    1    2    0    0  0.00000000000E+00  0.00000000000E+00 -0.11247313443E+04  0.12749940567E+04  0.60049083895E+03 0.  0.
        3    1    3    3  502    0 -0.15581707865E+03  0.12939296870E+03 -0.91760615669E+02  0.22235449880E+03  0.10100000352E+00 0.  1.
       -3    1    3    3    0  502  0.15581707865E+03 -0.12939296870E+03 -0.10329707286E+04  0.10526395579E+04  0.10100000352E+00 0. -1.
</event>
<event>
 5   0  0.4987389E-02  0.5859823E+03  0.7818609E-02  0.9934923E-01
        1   -1    0    0  501    0  0.00000000000E+00  0.00000000000E+00  0.39632454271E+03  0.39632454274E+03  0.50400001928E-02 0.  1.
       -1   -1    0    0    0  501  0.00000000000E+00  0.00000000000E+00 -0.21659981112E+03  0.21659981118E+03  0.50400001928E-02 0. -1.
    10030    2    1    2    0    0  0.00000000000E+00  0.00000000000E+00  0.17972473159E+03  0.61292435392E+03  0.58598232438E+03 0.  0.
        1    1    3    3  502    0 -0.28831785167E+03  0.10235755483E+02  0.14331854023E+03  0.32213686266E+03  0.50400001928E-02 0. -1.
       -1    1    3    3    0  502  0.28831785167E+03 -0.10235755483E+02  0.36406191359E+02  0.29078749127E+03  0.50400001928E-02 0.  1.
</event>
<event>
 5   0  0.5190380E-02  0.6044151E+03  0.7818609E-02  0.9896288E-01
        1   -1    0    0  501    0  0.00000000000E+00  0.00000000000E+00  0.29555305342E+03  0.29555305346E+03  0.50400001928E-02 0. -1.
       -1   -1    0    0    0  501  0.00000000000E+00  0.00000000000E+00 -0.30901186682E+03  0.30901186686E+03  0.50400001928E-02 0.  1.
    10030    2    1    2    0    0  0.00000000000E+00  0.00000000000E+00 -0.13458813399E+02  0.60456492032E+03  0.60441509182E+03 0.  0.
        5    1    3    3  502    0 -0.28675812087E+03 -0.71333459090E+02 -0.69900652224E+02  0.30368877729E+03  0.46999998093E+01 0. -1.
       -5    1    3    3    0  502  0.28675812087E+03  0.71333459090E+02  0.56441838825E+02  0.30087614302E+03  0.46999998093E+01 0.  1.
</event>
<event>
 5   0  0.3437375E-02  0.5593704E+03  0.7818609E-02  0.9993480E-01
        4   -1    0    0  501    0  0.00000000000E+00  0.00000000000E+00  0.86444199409E+03  0.86444292700E+03  0.12699999809E+01 0. -1.
       -4   -1    0    0    0  501  0.00000000000E+00  0.00000000000E+00 -0.90485078804E+02  0.90493990884E+02  0.12699999809E+01 0.  1.
    10030    2    1    2    0    0  0.00000000000E+00  0.00000000000E+00  0.77395691529E+03  0.95493691789E+03  0.55937036963E+03 0.  0.
        3    1    3    3  502    0 -0.90204321606E+02  0.85347365830E+02  0.81480204884E+03  0.82421076279E+03  0.10100000352E+00 0. -1.
       -3    1    3    3    0  502  0.90204321606E+02 -0.85347365830E+02 -0.40845133560E+02  0.13072615510E+03  0.10100000352E+00 0.  1.
</event>
<event>
 5   0  0.8207443E-02  0.5985448E+03  0.7818609E-02  0.9908430E-01
       -2   -1    0    0    0  501  0.00000000000E+00  0.00000000000E+00  0.56919563178E+02  0.56919563235E+02  0.25500000920E-02 0.  1.
        2   -1    0    0  501    0  0.00000000000E+00  0.00000000000E+00 -0.15735184005E+04  0.15735184005E+04  0.25500000920E-02 0. -1.
    10030    2    1    2    0    0  0.00000000000E+00  0.00000000000E+00 -0.15165988373E+04  0.16304379638E+04  0.59854483561E+03 0.  0.
        1    1    3    3  502    0 -0.10980671312E+03  0.18155513907E+03 -0.18338505453E+03  0.28044582546E+03  0.50400001928E-02 0.  1.
       -1    1    3    3    0  502  0.10980671312E+03 -0.18155513907E+03 -0.13332137828E+04  0.13499921383E+04  0.50400001928E-02 0. -1.
</event>
<event>
 5   0  0.8699746E-02  0.6034861E+03  0.7818609E-02  0.9898200E-01
        2   -1    0    0  501    0  0.00000000000E+00  0.00000000000E+00  0.44522839512E+03  0.44522839513E+03  0.25500000920E-02 0.  1.
       -2   -1    0    0    0  501  0.00000000000E+00  0.00000000000E+00 -0.20449923806E+03  0.20449923808E+03  0.25500000920E-02 0. -1.
    10030    2    1    2    0    0  0.00000000000E+00  0.00000000000E+00  0.24072915706E+03  0.64972763320E+03  0.60348609785E+03 0.  0.
        3    1    3    3  502    0 -0.12740389539E+03 -0.26259164725E+03  0.37929116888E+02  0.29432083493E+03  0.10100000352E+00 0.  1.
       -3    1    3    3    0  502  0.12740389539E+03  0.26259164725E+03  0.20280004017E+03  0.35540679827E+03  0.10100000352E+00 0. -1.
</event>
<event>
 5   0  0.4987389E-02  0.5971811E+03  0.7818609E-02  0.9911272E-01
       -1   -1    0    0    0  501  0.00000000000E+00  0.00000000000E+00  0.33450887532E+03  0.33450887536E+03  0.50400001928E-02 0.  1.
        1   -1    0    0  501    0  0.00000000000E+00  0.00000000000E+00 -0.26652898827E+03  0.26652898832E+03  0.50400001928E-02 0. -1.
    10030    2    1    2    0    0  0.00000000000E+00  0.00000000000E+00  0.67979887047E+02  0.60103786368E+03  0.59718108521E+03 0.  0.
        1    1    3    3  502    0 -0.71104374336E+02  0.13415300625E+03  0.29275632623E+03  0.32978648806E+03  0.50400001928E-02 0.  1.
       -1    1    3    3    0  502  0.71104374336E+02 -0.13415300625E+03 -0.22477643918E+03  0.27125137562E+03  0.50400001928E-02 0. -1.
</event>
<event>
 5   0  0.5166903E-02  0.5636658E+03  0.7818609E-02  0.9983794E-01
       -1   -1    0    0    0  501  0.00000000000E+00  0.00000000000E+00  0.60878213585E+03  0.60878213587E+03  0.50400001928E-02 0. -1.
        1   -1    0    0  501    0  0.00000000000E+00  0.00000000000E+00 -0.13047323187E+03  0.13047323196E+03  0.50400001928E-02 0.  1.
    10030    2    1    2    0    0  0.00000000000E+00  0.00000000000E+00  0.47830890398E+03  0.73925536783E+03  0.56366576199E+03 0.  0.
        2    1    3    3  502    0 -0.26142662413E+03 -0.14057584705E+02  0.37600685180E+03  0.45817316388E+03  0.25500000920E-02 0.  1.
       -2    1    3    3    0  502  0.26142662413E+03  0.14057584705E+02  0.10230205218E+03  0.28108220395E+03  0.25500000920E-02 0. -1.
</event>
<event>
 5   0  0.5190380E-02  0.5817331E+03  0.7818609E-02  0.9944046E-01
       -1   -1    0    0    0  501  0.00000000000E+00  0.00000000000E+00  0.50496478104E+03  0.50496478107E+03  0.50400001928E-02 0.  1.
        1   -1    0    0  501    0  0.00000000000E+00  0.00000000000E+00 -0.16754305741E+03  0.16754305749E+03  0.50400001928E-02 0. -1.
    10030    2    1    2    0    0  0.00000000000E+00  0.00000000000E+00  0.33742172363E+03  0.67250783855E+03  0.58173307740E+03 0.  0.
        5    1    3    3  502    0 -0.12273959688E+03  0.22093299570E+03  0.23658813127E+01  0.25279257233E+03  0.46999998093E+01 0.  1.
       -5    1    3    3    0  502  0.12273959688E+03 -0.22093299570E+03  0.33505584232E+03  0.41971526622E+03  0.46999998093E+01 0. -1.
</event>
<event>
 5   0  0.5125031E-02  0.6809201E+03  0.7818609E-02  0.9750429E-01
       -1   -1    0    0    0  501  0.00000000000E+00  0.00000000000E+00  0.50468011930E+03  0.50468011933E+03  0.50400001928E-02 0.  1.
        1   -1    0    0  501    0  0.00000000000E+00  0.00000000000E+00 -0.22967626015E+03  0.22967626021E+03  0.50400001928E-02 0. -1.
    10030    2    1    2    0    0  0.00000000000E+00  0.00000000000E+00  0.27500385915E+03  0.73435637954E+03  0.68092009048E+03 0.  0.
        4    1    3    3  502    0 -0.95592591150E+02  0.30334677101E+03  0.26850120355E+03  0.41623516931E+03  0.12699999809E+01 0.  1.
       -4    1    3    3    0  502  0.95592591150E+02 -0.30334677101E+03  0.65026555931E+01  0.31812121022E+03  0.12699999809E+01 0. -1.
</event>
<event>
 5   0  0.5166903E-02  0.5949522E+03  0.7818609E-02  0.9915934E-01
       -1   -1    0    0    0  501  0.00000000000E+00  0.00000000000E+00  0.45608308428E+03  0.45608308431E+03  0.50400001928E-02 0. -1.
        1   -1    0    0  501    0  0.00000000000E+00  0.00000000000E+00 -0.19402609686E+03  0.19402609693E+03  0.50400001928E-02 0.  1.
    10030    2    1    2    0    0  0.00000000000E+00  0.00000000000E+00  0.26205698742E+03  0.65010918123E+03  0.59495216855E+03 0.  0.
        2    1    3    3  502    0  0.10734027830E+03 -0.21490138206E+03  0.32275904831E+03  0.40234058039E+03  0.25500000920E-02 0. -1.
       -2    1    3    3    0  502 -0.10734027830E+03  0.21490138206E+03 -0.60702060893E+02  0.24776860084E+03  0.25500000920E-02 0.  1.
</event>
<event>
 5   0  0.4881209E-02  0.5939472E+03  0.7818609E-02  0.9918044E-01
        1   -1    0    0  501    0  0.00000000000E+00  0.00000000000E+00  0.10339106722E+04  0.10339106722E+04  0.50400001928E-02 0.  1.
       -1   -1    0    0    0  501  0.00000000000E+00  0.00000000000E+00 -0.85300712695E+02  0.85300712844E+02  0.50400001928E-02 0. -1.
    10030    2    1    2    0    0  0.00000000000E+00  0.00000000000E+00  0.94860995951E+03  0.11192113851E+04  0.59394719392E+03 0.  0.
        3    1    3    3  502    0  0.68789028372E+02  0.77783625637E+02 -0.49978121422E+02  0.11523908045E+03  0.10100000352E+00 0. -1.
       -3    1    3    3    0  502 -0.68789028372E+02 -0.77783625637E+02  0.99858808093E+03  0.10039723046E+04  0.10100000352E+00 0.  1.
</event>
<event>
 5   0  0.8207443E-02  0.6016028E+03  0.7818609E-02  0.9902086E-01
       -2   -1    0    0    0  501  0.00000000000E+00  0.00000000000E+00  0.44020850162E+02  0.44020850236E+02  0.25500000920E-02 0. -1.
        2   -1    0    0  501    0  0.00000000000E+00  0.00000000000E+00 -0.20554230422E+04  0.20554230422E+04  0.25500000920E-02 0.  1.
    10030    2    1    2    0    0  0.00000000000E+00  0.00000000000E+00 -0.20114021921E+04  0.20994438925E+04  0.60160275877E+03 0.  0.
        1    1    3    3  502    0 -0.28985539751E+02 -0.23863435066E+03 -0.16367090380E+04  0.16542681131E+04  0.50400001928E-02 0.  1.
       -1    1    3    3    0  502  0.28985539751E+02  0.23863435066E+03 -0.37469315406E+03  0.44517577939E+03  0.50400001928E-02 0. -1.
</event>
<event>
 5   0  0.5190380E-02  0.6051188E+03  0.7818609E-02  0.9894843E-01
       -1   -1    0    0    0  501  0.00000000000E+00  0.00000000000E+00  0.16599663608E+03  0.16599663616E+03  0.50400001928E-02 0. -1.
        1   -1    0    0  501    0  0.00000000000E+00  0.00000000000E+00 -0.55147024023E+03  0.55147024025E+03  0.50400001928E-02 0.  1.
    10030    2    1    2    0    0  0.00000000000E+00  0.00000000000E+00 -0.38547360414E+03  0.71746687641E+03  0.60511884721E+03 0.  0.
        5    1    3    3  502    0 -0.59897566546E+02 -0.20774248871E+03 -0.44362554664E+03  0.49352849535E+03  0.46999998093E+01 0.  1.
       -5    1    3    3    0  502  0.59897566546E+02  0.20774248871E+03  0.58151942496E+02  0.22393838106E+03  0.46999998093E+01 0. -1.
</event>
<event>
 5   0  0.8420604E-02  0.5934247E+03  0.7818609E-02  0.9919142E-01
       -2   -1    0    0    0  501  0.00000000000E+00  0.00000000000E+00  0.66218733053E+02  0.66218733102E+02  0.25500000920E-02 0.  1.
        2   -1    0    0  501    0  0.00000000000E+00  0.00000000000E+00 -0.13295064137E+04  0.13295064137E+04  0.25500000920E-02 0. -1.
    10030    2    1    2    0    0  0.00000000000E+00  0.00000000000E+00 -0.12632876807E+04  0.13957251468E+04  0.59342473942E+03 0.  0.
        2    1    3    3  502    0  0.19404049385E+03  0.26863122449E+02 -0.11557979476E+04  0.11722807839E+04  0.25500000920E-02 0. -1.
       -2    1    3    3    0  502 -0.19404049385E+03 -0.26863122449E+02 -0.10748973304E+03  0.22344436291E+03  0.25500000920E-02 0.  1.
</event>
<event>
 5   0  0.5166903E-02  0.5580106E+03  0.7818609E-02  0.9996566E-01
        1   -1    0    0  501    0  0.00000000000E+00  0.00000000000E+00  0.17280514464E+03  0.17280514471E+03  0.50400001928E-02 0.  1.
       -1   -1    0    0    0  501  0.00000000000E+00  0.00000000000E+00 -0.45047245864E+03  0.45047245867E+03  0.50400001928E-02 0. -1.
    10030    2    1    2    0    0  0.00000000000E+00  0.00000000000E+00 -0.27766731400E+03  0.62327760339E+03  0.55801060350E+03 0.  0.
        2    1    3    3  502    0 -0.53036588745E+02 -0.25432874280E+03 -0.25210556935E+02  0.26102023168E+03  0.25500000920E-02 0.  1.
       -2    1    3    3    0  502  0.53036588745E+02  0.25432874280E+03 -0.25245675707E+03  0.36225737171E+03  0.25500000920E-02 0. -1.
</event>
<event>
 5   0  0.8699746E-02  0.5985035E+03  0.7818609E-02  0.9908516E-01
       -2   -1    0    0    0  501  0.00000000000E+00  0.00000000000E+00  0.88769931572E+03  0.88769931573E+03  0.25500000920E-02 0. -1.
        2   -1    0    0  501    0  0.00000000000E+00  0.00000000000E+00 -0.10088055696E+03  0.10088055699E+03  0.25500000920E-02 0.  1.
    10030    2    1    2    0    0  0.00000000000E+00  0.00000000000E+00  0.78681875876E+03  0.98857987272E+03  0.59850347168E+03 0.  0.
        3    1    3    3  502    0 -0.10663237123E+03 -0.52704641405E+02 -0.60156534093E+02  0.13329313792E+03  0.10100000352E+00 0.  1.
       -3    1    3    3    0  502  0.10663237123E+03  0.52704641405E+02  0.84697529285E+03  0.85528673480E+03  0.10100000352E+00 0. -1.
</event>
<event>
 5   0  0.5125031E-02  0.6018400E+03  0.7818609E-02  0.9901596E-01
       -1   -1    0    0    0  501  0.00000000000E+00  0.00000000000E+00  0.60143450531E+03  0.60143450533E+03  0.50400001928E-02 0. -1.
        1   -1    0    0  501    0  0.00000000000E+00  0.00000000000E+00 -0.15056142456E+03  0.15056142465E+03  0.50400001928E-02 0.  1.
    10030    2    1    2    0    0  0.00000000000E+00  0.00000000000E+00  0.45087308075E+03  0.75199592998E+03  0.60183996524E+03 0.  0.
        4    1    3    3  502    0 -0.26363921076E+03 -0.76880949040E+02  0.71718663581E+02  0.28383356634E+03  0.12699999809E+01 0.  1.
       -4    1    3    3    0  502  0.26363921076E+03  0.76880949040E+02  0.37915441717E+03  0.46816236364E+03  0.12699999809E+01 0. -1.
</event>
<event>
 5   0  0.8699746E-02  0.5884045E+03  0.7818609E-02  0.9929759E-01
       -2   -1    0    0    0  501  0.00000000000E+00  0.00000000000E+00  0.21143847173E+03  0.21143847175E+03  0.25500000920E-02 0.  1.
        2   -1    0    0  501    0  0.00000000000E+00  0.00000000000E+00 -0.40936246118E+03  0.40936246119E+03  0.25500000920E-02 0. -1.
    10030    2    1    2    0    0  0.00000000000E+00  0.00000000000E+00 -0.19792398945E+03  0.62080093294E+03  0.58840453154E+03 0.  0.
        3    1    3    3  502    0 -0.28183807429E+03  0.62820377900E+02 -0.39504414450E+02  0.29144417812E+03  0.10100000352E+00 0.  1.
       -3    1    3    3    0  502  0.28183807429E+03 -0.62820377900E+02 -0.15841957500E+03  0.32935675482E+03  0.10100000352E+00 0. -1.
</event>
<event>
 5   0  0.4881209E-02  0.5938347E+03  0.7818609E-02  0.9918280E-01
        1   -1    0    0  501    0  0.00000000000E+00  0.00000000000E+00  0.25811854594E+03  0.25811854599E+03  0.50400001928E-02 0. -1.
       -1   -1    0    0    0  501  0.00000000000E+00  0.00000000000E+00 -0.34154813608E+03  0.34154813612E+03  0.50400001928E-02 0.  1.
    10030    2    1    2    0    0  0.00000000000E+00  0.00000000000E+00 -0.83429590147E+02  0.59966668211E+03  0.59383468501E+03 0.  0.
        3    1    3    3  502    0  0.21700171836E+02  0.11475510865E+03  0.23395015887E+03  0.26148101165E+03  0.10100000352E+00 0. -1.
       -3    1    3    3    0  502 -0.21700171836E+02 -0.11475510865E+03 -0.31737974901E+03  0.33818567046E+03  0.10100000352E+00 0.  1.
</event>
<event>
 5   0  0.5190380E-02  0.5963138E+03  0.7818609E-02  0.9913083E-01
        1   -1    0    0  501    0  0.00000000000E+00  0.00000000000E+00  0.82446421456E+02  0.82446421610E+02  0.50400001928E-02 0.  1.
       -1   -1    0    0    0  501  0.00000000000E+00  0.00000000000E+00 -0.10782461978E+04  0.10782461978E+04  0.50400001928E-02 0. -1.
    10030    2    1    2    0    0  0.00000000000E+00  0.00000000000E+00 -0.99579977636E+03  0.11606926194E+04  0.59631381186E+03 0.  0.
        5    1    3    3  502    0 -0.27395801831E+03  0.71853945398E+02 -0.31677092872E+03  0.42494928703E+03  0.46999998093E+01 0.  1.
       -5    1    3    3    0  502  0.27395801831E+03 -0.71853945398E+02 -0.67902884764E+03  0.73574333241E+03  0.46999998093E+01 0. -1.
</event>
<event>
 5   0  0.4987389E-02  0.5992078E+03  0.7818609E-02  0.9907051E-01
        1   -1    0    0  501    0  0.00000000000E+00  0.00000000000E+00  0.14782317344E+03  0.14782317353E+03  0.50400001928E-02 0. -1.
       -1   -1    0    0    0  501  0.00000000000E+00  0.00000000000E+00 -0.60722889466E+03  0.60722889468E+03  0.50400001928E-02 0.  1.
    10030    2    1    2    0    0  0.00000000000E+00  0.00000000000E+00 -0.45940572122E+03  0.75505206821E+03  0.59920781789E+03 0.  0.
        1    1    3    3  502    0  0.26218799344E+03  0.66077804927E+02 -0.39231559945E+03  0.47646652538E+03  0.50400001928E-02 0.  1.
       -1    1    3    3    0  502 -0.26218799344E+03 -0.66077804927E+02 -0.67090121771E+02  0.27858554283E+03  0.50400001928E-02 0. -1.
</event>
<event>
 5   0  0.8817544E-02  0.6013491E+03  0.7818609E-02  0.9902611E-01
        2   -1    0    0  501    0  0.00000000000E+00  0.00000000000E+00  0.16792644656E+03  0.16792644658E+03  0.25500000920E-02 0. -1.
       -2   -1    0    0    0  501  0.00000000000E+00  0.00000000000E+00 -0.53836185747E+03  0.53836185747E+03  0.25500000920E-02 0.  1.
    10030    2    1    2    0    0  0.00000000000E+00  0.00000000000E+00 -0.37043541090E+03  0.70628830405E+03  0.60134912887E+03 0.  0.
        5    1    3    3  502    0 -0.19514463179E+03 -0.52718797047E+02 -0.44658797835E+03  0.49022812168E+03  0.46999998093E+01 0.  1.
       -5    1    3    3    0  502  0.19514463179E+03  0.52718797047E+02  0.76152567451E+02  0.21606018237E+03  0.46999998093E+01 0. -1.
</event>
<event>
 5   0  0.8207443E-02  0.5739258E+03  0.7818609E-02  0.9961029E-01
       -2   -1    0    0    0  501  0.00000000000E+00  0.00000000000E+00  0.64552313674E+03  0.64552313675E+03  0.25500000920E-02 0. -1.
        2   -1    0    0  501    0  0.00000000000E+00  0.00000000000E+00 -0.12756739187E+03  0.12756739190E+03  0.25500000920E-02 0.  1.
    10030    2    1    2    0    0  0.00000000000E+00  0.00000000000E+00  0.51795574487E+03  0.77309052864E+03  0.57392578948E+03 0.  0.
        1    1    3    3  502    0 -0.16588815891E+03 -0.19066489292E+03  0.44207237362E+03  0.50921504907E+03  0.50400001928E-02 0. -1.
       -1    1    3    3    0  502  0.16588815891E+03  0.19066489292E+03  0.75883371248E+02  0.26387547957E+03  0.50400001928E-02 0.  1.
</event>
<event>
 5   0  0.8207443E-02  0.5948085E+03  0.7818609E-02  0.9916236E-01
       -2   -1    0    0    0  501  0.00000000000E+00  0.00000000000E+00  0.90419673575E+02  0.90419673611E+02  0.25500000920E-02 0.  1.
        2   -1    0    0  501    0  0.00000000000E+00  0.00000000000E+00 -0.97820856285E+03  0.97820856286E+03  0.25500000920E-02 0. -1.
    10030    2    1    2    0    0  0.00000000000E+00  0.00000000000E+00 -0.88778888928E+03  0.10686282365E+04  0.59480853714E+03 0.  0.
        1    1    3    3  502    0 -0.12947307821E+03 -0.92695354770E+02 -0.89517028048E+03  0.90922249084E+03  0.50400001928E-02 0. -1.
       -1    1    3    3    0  502  0.12947307821E+03  0.92695354770E+02  0.73813912031E+01  0.15940574562E+03  0.50400001928E-02 0.  1.
</event>
<event>
 5   0  0.5166903E-02  0.5978500E+03  0.7818609E-02  0.9909877E-01
       -1   -1    0    0    0  501  0.00000000000E+00  0.00000000000E+00  0.16222371217E+03  0.16222371224E+03  0.50400001928E-02 0.  1.
        1   -1    0    0  501    0  0.00000000000E+00  0.00000000000E+00 -0.55082063935E+03  0.55082063937E+03  0.50400001928E-02 0. -1.
    10030    2    1    2    0    0  0.00000000000E+00  0.00000000000E+00 -0.38859692718E+03  0.71304435161E+03  0.59785004437E+03 0.  0.
        2    1    3    3  502    0  0.68300069501E+02 -0.26658448358E+03 -0.55086577733E+02  0.28065408857E+03  0.25500000920E-02 0.  1.
       -2    1    3    3    0  502 -0.68300069501E+02  0.26658448358E+03 -0.33351034945E+03  0.43239026304E+03  0.25500000920E-02 0. -1.
</event>
<event>
 5   0  0.3437375E-02  0.5881596E+03  0.7818609E-02  0.9930280E-01
        4   -1    0    0  501    0  0.00000000000E+00  0.00000000000E+00  0.13101383766E+03  0.13101999298E+03  0.12699999809E+01 0. -1.
       -4   -1    0    0    0  501  0.00000000000E+00  0.00000000000E+00 -0.66008297153E+03  0.66008419327E+03  0.12699999809E+01 0.  1.
    10030    2    1    2    0    0  0.00000000000E+00  0.00000000000E+00 -0.52906913387E+03  0.79110418625E+03  0.58815957451E+03 0.  0.
        2    1    3    3  502    0  0.34199406950E+02 -0.13362704922E+02 -0.65699146721E+03  0.65801667860E+03  0.25500000920E-02 0.  1.
       -2    1    3    3    0  502 -0.34199406950E+02  0.13362704922E+02  0.12792233334E+03  0.13308750765E+03  0.25500000920E-02 0. -1.
</event>
<event>
 5   0  0.8420604E-02  0.5828358E+03  0.7818609E-02  0.9941670E-01
        2   -1    0    0  501    0  0.00000000000E+00  0.00000000000E+00  0.13788118573E+04  0.13788118573E+04  0.25500000920E-02 0.  1.
       -2   -1    0    0    0  501  0.00000000000E+00  0.00000000000E+00 -0.61592454155E+02  0.61592454208E+02  0.25500000920E-02 0. -1.
    10030    2    1    2    0    0  0.00000000000E+00  0.00000000000E+00  0.13172194032E+04  0.14404043115E+04  0.58283584705E+03 0.  0.
        2    1    3    3  502    0  0.22526735717E+03  0.18466244043E+03  0.63667050882E+03  0.70013922610E+03  0.25500000920E-02 0. -1.
       -2    1    3    3    0  502 -0.22526735717E+03 -0.18466244043E+03  0.68054889435E+03  0.74026508544E+03  0.25500000920E-02 0.  1.
</event>
<event>
 5   0  0.5190380E-02  0.5991724E+03  0.7818609E-02  0.9907124E-01
       -1   -1    0    0    0  501  0.00000000000E+00  0.00000000000E+00  0.11977729157E+03  0.11977729168E+03  0.50400001928E-02 0.  1.
        1   -1    0    0  501    0  0.00000000000E+00  0.00000000000E+00 -0.74932321350E+03  0.74932321352E+03  0.50400001928E-02 0. -1.
    10030    2    1    2    0    0  0.00000000000E+00  0.00000000000E+00 -0.62954592193E+03  0.86910050519E+03  0.59917244622E+03 0.  0.
        5    1    3    3  502    0 -0.20207851212E+03 -0.94146762666E+02 -0.24562173264E+02  0.22433173724E+03  0.46999998093E+01 0.  1.
       -5    1    3    3    0  502  0.20207851212E+03  0.94146762666E+02 -0.60498374866E+03  0.64476876795E+03  0.46999998093E+01 0. -1.
</event>
<event>
 5   0  0.5125031E-02  0.5483677E+03  0.7818609E-02  0.1001872E+00
       -1   -1    0    0    0  501  0.00000000000E+00  0.00000000000E+00  0.86063021749E+02  0.86063021897E+02  0.50400001928E-02 0.  1.
        1   -1    0    0  501    0  0.00000000000E+00  0.00000000000E+00 -0.87350845187E+03  0.87350845189E+03  0.50400001928E-02 0. -1.
    10030    2    1    2    0    0  0.00000000000E+00  0.00000000000E+00 -0.78744543012E+03  0.95957147378E+03  0.54836767581E+03 0.  0.
        4    1    3    3  502    0  0.30576525629E+01 -0.10226658238E+03 -0.83884806262E+03  0.84506537509E+03  0.12699999809E+01 0. -1.
       -4    1    3    3    0  502 -0.30576525629E+01  0.10226658238E+03  0.51402632495E+02  0.11450609870E+03  0.12699999809E+01 0.  1.
</event>
<event>
 5   0  0.4881209E-02  0.6076978E+03  0.7818609E-02  0.9889563E-01
       -1   -1    0    0    0  501  0.00000000000E+00  0.00000000000E+00  0.65569968928E+03  0.65569968930E+03  0.50400001928E-02 0.  1.
        1   -1    0    0  501    0  0.00000000000E+00  0.00000000000E+00 -0.14080251546E+03  0.14080251555E+03  0.50400001928E-02 0. -1.
    10030    2    1    2    0    0  0.00000000000E+00  0.00000000000E+00  0.51489717383E+03  0.79650220485E+03  0.60769783834E+03 0.  0.
        3    1    3    3  502    0 -0.28557562366E+03 -0.99326081766E+02  0.21801782870E+03  0.37276117177E+03  0.10100000352E+00 0. -1.
       -3    1    3    3    0  502  0.28557562366E+03  0.99326081766E+02  0.29687934513E+03  0.42374103308E+03  0.10100000352E+00 0.  1.
</event>
<event>
 5   0  0.4881209E-02  0.6223813E+03  0.7818609E-02  0.9860030E-01
        1   -1    0    0  501    0  0.00000000000E+00  0.00000000000E+00  0.86130867723E+03  0.86130867724E+03  0.50400001928E-02 0. -1.
       -1   -1    0    0    0  501  0.00000000000E+00  0.00000000000E+00 -0.11243312589E+03  0.11243312601E+03  0.50400001928E-02 0.  1.
    10030    2    1    2    0    0  0.00000000000E+00  0.00000000000E+00  0.74887555134E+03  0.97374180325E+03  0.62238132042E+03 0.  0.
        3    1    3    3  502    0  0.54321722669E+02 -0.30607528622E+03  0.35194499096E+03  0.46957237701E+03  0.10100000352E+00 0.  1.
       -3    1    3    3    0  502 -0.54321722669E+02  0.30607528622E+03  0.39693056038E+03  0.50416942624E+03  0.10100000352E+00 0. -1.
</event>
<event>
 5   0  0.8420604E-02  0.5920429E+03  0.7818609E-02  0.9922053E-01
        2   -1    0    0  501    0  0.00000000000E+00  0.00000000000E+00  0.14179400282E+04  0.14179400282E+04  0.25500000920E-02 0. -1.
       -2   -1    0    0    0  501  0.00000000000E+00  0.00000000000E+00 -0.61800011527E+02  0.61800011579E+02  0.25500000920E-02 0.  1.
    10030    2    1    2    0    0  0.00000000000E+00  0.00000000000E+00  0.13561400167E+04  0.14797400398E+04  0.59204293806E+03 0.  0.
        2    1    3    3  502    0  0.18699788272E+03 -0.15599658269E+03  0.25741938659E+03  0.35435558773E+03  0.25500000920E-02 0.  1.
       -2    1    3    3    0  502 -0.18699788272E+03  0.15599658269E+03  0.10987206301E+04  0.11253844520E+04  0.25500000920E-02 0. -1.
</event>
<event>
 5   0  0.8420604E-02  0.5899289E+03  0.7818609E-02  0.9926524E-01
       -2   -1    0    0    0  501  0.00000000000E+00  0.00000000000E+00  0.25920979381E+03  0.25920979383E+03  0.25500000920E-02 0.  1.
        2   -1    0    0  501    0  0.00000000000E+00  0.00000000000E+00 -0.33565097825E+03  0.33565097826E+03  0.25500000920E-02 0. -1.
    10030    2    1    2    0    0  0.00000000000E+00  0.00000000000E+00 -0.76441184438E+02  0.59486077209E+03  0.58992888003E+03 0.  0.
        2    1    3    3  502    0 -0.13270145875E+03 -0.37175764941E+02  0.22475135584E+03  0.26363779435E+03  0.25500000920E-02 0.  1.
       -2    1    3    3    0  502  0.13270145875E+03  0.37175764941E+02 -0.30119254028E+03  0.33122297773E+03  0.25500000920E-02 0. -1.
</event>
<event>
 5   0  0.5125031E-02  0.6555972E+03  0.7818609E-02  0.9796333E-01
        1   -1    0    0  501    0  0.00000000000E+00  0.00000000000E+00  0.10584975776E+04  0.10584975777E+04  0.50400001928E-02 0.  1.
       -1   -1    0    0    0  501  0.00000000000E+00  0.00000000000E+00 -0.10151360877E+03  0.10151360889E+03  0.50400001928E-02 0. -1.
    10030    2    1    2    0    0  0.00000000000E+00  0.00000000000E+00  0.95698396888E+03  0.11600111865E+04  0.65559716002E+03 0.  0.
        4    1    3    3  502    0 -0.37623821677E+02 -0.17003964688E+03  0.96986599186E+03  0.98537844939E+03  0.12699999809E+01 0.  1.
       -4    1    3    3    0  502  0.37623821677E+02  0.17003964688E+03 -0.12882022982E+02  0.17463273715E+03  0.12699999809E+01 0. -1.
</event>
<event>
 5   0  0.4987389E-02  0.5965496E+03  0.7818609E-02  0.9912591E-01
        1   -1    0    0  501    0  0.00000000000E+00  0.00000000000E+00  0.76001063695E+03  0.76001063697E+03  0.50400001928E-02 0.  1.
       -1   -1    0    0    0  501  0.00000000000E+00  0.00000000000E+00 -0.11706131275E+03  0.11706131285E+03  0.50400001928E-02 0. -1.
    10030    2    1    2    0    0  0.00000000000E+00  0.00000000000E+00  0.64294932421E+03  0.87707194983E+03  0.59654955508E+03 0.  0.
        1    1    3    3  502    0 -0.21913902876E+03 -0.10091165511E+03  0.63604322321E+02  0.24950067316E+03  0.50400001928E-02 0. -1.
       -1    1    3    3    0  502  0.21913902876E+03  0.10091165511E+03  0.57934500189E+03  0.62757127667E+03  0.50400001928E-02 0.  1.
</event>
<event>
 5   0  0.3437375E-02  0.6090976E+03  0.7818609E-02  0.9886709E-01
       -3   -1    0    0    0  501  0.00000000000E+00  0.00000000000E+00  0.12020903104E+03  0.12020907347E+03  0.10100000352E+00 0.  1.
        3   -1    0    0  501    0  0.00000000000E+00  0.00000000000E+00 -0.77157232832E+03  0.77157233494E+03  0.10100000352E+00 0. -1.
    10030    2    1    2    0    0  0.00000000000E+00  0.00000000000E+00 -0.65136329728E+03  0.89178140841E+03  0.60909764023E+03 0.  0.
        3    1    3    3  502    0 -0.94608380324E+02  0.19162089730E+03 -0.79995324767E+01  0.21385349338E+03  0.10100000352E+00 0.  1.
       -3    1    3    3    0  502  0.94608380324E+02 -0.19162089730E+03 -0.64336376481E+03  0.67792791503E+03  0.10100000352E+00 0. -1.
</event>
<event>
 5   0  0.5125031E-02  0.5942535E+03  0.7818609E-02  0.9917401E-01
       -1   -1    0    0    0  501  0.00000000000E+00  0.00000000000E+00  0.18104369120E+03  0.18104369127E+03  0.50400001928E-02 0.  1.
        1   -1    0    0  501    0  0.00000000000E+00  0.00000000000E+00 -0.48764083482E+03  0.48764083484E+03  0.50400001928E-02 0. -1.
    10030    2    1    2    0    0  0.00000000000E+00  0.00000000000E+00 -0.30659714361E+03  0.66868452612E+03  0.59425347033E+03 0.  0.
        4    1    3    3  502    0 -0.23779433102E+03 -0.16752727519E+03 -0.85119555173E+02  0.30308164473E+03  0.12699999809E+01 0.  1.
       -4    1    3    3    0  502  0.23779433102E+03  0.16752727519E+03 -0.22147758844E+03  0.36560288139E+03  0.12699999809E+01 0. -1.
</event>
<event>
 5   0  0.3437375E-02  0.6041023E+03  0.7818609E-02  0.9896932E-01
       -3   -1    0    0    0  501  0.00000000000E+00  0.00000000000E+00  0.60446130430E+03  0.60446131274E+03  0.10100000352E+00 0. -1.
        3   -1    0    0  501    0  0.00000000000E+00  0.00000000000E+00 -0.15093582683E+03  0.15093586062E+03  0.10100000352E+00 0.  1.
    10030    2    1    2    0    0  0.00000000000E+00  0.00000000000E+00  0.45352547747E+03  0.75539717336E+03  0.60410225195E+03 0.  0.
        4    1    3    3  502    0  0.17317456123E+03  0.22933316640E+03  0.34306186909E+03  0.44752227743E+03  0.12699999809E+01 0. -1.
       -4    1    3    3    0  502 -0.17317456123E+03 -0.22933316640E+03  0.11046360838E+03  0.30787489593E+03  0.12699999809E+01 0.  1.
</event>
<event>
 5   0  0.5190380E-02  0.6144075E+03  0.7818609E-02  0.9875958E-01
        1   -1    0    0  501    0  0.00000000000E+00  0.00000000000E+00  0.37656240379E+03  0.37656240383E+03  0.50400001928E-02 0.  1.
       -1   -1    0    0    0  501  0.00000000000E+00  0.00000000000E+00 -0.25062023549E+03  0.25062023554E+03  0.50400001928E-02 0. -1.
    10030    2    1    2    0    0  0.00000000000E+00  0.00000000000E+00  0.12594216830E+03  0.62718263937E+03  0.61440754664E+03 0.  0.
        5    1    3    3  502    0 -0.10508064125E+03  0.26933827170E+03 -0.42950702774E+02  0.29232156718E+03  0.46999998093E+01 0. -1.
       -5    1    3    3    0  502  0.10508064125E+03 -0.26933827170E+03  0.16889287107E+03  0.33486107219E+03  0.46999998093E+01 0.  1.
</event>
<event>
 5   0  0.4881209E-02  0.5926171E+03  0.7818609E-02  0.9920843E-01
        1   -1    0    0  501    0  0.00000000000E+00  0.00000000000E+00  0.41241799134E+03  0.41241799137E+03  0.50400001928E-02 0.  1.
       -1   -1    0    0    0  501  0.00000000000E+00  0.00000000000E+00 -0.21288779090E+03  0.21288779096E+03  0.50400001928E-02 0. -1.
    10030    2    1    2    0    0  0.00000000000E+00  0.00000000000E+00  0.19953020044E+03  0.62530578234E+03  0.59261709437E+03 0.  0.
        3    1    3    3  502    0  0.22843845770E+03 -0.12530733403E+03 -0.49130962781E+02  0.26514131822E+03  0.10100000352E+00 0. -1.
       -3    1    3    3    0  502 -0.22843845770E+03  0.12530733403E+03  0.24866116322E+03  0.36016446412E+03  0.10100000352E+00 0.  1.
</event>
<event>
 5   0  0.8575590E-02  0.5967410E+03  0.7818609E-02  0.9912191E-01
        2   -1    0    0  501    0  0.00000000000E+00  0.00000000000E+00  0.87878687890E+03  0.87878687890E+03  0.25500000920E-02 0.  1.
       -2   -1    0    0    0  501  0.00000000000E+00  0.00000000000E+00 -0.10130437618E+03  0.10130437622E+03  0.25500000920E-02 0. -1.
    10030    2    1    2    0    0  0.00000000000E+00  0.00000000000E+00  0.77748250272E+03  0.98009125512E+03  0.59674100440E+03 0.  0.
        4    1    3    3  502    0 -0.74018986879E+02 -0.26248015523E+03  0.58752468871E+03  0.64773568301E+03  0.12699999809E+01 0.  1.
       -4    1    3    3    0  502  0.74018986879E+02  0.26248015523E+03  0.18995781401E+03  0.33235557211E+03  0.12699999809E+01 0. -1.
</event>
<event>
 5   0  0.8699746E-02  0.6055064E+03  0.7818609E-02  0.9894048E-01
       -2   -1    0    0    0  501  0.00000000000E+00  0.00000000000E+00  0.62483564665E+03  0.62483564666E+03  0.25500000920E-02 0.  1.
        2   -1    0    0  501    0  0.00000000000E+00  0.00000000000E+00 -0.14669375254E+03  0.14669375257E+03  0.25500000920E-02 0. -1.
    10030    2    1    2    0    0  0.00000000000E+00  0.00000000000E+00  0.47814189411E+03  0.77152939923E+03  0.60550635254E+03 0.  0.
        3    1    3    3  502    0 -0.23016291502E+03 -0.14496215610E+03  0.69692570394E+02  0.28079540367E+03  0.10100000352E+00 0. -1.
       -3    1    3    3    0  502  0.23016291502E+03  0.14496215610E+03  0.40844932372E+03  0.49073399556E+03  0.10100000352E+00 0.  1.
</event>
<event>
 5   0  0.8207443E-02  0.5903753E+03  0.7818609E-02  0.9925578E-01
       -2   -1    0    0    0  501  0.00000000000E+00  0.00000000000E+00  0.36367810964E+03  0.36367810965E+03  0.25500000920E-02 0. -1.
        2   -1    0    0  501    0  0.00000000000E+00  0.00000000000E+00 -0.23959583325E+03  0.23959583327E+03  0.25500000920E-02 0.  1.
    10030    2    1    2    0    0  0.00000000000E+00  0.00000000000E+00  0.12408227639E+03  0.60327394292E+03  0.59037533730E+03 0.  0.
        1    1    3    3  502    0  0.28715484374E+03 -0.59734690453E+02  0.96079913306E+02  0.30863811704E+03  0.50400001928E-02 0.  1.
       -1    1    3    3    0  502 -0.28715484374E+03  0.59734690453E+02  0.28002363083E+02  0.29463582587E+03  0.50400001928E-02 0. -1.
</event>
<event>
 5   0  0.3437375E-02  0.6038105E+03  0.7818609E-02  0.9897532E-01
       -3   -1    0    0    0  501  0.00000000000E+00  0.00000000000E+00  0.63501002265E+03  0.63501003068E+03  0.10100000352E+00 0.  1.
        3   -1    0    0  501    0  0.00000000000E+00  0.00000000000E+00 -0.14353592450E+03  0.14353596003E+03  0.10100000352E+00 0. -1.
    10030    2    1    2    0    0  0.00000000000E+00  0.00000000000E+00  0.49147409815E+03  0.77854599072E+03  0.60381045909E+03 0.  0.
        4    1    3    3  502    0  0.24613777997E+03 -0.26298348113E+02  0.46858025496E+03  0.52994761824E+03  0.12699999809E+01 0.  1.
       -4    1    3    3    0  502 -0.24613777997E+03  0.26298348113E+02  0.22893843195E+02  0.24859837248E+03  0.12699999809E+01 0. -1.
</event>
<event>
 5   0  0.8699746E-02  0.5988320E+03  0.7818609E-02  0.9907832E-01
        2   -1    0    0  501    0  0.00000000000E+00  0.00000000000E+00  0.13286422622E+04  0.13286422622E+04  0.25500000920E-02 0.  1.
       -2   -1    0    0    0  501  0.00000000000E+00  0.00000000000E+00 -0.67474858478E+02  0.67474858526E+02  0.25500000920E-02 0. -1.
    10030    2    1    2    0    0  0.00000000000E+00  0.00000000000E+00  0.12611674037E+04  0.13961171207E+04  0.59883202534E+03 0.  0.
        3    1    3    3  502    0  0.13361147951E+03 -0.24348080777E+03  0.36976880859E+03  0.46245422824E+03  0.10100000352E+00 0. -1.
       -3    1    3    3    0  502 -0.13361147951E+03  0.24348080777E+03  0.89139859510E+03  0.93366289246E+03  0.10100000352E+00 0.  1.
</event>
<event>
 5   0  0.8817544E-02  0.5936948E+03  0.7818609E-02  0.9918574E-01
        2   -1    0    0  501    0  0.00000000000E+00  0.00000000000E+00  0.86274202366E+03  0.86274202366E+03  0.25500000920E-02 0.  1.
       -2   -1    0    0    0  501  0.00000000000E+00  0.00000000000E+00 -0.10213757398E+03  0.10213757402E+03  0.25500000920E-02 0. -1.
    10030    2    1    2    0    0  0.00000000000E+00  0.00000000000E+00  0.76060444968E+03  0.96487959768E+03  0.59369479461E+03 0.  0.
        5    1    3    3  502    0  0.34383255416E+02  0.11314451926E+03  0.82274317011E+03  0.83121134764E+03  0.46999998093E+01 0.  1.
       -5    1    3    3    0  502 -0.34383255416E+02 -0.11314451926E+03 -0.62138720435E+02  0.13366825003E+03  0.46999998093E+01 0. -1.
</event>
<event>
 5   0  0.3437375E-02  0.5997952E+03  0.7818609E-02  0.9905831E-01
       -4   -1    0    0    0  501  0.00000000000E+00  0.00000000000E+00  0.46930176807E+03  0.46930348647E+03  0.12699999809E+01 0.  1.
        4   -1    0    0  501    0  0.00000000000E+00  0.00000000000E+00 -0.19163919374E+03  0.19164340186E+03  0.12699999809E+01 0. -1.
    10030    2    1    2    0    0  0.00000000000E+00  0.00000000000E+00  0.27766257433E+03  0.66094688833E+03  0.59979520172E+03 0.  0.
        2    1    3    3  502    0 -0.63429733591E+02 -0.20286878873E+03  0.37196558044E+03  0.42841273275E+03  0.25500000920E-02 0.  1.
       -2    1    3    3    0  502  0.63429733591E+02  0.20286878873E+03 -0.94303006109E+02  0.23253415558E+03  0.25500000920E-02 0. -1.
</event>
<event>
 5   0  0.4987389E-02  0.5931497E+03  0.7818609E-02  0.9919721E-01
        1   -1    0    0  501    0  0.00000000000E+00  0.00000000000E+00  0.48210223617E+03  0.48210223619E+03  0.50400001928E-02 0.  1.
       -1   -1    0    0    0  501  0.00000000000E+00  0.00000000000E+00 -0.18244394454E+03  0.18244394461E+03  0.50400001928E-02 0. -1.
    10030    2    1    2    0    0  0.00000000000E+00  0.00000000000E+00  0.29965829163E+03  0.66454618080E+03  0.59314967308E+03 0.  0.
        1    1    3    3  502    0  0.17635188307E+02 -0.15187932223E+03 -0.13488181885E+03  0.20389073904E+03  0.50400001928E-02 0. -1.
       -1    1    3    3    0  502 -0.17635188307E+02  0.15187932223E+03  0.43454011047E+03  0.46065544176E+03  0.50400001928E-02 0.  1.
</event>
<event>
 5   0  0.8207443E-02  0.5930936E+03  0.7818609E-02  0.9919839E-01
        2   -1    0    0  501    0  0.00000000000E+00  0.00000000000E+00  0.21033727656E+03  0.21033727657E+03  0.25500000920E-02 0. -1.
       -2   -1    0    0    0  501  0.00000000000E+00  0.00000000000E+00 -0.41809037527E+03  0.41809037528E+03  0.25500000920E-02 0.  1.
    10030    2    1    2    0    0  0.00000000000E+00  0.00000000000E+00 -0.20775309872E+03  0.62842765186E+03  0.59309355383E+03 0.  0.
        1    1    3    3  502    0 -0.25091378909E+03  0.15805739210E+03 -0.10424682129E+03  0.31433623484E+03  0.50400001928E-02 0. -1.
       -1    1    3    3    0  502  0.25091378909E+03 -0.15805739210E+03 -0.10350627742E+03  0.31409141702E+03  0.50400001928E-02 0.  1.
</event>
<event>
 5   0  0.4881209E-02  0.5781707E+03  0.7818609E-02  0.9951759E-01
       -1   -1    0    0    0  501  0.00000000000E+00  0.00000000000E+00  0.10179238324E+03  0.10179238336E+03  0.50400001928E-02 0. -1.
        1   -1    0    0  501    0  0.00000000000E+00  0.00000000000E+00 -0.82098805439E+03  0.82098805440E+03  0.50400001928E-02 0.  1.
    10030    2    1    2    0    0  0.00000000000E+00  0.00000000000E+00 -0.71919567115E+03  0.92278043777E+03  0.57817066937E+03 0.  0.
        3    1    3    3  502    0  0.80748299067E+01 -0.35185703286E+02  0.98180646590E+02  0.10460729496E+03  0.10100000352E+00 0. -1.
       -3    1    3    3    0  502 -0.80748299067E+01  0.35185703286E+02 -0.81737631774E+03  0.81817314280E+03  0.10100000352E+00 0.  1.
</event>
<event>
 5   0  0.3437375E-02  0.5897788E+03  0.7818609E-02  0.9926842E-01
       -3   -1    0    0    0  501  0.00000000000E+00  0.00000000000E+00  0.21622536921E+03  0.21622539280E+03  0.10100000352E+00 0.  1.
        3   -1    0    0  501    0  0.00000000000E+00  0.00000000000E+00 -0.40217186967E+03  0.40217188235E+03  0.10100000352E+00 0. -1.
    10030    2    1    2    0    0  0.00000000000E+00  0.00000000000E+00 -0.18594650046E+03  0.61839727515E+03  0.58977884743E+03 0.  0.
        3    1    3    3  502    0 -0.22042864792E+03 -0.19577001016E+03 -0.10001292482E+03  0.31131540443E+03  0.10100000352E+00 0. -1.
       -3    1    3    3    0  502  0.22042864792E+03  0.19577001016E+03 -0.85933575637E+02  0.30708187072E+03  0.10100000352E+00 0.  1.
</event>
<event>
 5   0  0.5166903E-02  0.5942385E+03  0.7818609E-02  0.9917432E-01
       -1   -1    0    0    0  501  0.00000000000E+00  0.00000000000E+00  0.85573753689E+02  0.85573753838E+02  0.50400001928E-02 0. -1.
        1   -1    0    0  501    0  0.00000000000E+00  0.00000000000E+00 -0.10316228424E+04  0.10316228424E+04  0.50400001928E-02 0.  1.
    10030    2    1    2    0    0  0.00000000000E+00  0.00000000000E+00 -0.94604908872E+03  0.11171965963E+04  0.59423846764E+03 0.  0.
        2    1    3    3  502    0 -0.26956739951E+03  0.10088915057E+03 -0.61162161557E+03  0.67596316780E+03  0.25500000920E-02 0. -1.
       -2    1    3    3    0  502  0.26956739951E+03 -0.10088915057E+03 -0.33442747314E+03  0.44123342845E+03  0.25500000920E-02 0.  1.
</event>
<event>
 5   0  0.5125031E-02  0.6019435E+03  0.7818609E-02  0.9901382E-01
        1   -1    0    0  501    0  0.00000000000E+00  0.00000000000E+00  0.10095793901E+04  0.10095793902E+04  0.50400001928E-02 0.  1.
       -1   -1    0    0    0  501  0.00000000000E+00  0.00000000000E+00 -0.89724489350E+02  0.89724489491E+02  0.50400001928E-02 0. -1.
    10030    2    1    2    0    0  0.00000000000E+00  0.00000000000E+00  0.91985490080E+03  0.10993038797E+04  0.60194350341E+03 0.  0.
        4    1    3    3  502    0 -0.28040182605E+03  0.23118114440E+02  0.65511287643E+03  0.71297554309E+03  0.12699999809E+01 0.  1.
       -4    1    3    3    0  502  0.28040182605E+03 -0.23118114440E+02  0.26474202436E+03  0.38632833657E+03  0.12699999809E+01 0. -1.
</event>
<event>
 5   0  0.8575590E-02  0.7076737E+03  0.7818609E-02  0.9704198E-01
       -2   -1    0    0    0  501  0.00000000000E+00  0.00000000000E+00  0.23951169595E+03  0.23951169596E+03  0.25500000920E-02 0. -1.
        2   -1    0    0  501    0  0.00000000000E+00  0.00000000000E+00 -0.52273235100E+03  0.52273235100E+03  0.25500000920E-02 0.  1.
    10030    2    1    2    0    0  0.00000000000E+00  0.00000000000E+00 -0.28322065505E+03  0.76224404696E+03  0.70767368729E+03 0.  0.
        4    1    3    3  502    0 -0.33904421020E+03 -0.15830480383E+02 -0.33913538207E+02  0.34110602685E+03  0.12699999809E+01 0. -1.
       -4    1    3    3    0  502  0.33904421020E+03  0.15830480383E+02 -0.24930711684E+03  0.42113802012E+03  0.12699999809E+01 0.  1.
</event>
<event>
 5   0  0.5190380E-02  0.5949462E+03  0.7818609E-02  0.9915947E-01
        1   -1    0    0  501    0  0.00000000000E+00  0.00000000000E+00  0.75823503328E+03  0.75823503330E+03  0.50400001928E-02 0. -1.
       -1   -1    0    0    0  501  0.00000000000E+00  0.00000000000E+00 -0.11670555516E+03  0.11670555527E+03  0.50400001928E-02 0.  1.
    10030    2    1    2    0    0  0.00000000000E+00  0.00000000000E+00  0.64152947812E+03  0.87494058857E+03  0.59494618431E+03 0.  0.
        5    1    3    3  502    0 -0.27684541998E+03  0.64247442942E+02  0.19174312456E+03  0.34286824919E+03  0.46999998093E+01 0. -1.
       -5    1    3    3    0  502  0.27684541998E+03 -0.64247442942E+02  0.44978635356E+03  0.53207233938E+03  0.46999998093E+01 0.  1.
</event>
<event>
 5   0  0.3437375E-02  0.5961851E+03  0.7818609E-02  0.9913353E-01
        3   -1    0    0  501    0  0.00000000000E+00  0.00000000000E+00  0.91900060217E+03  0.91900060772E+03  0.10100000352E+00 0. -1.
       -3   -1    0    0    0  501  0.00000000000E+00  0.00000000000E+00 -0.96691053694E+02  0.96691106444E+02  0.10100000352E+00 0.  1.
    10030    2    1    2    0    0  0.00000000000E+00  0.00000000000E+00  0.82230954848E+03  0.10156917142E+04  0.59618509266E+03 0.  0.
        3    1    3    3  502    0 -0.12750143028E+03 -0.10733365473E+03 -0.98989570103E+01  0.16695846104E+03  0.10100000352E+00 0.  1.
       -3    1    3    3    0  502  0.12750143028E+03  0.10733365473E+03  0.83220850549E+03  0.84873325313E+03  0.10100000352E+00 0. -1.
</event>
<event>
 5   0  0.4881209E-02  0.6016597E+03  0.7818609E-02  0.9901969E-01
        1   -1    0    0  501    0  0.00000000000E+00  0.00000000000E+00  0.80069922255E+03  0.80069922256E+03  0.50400001928E-02 0.  1.
       -1   -1    0    0    0  501  0.00000000000E+00  0.00000000000E+00 -0.11302445758E+03  0.11302445769E+03  0.50400001928E-02 0. -1.
    10030    2    1    2    0    0  0.00000000000E+00  0.00000000000E+00  0.68767476497E+03  0.91372368025E+03  0.60165968909E+03 0.  0.
        3    1    3    3  502    0  0.23485431184E+03  0.15838921085E+03  0.49762790765E+03  0.57260565364E+03  0.10100000352E+00 0. -1.
       -3    1    3    3    0  502 -0.23485431184E+03 -0.15838921085E+03  0.19004685731E+03  0.34111802661E+03  0.10100000352E+00 0.  1.
</event>
<event>
 5   0  0.5190380E-02  0.5929816E+03  0.7818609E-02  0.9920075E-01
        1   -1    0    0  501    0  0.00000000000E+00  0.00000000000E+00  0.51103534644E+03  0.51103534647E+03  0.50400001928E-02 0. -1.
       -1   -1    0    0    0  501  0.00000000000E+00  0.00000000000E+00 -0.17201702899E+03  0.17201702907E+03  0.50400001928E-02 0.  1.
    10030    2    1    2    0    0  0.00000000000E+00  0.00000000000E+00  0.33901831745E+03  0.68305237553E+03  0.59298155802E+03 0.  0.
        5    1    3    3  502    0  0.25652861194E+03  0.14854983950E+03  0.16573971904E+03  0.33965530766E+03  0.46999998093E+01 0. -1.
       -5    1    3    3    0  502 -0.25652861194E+03 -0.14854983950E+03  0.17327859841E+03  0.34339706787E+03  0.46999998093E+01 0.  1.
</event>
<event>
 5   0  0.8817544E-02  0.5972051E+03  0.7818609E-02  0.9911222E-01
        2   -1    0    0  501    0  0.00000000000E+00  0.00000000000E+00  0.16008881069E+04  0.16008881069E+04  0.25500000920E-02 0. -1.
       -2   -1    0    0    0  501  0.00000000000E+00  0.00000000000E+00 -0.55696255278E+02  0.55696255336E+02  0.25500000920E-02 0.  1.
    10030    2    1    2    0    0  0.00000000000E+00  0.00000000000E+00  0.15451918516E+04  0.16565843622E+04  0.59720506603E+03 0.  0.
        5    1    3    3  502    0  0.30805235597E+02  0.18551300806E+03  0.14158606693E+04  0.14283023362E+04  0.46999998093E+01 0. -1.
       -5    1    3    3    0  502 -0.30805235597E+02 -0.18551300806E+03  0.12933118233E+03  0.22828202606E+03  0.46999998093E+01 0.  1.
</event>
<event>
 5   0  0.8207443E-02  0.5838831E+03  0.7818609E-02  0.9939419E-01
       -2   -1    0    0    0  501  0.00000000000E+00  0.00000000000E+00  0.36776247326E+03  0.36776247327E+03  0.25500000920E-02 0. -1.
        2   -1    0    0  501    0  0.00000000000E+00  0.00000000000E+00 -0.23175251590E+03  0.23175251591E+03  0.25500000920E-02 0.  1.
    10030    2    1    2    0    0  0.00000000000E+00  0.00000000000E+00  0.13600995736E+03  0.59951498918E+03  0.58388313364E+03 0.  0.
        1    1    3    3  502    0  0.44224548254E+02 -0.28350531395E+03  0.12722998023E+02  0.28721585682E+03  0.50400001928E-02 0.  1.
       -1    1    3    3    0  502 -0.44224548254E+02  0.28350531395E+03  0.12328695934E+03  0.31229913236E+03  0.50400001928E-02 0. -1.
</event>
<event>
 5   0  0.3437375E-02  0.6151675E+03  0.7818609E-02  0.9874429E-01
       -4   -1    0    0    0  501  0.00000000000E+00  0.00000000000E+00  0.13352658406E+03  0.13353262355E+03  0.12699999809E+01 0.  1.
        4   -1    0    0  501    0  0.00000000000E+00  0.00000000000E+00 -0.70850863482E+03  0.70850977305E+03  0.12699999809E+01 0. -1.
    10030    2    1    2    0    0  0.00000000000E+00  0.00000000000E+00 -0.57498205075E+03  0.84204239660E+03  0.61516748856E+03 0.  0.
        5    1    3    3  502    0  0.12309229933E+03  0.22716635322E+03 -0.51583656508E+03  0.57694516036E+03  0.46999998093E+01 0.  1.
       -5    1    3    3    0  502 -0.12309229933E+03 -0.22716635322E+03 -0.59145485676E+02  0.26509723624E+03  0.46999998093E+01 0. -1.
</event>
<event>
 5   0  0.3437375E-02  0.6067931E+03  0.7818609E-02  0.9891412E-01
        4   -1    0    0  501    0  0.00000000000E+00  0.00000000000E+00  0.16898086885E+03  0.16898564121E+03  0.12699999809E+01 0.  1.
       -4   -1    0    0    0  501  0.00000000000E+00  0.00000000000E+00 -0.54471983819E+03  0.54472131868E+03  0.12699999809E+01 0. -1.
    10030    2    1    2    0    0  0.00000000000E+00  0.00000000000E+00 -0.37573896935E+03  0.71370695989E+03  0.60679308789E+03 0.  0.
        2    1    3    3  502    0 -0.13869952053E+03 -0.65827008986E+01 -0.50515572523E+03  0.52389235124E+03  0.25500000920E-02 0. -1.
       -2    1    3    3    0  502  0.13869952053E+03  0.65827008986E+01  0.12941675588E+03  0.18981460865E+03  0.25500000920E-02 0.  1.
</event>
<event>
 5   0  0.8207443E-02  0.6192139E+03  0.7818609E-02  0.9866326E-01
        2   -1    0    0  501    0  0.00000000000E+00  0.00000000000E+00  0.22734783569E+03  0.22734783571E+03  0.25500000920E-02 0. -1.
       -2   -1    0    0    0  501  0.00000000000E+00  0.00000000000E+00 -0.42162909399E+03  0.42162909400E+03  0.25500000920E-02 0.  1.
    10030    2    1    2    0    0  0.00000000000E+00  0.00000000000E+00 -0.19428125830E+03  0.64897692971E+03  0.61921389517E+03 0.  0.
        1    1    3    3  502    0 -0.38024894094E+02 -0.22160135774E+02  0.22405264752E+03  0.22833430114E+03  0.50400001928E-02 0. -1.
       -1    1    3    3    0  502  0.38024894094E+02  0.22160135774E+02 -0.41833390582E+03  0.42064262857E+03  0.50400001928E-02 0.  1.
</event>
<event>
 5   0  0.5190380E-02  0.6023807E+03  0.7818609E-02  0.9900479E-01
        1   -1    0    0  501    0  0.00000000000E+00  0.00000000000E+00  0.11382065959E+04  0.11382065959E+04  0.50400001928E-02 0.  1.
       -1   -1    0    0    0  501  0.00000000000E+00  0.00000000000E+00 -0.79700500000E+02  0.79700500159E+02  0.50400001928E-02 0. -1.
    10030    2    1    2    0    0  0.00000000000E+00  0.00000000000E+00  0.10585060959E+04  0.12179070961E+04  0.60238072645E+03 0.  0.
        5    1    3    3  502    0 -0.14276705347E+02  0.19626809631E+03  0.99016016409E+03  0.10095366415E+04  0.46999998093E+01 0.  1.
       -5    1    3    3    0  502  0.14276705347E+02 -0.19626809631E+03  0.68345931790E+02  0.20837045457E+03  0.46999998093E+01 0. -1.
</event>
<event>
 5   0  0.8207443E-02  0.5959915E+03  0.7818609E-02  0.9913757E-01
       -2   -1    0    0    0  501  0.00000000000E+00  0.00000000000E+00  0.10106541903E+03  0.10106541906E+03  0.25500000920E-02 0.  1.
        2   -1    0    0  501    0  0.00000000000E+00  0.00000000000E+00 -0.87865331781E+03  0.87865331781E+03  0.25500000920E-02 0. -1.
    10030    2    1    2    0    0  0.00000000000E+00  0.00000000000E+00 -0.77758789878E+03  0.97971873687E+03  0.59599149579E+03 0.  0.
        1    1    3    3  502    0  0.15727818063E+03  0.25077544452E+03 -0.33240458600E+03  0.44510398617E+03  0.50400001928E-02 0.  1.
       -1    1    3    3    0  502 -0.15727818063E+03 -0.25077544452E+03 -0.44518331277E+03  0.53461475071E+03  0.50400001928E-02 0. -1.
</event>
<event>
 5   0  0.8699746E-02  0.5975975E+03  0.7818609E-02  0.9910403E-01
        2   -1    0    0  501    0  0.00000000000E+00  0.00000000000E+00  0.95267627720E+03  0.95267627720E+03  0.25500000920E-02 0.  1.
       -2   -1    0    0    0  501  0.00000000000E+00  0.00000000000E+00 -0.93715682012E+02  0.93715682046E+02  0.25500000920E-02 0. -1.
    10030    2    1    2    0    0  0.00000000000E+00  0.00000000000E+00  0.85896059519E+03  0.10463919592E+04  0.59759754710E+03 0.  0.
        3    1    3    3  502    0 -0.27321260396E+03 -0.12097511745E+03  0.43082625376E+03  0.52430084602E+03  0.10100000352E+00 0. -1.
       -3    1    3    3    0  502  0.27321260396E+03  0.12097511745E+03  0.42813434142E+03  0.52209111323E+03  0.10100000352E+00 0.  1.
</event>
<event>
 5   0  0.5125031E-02  0.6060380E+03  0.7818609E-02  0.9892958E-01
        1   -1    0    0  501    0  0.00000000000E+00  0.00000000000E+00  0.94862678450E+03  0.94862678452E+03  0.50400001928E-02 0. -1.
       -1   -1    0    0    0  501  0.00000000000E+00  0.00000000000E+00 -0.96793092617E+02  0.96793092749E+02  0.50400001928E-02 0.  1.
    10030    2    1    2    0    0  0.00000000000E+00  0.00000000000E+00  0.85183369189E+03  0.10454198773E+04  0.60603801956E+03 0.  0.
        4    1    3    3  502    0 -0.18973818655E+03 -0.23128155932E+03  0.34270124065E+03  0.45490382759E+03  0.12699999809E+01 0.  1.
       -4    1    3    3    0  502  0.18973818655E+03  0.23128155932E+03  0.50913245124E+03  0.59051604967E+03  0.12699999809E+01 0. -1.
</event>
<event>
 5   0  0.5125031E-02  0.5858640E+03  0.7818609E-02  0.9935176E-01
       -1   -1    0    0    0  501  0.00000000000E+00  0.00000000000E+00  0.53754185343E+02  0.53754185579E+02  0.50400001928E-02 0.  1.
        1   -1    0    0  501    0  0.00000000000E+00  0.00000000000E+00 -0.15963252270E+04  0.15963252270E+04  0.50400001928E-02 0. -1.
    10030    2    1    2    0    0  0.00000000000E+00  0.00000000000E+00 -0.15425710417E+04  0.16500794126E+04  0.58586401945E+03 0.  0.
        4    1    3    3  502    0 -0.10529221499E+02  0.11573200288E+03 -0.15286161860E+04  0.15330276638E+04  0.12699999809E+01 0. -1.
       -4    1    3    3    0  502  0.10529221499E+02 -0.11573200288E+03 -0.13954855660E+02  0.11705174878E+03  0.12699999809E+01 0.  1.
</event>
<event>
 5   0  0.4987389E-02  0.6070015E+03  0.7818609E-02  0.9890986E-01
        1   -1    0    0  501    0  0.00000000000E+00  0.00000000000E+00  0.11259519007E+04  0.11259519007E+04  0.50400001928E-02 0.  1.
       -1   -1    0    0    0  501  0.00000000000E+00  0.00000000000E+00 -0.81808739507E+02  0.81808739663E+02  0.50400001928E-02 0. -1.
    10030    2    1    2    0    0  0.00000000000E+00  0.00000000000E+00  0.10441431612E+04  0.12077606404E+04  0.60700150195E+03 0.  0.
        1    1    3    3  502    0 -0.23326941604E+03  0.19102977138E+03  0.45298195124E+03  0.54415038563E+03  0.50400001928E-02 0.  1.
       -1    1    3    3    0  502  0.23326941604E+03 -0.19102977138E+03  0.59116120996E+03  0.66361025474E+03  0.50400001928E-02 0. -1.
</event>
<event>
 5   0  0.8817544E-02  0.5901497E+03  0.7818609E-02  0.9926056E-01
       -2   -1    0    0    0  501  0.00000000000E+00  0.00000000000E+00  0.22672975652E+03  0.22672975653E+03  0.25500000920E-02 0.  1.
        2   -1    0    0  501    0  0.00000000000E+00  0.00000000000E+00 -0.38402173228E+03  0.38402173229E+03  0.25500000920E-02 0. -1.
    10030    2    1    2    0    0  0.00000000000E+00  0.00000000000E+00 -0.15729197577E+03  0.61075148883E+03  0.59014965514E+03 0.  0.
        5    1    3    3  502    0  0.26010333687E+02 -0.10143342000E+03 -0.36410432466E+03  0.37889223453E+03  0.46999998093E+01 0. -1.
       -5    1    3    3    0  502 -0.26010333687E+02  0.10143342000E+03  0.20681234889E+03  0.23185925430E+03  0.46999998093E+01 0.  1.
</event>
<event>
 5   0  0.4987389E-02  0.5869354E+03  0.7818609E-02  0.9932888E-01
        1   -1    0    0  501    0  0.00000000000E+00  0.00000000000E+00  0.55643756869E+03  0.55643756871E+03  0.50400001928E-02 0.  1.
       -1   -1    0    0    0  501  0.00000000000E+00  0.00000000000E+00 -0.15477621834E+03  0.15477621842E+03  0.50400001928E-02 0. -1.
    10030    2    1    2    0    0  0.00000000000E+00  0.00000000000E+00  0.40166135035E+03  0.71121378714E+03  0.58693543993E+03 0.  0.
        1    1    3    3  502    0  0.18362589678E+02  0.22610074194E+03  0.42643777220E+03  0.48301956874E+03  0.50400001928E-02 0.  1.
       -1    1    3    3    0  502 -0.18362589678E+02 -0.22610074194E+03 -0.24776421846E+02  0.22819421840E+03  0.50400001928E-02 0. -1.
</event>
<event>
 5   0  0.5190380E-02  0.6577954E+03  0.7818609E-02  0.9792261E-01
       -1   -1    0    0    0  501  0.00000000000E+00  0.00000000000E+00  0.49727690855E+03  0.49727690858E+03  0.50400001928E-02 0.  1.
        1   -1    0    0  501    0  0.00000000000E+00  0.00000000000E+00 -0.21753211211E+03  0.21753211217E+03  0.50400001928E-02 0. -1.
    10030    2    1    2    0    0  0.00000000000E+00  0.00000000000E+00  0.27974479644E+03  0.71480902075E+03  0.65779539753E+03 0.  0.
        5    1    3    3  502    0  0.32882319264E+03  0.47445476515E+01  0.13759206478E+03  0.35651208821E+03  0.46999998093E+01 0. -1.
       -5    1    3    3    0  502 -0.32882319264E+03 -0.47445476515E+01  0.14215273166E+03  0.35829693254E+03  0.46999998093E+01 0.  1.
</event>
<event>
 5   0  0.8817544E-02  0.5997961E+03  0.7818609E-02  0.9905829E-01
       -2   -1    0    0    0  501  0.00000000000E+00  0.00000000000E+00  0.63706218413E+02  0.63706218464E+02  0.25500000920E-02 0. -1.
        2   -1    0    0  501    0  0.00000000000E+00  0.00000000000E+00 -0.14117749071E+04  0.14117749071E+04  0.25500000920E-02 0.  1.
    10030    2    1    2    0    0  0.00000000000E+00  0.00000000000E+00 -0.13480686887E+04  0.14754811256E+04  0.59979610077E+03 0.  0.
        5    1    3    3  502    0 -0.23471924284E+03  0.24474057067E+02 -0.21894201387E+03  0.32194688671E+03  0.46999998093E+01 0. -1.
       -5    1    3    3    0  502  0.23471924284E+03 -0.24474057067E+02 -0.11291266749E+04  0.11535342389E+04  0.46999998093E+01 0.  1.
</event>
<event>
 5   0  0.8207443E-02  0.5970126E+03  0.7818609E-02  0.9911623E-01
       -2   -1    0    0    0  501  0.00000000000E+00  0.00000000000E+00  0.10551213914E+04  0.10551213914E+04  0.25500000920E-02 0.  1.
        2   -1    0    0  501    0  0.00000000000E+00  0.00000000000E+00 -0.84450953137E+02  0.84450953175E+02  0.25500000920E-02 0. -1.
    10030    2    1    2    0    0  0.00000000000E+00  0.00000000000E+00  0.97067043830E+03  0.11395723446E+04  0.59701258682E+03 0.  0.
        1    1    3    3  502    0 -0.21582629704E+03  0.15277948502E+03  0.74971103299E+03  0.79497748053E+03  0.50400001928E-02 0. -1.
       -1    1    3    3    0  502  0.21582629704E+03 -0.15277948502E+03  0.22095940531E+03  0.34459486409E+03  0.50400001928E-02 0.  1.
</event>
<event>
 5   0  0.8575590E-02  0.5875862E+03  0.7818609E-02  0.9931501E-01
        2   -1    0    0  501    0  0.00000000000E+00  0.00000000000E+00  0.65204715057E+03  0.65204715058E+03  0.25500000920E-02 0. -1.
       -2   -1    0    0    0  501  0.00000000000E+00  0.00000000000E+00 -0.13237444659E+03  0.13237444662E+03  0.25500000920E-02 0.  1.
    10030    2    1    2    0    0  0.00000000000E+00  0.00000000000E+00  0.51967270398E+03  0.78442159719E+03  0.58758618336E+03 0.  0.
        4    1    3    3  502    0 -0.97195128927E+02  0.24969142397E+03  0.42070161944E+03  0.49878268393E+03  0.12699999809E+01 0. -1.
       -4    1    3    3    0  502  0.97195128927E+02 -0.24969142397E+03  0.98971084546E+02  0.28563891326E+03  0.12699999809E+01 0.  1.
</event>
<event>
 5   0  0.8817544E-02  0.5960978E+03  0.7818609E-02  0.9913535E-01
       -2   -1    0    0    0  501  0.00000000000E+00  0.00000000000E+00  0.59488122328E+02  0.59488122383E+02  0.25500000920E-02 0. -1.
        2   -1    0    0  501    0  0.00000000000E+00  0.00000000000E+00 -0.14932919546E+04  0.14932919546E+04  0.25500000920E-02 0.  1.
    10030    2    1    2    0    0  0.00000000000E+00  0.00000000000E+00 -0.14338038323E+04  0.15527800770E+04  0.59609775881E+03 0.  0.
        5    1    3    3  502    0  0.12324870776E+03 -0.57498994241E+02 -0.26160620395E+02  0.13857433515E+03  0.46999998093E+01 0. -1.
       -5    1    3    3    0  502 -0.12324870776E+03  0.57498994241E+02 -0.14076432119E+04  0.14142057419E+04  0.46999998093E+01 0.  1.
</event>
<event>
 5   0  0.5125031E-02  0.6011755E+03  0.7818609E-02  0.9902970E-01
       -1   -1    0    0    0  501  0.00000000000E+00  0.00000000000E+00  0.46243176706E+03  0.46243176709E+03  0.50400001928E-02 0.  1.
        1   -1    0    0  501    0  0.00000000000E+00  0.00000000000E+00 -0.19538666614E+03  0.19538666620E+03  0.50400001928E-02 0. -1.
    10030    2    1    2    0    0  0.00000000000E+00  0.00000000000E+00  0.26704510092E+03  0.65781843329E+03  0.60117551951E+03 0.  0.
        4    1    3    3  502    0  0.19779977629E+02  0.17886762912E+03 -0.12992449752E+03  0.22196140254E+03  0.12699999809E+01 0. -1.
       -4    1    3    3    0  502 -0.19779977629E+02 -0.17886762912E+03  0.39696959845E+03  0.43585703075E+03  0.12699999809E+01 0.  1.
</event>
<event>
 5   0  0.8207443E-02  0.6012697E+03  0.7818609E-02  0.9902775E-01
        2   -1    0    0  501    0  0.00000000000E+00  0.00000000000E+00  0.13731773454E+04  0.13731773454E+04  0.25500000920E-02 0.  1.
       -2   -1    0    0    0  501  0.00000000000E+00  0.00000000000E+00 -0.65819121984E+02  0.65819122033E+02  0.25500000920E-02 0. -1.
    10030    2    1    2    0    0  0.00000000000E+00  0.00000000000E+00  0.13073582234E+04  0.14389964675E+04  0.60126974725E+03 0.  0.
        1    1    3    3  502    0 -0.21172551445E+03  0.14617421431E+03  0.10258813482E+04  0.10576517078E+04  0.50400001928E-02 0. -1.
       -1    1    3    3    0  502  0.21172551445E+03 -0.14617421431E+03  0.28147687522E+03  0.38134475964E+03  0.50400001928E-02 0.  1.
</event>
<event>
 5   0  0.3437375E-02  0.6033831E+03  0.7818609E-02  0.9898412E-01
       -3   -1    0    0    0  501  0.00000000000E+00  0.00000000000E+00  0.81425226600E+03  0.81425227226E+03  0.10100000352E+00 0.  1.
        3   -1    0    0  501    0  0.00000000000E+00  0.00000000000E+00 -0.11178080933E+03  0.11178085496E+03  0.10100000352E+00 0. -1.
    10030    2    1    2    0    0  0.00000000000E+00  0.00000000000E+00  0.70247145666E+03  0.92603312722E+03  0.60338313308E+03 0.  0.
        5    1    3    3  502    0  0.19758057874E+03  0.18877475893E+03  0.15516341449E+03  0.31427976374E+03  0.46999998093E+01 0. -1.
       -5    1    3    3    0  502 -0.19758057874E+03 -0.18877475893E+03  0.54730804218E+03  0.61175336348E+03  0.46999998093E+01 0.  1.
</event>
<event>
 5   0  0.5125031E-02  0.5981807E+03  0.7818609E-02  0.9909188E-01
       -1   -1    0    0    0  501  0.00000000000E+00  0.00000000000E+00  0.87518849895E+02  0.87518850040E+02  0.50400001928E-02 0. -1.
        1   -1    0    0  501    0  0.00000000000E+00  0.00000000000E+00 -0.10221231478E+04  0.10221231479E+04  0.50400001928E-02 0.  1.
    10030    2    1    2    0    0  0.00000000000E+00  0.00000000000E+00 -0.93460429795E+03  0.11096419979E+04  0.59818071663E+03 0.  0.
        4    1    3    3  502    0  0.73646356652E+02  0.10128594246E+03 -0.97114224731E+03  0.97918410189E+03  0.12699999809E+01 0.  1.
       -4    1    3    3    0  502 -0.73646356652E+02 -0.10128594246E+03  0.36537949359E+02  0.13045789601E+03  0.12699999809E+01 0. -1.
</event>
<event>
 5   0  0.5166903E-02  0.6004869E+03  0.7818609E-02  0.9904396E-01
       -1   -1    0    0    0  501  0.00000000000E+00  0.00000000000E+00  0.13581608500E+03  0.13581608509E+03  0.50400001928E-02 0.  1.
        1   -1    0    0  501    0  0.00000000000E+00  0.00000000000E+00 -0.66373681444E+03  0.66373681446E+03  0.50400001928E-02 0. -1.
    10030    2    1    2    0    0  0.00000000000E+00  0.00000000000E+00 -0.52792072944E+03  0.79955289955E+03  0.60048692127E+03 0.  0.
        2    1    3    3  502    0 -0.34520970793E+02  0.90981473907E+02  0.11423657262E+03  0.15006438801E+03  0.25500000920E-02 0.  1.
       -2    1    3    3    0  502  0.34520970793E+02 -0.90981473907E+02 -0.64215730206E+03  0.64948851154E+03  0.25500000920E-02 0. -1.
</event>
<event>
 5   0  0.3437375E-02  0.6082357E+03  0.7818609E-02  0.9888465E-01
       -4   -1    0    0    0  501  0.00000000000E+00  0.00000000000E+00  0.45640966581E+02  0.45658632595E+02  0.12699999809E+01 0.  1.
        4   -1    0    0  501    0  0.00000000000E+00  0.00000000000E+00 -0.20260081110E+04  0.20260085091E+04  0.12699999809E+01 0. -1.
    10030    2    1    2    0    0  0.00000000000E+00  0.00000000000E+00 -0.19803671444E+04  0.20716671417E+04  0.60823574301E+03 0.  0.
        4    1    3    3  502    0 -0.17258302397E+03  0.86048558384E+02 -0.18924706772E+03  0.27019496683E+03  0.12699999809E+01 0.  1.
       -4    1    3    3    0  502  0.17258302397E+03 -0.86048558384E+02 -0.17911200767E+04  0.18014721748E+04  0.12699999809E+01 0. -1.
</event>
<event>
 5   0  0.5125031E-02  0.6086135E+03  0.7818609E-02  0.9887695E-01
       -1   -1    0    0    0  501  0.00000000000E+00  0.00000000000E+00  0.56029002045E+02  0.56029002272E+02  0.50400001928E-02 0.  1.
        1   -1    0    0  501    0  0.00000000000E+00  0.00000000000E+00 -0.16527617910E+04  0.16527617910E+04  0.50400001928E-02 0. -1.
    10030    2    1    2    0    0  0.00000000000E+00  0.00000000000E+00 -0.15967327889E+04  0.17087907933E+04  0.60861348643E+03 0.  0.
        4    1    3    3  502    0 -0.12335735005E+03 -0.42801298825E+02 -0.26627676383E+02  0.13326527320E+03  0.12699999809E+01 0.  1.
       -4    1    3    3    0  502  0.12335735005E+03  0.42801298825E+02 -0.15701051126E+04  0.15755255201E+04  0.12699999809E+01 0. -1.
</event>
<event>
 5   0  0.5125031E-02  0.5985729E+03  0.7818609E-02  0.9908371E-01
        1   -1    0    0  501    0  0.00000000000E+00  0.00000000000E+00  0.31542513649E+03  0.31542513653E+03  0.50400001928E-02 0. -1.
       -1   -1    0    0    0  501  0.00000000000E+00  0.00000000000E+00 -0.28397349038E+03  0.28397349042E+03  0.50400001928E-02 0.  1.
    10030    2    1    2    0    0  0.00000000000E+00  0.00000000000E+00  0.31451646113E+02  0.59939862695E+03  0.59857289276E+03 0.  0.
        4    1    3    3  502    0 -0.17599078578E+03  0.68535970252E+02 -0.21675996934E+03  0.28750031845E+03  0.12699999809E+01 0.  1.
       -4    1    3    3    0  502  0.17599078578E+03 -0.68535970252E+02  0.24821161546E+03  0.31189830850E+03  0.12699999809E+01 0. -1.
</event>
<event>
 5   0  0.8575590E-02  0.6065680E+03  0.7818609E-02  0.9891872E-01
        2   -1    0    0  501    0  0.00000000000E+00  0.00000000000E+00  0.52960927939E+03  0.52960927939E+03  0.25500000920E-02 0. -1.
       -2   -1    0    0    0  501  0.00000000000E+00  0.00000000000E+00 -0.17367746429E+03  0.17367746431E+03  0.25500000920E-02 0.  1.
    10030    2    1    2    0    0  0.00000000000E+00  0.00000000000E+00  0.35593181510E+03  0.70328674370E+03  0.60656803977E+03 0.  0.
        4    1    3    3  502    0 -0.38363072917E+01 -0.25092164879E+03 -0.19492582768E+02  0.25171008078E+03  0.12699999809E+01 0.  1.
       -4    1    3    3    0  502  0.38363072917E+01  0.25092164879E+03  0.37542439786E+03  0.45157666292E+03  0.12699999809E+01 0. -1.
</event>
<event>
 5   0  0.8420604E-02  0.6068714E+03  0.7818609E-02  0.9891252E-01
        2   -1    0    0  501    0  0.00000000000E+00  0.00000000000E+00  0.21530718839E+03  0.21530718840E+03  0.25500000920E-02 0. -1.
       -2   -1    0    0    0  501  0.00000000000E+00  0.00000000000E+00 -0.42763658699E+03  0.42763658699E+03  0.25500000920E-02 0.  1.
    10030    2    1    2    0    0  0.00000000000E+00  0.00000000000E+00 -0.21232939860E+03  0.64294377539E+03  0.60687142362E+03 0.  0.
        2    1    3    3  502    0 -0.28070603852E+03  0.11459603228E+03 -0.93402932885E+02  0.31725736958E+03  0.25500000920E-02 0.  1.
       -2    1    3    3    0  502  0.28070603852E+03 -0.11459603228E+03 -0.11892646571E+03  0.32568640581E+03  0.25500000920E-02 0. -1.
</event>
<event>
 5   0  0.4881209E-02  0.6016063E+03  0.7818609E-02  0.9902079E-01
        1   -1    0    0  501    0  0.00000000000E+00  0.00000000000E+00  0.16660233200E+04  0.16660233200E+04  0.50400001928E-02 0. -1.
       -1   -1    0    0    0  501  0.00000000000E+00  0.00000000000E+00 -0.54310490266E+02  0.54310490500E+02  0.50400001928E-02 0.  1.
    10030    2    1    2    0    0  0.00000000000E+00  0.00000000000E+00  0.16117128297E+04  0.17203338105E+04  0.60160632812E+03 0.  0.
        3    1    3    3  502    0 -0.20274783943E+03  0.21702190264E+03  0.94231923172E+03  0.98801353093E+03  0.10100000352E+00 0. -1.
       -3    1    3    3    0  502  0.20274783943E+03 -0.21702190264E+03  0.66939359797E+03  0.73232027953E+03  0.10100000352E+00 0.  1.
</event>
<event>
 5   0  0.8420604E-02  0.5944067E+03  0.7818609E-02  0.9917079E-01
        2   -1    0    0  501    0  0.00000000000E+00  0.00000000000E+00  0.40536448134E+03  0.40536448135E+03  0.25500000920E-02 0. -1.
       -2   -1    0    0    0  501  0.00000000000E+00  0.00000000000E+00 -0.21790222169E+03  0.21790222171E+03  0.25500000920E-02 0.  1.
    10030    2    1    2    0    0  0.00000000000E+00  0.00000000000E+00  0.18746225965E+03  0.62326670305E+03  0.59440666580E+03 0.  0.
        2    1    3    3  502    0 -0.12693563350E+03 -0.18386549283E+03 -0.11177087539E+03  0.24982374406E+03  0.25500000920E-02 0.  1.
       -2    1    3    3    0  502  0.12693563350E+03  0.18386549283E+03  0.29923313504E+03  0.37344295899E+03  0.25500000920E-02 0. -1.
</event>
<event>
 5   0  0.5190380E-02  0.6131485E+03  0.7818609E-02  0.9878496E-01
       -1   -1    0    0    0  501  0.00000000000E+00  0.00000000000E+00  0.39805444897E+03  0.39805444901E+03  0.50400001928E-02 0.  1.
        1   -1    0    0  501    0  0.00000000000E+00  0.00000000000E+00 -0.23611788325E+03  0.23611788331E+03  0.50400001928E-02 0. -1.
    10030    2    1    2    0    0  0.00000000000E+00  0.00000000000E+00  0.16193656572E+03  0.63417233231E+03  0.61314851036E+03 0.  0.
        5    1    3    3  502    0 -0.27731504061E+02 -0.37239085949E+02 -0.23242260580E+03  0.23706147626E+03  0.46999998093E+01 0. -1.
       -5    1    3    3    0  502  0.27731504061E+02  0.37239085949E+02  0.39435917152E+03  0.39711085606E+03  0.46999998093E+01 0.  1.
</event>
<event>
 5   0  0.8207443E-02  0.5981110E+03  0.7818609E-02  0.9909333E-01
        2   -1    0    0  501    0  0.00000000000E+00  0.00000000000E+00  0.13690837009E+04  0.13690837009E+04  0.25500000920E-02 0. -1.
       -2   -1    0    0    0  501  0.00000000000E+00  0.00000000000E+00 -0.65324120036E+02  0.65324120086E+02  0.25500000920E-02 0.  1.
    10030    2    1    2    0    0  0.00000000000E+00  0.00000000000E+00  0.13037595808E+04  0.14344078210E+04  0.59811098653E+03 0.  0.
        1    1    3    3  502    0  0.74631569138E+02 -0.22427097674E+03  0.10912657065E+04  0.11165698295E+04  0.50400001928E-02 0. -1.
       -1    1    3    3    0  502 -0.74631569138E+02  0.22427097674E+03  0.21249387438E+03  0.31783799143E+03  0.50400001928E-02 0.  1.
</event>
<event>
 5   0  0.8575590E-02  0.5982389E+03  0.7818609E-02  0.9909067E-01
        2   -1    0    0  501    0  0.00000000000E+00  0.00000000000E+00  0.32318232995E+03  0.32318232996E+03  0.25500000920E-02 0. -1.
       -2   -1    0    0    0  501  0.00000000000E+00  0.00000000000E+00 -0.27684817523E+03  0.27684817525E+03  0.25500000920E-02 0.  1.
    10030    2    1    2    0    0  0.00000000000E+00  0.00000000000E+00  0.46334154717E+02  0.60003050521E+03  0.59823887644E+03 0.  0.
        4    1    3    3  502    0  0.22575480960E+03 -0.10790649252E+03 -0.14121940184E+03  0.28732138372E+03  0.12699999809E+01 0.  1.
       -4    1    3    3    0  502 -0.22575480960E+03  0.10790649252E+03  0.18755355656E+03  0.31270912149E+03  0.12699999809E+01 0. -1.
</event>
<event>
 5   0  0.4881209E-02  0.6043970E+03  0.7818609E-02  0.9896325E-01
        1   -1    0    0  501    0  0.00000000000E+00  0.00000000000E+00  0.13554439087E+03  0.13554439097E+03  0.50400001928E-02 0.  1.
       -1   -1    0    0    0  501  0.00000000000E+00  0.00000000000E+00 -0.67375664822E+03  0.67375664824E+03  0.50400001928E-02 0. -1.
    10030    2    1    2    0    0  0.00000000000E+00  0.00000000000E+00 -0.53821225735E+03  0.80930103920E+03  0.60439700371E+03 0.  0.
        3    1    3    3  502    0  0.83014550467E+02  0.32351728780E+02 -0.65577039540E+03  0.66179518858E+03  0.10100000352E+00 0. -1.
       -3    1    3    3    0  502 -0.83014550467E+02 -0.32351728780E+02  0.11755813805E+03  0.14750585062E+03  0.10100000352E+00 0.  1.
</event>
<event>
 5   0  0.8575590E-02  0.6003709E+03  0.7818609E-02  0.9904637E-01
        2   -1    0    0  501    0  0.00000000000E+00  0.00000000000E+00  0.13985405585E+04  0.13985405586E+04  0.25500000920E-02 0.  1.
       -2   -1    0    0    0  501  0.00000000000E+00  0.00000000000E+00 -0.64432393011E+02  0.64432393061E+02  0.25500000920E-02 0. -1.
    10030    2    1    2    0    0  0.00000000000E+00  0.00000000000E+00  0.13341081655E+04  0.14629729516E+04  0.60037093517E+03 0.  0.
        4    1    3    3  502    0 -0.10508470513E+03 -0.28045073179E+03  0.61745531653E+03  0.68625657667E+03  0.12699999809E+01 0. -1.
       -4    1    3    3    0  502  0.10508470513E+03  0.28045073179E+03  0.71665284900E+03  0.77671637494E+03  0.12699999809E+01 0.  1.
</event>
<event>
 5   0  0.8817544E-02  0.5980356E+03  0.7818609E-02  0.9909490E-01
       -2   -1    0    0    0  501  0.00000000000E+00  0.00000000000E+00  0.58651443846E+02  0.58651443901E+02  0.25500000920E-02 0.  1.
        2   -1    0    0  501    0  0.00000000000E+00  0.00000000000E+00 -0.15244578133E+04  0.15244578133E+04  0.25500000920E-02 0. -1.
    10030    2    1    2    0    0  0.00000000000E+00  0.00000000000E+00 -0.14658063695E+04  0.15831092572E+04  0.59803562395E+03 0.  0.
        5    1    3    3  502    0 -0.98884466145E+02  0.28411029682E+02  0.10216249908E+02  0.10349775849E+03  0.46999998093E+01 0.  1.
       -5    1    3    3    0  502  0.98884466145E+02 -0.28411029682E+02 -0.14760226194E+04  0.14796114987E+04  0.46999998093E+01 0. -1.
</event>
<event>
 5   0  0.8207443E-02  0.6215067E+03  0.7818609E-02  0.9861764E-01
       -2   -1    0    0    0  501  0.00000000000E+00  0.00000000000E+00  0.16981852895E+03  0.16981852897E+03  0.25500000920E-02 0.  1.
        2   -1    0    0  501    0  0.00000000000E+00  0.00000000000E+00 -0.56865198277E+03  0.56865198278E+03  0.25500000920E-02 0. -1.
    10030    2    1    2    0    0  0.00000000000E+00  0.00000000000E+00 -0.39883345382E+03  0.73847051175E+03  0.62150669573E+03 0.  0.
        1    1    3    3  502    0  0.25790501216E+03  0.10258543645E+03 -0.33371662356E+02  0.27955756999E+03  0.50400001928E-02 0.  1.
       -1    1    3    3    0  502 -0.25790501216E+03 -0.10258543645E+03 -0.36546179146E+03  0.45891294176E+03  0.50400001928E-02 0. -1.
</event>
<event>
 5   0  0.5125031E-02  0.5944727E+03  0.7818609E-02  0.9916940E-01
       -1   -1    0    0    0  501  0.00000000000E+00  0.00000000000E+00  0.25764906935E+03  0.25764906940E+03  0.50400001928E-02 0. -1.
        1   -1    0    0  501    0  0.00000000000E+00  0.00000000000E+00 -0.34290616266E+03  0.34290616270E+03  0.50400001928E-02 0.  1.
    10030    2    1    2    0    0  0.00000000000E+00  0.00000000000E+00 -0.85257093306E+02  0.60055523210E+03  0.59447272002E+03 0.  0.
        4    1    3    3  502    0 -0.22374837213E+03  0.18078228250E+03 -0.11824271216E+03  0.31101208912E+03  0.12699999809E+01 0.  1.
       -4    1    3    3    0  502  0.22374837213E+03 -0.18078228250E+03  0.32985618855E+02  0.28954314298E+03  0.12699999809E+01 0. -1.
</event>
<event>
 5   0  0.8207443E-02  0.5896431E+03  0.7818609E-02  0.9927129E-01
        2   -1    0    0  501    0  0.00000000000E+00  0.00000000000E+00  0.60575340638E+03  0.60575340639E+03  0.25500000920E-02 0.  1.
       -2   -1    0    0    0  501  0.00000000000E+00  0.00000000000E+00 -0.14349032220E+03  0.14349032222E+03  0.25500000920E-02 0. -1.
    10030    2    1    2    0    0  0.00000000000E+00  0.00000000000E+00  0.46226308419E+03  0.74924372861E+03  0.58964311736E+03 0.  0.
        1    1    3    3  502    0 -0.50576778512E+02 -0.10435668031E+02 -0.13769838401E+03  0.14706379118E+03  0.50400001928E-02 0. -1.
       -1    1    3    3    0  502  0.50576778512E+02  0.10435668031E+02  0.59996146820E+03  0.60217993743E+03  0.50400001928E-02 0.  1.
</event>
<event>
 5   0  0.5166903E-02  0.5979153E+03  0.7818609E-02  0.9909741E-01
        1   -1    0    0  501    0  0.00000000000E+00  0.00000000000E+00  0.62745478156E+03  0.62745478158E+03  0.50400001928E-02 0.  1.
       -1   -1    0    0    0  501  0.00000000000E+00  0.00000000000E+00 -0.14244163837E+03  0.14244163846E+03  0.50400001928E-02 0. -1.
    10030    2    1    2    0    0  0.00000000000E+00  0.00000000000E+00  0.48501314319E+03  0.76989642003E+03  0.59791533557E+03 0.  0.
        2    1    3    3  502    0  0.13249907787E+03 -0.24372255917E+03  0.38600126640E+03  0.47534584163E+03  0.25500000920E-02 0.  1.
       -2    1    3    3    0  502 -0.13249907787E+03  0.24372255917E+03  0.99011876789E+02  0.29455057840E+03  0.25500000920E-02 0. -1.
</event>
<event>
 5   0  0.8699746E-02  0.7413553E+03  0.7818609E-02  0.9649011E-01
       -2   -1    0    0    0  501  0.00000000000E+00  0.00000000000E+00  0.66655712656E+02  0.66655712704E+02  0.25500000920E-02 0. -1.
        2   -1    0    0  501    0  0.00000000000E+00  0.00000000000E+00 -0.20613674867E+04  0.20613674867E+04  0.25500000920E-02 0.  1.
    10030    2    1    2    0    0  0.00000000000E+00  0.00000000000E+00 -0.19947117740E+04  0.21280231994E+04  0.74135529653E+03 0.  0.
        3    1    3    3  502    0 -0.11608685017E+03  0.50380830435E+02 -0.19974410629E+04  0.20014457761E+04  0.10100000352E+00 0.  1.
       -3    1    3    3    0  502  0.11608685017E+03 -0.50380830435E+02  0.27292888731E+01  0.12657742325E+03  0.10100000352E+00 0. -1.
</event>
<event>
 5   0  0.3437375E-02  0.5812670E+03  0.7818609E-02  0.9945052E-01
        3   -1    0    0  501    0  0.00000000000E+00  0.00000000000E+00  0.11545619275E+03  0.11545623692E+03  0.10100000352E+00 0. -1.
       -3   -1    0    0    0  501  0.00000000000E+00  0.00000000000E+00 -0.73160055594E+03  0.73160056291E+03  0.10100000352E+00 0.  1.
    10030    2    1    2    0    0  0.00000000000E+00  0.00000000000E+00 -0.61614436319E+03  0.84705679984E+03  0.58126701769E+03 0.  0.
        5    1    3    3  502    0 -0.92347561785E+02  0.10682352114E+02 -0.70929133579E+03  0.71537296136E+03  0.46999998093E+01 0.  1.
       -5    1    3    3    0  502  0.92347561785E+02 -0.10682352114E+02  0.93146972598E+02  0.13168383848E+03  0.46999998093E+01 0. -1.
</event>
<event>
 5   0  0.5125031E-02  0.6081442E+03  0.7818609E-02  0.9888652E-01
        1   -1    0    0  501    0  0.00000000000E+00  0.00000000000E+00  0.40617337616E+03  0.40617337619E+03  0.50400001928E-02 0. -1.
       -1   -1    0    0    0  501  0.00000000000E+00  0.00000000000E+00 -0.22763641198E+03  0.22763641203E+03  0.50400001928E-02 0.  1.
    10030    2    1    2    0    0  0.00000000000E+00  0.00000000000E+00  0.17853696418E+03  0.63380978822E+03  0.60814422637E+03 0.  0.
        4    1    3    3  502    0 -0.59551533037E+02  0.28227753947E+03 -0.10865719533E+02  0.28869823543E+03  0.12699999809E+01 0. -1.
       -4    1    3    3    0  502  0.59551533037E+02 -0.28227753947E+03  0.18940268371E+03  0.34511155280E+03  0.12699999809E+01 0.  1.
</event>
<event>
 5   0  0.5125031E-02  0.6015248E+03  0.7818609E-02  0.9902248E-01
       -1   -1    0    0    0  501  0.00000000000E+00  0.00000000000E+00  0.81211093051E+02  0.81211093207E+02  0.50400001928E-02 0. -1.
        1   -1    0    0  501    0  0.00000000000E+00  0.00000000000E+00 -0.11138628523E+04  0.11138628523E+04  0.50400001928E-02 0.  1.
    10030    2    1    2    0    0  0.00000000000E+00  0.00000000000E+00 -0.10326517593E+04  0.11950739455E+04  0.60152479532E+03 0.  0.
        4    1    3    3  502    0  0.37585992780E+02  0.18880837566E+03 -0.97540964562E+03  0.99422678461E+03  0.12699999809E+01 0.  1.
       -4    1    3    3    0  502 -0.37585992780E+02 -0.18880837566E+03 -0.57242113637E+02  0.20084716091E+03  0.12699999809E+01 0. -1.
</event>
<event>
 5   0  0.8207443E-02  0.6009297E+03  0.7818609E-02  0.9903479E-01
        2   -1    0    0  501    0  0.00000000000E+00  0.00000000000E+00  0.31902667053E+03  0.31902667054E+03  0.25500000920E-02 0.  1.
       -2   -1    0    0    0  501  0.00000000000E+00  0.00000000000E+00 -0.28298296327E+03  0.28298296328E+03  0.25500000920E-02 0. -1.
    10030    2    1    2    0    0  0.00000000000E+00  0.00000000000E+00  0.36043707256E+02  0.60200963382E+03  0.60092965510E+03 0.  0.
        1    1    3    3  502    0 -0.89297596936E+02  0.71632881850E+02  0.29632280870E+03  0.31766733789E+03  0.50400001928E-02 0.  1.
       -1    1    3    3    0  502  0.89297596936E+02 -0.71632881850E+02 -0.26027910144E+03  0.28434229593E+03  0.50400001928E-02 0. -1.
</event>
<event>
 5   0  0.8575590E-02  0.5561422E+03  0.7818609E-02  0.1000082E+00
        2   -1    0    0  501    0  0.00000000000E+00  0.00000000000E+00  0.70419869340E+03  0.70419869340E+03  0.25500000920E-02 0. -1.
       -2   -1    0    0    0  501  0.00000000000E+00  0.00000000000E+00 -0.10980357139E+03  0.10980357142E+03  0.25500000920E-02 0.  1.
    10030    2    1    2    0    0  0.00000000000E+00  0.00000000000E+00  0.59439512201E+03  0.81400226482E+03  0.55614218152E+03 0.  0.
        4    1    3    3  502    0 -0.13594319952E+03  0.18862794588E+03  0.73967493664E+02  0.24399561161E+03  0.12699999809E+01 0.  1.
       -4    1    3    3    0  502  0.13594319952E+03 -0.18862794588E+03  0.52042762834E+03  0.57000665321E+03  0.12699999809E+01 0. -1.
</event>
<event>
 5   0  0.5190380E-02  0.6048690E+03  0.7818609E-02  0.9895356E-01
       -1   -1    0    0    0  501  0.00000000000E+00  0.00000000000E+00  0.56392456872E+03  0.56392456874E+03  0.50400001928E-02 0. -1.
        1   -1    0    0  501    0  0.00000000000E+00  0.00000000000E+00 -0.16219654129E+03  0.16219654137E+03  0.50400001928E-02 0.  1.
    10030    2    1    2    0    0  0.00000000000E+00  0.00000000000E+00  0.40172802743E+03  0.72612111011E+03  0.60486895979E+03 0.  0.
        5    1    3    3  502    0 -0.62363686771E+02 -0.27465762277E+03  0.68712562181E+02  0.28994748727E+03  0.46999998093E+01 0. -1.
       -5    1    3    3    0  502  0.62363686771E+02  0.27465762277E+03  0.33301546525E+03  0.43617362284E+03  0.46999998093E+01 0.  1.
</event>
<event>
 5   0  0.8207443E-02  0.5911588E+03  0.7818609E-02  0.9923920E-01
        2   -1    0    0  501    0  0.00000000000E+00  0.00000000000E+00  0.95636245890E+03  0.95636245891E+03  0.25500000920E-02 0.  1.
       -2   -1    0    0    0  501  0.00000000000E+00  0.00000000000E+00 -0.91353630636E+02  0.91353630671E+02  0.25500000920E-02 0. -1.
    10030    2    1    2    0    0  0.00000000000E+00  0.00000000000E+00  0.86500882827E+03  0.10477160896E+04  0.59115880386E+03 0.  0.
        1    1    3    3  502    0 -0.68742192781E+02 -0.43222199917E+02  0.93620678736E+03  0.93972165898E+03  0.50400001928E-02 0.  1.
       -1    1    3    3    0  502  0.68742192781E+02  0.43222199917E+02 -0.71197959097E+02  0.10799443059E+03  0.50400001928E-02 0. -1.
</event>
<event>
 5   0  0.8699746E-02  0.5959442E+03  0.7818609E-02  0.9913856E-01
       -2   -1    0    0    0  501  0.00000000000E+00  0.00000000000E+00  0.15793950918E+03  0.15793950920E+03  0.25500000920E-02 0.  1.
        2   -1    0    0  501    0  0.00000000000E+00  0.00000000000E+00 -0.56216058405E+03  0.56216058406E+03  0.25500000920E-02 0. -1.
    10030    2    1    2    0    0  0.00000000000E+00  0.00000000000E+00 -0.40422107487E+03  0.72010009326E+03  0.59594418106E+03 0.  0.
        3    1    3    3  502    0  0.18913089395E+03  0.22869865558E+03 -0.16982772036E+03  0.34192840612E+03  0.10100000352E+00 0.  1.
       -3    1    3    3    0  502 -0.18913089395E+03 -0.22869865558E+03 -0.23439335451E+03  0.37817168713E+03  0.10100000352E+00 0. -1.
</event>
<event>
 5   0  0.5125031E-02  0.5972356E+03  0.7818609E-02  0.9911158E-01
        1   -1    0    0  501    0  0.00000000000E+00  0.00000000000E+00  0.12167502322E+03  0.12167502332E+03  0.50400001928E-02 0. -1.
       -1   -1    0    0    0  501  0.00000000000E+00  0.00000000000E+00 -0.73287512824E+03  0.73287512826E+03  0.50400001928E-02 0.  1.
    10030    2    1    2    0    0  0.00000000000E+00  0.00000000000E+00 -0.61120010502E+03  0.85455015158E+03  0.59723562619E+03 0.  0.
        4    1    3    3  502    0  0.19010182898E+03  0.22239833655E+03 -0.39110723156E+03  0.48843239549E+03  0.12699999809E+01 0.  1.
       -4    1    3    3    0  502 -0.19010182898E+03 -0.22239833655E+03 -0.22009287346E+03  0.36611775609E+03  0.12699999809E+01 0. -1.
</event>
<event>
 5   0  0.5125031E-02  0.6019139E+03  0.7818609E-02  0.9901443E-01
        1   -1    0    0  501    0  0.00000000000E+00  0.00000000000E+00  0.56451111997E+03  0.56451111999E+03  0.50400001928E-02 0.  1.
       -1   -1    0    0    0  501  0.00000000000E+00  0.00000000000E+00 -0.16044869385E+03  0.16044869393E+03  0.50400001928E-02 0. -1.
    10030    2    1    2    0    0  0.00000000000E+00  0.00000000000E+00  0.40406242612E+03  0.72495981392E+03  0.60191385396E+03 0.  0.
        4    1    3    3  502    0  0.16855051810E+03  0.16128498257E+03  0.43103452917E+03  0.49011682382E+03  0.12699999809E+01 0.  1.
       -4    1    3    3    0  502 -0.16855051810E+03 -0.16128498257E+03 -0.26972103050E+02  0.23484299010E+03  0.12699999809E+01 0. -1.
</event>
<event>
 5   0  0.4987389E-02  0.5875632E+03  0.7818609E-02  0.9931550E-01
        1   -1    0    0  501    0  0.00000000000E+00  0.00000000000E+00  0.32644648552E+03  0.32644648556E+03  0.50400001928E-02 0.  1.
       -1   -1    0    0    0  501  0.00000000000E+00  0.00000000000E+00 -0.26438526389E+03  0.26438526394E+03  0.50400001928E-02 0. -1.
    10030    2    1    2    0    0  0.00000000000E+00  0.00000000000E+00  0.62061221634E+02  0.59083174950E+03  0.58756323999E+03 0.  0.
        1    1    3    3  502    0  0.15007062977E+03  0.12651051678E+03  0.25083646688E+03  0.31850437661E+03  0.50400001928E-02 0.  1.
       -1    1    3    3    0  502 -0.15007062977E+03 -0.12651051678E+03 -0.18877524525E+03  0.27232737289E+03  0.50400001928E-02 0. -1.
</event>
<event>
 5   0  0.4881209E-02  0.6045477E+03  0.7818609E-02  0.9896016E-01
       -1   -1    0    0    0  501  0.00000000000E+00  0.00000000000E+00  0.19999728094E+03  0.19999728100E+03  0.50400001928E-02 0. -1.
        1   -1    0    0  501    0  0.00000000000E+00  0.00000000000E+00 -0.45685358200E+03  0.45685358203E+03  0.50400001928E-02 0.  1.
    10030    2    1    2    0    0  0.00000000000E+00  0.00000000000E+00 -0.25685630106E+03  0.65685086303E+03  0.60454767957E+03 0.  0.
        3    1    3    3  502    0 -0.11675417842E+03 -0.22714349031E+03  0.47251009269E+02  0.25972749459E+03  0.10100000352E+00 0. -1.
       -3    1    3    3    0  502  0.11675417842E+03  0.22714349031E+03 -0.30410731033E+03  0.39712336844E+03  0.10100000352E+00 0.  1.
</event>
<event>
 5   0  0.3437375E-02  0.6048789E+03  0.7818609E-02  0.9895335E-01
       -3   -1    0    0    0  501  0.00000000000E+00  0.00000000000E+00  0.10160062988E+03  0.10160068009E+03  0.10100000352E+00 0. -1.
        3   -1    0    0  501    0  0.00000000000E+00  0.00000000000E+00 -0.90028577185E+03  0.90028577752E+03  0.10100000352E+00 0.  1.
    10030    2    1    2    0    0  0.00000000000E+00  0.00000000000E+00 -0.79868514197E+03  0.10018864576E+04  0.60487892832E+03 0.  0.
        1    1    3    3  502    0  0.17199301167E+03 -0.23737613850E+03 -0.52263276567E+03  0.59922786565E+03  0.50400001928E-02 0. -1.
       -1    1    3    3    0  502 -0.17199301167E+03  0.23737613850E+03 -0.27605237629E+03  0.40265859195E+03  0.50400001928E-02 0.  1.
</event>
<event>
 5   0  0.5190380E-02  0.5999503E+03  0.7818609E-02  0.9905509E-01
        1   -1    0    0  501    0  0.00000000000E+00  0.00000000000E+00  0.25150777673E+03  0.25150777678E+03  0.50400001928E-02 0. -1.
       -1   -1    0    0    0  501  0.00000000000E+00  0.00000000000E+00 -0.35778250616E+03  0.35778250620E+03  0.50400001928E-02 0.  1.
    10030    2    1    2    0    0  0.00000000000E+00  0.00000000000E+00 -0.10627472943E+03  0.60929028298E+03  0.59995027362E+03 0.  0.
        5    1    3    3  502    0  0.18485237319E+03  0.23388479011E+03 -0.19600582530E+02  0.29879552834E+03  0.46999998093E+01 0. -1.
       -5    1    3    3    0  502 -0.18485237319E+03 -0.23388479011E+03 -0.86674146899E+02  0.31049475464E+03  0.46999998093E+01 0.  1.
</event>
<event>
 5   0  0.4881209E-02  0.5927956E+03  0.7818609E-02  0.9920467E-01
       -1   -1    0    0    0  501  0.00000000000E+00  0.00000000000E+00  0.58449270632E+02  0.58449270849E+02  0.50400001928E-02 0. -1.
        1   -1    0    0  501    0  0.00000000000E+00  0.00000000000E+00 -0.15030412849E+04  0.15030412850E+04  0.50400001928E-02 0.  1.
    10030    2    1    2    0    0  0.00000000000E+00  0.00000000000E+00 -0.14445920143E+04  0.15614905558E+04  0.59279563767E+03 0.  0.
        3    1    3    3  502    0 -0.42306673613E+02 -0.20039777899E+03 -0.12866514079E+04  0.13028510967E+04  0.10100000352E+00 0.  1.
       -3    1    3    3    0  502  0.42306673613E+02  0.20039777899E+03 -0.15794060638E+03  0.25863945909E+03  0.10100000352E+00 0. -1.
</event>
<event>
 5   0  0.8575590E-02  0.6286452E+03  0.7818609E-02  0.9847696E-01
        2   -1    0    0  501    0  0.00000000000E+00  0.00000000000E+00  0.10151443518E+04  0.10151443518E+04  0.25500000920E-02 0.  1.
       -2   -1    0    0    0  501  0.00000000000E+00  0.00000000000E+00 -0.97324789809E+02  0.97324789842E+02  0.25500000920E-02 0. -1.
    10030    2    1    2    0    0  0.00000000000E+00  0.00000000000E+00  0.91781956202E+03  0.11124691417E+04  0.62864524396E+03 0.  0.
        4    1    3    3  502    0  0.19898019602E+02  0.12688100365E+03 -0.48768435918E+02  0.13738520122E+03  0.12699999809E+01 0. -1.
       -4    1    3    3    0  502 -0.19898019602E+02 -0.12688100365E+03  0.96658799794E+03  0.97508394046E+03  0.12699999809E+01 0.  1.
</event>
<event>
 5   0  0.8207443E-02  0.5964354E+03  0.7818609E-02  0.9912829E-01
        2   -1    0    0  501    0  0.00000000000E+00  0.00000000000E+00  0.13439522764E+03  0.13439522767E+03  0.25500000920E-02 0. -1.
       -2   -1    0    0    0  501  0.00000000000E+00  0.00000000000E+00 -0.66173323228E+03  0.66173323229E+03  0.25500000920E-02 0.  1.
    10030    2    1    2    0    0  0.00000000000E+00  0.00000000000E+00 -0.52733800464E+03  0.79612845995E+03  0.59643537253E+03 0.  0.
        1    1    3    3  502    0  0.28952703463E+03 -0.28332756167E+02 -0.35125070274E+03  0.45607642457E+03  0.50400001928E-02 0. -1.
       -1    1    3    3    0  502 -0.28952703463E+03  0.28332756167E+02 -0.17608730190E+03  0.34005203538E+03  0.50400001928E-02 0.  1.
</event>
<event>
 5   0  0.5166903E-02  0.6026810E+03  0.7818609E-02  0.9899859E-01
       -1   -1    0    0    0  501  0.00000000000E+00  0.00000000000E+00  0.98857662217E+02  0.98857662345E+02  0.50400001928E-02 0. -1.
        1   -1    0    0  501    0  0.00000000000E+00  0.00000000000E+00 -0.91855391590E+03  0.91855391591E+03  0.50400001928E-02 0.  1.
    10030    2    1    2    0    0  0.00000000000E+00  0.00000000000E+00 -0.81969625368E+03  0.10174115783E+04  0.60268098632E+03 0.  0.
        2    1    3    3  502    0  0.20482686362E+03 -0.21814248538E+03 -0.46991149924E+03  0.55709694408E+03  0.25500000920E-02 0.  1.
       -2    1    3    3    0  502 -0.20482686362E+03  0.21814248538E+03 -0.34978475444E+03  0.46031463417E+03  0.25500000920E-02 0. -1.
</event>
<event>
 5   0  0.8817544E-02  0.6038676E+03  0.7818609E-02  0.9897414E-01
        2   -1    0    0  501    0  0.00000000000E+00  0.00000000000E+00  0.70827695795E+03  0.70827695796E+03  0.25500000920E-02 0. -1.
       -2   -1    0    0    0  501  0.00000000000E+00  0.00000000000E+00 -0.12871239742E+03  0.12871239745E+03  0.25500000920E-02 0.  1.
    10030    2    1    2    0    0  0.00000000000E+00  0.00000000000E+00  0.57956456053E+03  0.83698935540E+03  0.60386761896E+03 0.  0.
        5    1    3    3  502    0 -0.14307331273E+03 -0.14828087933E+03  0.59560844254E+03  0.63026081809E+03  0.46999998093E+01 0. -1.
       -5    1    3    3    0  502  0.14307331273E+03  0.14828087933E+03 -0.16043882010E+02  0.20672853731E+03  0.46999998093E+01 0.  1.
</event>
<event>
 5   0  0.3437375E-02  0.6088248E+03  0.7818609E-02  0.9887265E-01
        3   -1    0    0  501    0  0.00000000000E+00  0.00000000000E+00  0.19351277394E+03  0.19351280030E+03  0.10100000352E+00 0. -1.
       -3   -1    0    0    0  501  0.00000000000E+00  0.00000000000E+00 -0.47886710198E+03  0.47886711263E+03  0.10100000352E+00 0.  1.
    10030    2    1    2    0    0  0.00000000000E+00  0.00000000000E+00 -0.28535432804E+03  0.67237991292E+03  0.60882481452E+03 0.  0.
        1    1    3    3  502    0  0.10688983193E+03  0.17584857467E+03 -0.39041214493E+03  0.44132731653E+03  0.50400001928E-02 0.  1.
       -1    1    3    3    0  502 -0.10688983193E+03 -0.17584857467E+03  0.10505781689E+03  0.23105259639E+03  0.50400001928E-02 0. -1.
</event>
<event>
 5   0  0.3437375E-02  0.5967929E+03  0.7818609E-02  0.9912082E-01
       -3   -1    0    0    0  501  0.00000000000E+00  0.00000000000E+00  0.63620705450E+03  0.63620706251E+03  0.10100000352E+00 0.  1.
        3   -1    0    0  501    0  0.00000000000E+00  0.00000000000E+00 -0.13995510491E+03  0.13995514135E+03  0.10100000352E+00 0. -1.
    10030    2    1    2    0    0  0.00000000000E+00  0.00000000000E+00  0.49625194959E+03  0.77616220387E+03  0.59679290314E+03 0.  0.
        1    1    3    3  502    0  0.23645837234E+03  0.16659759162E+03  0.15279320138E+03  0.32712854017E+03  0.50400001928E-02 0. -1.
       -1    1    3    3    0  502 -0.23645837234E+03 -0.16659759162E+03  0.34345874821E+03  0.44903366369E+03  0.50400001928E-02 0.  1.
</event>
<event>
 5   0  0.5166903E-02  0.5909889E+03  0.7818609E-02  0.9924280E-01
        1   -1    0    0  501    0  0.00000000000E+00  0.00000000000E+00  0.31908758104E+03  0.31908758108E+03  0.50400001928E-02 0. -1.
       -1   -1    0    0    0  501  0.00000000000E+00  0.00000000000E+00 -0.27364580609E+03  0.27364580613E+03  0.50400001928E-02 0.  1.
    10030    2    1    2    0    0  0.00000000000E+00  0.00000000000E+00  0.45441774955E+02  0.59273338721E+03  0.59098892833E+03 0.  0.
        2    1    3    3  502    0  0.83319827619E+02  0.17326086718E+02  0.30653070303E+03  0.31812491079E+03  0.25500000920E-02 0. -1.
       -2    1    3    3    0  502 -0.83319827619E+02 -0.17326086718E+02 -0.26108892808E+03  0.27460847643E+03  0.25500000920E-02 0.  1.
</event>
<event>
 5   0  0.8420604E-02  0.6060194E+03  0.7818609E-02  0.9892996E-01
        2   -1    0    0  501    0  0.00000000000E+00  0.00000000000E+00  0.68073529955E+03  0.68073529956E+03  0.25500000920E-02 0.  1.
       -2   -1    0    0    0  501  0.00000000000E+00  0.00000000000E+00 -0.13487604636E+03  0.13487604638E+03  0.25500000920E-02 0. -1.
    10030    2    1    2    0    0  0.00000000000E+00  0.00000000000E+00  0.54585925319E+03  0.81561134594E+03  0.60601942488E+03 0.  0.
        2    1    3    3  502    0  0.23079321123E+03  0.12952268892E+03  0.74339172662E+02  0.27489624569E+03  0.25500000920E-02 0. -1.
       -2    1    3    3    0  502 -0.23079321123E+03 -0.12952268892E+03  0.47152008053E+03  0.54071510026E+03  0.25500000920E-02 0.  1.
</event>
<event>
 5   0  0.8699746E-02  0.6008663E+03  0.7818609E-02  0.9903610E-01
       -2   -1    0    0    0  501  0.00000000000E+00  0.00000000000E+00  0.37582198307E+03  0.37582198308E+03  0.25500000920E-02 0. -1.
        2   -1    0    0  501    0  0.00000000000E+00  0.00000000000E+00 -0.24016707058E+03  0.24016707060E+03  0.25500000920E-02 0.  1.
    10030    2    1    2    0    0  0.00000000000E+00  0.00000000000E+00  0.13565491249E+03  0.61598905368E+03  0.60086625714E+03 0.  0.
        3    1    3    3  502    0 -0.24077397862E+03 -0.17907948691E+03  0.52674264076E+02  0.30465744651E+03  0.10100000352E+00 0. -1.
       -3    1    3    3    0  502  0.24077397862E+03  0.17907948691E+03  0.82980648412E+02  0.31133160717E+03  0.10100000352E+00 0.  1.
</event>
<event>
 5   0  0.5190380E-02  0.6083934E+03  0.7818609E-02  0.9888144E-01
       -1   -1    0    0    0  501  0.00000000000E+00  0.00000000000E+00  0.81418599033E+03  0.81418599035E+03  0.50400001928E-02 0.  1.
        1   -1    0    0  501    0  0.00000000000E+00  0.00000000000E+00 -0.11365416389E+03  0.11365416400E+03  0.50400001928E-02 0. -1.
    10030    2    1    2    0    0  0.00000000000E+00  0.00000000000E+00  0.70053182644E+03  0.92784015435E+03  0.60839338603E+03 0.  0.
        5    1    3    3  502    0  0.25608533218E+03 -0.15973534036E+03  0.29282815374E+03  0.42055379434E+03  0.46999998093E+01 0. -1.
       -5    1    3    3    0  502 -0.25608533218E+03  0.15973534036E+03  0.40770367270E+03  0.50728636001E+03  0.46999998093E+01 0.  1.
</event>
<event>
 5   0  0.8207443E-02  0.6134424E+03  0.7818609E-02  0.9877903E-01
       -2   -1    0    0    0  501  0.00000000000E+00  0.00000000000E+00  0.14354024514E+03  0.14354024517E+03  0.25500000920E-02 0. -1.
        2   -1    0    0  501    0  0.00000000000E+00  0.00000000000E+00 -0.65541120582E+03  0.65541120582E+03  0.25500000920E-02 0.  1.
    10030    2    1    2    0    0  0.00000000000E+00  0.00000000000E+00 -0.51187096067E+03  0.79895145099E+03  0.61344236946E+03 0.  0.
        1    1    3    3  502    0  0.26518898415E+03  0.20876982447E+02 -0.57059899025E+02  0.27206043044E+03  0.50400001928E-02 0. -1.
       -1    1    3    3    0  502 -0.26518898415E+03 -0.20876982447E+02 -0.45481106165E+03  0.52689102055E+03  0.50400001928E-02 0.  1.
</event>
<event>
 5   0  0.8575590E-02  0.6158924E+03  0.7818609E-02  0.9872972E-01
       -2   -1    0    0    0  501  0.00000000000E+00  0.00000000000E+00  0.56034301575E+02  0.56034301634E+02  0.25500000920E-02 0. -1.
        2   -1    0    0  501    0  0.00000000000E+00  0.00000000000E+00 -0.16923717788E+04  0.16923717788E+04  0.25500000920E-02 0.  1.
    10030    2    1    2    0    0  0.00000000000E+00  0.00000000000E+00 -0.16363374772E+04  0.17484060804E+04  0.61589242789E+03 0.  0.
        4    1    3    3  502    0 -0.15313065726E+03 -0.63703358193E+02 -0.15547427736E+04  0.15635644601E+04  0.12699999809E+01 0.  1.
       -4    1    3    3    0  502  0.15313065726E+03  0.63703358193E+02 -0.81594703634E+02  0.18484162031E+03  0.12699999809E+01 0. -1.
</event>
<event>
 5   0  0.5190380E-02  0.6021353E+03  0.7818609E-02  0.9900986E-01
        1   -1    0    0  501    0  0.00000000000E+00  0.00000000000E+00  0.37736458242E+03  0.37736458246E+03  0.50400001928E-02 0.  1.
       -1   -1    0    0    0  501  0.00000000000E+00  0.00000000000E+00 -0.24019668048E+03  0.24019668053E+03  0.50400001928E-02 0. -1.
    10030    2    1    2    0    0  0.00000000000E+00  0.00000000000E+00  0.13716790194E+03  0.61756126299E+03  0.60213526738E+03 0.  0.
        5    1    3    3  502    0 -0.10017328682E+03 -0.26947878447E+03 -0.22955774434E+02  0.28844854004E+03  0.46999998093E+01 0. -1.
       -5    1    3    3    0  502  0.10017328682E+03  0.26947878447E+03  0.16012367638E+03  0.32911272295E+03  0.46999998093E+01 0.  1.
</event>
<event>
 5   0  0.5166903E-02  0.5753473E+03  0.7818609E-02  0.9957915E-01
        1   -1    0    0  501    0  0.00000000000E+00  0.00000000000E+00  0.82645916863E+03  0.82645916864E+03  0.50400001928E-02 0.  1.
       -1   -1    0    0    0  501  0.00000000000E+00  0.00000000000E+00 -0.10013337121E+03  0.10013337133E+03  0.50400001928E-02 0. -1.
    10030    2    1    2    0    0  0.00000000000E+00  0.00000000000E+00  0.72632579742E+03  0.92659253997E+03  0.57534734825E+03 0.  0.
        2    1    3    3  502    0 -0.18331155376E+02  0.22448387646E+03  0.74947290335E+02  0.23737341549E+03  0.25500000920E-02 0.  1.
       -2    1    3    3    0  502  0.18331155376E+02 -0.22448387646E+03  0.65137850709E+03  0.68921912448E+03  0.25500000920E-02 0. -1.
</event>
<event>
 5   0  0.5190380E-02  0.6061348E+03  0.7818609E-02  0.9892760E-01
        1   -1    0    0  501    0  0.00000000000E+00  0.00000000000E+00  0.11583400494E+03  0.11583400505E+03  0.50400001928E-02 0. -1.
       -1   -1    0    0    0  501  0.00000000000E+00  0.00000000000E+00 -0.79294361266E+03  0.79294361268E+03  0.50400001928E-02 0.  1.
    10030    2    1    2    0    0  0.00000000000E+00  0.00000000000E+00 -0.67710960772E+03  0.90877761773E+03  0.60613475203E+03 0.  0.
        5    1    3    3  502    0 -0.40503127091E+02 -0.29131570329E+03 -0.44793590207E+03  0.53588618628E+03  0.46999998093E+01 0.  1.
       -5    1    3    3    0  502  0.40503127091E+02  0.29131570329E+03 -0.22917370565E+03  0.37289143145E+03  0.46999998093E+01 0. -1.
</event>
<event>
 5   0  0.8699746E-02  0.6084075E+03  0.7818609E-02  0.9888115E-01
       -2   -1    0    0    0  501  0.00000000000E+00  0.00000000000E+00  0.69231163430E+02  0.69231163477E+02  0.25500000920E-02 0. -1.
        2   -1    0    0  501    0  0.00000000000E+00  0.00000000000E+00 -0.13366800287E+04  0.13366800287E+04  0.25500000920E-02 0.  1.
    10030    2    1    2    0    0  0.00000000000E+00  0.00000000000E+00 -0.12674488653E+04  0.14059111922E+04  0.60840747385E+03 0.  0.
        3    1    3    3  502    0  0.16437625096E+03 -0.17737804594E+03 -0.10601752659E+04  0.10874070662E+04  0.10100000352E+00 0.  1.
       -3    1    3    3    0  502 -0.16437625096E+03  0.17737804594E+03 -0.20727359943E+03  0.31850412601E+03  0.10100000352E+00 0. -1.
</event>
<event>
 5   0  0.8420604E-02  0.6090421E+03  0.7818609E-02  0.9886822E-01
        2   -1    0    0  501    0  0.00000000000E+00  0.00000000000E+00  0.10583274164E+04  0.10583274164E+04  0.25500000920E-02 0. -1.
       -2   -1    0    0    0  501  0.00000000000E+00  0.00000000000E+00 -0.87622276157E+02  0.87622276194E+02  0.25500000920E-02 0.  1.
    10030    2    1    2    0    0  0.00000000000E+00  0.00000000000E+00  0.97070514020E+03  0.11459496926E+04  0.60904205820E+03 0.  0.
        2    1    3    3  502    0  0.17753092918E+03 -0.16883734464E+03  0.82564874095E+03  0.86123116711E+03  0.25500000920E-02 0. -1.
       -2    1    3    3    0  502 -0.17753092918E+03  0.16883734464E+03  0.14505639925E+03  0.28471852545E+03  0.25500000920E-02 0.  1.
</event>
<event>
 5   0  0.8817544E-02  0.6141802E+03  0.7818609E-02  0.9876416E-01
       -2   -1    0    0    0  501  0.00000000000E+00  0.00000000000E+00  0.17570016367E+03  0.17570016368E+03  0.25500000920E-02 0. -1.
        2   -1    0    0  501    0  0.00000000000E+00  0.00000000000E+00 -0.53673436179E+03  0.53673436180E+03  0.25500000920E-02 0.  1.
    10030    2    1    2    0    0  0.00000000000E+00  0.00000000000E+00 -0.36103419812E+03  0.71243452548E+03  0.61418015344E+03 0.  0.
        5    1    3    3  502    0 -0.22515778011E+03  0.10310889366E+03 -0.39109278544E+03  0.46292885708E+03  0.46999998093E+01 0. -1.
       -5    1    3    3    0  502  0.22515778011E+03 -0.10310889366E+03  0.30058587311E+02  0.24950566840E+03  0.46999998093E+01 0.  1.
</event>
<event>
 5   0  0.3437375E-02  0.5887838E+03  0.7818609E-02  0.9928953E-01
       -3   -1    0    0    0  501  0.00000000000E+00  0.00000000000E+00  0.13210008215E+03  0.13210012076E+03  0.10100000352E+00 0. -1.
        3   -1    0    0  501    0  0.00000000000E+00  0.00000000000E+00 -0.65606744382E+03  0.65606745160E+03  0.10100000352E+00 0.  1.
    10030    2    1    2    0    0  0.00000000000E+00  0.00000000000E+00 -0.52396736167E+03  0.78816757236E+03  0.58878376848E+03 0.  0.
        3    1    3    3  502    0 -0.89069589391E+02  0.22868080717E+03 -0.47964398610E+03  0.53878257853E+03  0.10100000352E+00 0.  1.
       -3    1    3    3    0  502  0.89069589391E+02 -0.22868080717E+03 -0.44323375568E+02  0.24938499383E+03  0.10100000352E+00 0. -1.
</event>
<event>
 5   0  0.5125031E-02  0.6014876E+03  0.7818609E-02  0.9902324E-01
        1   -1    0    0  501    0  0.00000000000E+00  0.00000000000E+00  0.45707400423E+03  0.45707400426E+03  0.50400001928E-02 0.  1.
       -1   -1    0    0    0  501  0.00000000000E+00  0.00000000000E+00 -0.19788228335E+03  0.19788228341E+03  0.50400001928E-02 0. -1.
    10030    2    1    2    0    0  0.00000000000E+00  0.00000000000E+00  0.25919172088E+03  0.65495628767E+03  0.60148764790E+03 0.  0.
        4    1    3    3  502    0 -0.19112797141E+03 -0.11466082933E+02 -0.12293333528E+03  0.22754250226E+03  0.12699999809E+01 0. -1.
       -4    1    3    3    0  502  0.19112797141E+03  0.11466082933E+02  0.38212505616E+03  0.42741378541E+03  0.12699999809E+01 0.  1.
</event>
<event>
 5   0  0.4987389E-02  0.6065275E+03  0.7818609E-02  0.9891955E-01
        1   -1    0    0  501    0  0.00000000000E+00  0.00000000000E+00  0.80103758773E+03  0.80103758775E+03  0.50400001928E-02 0. -1.
       -1   -1    0    0    0  501  0.00000000000E+00  0.00000000000E+00 -0.11481221824E+03  0.11481221835E+03  0.50400001928E-02 0.  1.
    10030    2    1    2    0    0  0.00000000000E+00  0.00000000000E+00  0.68622536949E+03  0.91584980610E+03  0.60652750111E+03 0.  0.
        1    1    3    3  502    0 -0.68377949068E+02 -0.28706025760E+03  0.23752388786E+03  0.37880962599E+03  0.50400001928E-02 0. -1.
       -1    1    3    3    0  502  0.68377949068E+02  0.28706025760E+03  0.44870148163E+03  0.53704018011E+03  0.50400001928E-02 0.  1.
</event>
<event>
 5   0  0.8420604E-02  0.6003239E+03  0.7818609E-02  0.9904734E-01
        2   -1    0    0  501    0  0.00000000000E+00  0.00000000000E+00  0.10067452187E+04  0.10067452187E+04  0.25500000920E-02 0. -1.
       -2   -1    0    0    0  501  0.00000000000E+00  0.00000000000E+00 -0.89493533336E+02  0.89493533373E+02  0.25500000920E-02 0.  1.
    10030    2    1    2    0    0  0.00000000000E+00  0.00000000000E+00  0.91725168532E+03  0.10962387520E+04  0.60032386862E+03 0.  0.
        2    1    3    3  502    0 -0.19818642978E+03 -0.22313371250E+03  0.40000125243E+03  0.49906664541E+03  0.25500000920E-02 0. -1.
       -2    1    3    3    0  502  0.19818642978E+03  0.22313371250E+03  0.51725043288E+03  0.59717210662E+03  0.25500000920E-02 0.  1.
</event>
<event>
 5   0  0.5190380E-02  0.6029724E+03  0.7818609E-02  0.9899258E-01
        1   -1    0    0  501    0  0.00000000000E+00  0.00000000000E+00  0.44568828395E+03  0.44568828398E+03  0.50400001928E-02 0.  1.
       -1   -1    0    0    0  501  0.00000000000E+00  0.00000000000E+00 -0.20394056673E+03  0.20394056680E+03  0.50400001928E-02 0. -1.
    10030    2    1    2    0    0  0.00000000000E+00  0.00000000000E+00  0.24174771722E+03  0.64962885078E+03  0.60297237498E+03 0.  0.
        5    1    3    3  502    0 -0.92327448636E+01 -0.90368203621E+02 -0.18880456324E+03  0.20957315883E+03  0.46999998093E+01 0. -1.
       -5    1    3    3    0  502  0.92327448636E+01  0.90368203621E+02  0.43055228046E+03  0.44005569195E+03  0.46999998093E+01 0.  1.
</event>
<event>
 5   0  0.5125031E-02  0.5944783E+03  0.7818609E-02  0.9916929E-01
        1   -1    0    0  501    0  0.00000000000E+00  0.00000000000E+00  0.12306465178E+04  0.12306465178E+04  0.50400001928E-02 0. -1.
       -1   -1    0    0    0  501  0.00000000000E+00  0.00000000000E+00 -0.71792434345E+02  0.71792434522E+02  0.50400001928E-02 0.  1.
    10030    2    1    2    0    0  0.00000000000E+00  0.00000000000E+00  0.11588540834E+04  0.13024389523E+04  0.59447829044E+03 0.  0.
        4    1    3    3  502    0  0.70275688662E+02 -0.28871409112E+03  0.56317927251E+03  0.63676291091E+03  0.12699999809E+01 0. -1.
       -4    1    3    3    0  502 -0.70275688662E+02  0.28871409112E+03  0.59567481093E+03  0.66567604140E+03  0.12699999809E+01 0.  1.
</event>
<event>
 5   0  0.8575590E-02  0.5976754E+03  0.7818609E-02  0.9910241E-01
       -2   -1    0    0    0  501  0.00000000000E+00  0.00000000000E+00  0.67517388698E+03  0.67517388699E+03  0.25500000920E-02 0.  1.
        2   -1    0    0  501    0  0.00000000000E+00  0.00000000000E+00 -0.13226812709E+03  0.13226812712E+03  0.25500000920E-02 0. -1.
    10030    2    1    2    0    0  0.00000000000E+00  0.00000000000E+00  0.54290575989E+03  0.80744201410E+03  0.59767544873E+03 0.  0.
        4    1    3    3  502    0 -0.19465593754E+03  0.22640934082E+03  0.28801255034E+03  0.41485535513E+03  0.12699999809E+01 0.  1.
       -4    1    3    3    0  502  0.19465593754E+03 -0.22640934082E+03  0.25489320955E+03  0.39258665898E+03  0.12699999809E+01 0. -1.
</event>
<event>
 5   0  0.5190380E-02  0.6237337E+03  0.7818609E-02  0.9857354E-01
       -1   -1    0    0    0  501  0.00000000000E+00  0.00000000000E+00  0.47988462237E+03  0.47988462239E+03  0.50400001928E-02 0.  1.
        1   -1    0    0  501    0  0.00000000000E+00  0.00000000000E+00 -0.20267563193E+03  0.20267563199E+03  0.50400001928E-02 0. -1.
    10030    2    1    2    0    0  0.00000000000E+00  0.00000000000E+00  0.27720899044E+03  0.68256025439E+03  0.62373365830E+03 0.  0.
        5    1    3    3  502    0 -0.26427482356E+03 -0.16175424406E+03  0.10017536453E+03  0.32567285963E+03  0.46999998093E+01 0.  1.
       -5    1    3    3    0  502  0.26427482356E+03  0.16175424406E+03  0.17703362590E+03  0.35688739476E+03  0.46999998093E+01 0. -1.
</event>
<event>
 5   0  0.8699746E-02  0.6057192E+03  0.7818609E-02  0.9893611E-01
        2   -1    0    0  501    0  0.00000000000E+00  0.00000000000E+00  0.92238113063E+03  0.92238113063E+03  0.25500000920E-02 0.  1.
       -2   -1    0    0    0  501  0.00000000000E+00  0.00000000000E+00 -0.99442565872E+02  0.99442565905E+02  0.25500000920E-02 0. -1.
    10030    2    1    2    0    0  0.00000000000E+00  0.00000000000E+00  0.82293856476E+03  0.10218236965E+04  0.60571922988E+03 0.  0.
        3    1    3    3  502    0 -0.14357371729E+03  0.24550299470E+03  0.23584066639E+03  0.36946713363E+03  0.10100000352E+00 0. -1.
       -3    1    3    3    0  502  0.14357371729E+03 -0.24550299470E+03  0.58709789836E+03  0.65235656291E+03  0.10100000352E+00 0.  1.
</event>
<event>
 5   0  0.8207443E-02  0.5791851E+03  0.7818609E-02  0.9949557E-01
       -2   -1    0    0    0  501  0.00000000000E+00  0.00000000000E+00  0.26293781659E+03  0.26293781661E+03  0.25500000920E-02 0. -1.
        2   -1    0    0  501    0  0.00000000000E+00  0.00000000000E+00 -0.31894932700E+03  0.31894932701E+03  0.25500000920E-02 0.  1.
    10030    2    1    2    0    0  0.00000000000E+00  0.00000000000E+00 -0.56011510407E+02  0.58188714362E+03  0.57918508148E+03 0.  0.
        1    1    3    3  502    0  0.25356698996E+03  0.84682864620E+02  0.83852946793E+02  0.28017623502E+03  0.50400001928E-02 0. -1.
       -1    1    3    3    0  502 -0.25356698996E+03 -0.84682864620E+02 -0.13986445720E+03  0.30171090860E+03  0.50400001928E-02 0.  1.
</event>
<event>
 5   0  0.4987389E-02  0.5990338E+03  0.7818609E-02  0.9907413E-01
        1   -1    0    0  501    0  0.00000000000E+00  0.00000000000E+00  0.33518266554E+03  0.33518266558E+03  0.50400001928E-02 0. -1.
       -1   -1    0    0    0  501  0.00000000000E+00  0.00000000000E+00 -0.26764620144E+03  0.26764620148E+03  0.50400001928E-02 0.  1.
    10030    2    1    2    0    0  0.00000000000E+00  0.00000000000E+00  0.67536464105E+02  0.60282886706E+03  0.59903377950E+03 0.  0.
        1    1    3    3  502    0  0.20519797425E+03  0.13514139971E+03 -0.13860899590E+03  0.28210257057E+03  0.50400001928E-02 0.  1.
       -1    1    3    3    0  502 -0.20519797425E+03 -0.13514139971E+03  0.20614546001E+03  0.32072629649E+03  0.50400001928E-02 0. -1.
</event>
<event>
 5   0  0.3437375E-02  0.6027282E+03  0.7818609E-02  0.9899762E-01
       -3   -1    0    0    0  501  0.00000000000E+00  0.00000000000E+00  0.19857128916E+03  0.19857131485E+03  0.10100000352E+00 0. -1.
        3   -1    0    0  501    0  0.00000000000E+00  0.00000000000E+00 -0.45736879839E+03  0.45736880954E+03  0.10100000352E+00 0.  1.
    10030    2    1    2    0    0  0.00000000000E+00  0.00000000000E+00 -0.25879750922E+03  0.65594012439E+03  0.60272821073E+03 0.  0.
        2    1    3    3  502    0  0.72584288964E+02 -0.22323310293E+03  0.76280870159E+02  0.24682031604E+03  0.25500000920E-02 0. -1.
       -2    1    3    3    0  502 -0.72584288964E+02  0.22323310293E+03 -0.33507837938E+03  0.40911980835E+03  0.25500000920E-02 0.  1.
</event>
<event>
 5   0  0.5166903E-02  0.5978270E+03  0.7818609E-02  0.9909925E-01
        1   -1    0    0  501    0  0.00000000000E+00  0.00000000000E+00  0.80703623387E+03  0.80703623389E+03  0.50400001928E-02 0.  1.
       -1   -1    0    0    0  501  0.00000000000E+00  0.00000000000E+00 -0.11071283252E+03  0.11071283263E+03  0.50400001928E-02 0. -1.
    10030    2    1    2    0    0  0.00000000000E+00  0.00000000000E+00  0.69632340136E+03  0.91774906652E+03  0.59782695642E+03 0.  0.
        2    1    3    3  502    0  0.24901363631E+03 -0.11766237284E+03  0.16981389772E+03  0.32355677233E+03  0.25500000920E-02 0. -1.
       -2    1    3    3    0  502 -0.24901363631E+03  0.11766237284E+03  0.52650950363E+03  0.59419229419E+03  0.25500000920E-02 0.  1.
</event>
<event>
 5   0  0.5125031E-02  0.5898459E+03  0.7818609E-02  0.9926699E-01
        1   -1    0    0  501    0  0.00000000000E+00  0.00000000000E+00  0.40452171265E+03  0.40452171269E+03  0.50400001928E-02 0. -1.
       -1   -1    0    0    0  501  0.00000000000E+00  0.00000000000E+00 -0.21501824699E+03  0.21501824705E+03  0.50400001928E-02 0.  1.
    10030    2    1    2    0    0  0.00000000000E+00  0.00000000000E+00  0.18950346566E+03  0.61953995974E+03  0.58984591057E+03 0.  0.
        4    1    3    3  502    0 -0.16450795227E+03  0.24475199908E+03  0.91185324463E+02  0.30867909504E+03  0.12699999809E+01 0.  1.
       -4    1    3    3    0  502  0.16450795227E+03 -0.24475199908E+03  0.98318141198E+02  0.31086086470E+03  0.12699999809E+01 0. -1.
</event>
<event>
 5   0  0.5125031E-02  0.6020038E+03  0.7818609E-02  0.9901257E-01
       -1   -1    0    0    0  501  0.00000000000E+00  0.00000000000E+00  0.10304715999E+03  0.10304716011E+03  0.50400001928E-02 0. -1.
        1   -1    0    0  501    0  0.00000000000E+00  0.00000000000E+00 -0.87923000523E+03  0.87923000525E+03  0.50400001928E-02 0.  1.
    10030    2    1    2    0    0  0.00000000000E+00  0.00000000000E+00 -0.77618284524E+03  0.98227716536E+03  0.60200383748E+03 0.  0.
        4    1    3    3  502    0 -0.50442047100E+01  0.28630189169E+03 -0.53946276409E+03  0.61075027952E+03  0.12699999809E+01 0. -1.
       -4    1    3    3    0  502  0.50442047100E+01 -0.28630189169E+03 -0.23672008115E+03  0.37152688585E+03  0.12699999809E+01 0.  1.
</event>
<event>
 5   0  0.4987389E-02  0.5972444E+03  0.7818609E-02  0.9911140E-01
        1   -1    0    0  501    0  0.00000000000E+00  0.00000000000E+00  0.30371856242E+03  0.30371856246E+03  0.50400001928E-02 0. -1.
       -1   -1    0    0    0  501  0.00000000000E+00  0.00000000000E+00 -0.29361136411E+03  0.29361136415E+03  0.50400001928E-02 0.  1.
    10030    2    1    2    0    0  0.00000000000E+00  0.00000000000E+00  0.10107198311E+02  0.59732992662E+03  0.59724441042E+03 0.  0.
        1    1    3    3  502    0 -0.20719360540E+02  0.58650618584E+02  0.29716738730E+03  0.30360771246E+03  0.50400001928E-02 0. -1.
       -1    1    3    3    0  502  0.20719360540E+02 -0.58650618584E+02 -0.28706018899E+03  0.29372221416E+03  0.50400001928E-02 0.  1.
</event>
<event>
 5   0  0.8817544E-02  0.6111537E+03  0.7818609E-02  0.9882532E-01
       -2   -1    0    0    0  501  0.00000000000E+00  0.00000000000E+00  0.99462421546E+02  0.99462421579E+02  0.25500000920E-02 0.  1.
        2   -1    0    0  501    0  0.00000000000E+00  0.00000000000E+00 -0.93881902987E+03  0.93881902988E+03  0.25500000920E-02 0. -1.
    10030    2    1    2    0    0  0.00000000000E+00  0.00000000000E+00 -0.83935660833E+03  0.10382814515E+04  0.61115370938E+03 0.  0.
        5    1    3    3  502    0 -0.21935363635E+03  0.38497762368E+02 -0.64301927487E+02  0.23185108014E+03  0.46999998093E+01 0.  1.
       -5    1    3    3    0  502  0.21935363635E+03 -0.38497762368E+02 -0.77505468084E+03  0.80643037131E+03  0.46999998093E+01 0. -1.
</event>
<event>
 5   0  0.8420604E-02  0.5557575E+03  0.7818609E-02  0.1000170E+00
        2   -1    0    0  501    0  0.00000000000E+00  0.00000000000E+00  0.12854317177E+03  0.12854317179E+03  0.25500000920E-02 0.  1.
       -2   -1    0    0    0  501  0.00000000000E+00  0.00000000000E+00 -0.60070559940E+03  0.60070559940E+03  0.25500000920E-02 0. -1.
    10030    2    1    2    0    0  0.00000000000E+00  0.00000000000E+00 -0.47216242763E+03  0.72924877120E+03  0.55575751208E+03 0.  0.
        2    1    3    3  502    0  0.17254346511E+03 -0.19063294247E+03 -0.37435461179E+03  0.45415145214E+03  0.25500000920E-02 0. -1.
       -2    1    3    3    0  502 -0.17254346511E+03  0.19063294247E+03 -0.97807815841E+02  0.27509731906E+03  0.25500000920E-02 0.  1.
</event>
<event>
 5   0  0.5166903E-02  0.5939623E+03  0.7818609E-02  0.9918012E-01
        1   -1    0    0  501    0  0.00000000000E+00  0.00000000000E+00  0.96248122072E+03  0.96248122073E+03  0.50400001928E-02 0.  1.
       -1   -1    0    0    0  501  0.00000000000E+00  0.00000000000E+00 -0.91635869105E+02  0.91635869243E+02  0.50400001928E-02 0. -1.
    10030    2    1    2    0    0  0.00000000000E+00  0.00000000000E+00  0.87084535162E+03  0.10541170900E+04  0.59396229927E+03 0.  0.
        2    1    3    3  502    0 -0.25496471556E+02 -0.27321215795E+03  0.23383090606E+03  0.36051608279E+03  0.25500000920E-02 0. -1.
       -2    1    3    3    0  502  0.25496471556E+02  0.27321215795E+03  0.63701444556E+03  0.69360100719E+03  0.25500000920E-02 0.  1.
</event>
<event>
 5   0  0.5125031E-02  0.5997737E+03  0.7818609E-02  0.9905876E-01
       -1   -1    0    0    0  501  0.00000000000E+00  0.00000000000E+00  0.24889184236E+03  0.24889184241E+03  0.50400001928E-02 0. -1.
        1   -1    0    0  501    0  0.00000000000E+00  0.00000000000E+00 -0.36133010555E+03  0.36133010558E+03  0.50400001928E-02 0.  1.
    10030    2    1    2    0    0  0.00000000000E+00  0.00000000000E+00 -0.11243826319E+03  0.61022194799E+03  0.59977367630E+03 0.  0.
        4    1    3    3  502    0 -0.16544422864E+03  0.22150262487E+03 -0.17441210252E+03  0.32688897201E+03  0.12699999809E+01 0. -1.
       -4    1    3    3    0  502  0.16544422864E+03 -0.22150262487E+03  0.61973839333E+02  0.28333297598E+03  0.12699999809E+01 0.  1.
</event>
<event>
 5   0  0.4987389E-02  0.6843975E+03  0.7818609E-02  0.9744293E-01
       -1   -1    0    0    0  501  0.00000000000E+00  0.00000000000E+00  0.41019433770E+03  0.41019433773E+03  0.50400001928E-02 0. -1.
        1   -1    0    0  501    0  0.00000000000E+00  0.00000000000E+00 -0.28547436669E+03  0.28547436673E+03  0.50400001928E-02 0.  1.
    10030    2    1    2    0    0  0.00000000000E+00  0.00000000000E+00  0.12471997101E+03  0.69566870446E+03  0.68439745411E+03 0.  0.
        1    1    3    3  502    0 -0.15442190414E+03 -0.17803178033E+03 -0.18983601769E+03  0.30262047671E+03  0.50400001928E-02 0.  1.
       -1    1    3    3    0  502  0.15442190414E+03  0.17803178033E+03  0.31455598870E+03  0.39304822775E+03  0.50400001928E-02 0. -1.
</event>
<event>
 5   0  0.4987389E-02  0.5781268E+03  0.7818609E-02  0.9951855E-01
       -1   -1    0    0    0  501  0.00000000000E+00  0.00000000000E+00  0.10035181121E+03  0.10035181133E+03  0.50400001928E-02 0. -1.
        1   -1    0    0  501    0  0.00000000000E+00  0.00000000000E+00 -0.83264705471E+03  0.83264705473E+03  0.50400001928E-02 0.  1.
    10030    2    1    2    0    0  0.00000000000E+00  0.00000000000E+00 -0.73229524350E+03  0.93299886606E+03  0.57812676846E+03 0.  0.
        1    1    3    3  502    0 -0.22774934027E+03  0.80038982201E+02 -0.10954525737E+03  0.26509651846E+03  0.50400001928E-02 0. -1.
       -1    1    3    3    0  502  0.22774934027E+03 -0.80038982201E+02 -0.62274998614E+03  0.66790234759E+03  0.50400001928E-02 0.  1.
</event>
<event>
 5   0  0.3437375E-02  0.5840485E+03  0.7818609E-02  0.9939064E-01
        3   -1    0    0  501    0  0.00000000000E+00  0.00000000000E+00  0.61121907286E+03  0.61121908120E+03  0.10100000352E+00 0. -1.
       -3   -1    0    0    0  501  0.00000000000E+00  0.00000000000E+00 -0.13952142934E+03  0.13952146589E+03  0.10100000352E+00 0.  1.
    10030    2    1    2    0    0  0.00000000000E+00  0.00000000000E+00  0.47169764352E+03  0.75074054710E+03  0.58404854435E+03 0.  0.
        1    1    3    3  502    0 -0.19297428333E+02 -0.75090621374E+01 -0.13857658589E+03  0.14011512030E+03  0.50400001928E-02 0.  1.
       -1    1    3    3    0  502  0.19297428333E+02  0.75090621374E+01  0.61027422940E+03  0.61062542680E+03  0.50400001928E-02 0. -1.
</event>
<event>
 5   0  0.5166903E-02  0.5928495E+03  0.7818609E-02  0.9920353E-01
        1   -1    0    0  501    0  0.00000000000E+00  0.00000000000E+00  0.39518332868E+03  0.39518332871E+03  0.50400001928E-02 0.  1.
       -1   -1    0    0    0  501  0.00000000000E+00  0.00000000000E+00 -0.22234652068E+03  0.22234652074E+03  0.50400001928E-02 0. -1.
    10030    2    1    2    0    0  0.00000000000E+00  0.00000000000E+00  0.17283680800E+03  0.61752984945E+03  0.59284951949E+03 0.  0.
        2    1    3    3  502    0  0.98228199694E+02 -0.18877137937E+03 -0.12853179825E+03  0.24860377321E+03  0.25500000920E-02 0. -1.
       -2    1    3    3    0  502 -0.98228199694E+02  0.18877137937E+03  0.30136860625E+03  0.36892607624E+03  0.25500000920E-02 0.  1.
</event>
<event>
 5   0  0.5125031E-02  0.5991489E+03  0.7818609E-02  0.9907173E-01
        1   -1    0    0  501    0  0.00000000000E+00  0.00000000000E+00  0.12599162228E+03  0.12599162238E+03  0.50400001928E-02 0.  1.
       -1   -1    0    0    0  501  0.00000000000E+00  0.00000000000E+00 -0.71230811541E+03  0.71230811543E+03  0.50400001928E-02 0. -1.
    10030    2    1    2    0    0  0.00000000000E+00  0.00000000000E+00 -0.58631649313E+03  0.83829973780E+03  0.59914891328E+03 0.  0.
        4    1    3    3  502    0 -0.16357951392E+03  0.24133336155E+03 -0.38951895204E+03  0.48654565631E+03  0.12699999809E+01 0. -1.
       -4    1    3    3    0  502  0.16357951392E+03 -0.24133336155E+03 -0.19679754109E+03  0.35175408150E+03  0.12699999809E+01 0.  1.
</event>
<event>
 5   0  0.4881209E-02  0.5990786E+03  0.7818609E-02  0.9907320E-01
        1   -1    0    0  501    0  0.00000000000E+00  0.00000000000E+00  0.10054457229E+04  0.10054457229E+04  0.50400001928E-02 0.  1.
       -1   -1    0    0    0  501  0.00000000000E+00  0.00000000000E+00 -0.89237817712E+02  0.89237817854E+02  0.50400001928E-02 0. -1.
    10030    2    1    2    0    0  0.00000000000E+00  0.00000000000E+00  0.91620790516E+03  0.10946835407E+04  0.59907856654E+03 0.  0.
        3    1    3    3  502    0 -0.29869925634E+03 -0.19919363280E+02  0.47689431842E+03  0.56306858189E+03  0.10100000352E+00 0. -1.
       -3    1    3    3    0  502  0.29869925634E+03  0.19919363280E+02  0.43931358674E+03  0.53161495885E+03  0.10100000352E+00 0.  1.
</event>
<event>
 5   0  0.8420604E-02  0.5962935E+03  0.7818609E-02  0.9913126E-01
       -2   -1    0    0    0  501  0.00000000000E+00  0.00000000000E+00  0.58402531449E+02  0.58402531504E+02  0.25500000920E-02 0.  1.
        2   -1    0    0  501    0  0.00000000000E+00  0.00000000000E+00 -0.15220484521E+04  0.15220484521E+04  0.25500000920E-02 0. -1.
    10030    2    1    2    0    0  0.00000000000E+00  0.00000000000E+00 -0.14636459206E+04  0.15804509836E+04  0.59629349363E+03 0.  0.
        2    1    3    3  502    0 -0.24712679082E+03 -0.11260489675E+03 -0.10579474819E+04  0.10922474024E+04  0.25500000920E-02 0. -1.
       -2    1    3    3    0  502  0.24712679082E+03  0.11260489675E+03 -0.40569843870E+03  0.48820358118E+03  0.25500000920E-02 0.  1.
</event>
<event>
 5   0  0.5190380E-02  0.5991504E+03  0.7818609E-02  0.9907170E-01
       -1   -1    0    0    0  501  0.00000000000E+00  0.00000000000E+00  0.72836645498E+02  0.72836645672E+02  0.50400001928E-02 0. -1.
        1   -1    0    0  501    0  0.00000000000E+00  0.00000000000E+00 -0.12321449085E+04  0.12321449085E+04  0.50400001928E-02 0.  1.
    10030    2    1    2    0    0  0.00000000000E+00  0.00000000000E+00 -0.11593082630E+04  0.13049815542E+04  0.59915040524E+03 0.  0.
        5    1    3    3  502    0  0.62455588200E+02 -0.19955906949E+03 -0.11252038330E+03  0.23750252497E+03  0.46999998093E+01 0. -1.
       -5    1    3    3    0  502 -0.62455588200E+02  0.19955906949E+03 -0.10467878797E+04  0.10674790292E+04  0.46999998093E+01 0.  1.
</event>
<event>
 5   0  0.8207443E-02  0.5995971E+03  0.7818609E-02  0.9906242E-01
        2   -1    0    0  501    0  0.00000000000E+00  0.00000000000E+00  0.33858226584E+03  0.33858226585E+03  0.25500000920E-02 0.  1.
       -2   -1    0    0    0  501  0.00000000000E+00  0.00000000000E+00 -0.26545744458E+03  0.26545744459E+03  0.25500000920E-02 0. -1.
    10030    2    1    2    0    0  0.00000000000E+00  0.00000000000E+00  0.73124821259E+02  0.60403971044E+03  0.59959714167E+03 0.  0.
        1    1    3    3  502    0  0.43091682238E+02  0.46245228620E+02 -0.25866809551E+03  0.26627936065E+03  0.50400001928E-02 0. -1.
       -1    1    3    3    0  502 -0.43091682238E+02 -0.46245228620E+02  0.33179291677E+03  0.33776034979E+03  0.50400001928E-02 0.  1.
</event>
<event>
 5   0  0.4881209E-02  0.5661837E+03  0.7818609E-02  0.9978159E-01
        1   -1    0    0  501    0  0.00000000000E+00  0.00000000000E+00  0.39168674085E+03  0.39168674089E+03  0.50400001928E-02 0.  1.
       -1   -1    0    0    0  501  0.00000000000E+00  0.00000000000E+00 -0.20460485059E+03  0.20460485065E+03  0.50400001928E-02 0. -1.
    10030    2    1    2    0    0  0.00000000000E+00  0.00000000000E+00  0.18708189026E+03  0.59629159154E+03  0.56618374092E+03 0.  0.
        3    1    3    3  502    0 -0.10249677443E+03 -0.93301249957E+02 -0.16642585952E+03  0.21658321479E+03  0.10100000352E+00 0. -1.
       -3    1    3    3    0  502  0.10249677443E+03  0.93301249957E+02  0.35350774978E+03  0.37970837675E+03  0.10100000352E+00 0.  1.
</event>
<event>
 5   0  0.8207443E-02  0.5994495E+03  0.7818609E-02  0.9906549E-01
       -2   -1    0    0    0  501  0.00000000000E+00  0.00000000000E+00  0.54049558092E+02  0.54049558152E+02  0.25500000920E-02 0.  1.
        2   -1    0    0  501    0  0.00000000000E+00  0.00000000000E+00 -0.16620842918E+04  0.16620842918E+04  0.25500000920E-02 0. -1.
    10030    2    1    2    0    0  0.00000000000E+00  0.00000000000E+00 -0.16080347337E+04  0.17161338499E+04  0.59944948590E+03 0.  0.
        1    1    3    3  502    0  0.10278706142E+03  0.56162581453E+02 -0.14184621738E+02  0.11798567316E+03  0.50400001928E-02 0.  1.
       -1    1    3    3    0  502 -0.10278706142E+03 -0.56162581453E+02 -0.15938501120E+04  0.15981481768E+04  0.50400001928E-02 0. -1.
</event>
<event>
 5   0  0.4987389E-02  0.5909778E+03  0.7818609E-02  0.9924303E-01
       -1   -1    0    0    0  501  0.00000000000E+00  0.00000000000E+00  0.24038661981E+03  0.24038661986E+03  0.50400001928E-02 0. -1.
        1   -1    0    0  501    0  0.00000000000E+00  0.00000000000E+00 -0.36322191627E+03  0.36322191631E+03  0.50400001928E-02 0.  1.
    10030    2    1    2    0    0  0.00000000000E+00  0.00000000000E+00 -0.12283529646E+03  0.60360853617E+03  0.59097779559E+03 0.  0.
        1    1    3    3  502    0 -0.16257181328E+03 -0.15362777677E+03 -0.25863145096E+03  0.34193759038E+03  0.50400001928E-02 0.  1.
       -1    1    3    3    0  502  0.16257181328E+03  0.15362777677E+03  0.13579615450E+03  0.26167094579E+03  0.50400001928E-02 0. -1.
</event>
<event>
 5   0  0.8817544E-02  0.5963435E+03  0.7818609E-02  0.9913021E-01
       -2   -1    0    0    0  501  0.00000000000E+00  0.00000000000E+00  0.22243769771E+03  0.22243769772E+03  0.25500000920E-02 0.  1.
        2   -1    0    0  501    0  0.00000000000E+00  0.00000000000E+00 -0.39969123511E+03  0.39969123512E+03  0.25500000920E-02 0. -1.
    10030    2    1    2    0    0  0.00000000000E+00  0.00000000000E+00 -0.17725353741E+03  0.62212893284E+03  0.59634351892E+03 0.  0.
        5    1    3    3  502    0 -0.12405869011E+03 -0.58580808295E+02 -0.36476419959E+03  0.38974001718E+03  0.46999998093E+01 0. -1.
       -5    1    3    3    0  502  0.12405869011E+03  0.58580808295E+02  0.18751066218E+03  0.23238891566E+03  0.46999998093E+01 0.  1.
</event>
<event>
 5   0  0.5166903E-02  0.6012241E+03  0.7818609E-02  0.9902870E-01
       -1   -1    0    0    0  501  0.00000000000E+00  0.00000000000E+00  0.48494746343E+03  0.48494746346E+03  0.50400001928E-02 0. -1.
        1   -1    0    0  501    0  0.00000000000E+00  0.00000000000E+00 -0.18634515784E+03  0.18634515791E+03  0.50400001928E-02 0.  1.
    10030    2    1    2    0    0  0.00000000000E+00  0.00000000000E+00  0.29860230559E+03  0.67129262137E+03  0.60122412343E+03 0.  0.
        2    1    3    3  502    0  0.21085948142E+03  0.12249113881E+03 -0.46974959109E+02  0.24833937823E+03  0.25500000920E-02 0.  1.
       -2    1    3    3    0  502 -0.21085948142E+03 -0.12249113881E+03  0.34557726470E+03  0.42295324313E+03  0.25500000920E-02 0. -1.
</event>
<event>
 5   0  0.8699746E-02  0.5987011E+03  0.7818609E-02  0.9908105E-01
        2   -1    0    0  501    0  0.00000000000E+00  0.00000000000E+00  0.65054200385E+03  0.65054200386E+03  0.25500000920E-02 0.  1.
       -2   -1    0    0    0  501  0.00000000000E+00  0.00000000000E+00 -0.13774783843E+03  0.13774783846E+03  0.25500000920E-02 0. -1.
    10030    2    1    2    0    0  0.00000000000E+00  0.00000000000E+00  0.51279416542E+03  0.78828984232E+03  0.59870111025E+03 0.  0.
        3    1    3    3  502    0 -0.86125551888E+02  0.14543379946E+03  0.58170209595E+03  0.60576062875E+03  0.10100000352E+00 0.  1.
       -3    1    3    3    0  502  0.86125551888E+02 -0.14543379946E+03 -0.68907930533E+02  0.18252921356E+03  0.10100000352E+00 0. -1.
</event>
<event>
 5   0  0.8420604E-02  0.5945967E+03  0.7818609E-02  0.9916680E-01
        2   -1    0    0  501    0  0.00000000000E+00  0.00000000000E+00  0.36157713569E+03  0.36157713570E+03  0.25500000920E-02 0. -1.
       -2   -1    0    0    0  501  0.00000000000E+00  0.00000000000E+00 -0.24444664864E+03  0.24444664866E+03  0.25500000920E-02 0.  1.
    10030    2    1    2    0    0  0.00000000000E+00  0.00000000000E+00  0.11713048705E+03  0.60602378436E+03  0.59459673411E+03 0.  0.
        2    1    3    3  502    0  0.29035023820E+03  0.62337566757E+02  0.44256713086E+02  0.30024638168E+03  0.25500000920E-02 0.  1.
       -2    1    3    3    0  502 -0.29035023820E+03 -0.62337566757E+02  0.72873773964E+02  0.30577740268E+03  0.25500000920E-02 0. -1.
</event>
<event>
 5   0  0.3437375E-02  0.6354620E+03  0.7818609E-02  0.9834448E-01
        4   -1    0    0  501    0  0.00000000000E+00  0.00000000000E+00  0.16125325120E+03  0.16125825226E+03  0.12699999809E+01 0. -1.
       -4   -1    0    0    0  501  0.00000000000E+00  0.00000000000E+00 -0.62603702240E+03  0.62603831059E+03  0.12699999809E+01 0.  1.
    10030    2    1    2    0    0  0.00000000000E+00  0.00000000000E+00 -0.46478377120E+03  0.78729656285E+03  0.63546197675E+03 0.  0.
        1    1    3    3  502    0  0.35608741299E+01 -0.17170172583E+03 -0.56358149396E+03  0.58916743192E+03  0.50400001928E-02 0.  1.
       -1    1    3    3    0  502 -0.35608741299E+01  0.17170172583E+03  0.98797722752E+02  0.19812913093E+03  0.50400001928E-02 0. -1.
</event>
<event>
 5   0  0.8817544E-02  0.5148562E+03  0.7818609E-02  0.1009972E+00
       -2   -1    0    0    0  501  0.00000000000E+00  0.00000000000E+00  0.12501044887E+03  0.12501044889E+03  0.25500000920E-02 0. -1.
        2   -1    0    0  501    0  0.00000000000E+00  0.00000000000E+00 -0.53010960310E+03  0.53010960311E+03  0.25500000920E-02 0.  1.
    10030    2    1    2    0    0  0.00000000000E+00  0.00000000000E+00 -0.40509915424E+03  0.65512005200E+03  0.51485624962E+03 0.  0.
        5    1    3    3  502    0 -0.21947769759E+03 -0.15673710147E+02 -0.32637968203E+02  0.22249371204E+03  0.46999998093E+01 0. -1.
       -5    1    3    3    0  502  0.21947769759E+03  0.15673710147E+02 -0.37246118603E+03  0.43262633996E+03  0.46999998093E+01 0.  1.
</event>
<event>
 5   0  0.8817544E-02  0.5972863E+03  0.7818609E-02  0.9911052E-01
       -2   -1    0    0    0  501  0.00000000000E+00  0.00000000000E+00  0.70098901568E+02  0.70098901614E+02  0.25500000920E-02 0.  1.
        2   -1    0    0  501    0  0.00000000000E+00  0.00000000000E+00 -0.12723129856E+04  0.12723129856E+04  0.25500000920E-02 0. -1.
    10030    2    1    2    0    0  0.00000000000E+00  0.00000000000E+00 -0.12022140840E+04  0.13424118872E+04  0.59728633928E+03 0.  0.
        5    1    3    3  502    0  0.27217484928E+02 -0.29723055588E+03 -0.62106545106E+03  0.68907995134E+03  0.46999998093E+01 0.  1.
       -5    1    3    3    0  502 -0.27217484928E+02  0.29723055588E+03 -0.58114863296E+03  0.65333193587E+03  0.46999998093E+01 0. -1.
</event>
<event>
 5   0  0.8699746E-02  0.5991708E+03  0.7818609E-02  0.9907128E-01
       -2   -1    0    0    0  501  0.00000000000E+00  0.00000000000E+00  0.10363633317E+03  0.10363633320E+03  0.25500000920E-02 0.  1.
        2   -1    0    0  501    0  0.00000000000E+00  0.00000000000E+00 -0.86602268955E+03  0.86602268956E+03  0.25500000920E-02 0. -1.
    10030    2    1    2    0    0  0.00000000000E+00  0.00000000000E+00 -0.76238635639E+03  0.96965902275E+03  0.59917081371E+03 0.  0.
        3    1    3    3  502    0 -0.16811911938E+03  0.75113728847E+02  0.12453942147E+01  0.18414035888E+03  0.10100000352E+00 0.  1.
       -3    1    3    3    0  502  0.16811911938E+03 -0.75113728847E+02 -0.76363175060E+03  0.78551866387E+03  0.10100000352E+00 0. -1.
</event>
<event>
 5   0  0.8207443E-02  0.6019283E+03  0.7818609E-02  0.9901413E-01
        2   -1    0    0  501    0  0.00000000000E+00  0.00000000000E+00  0.25969277440E+03  0.25969277442E+03  0.25500000920E-02 0.  1.
       -2   -1    0    0    0  501  0.00000000000E+00  0.00000000000E+00 -0.34879458594E+03  0.34879458595E+03  0.25500000920E-02 0. -1.
    10030    2    1    2    0    0  0.00000000000E+00  0.00000000000E+00 -0.89101811535E+02  0.60848736037E+03  0.60192834699E+03 0.  0.
        1    1    3    3  502    0  0.15466754972E+03  0.19729727327E+03  0.12379046209E+03  0.27959317500E+03  0.50400001928E-02 0.  1.
       -1    1    3    3    0  502 -0.15466754972E+03 -0.19729727327E+03 -0.21289227362E+03  0.32889418537E+03  0.50400001928E-02 0. -1.
</event>
<event>
 5   0  0.5190380E-02  0.6016649E+03  0.7818609E-02  0.9901958E-01
       -1   -1    0    0    0  501  0.00000000000E+00  0.00000000000E+00  0.14917645797E+03  0.14917645806E+03  0.50400001928E-02 0. -1.
        1   -1    0    0  501    0  0.00000000000E+00  0.00000000000E+00 -0.60666521601E+03  0.60666521603E+03  0.50400001928E-02 0.  1.
    10030    2    1    2    0    0  0.00000000000E+00  0.00000000000E+00 -0.45748875804E+03  0.75584167409E+03  0.60166491717E+03 0.  0.
        5    1    3    3  502    0 -0.72377400799E+02 -0.15844816806E+03 -0.53680440931E+03  0.56438052230E+03  0.46999998093E+01 0.  1.
       -5    1    3    3    0  502  0.72377400799E+02  0.15844816806E+03  0.79315651266E+02  0.19146115178E+03  0.46999998093E+01 0. -1.
</event>
<event>
 5   0  0.4987389E-02  0.5995104E+03  0.7818609E-02  0.9906422E-01
        1   -1    0    0  501    0  0.00000000000E+00  0.00000000000E+00  0.43256736140E+03  0.43256736143E+03  0.50400001928E-02 0. -1.
       -1   -1    0    0    0  501  0.00000000000E+00  0.00000000000E+00 -0.20772066624E+03  0.20772066630E+03  0.50400001928E-02 0.  1.
    10030    2    1    2    0    0  0.00000000000E+00  0.00000000000E+00  0.22484669516E+03  0.64028802773E+03  0.59951040202E+03 0.  0.
        1    1    3    3  502    0  0.10743603705E+03  0.20860697314E+02 -0.18561977835E+03  0.21548172287E+03  0.50400001928E-02 0.  1.
       -1    1    3    3    0  502 -0.10743603705E+03 -0.20860697314E+02  0.41046647351E+03  0.42480630486E+03  0.50400001928E-02 0. -1.
</event>
<event>
 5   0  0.5190380E-02  0.4845731E+03  0.7818609E-02  0.1017886E+00
        1   -1    0    0  501    0  0.00000000000E+00  0.00000000000E+00  0.10503865731E+03  0.10503865743E+03  0.50400001928E-02 0.  1.
       -1   -1    0    0    0  501  0.00000000000E+00  0.00000000000E+00 -0.55886823958E+03  0.55886823960E+03  0.50400001928E-02 0. -1.
    10030    2    1    2    0    0  0.00000000000E+00  0.00000000000E+00 -0.45382958227E+03  0.66390689703E+03  0.48457308858E+03 0.  0.
        5    1    3    3  502    0  0.41343014745E+02 -0.19413324344E+03 -0.41717294583E+03  0.46200900187E+03  0.46999998093E+01 0. -1.
       -5    1    3    3    0  502 -0.41343014745E+02  0.19413324344E+03 -0.36656636446E+02  0.20189789516E+03  0.46999998093E+01 0.  1.
</event>
<event>
 5   0  0.8420604E-02  0.5994079E+03  0.7818609E-02  0.9906635E-01
        2   -1    0    0  501    0  0.00000000000E+00  0.00000000000E+00  0.79978621876E+03  0.79978621876E+03  0.25500000920E-02 0. -1.
       -2   -1    0    0    0  501  0.00000000000E+00  0.00000000000E+00 -0.11230807658E+03  0.11230807660E+03  0.25500000920E-02 0.  1.
    10030    2    1    2    0    0  0.00000000000E+00  0.00000000000E+00  0.68747814218E+03  0.91209429537E+03  0.59940788088E+03 0.  0.
        2    1    3    3  502    0  0.25217430899E+02 -0.14813659326E+03 -0.50843473748E+02  0.15863614945E+03  0.25500000920E-02 0.  1.
       -2    1    3    3    0  502 -0.25217430899E+02  0.14813659326E+03  0.73832161593E+03  0.75345814591E+03  0.25500000920E-02 0. -1.
</event>
<event>
 5   0  0.3437375E-02  0.6012055E+03  0.7818609E-02  0.9902908E-01
       -4   -1    0    0    0  501  0.00000000000E+00  0.00000000000E+00  0.62492785275E+03  0.62492914322E+03  0.12699999809E+01 0.  1.
        4   -1    0    0  501    0  0.00000000000E+00  0.00000000000E+00 -0.14459167319E+03  0.14459725051E+03  0.12699999809E+01 0. -1.
    10030    2    1    2    0    0  0.00000000000E+00  0.00000000000E+00  0.48033617956E+03  0.76952639373E+03  0.60120547674E+03 0.  0.
        5    1    3    3  502    0 -0.22702748892E+02  0.23725552067E+03  0.47456146905E+03  0.53107087550E+03  0.46999998093E+01 0.  1.
       -5    1    3    3    0  502  0.22702748892E+02 -0.23725552067E+03  0.57747105100E+01  0.23845551823E+03  0.46999998093E+01 0. -1.
</event>
<event>
 5   0  0.8207443E-02  0.6104233E+03  0.7818609E-02  0.9884014E-01
       -2   -1    0    0    0  501  0.00000000000E+00  0.00000000000E+00  0.46980549294E+03  0.46980549295E+03  0.25500000920E-02 0.  1.
        2   -1    0    0  501    0  0.00000000000E+00  0.00000000000E+00 -0.19828234890E+03  0.19828234892E+03  0.25500000920E-02 0. -1.
    10030    2    1    2    0    0  0.00000000000E+00  0.00000000000E+00  0.27152314404E+03  0.66808784187E+03  0.61042325210E+03 0.  0.
        1    1    3    3  502    0  0.13108791649E+02  0.10307779641E+03 -0.17832795502E+03  0.20639218033E+03  0.50400001928E-02 0. -1.
       -1    1    3    3    0  502 -0.13108791649E+02 -0.10307779641E+03  0.44985109907E+03  0.46169566154E+03  0.50400001928E-02 0.  1.
</event>
<event>
 5   0  0.8817544E-02  0.5991959E+03  0.7818609E-02  0.9907076E-01
        2   -1    0    0  501    0  0.00000000000E+00  0.00000000000E+00  0.24037769992E+04  0.24037769992E+04  0.25500000920E-02 0. -1.
       -2   -1    0    0    0  501  0.00000000000E+00  0.00000000000E+00 -0.37340794393E+02  0.37340794480E+02  0.25500000920E-02 0.  1.
    10030    2    1    2    0    0  0.00000000000E+00  0.00000000000E+00  0.23664362048E+04  0.24411177937E+04  0.59919593725E+03 0.  0.
        5    1    3    3  502    0  0.10674700025E+03  0.12828651835E+03  0.21966879200E+04  0.22030234362E+04  0.46999998093E+01 0. -1.
       -5    1    3    3    0  502 -0.10674700025E+03 -0.12828651835E+03  0.16974828489E+03  0.23809435750E+03  0.46999998093E+01 0.  1.
</event>
<event>
 5   0  0.5190380E-02  0.6105719E+03  0.7818609E-02  0.9883712E-01
       -1   -1    0    0    0  501  0.00000000000E+00  0.00000000000E+00  0.17556695757E+03  0.17556695764E+03  0.50400001928E-02 0.  1.
        1   -1    0    0  501    0  0.00000000000E+00  0.00000000000E+00 -0.53084878312E+03  0.53084878314E+03  0.50400001928E-02 0. -1.
    10030    2    1    2    0    0  0.00000000000E+00  0.00000000000E+00 -0.35528182555E+03  0.70641574078E+03  0.61057188214E+03 0.  0.
        5    1    3    3  502    0 -0.18488696537E+03  0.18037674856E+03  0.10553100206E+02  0.25855834798E+03  0.46999998093E+01 0.  1.
       -5    1    3    3    0  502  0.18488696537E+03 -0.18037674856E+03 -0.36583492576E+03  0.44785739280E+03  0.46999998093E+01 0. -1.
</event>
<event>
 5   0  0.4881209E-02  0.5801248E+03  0.7818609E-02  0.9947521E-01
        1   -1    0    0  501    0  0.00000000000E+00  0.00000000000E+00  0.10571428303E+04  0.10571428303E+04  0.50400001928E-02 0.  1.
       -1   -1    0    0    0  501  0.00000000000E+00  0.00000000000E+00 -0.79588301542E+02  0.79588301701E+02  0.50400001928E-02 0. -1.
    10030    2    1    2    0    0  0.00000000000E+00  0.00000000000E+00  0.97755452877E+03  0.11367311320E+04  0.58012482260E+03 0.  0.
        3    1    3    3  502    0 -0.60230903153E+02  0.17557061330E+03  0.52018209539E+02  0.19276593650E+03  0.10100000352E+00 0. -1.
       -3    1    3    3    0  502  0.60230903153E+02 -0.17557061330E+03  0.92553631923E+03  0.94396519553E+03  0.10100000352E+00 0.  1.
</event>
<event>
 5   0  0.5190380E-02  0.6144125E+03  0.7818609E-02  0.9875948E-01
       -1   -1    0    0    0  501  0.00000000000E+00  0.00000000000E+00  0.42333473982E+03  0.42333473985E+03  0.50400001928E-02 0. -1.
        1   -1    0    0  501    0  0.00000000000E+00  0.00000000000E+00 -0.22293391549E+03  0.22293391555E+03  0.50400001928E-02 0.  1.
    10030    2    1    2    0    0  0.00000000000E+00  0.00000000000E+00  0.20040082433E+03  0.64626865539E+03  0.61441247102E+03 0.  0.
        5    1    3    3  502    0  0.19725082054E+03 -0.19120324039E+03 -0.44355128505E+02  0.27830923945E+03  0.46999998093E+01 0.  1.
       -5    1    3    3    0  502 -0.19725082054E+03  0.19120324039E+03  0.24475595283E+03  0.36795941595E+03  0.46999998093E+01 0. -1.
</event>
<event>
 5   0  0.8207443E-02  0.5998702E+03  0.7818609E-02  0.9905675E-01
        2   -1    0    0  501    0  0.00000000000E+00  0.00000000000E+00  0.14389112325E+04  0.14389112325E+04  0.25500000920E-02 0.  1.
       -2   -1    0    0    0  501  0.00000000000E+00  0.00000000000E+00 -0.62520234018E+02  0.62520234070E+02  0.25500000920E-02 0. -1.
    10030    2    1    2    0    0  0.00000000000E+00  0.00000000000E+00  0.13763909985E+04  0.15014314666E+04  0.59987020939E+03 0.  0.
        1    1    3    3  502    0 -0.26211475825E+03 -0.57008545941E+02  0.10240632085E+04  0.10586120989E+04  0.50400001928E-02 0. -1.
       -1    1    3    3    0  502  0.26211475825E+03  0.57008545941E+02  0.35232778994E+03  0.44281936768E+03  0.50400001928E-02 0.  1.
</event>
<event>
 5   0  0.8575590E-02  0.6124683E+03  0.7818609E-02  0.9879871E-01
       -2   -1    0    0    0  501  0.00000000000E+00  0.00000000000E+00  0.13643397471E+03  0.13643397473E+03  0.25500000920E-02 0. -1.
        2   -1    0    0  501    0  0.00000000000E+00  0.00000000000E+00 -0.68736079329E+03  0.68736079329E+03  0.25500000920E-02 0.  1.
    10030    2    1    2    0    0  0.00000000000E+00  0.00000000000E+00 -0.55092681858E+03  0.82379476802E+03  0.61246833419E+03 0.  0.
        4    1    3    3  502    0 -0.18131473190E+03 -0.23939944800E+03 -0.35606068902E+03  0.46579819114E+03  0.12699999809E+01 0. -1.
       -4    1    3    3    0  502  0.18131473190E+03  0.23939944800E+03 -0.19486612956E+03  0.35799657688E+03  0.12699999809E+01 0.  1.
</event>
<event>
 5   0  0.3437375E-02  0.6093371E+03  0.7818609E-02  0.9886222E-01
        4   -1    0    0  501    0  0.00000000000E+00  0.00000000000E+00  0.25492493055E+03  0.25492809401E+03  0.12699999809E+01 0.  1.
       -4   -1    0    0    0  501  0.00000000000E+00  0.00000000000E+00 -0.36411211284E+03  0.36411432767E+03  0.12699999809E+01 0. -1.
    10030    2    1    2    0    0  0.00000000000E+00  0.00000000000E+00 -0.10918718229E+03  0.61904242168E+03  0.60933708164E+03 0.  0.
        4    1    3    3  502    0  0.92117740660E+02  0.28563180066E+03 -0.10787028871E+03  0.31891819606E+03  0.12699999809E+01 0. -1.
       -4    1    3    3    0  502 -0.92117740660E+02 -0.28563180066E+03 -0.13168935857E+01  0.30012422562E+03  0.12699999809E+01 0.  1.
</event>
<event>
 5   0  0.5166903E-02  0.5883482E+03  0.7818609E-02  0.9929879E-01
       -1   -1    0    0    0  501  0.00000000000E+00  0.00000000000E+00  0.13443918812E+03  0.13443918821E+03  0.50400001928E-02 0. -1.
        1   -1    0    0  501    0  0.00000000000E+00  0.00000000000E+00 -0.64369926767E+03  0.64369926769E+03  0.50400001928E-02 0.  1.
    10030    2    1    2    0    0  0.00000000000E+00  0.00000000000E+00 -0.50926007955E+03  0.77813845590E+03  0.58834821996E+03 0.  0.
        2    1    3    3  502    0 -0.18056659704E+03  0.17060091635E+03 -0.46226120120E+02  0.25267730965E+03  0.25500000920E-02 0. -1.
       -2    1    3    3    0  502  0.18056659704E+03 -0.17060091635E+03 -0.46303395944E+03  0.52546114625E+03  0.25500000920E-02 0.  1.
</event>
<event>
 5   0  0.8699746E-02  0.6101185E+03  0.7818609E-02  0.9884633E-01
        2   -1    0    0  501    0  0.00000000000E+00  0.00000000000E+00  0.93998136319E+03  0.93998136320E+03  0.25500000920E-02 0. -1.
       -2   -1    0    0    0  501  0.00000000000E+00  0.00000000000E+00 -0.99003196207E+02  0.99003196240E+02  0.25500000920E-02 0.  1.
    10030    2    1    2    0    0  0.00000000000E+00  0.00000000000E+00  0.84097816699E+03  0.10389845594E+04  0.61011854373E+03 0.  0.
        3    1    3    3  502    0 -0.24395634938E+03 -0.14100000346E+03  0.22141863184E+03  0.35836004535E+03  0.10100000352E+00 0. -1.
       -3    1    3    3    0  502  0.24395634938E+03  0.14100000346E+03  0.61955953515E+03  0.68062451409E+03  0.10100000352E+00 0.  1.
</event>
<event>
 5   0  0.5125031E-02  0.5927000E+03  0.7818609E-02  0.9920668E-01
        1   -1    0    0  501    0  0.00000000000E+00  0.00000000000E+00  0.83829257643E+03  0.83829257644E+03  0.50400001928E-02 0.  1.
       -1   -1    0    0    0  501  0.00000000000E+00  0.00000000000E+00 -0.10476453904E+03  0.10476453917E+03  0.50400001928E-02 0. -1.
    10030    2    1    2    0    0  0.00000000000E+00  0.00000000000E+00  0.73352803739E+03  0.94305711561E+03  0.59270004359E+03 0.  0.
        4    1    3    3  502    0 -0.20175927945E+03 -0.58734217356E+01  0.21522359715E+02  0.20299292795E+03  0.12699999809E+01 0. -1.
       -4    1    3    3    0  502  0.20175927945E+03  0.58734217356E+01  0.71200567767E+03  0.74006418766E+03  0.12699999809E+01 0.  1.
</event>
<event>
 5   0  0.8699746E-02  0.5978271E+03  0.7818609E-02  0.9909924E-01
       -2   -1    0    0    0  501  0.00000000000E+00  0.00000000000E+00  0.20738492861E+03  0.20738492863E+03  0.25500000920E-02 0.  1.
        2   -1    0    0  501    0  0.00000000000E+00  0.00000000000E+00 -0.43083797676E+03  0.43083797677E+03  0.25500000920E-02 0. -1.
    10030    2    1    2    0    0  0.00000000000E+00  0.00000000000E+00 -0.22345304815E+03  0.63822290540E+03  0.59782707554E+03 0.  0.
        3    1    3    3  502    0 -0.24587087668E+03 -0.32482010752E+02  0.66406674853E+02  0.25674389124E+03  0.10100000352E+00 0.  1.
       -3    1    3    3    0  502  0.24587087668E+03  0.32482010752E+02 -0.28985972300E+03  0.38147901416E+03  0.10100000352E+00 0. -1.
</event>
<event>
 5   0  0.5166903E-02  0.5965320E+03  0.7818609E-02  0.9912627E-01
       -1   -1    0    0    0  501  0.00000000000E+00  0.00000000000E+00  0.36802133925E+02  0.36802134270E+02  0.50400001928E-02 0. -1.
        1   -1    0    0  501    0  0.00000000000E+00  0.00000000000E+00 -0.24173217702E+04  0.24173217702E+04  0.50400001928E-02 0.  1.
    10030    2    1    2    0    0  0.00000000000E+00  0.00000000000E+00 -0.23805196363E+04  0.24541239045E+04  0.59653197720E+03 0.  0.
        2    1    3    3  502    0  0.40090822904E+02  0.11065972435E+03 -0.62774439591E+02  0.13339219972E+03  0.25500000920E-02 0. -1.
       -2    1    3    3    0  502 -0.40090822904E+02 -0.11065972435E+03 -0.23177451967E+04  0.23207317048E+04  0.25500000920E-02 0.  1.
</event>
<event>
 5   0  0.8207443E-02  0.6083317E+03  0.7818609E-02  0.9888270E-01
        2   -1    0    0  501    0  0.00000000000E+00  0.00000000000E+00  0.15378514989E+04  0.15378514989E+04  0.25500000920E-02 0.  1.
       -2   -1    0    0    0  501  0.00000000000E+00  0.00000000000E+00 -0.60159819474E+02  0.60159819528E+02  0.25500000920E-02 0. -1.
    10030    2    1    2    0    0  0.00000000000E+00  0.00000000000E+00  0.14776916794E+04  0.15980113184E+04  0.60833171411E+03 0.  0.
        1    1    3    3  502    0 -0.10984696107E+03 -0.28019436381E+03  0.62309533949E+03  0.69197040290E+03  0.50400001928E-02 0. -1.
       -1    1    3    3    0  502  0.10984696107E+03  0.28019436381E+03  0.85459633995E+03  0.90604091554E+03  0.50400001928E-02 0.  1.
</event>
<event>
 5   0  0.8420604E-02  0.5957936E+03  0.7818609E-02  0.9914172E-01
       -2   -1    0    0    0  501  0.00000000000E+00  0.00000000000E+00  0.10644113689E+03  0.10644113692E+03  0.25500000920E-02 0.  1.
        2   -1    0    0  501    0  0.00000000000E+00  0.00000000000E+00 -0.83372371533E+03  0.83372371534E+03  0.25500000920E-02 0. -1.
    10030    2    1    2    0    0  0.00000000000E+00  0.00000000000E+00 -0.72728257845E+03  0.94016485226E+03  0.59579358884E+03 0.  0.
        2    1    3    3  502    0 -0.29312249445E+02 -0.18851472660E+03 -0.72467505426E+03  0.74936702915E+03  0.25500000920E-02 0. -1.
       -2    1    3    3    0  502  0.29312249445E+02  0.18851472660E+03 -0.26075241914E+01  0.19079782311E+03  0.25500000920E-02 0.  1.
</event>
<event>
 5   0  0.3437375E-02  0.5814209E+03  0.7818609E-02  0.9944720E-01
       -3   -1    0    0    0  501  0.00000000000E+00  0.00000000000E+00  0.61337491321E+03  0.61337492153E+03  0.10100000352E+00 0. -1.
        3   -1    0    0  501    0  0.00000000000E+00  0.00000000000E+00 -0.13778284060E+03  0.13778287762E+03  0.10100000352E+00 0.  1.
    10030    2    1    2    0    0  0.00000000000E+00  0.00000000000E+00  0.47559207261E+03  0.75115779915E+03  0.58142086279E+03 0.  0.
        5    1    3    3  502    0 -0.11720504876E+03  0.26591599712E+03  0.24618107540E+03  0.38088784814E+03  0.46999998093E+01 0.  1.
       -5    1    3    3    0  502  0.11720504876E+03 -0.26591599712E+03  0.22941099721E+03  0.37026995101E+03  0.46999998093E+01 0. -1.
</event>
<event>
 5   0  0.5190380E-02  0.6098609E+03  0.7818609E-02  0.9885156E-01
       -1   -1    0    0    0  501  0.00000000000E+00  0.00000000000E+00  0.14388937676E+03  0.14388937685E+03  0.50400001928E-02 0.  1.
        1   -1    0    0  501    0  0.00000000000E+00  0.00000000000E+00 -0.64620870459E+03  0.64620870461E+03  0.50400001928E-02 0. -1.
    10030    2    1    2    0    0  0.00000000000E+00  0.00000000000E+00 -0.50231932783E+03  0.79009808147E+03  0.60986086219E+03 0.  0.
        5    1    3    3  502    0  0.95471810760E+01 -0.60190858283E+02  0.13587117574E+03  0.14898709502E+03  0.46999998093E+01 0.  1.
       -5    1    3    3    0  502 -0.95471810760E+01  0.60190858283E+02 -0.63819050357E+03  0.64111098644E+03  0.46999998093E+01 0. -1.
</event>
<event>
 5   0  0.5125031E-02  0.5876882E+03  0.7818609E-02  0.9931284E-01
        1   -1    0    0  501    0  0.00000000000E+00  0.00000000000E+00  0.13032335677E+04  0.13032335677E+04  0.50400001928E-02 0. -1.
       -1   -1    0    0    0  501  0.00000000000E+00  0.00000000000E+00 -0.66253926843E+02  0.66253927035E+02  0.50400001928E-02 0.  1.
    10030    2    1    2    0    0  0.00000000000E+00  0.00000000000E+00  0.12369796408E+04  0.13694874947E+04  0.58768815401E+03 0.  0.
        4    1    3    3  502    0  0.25907764907E+03 -0.13399659045E+03  0.70141740544E+03  0.75964748670E+03  0.12699999809E+01 0.  1.
       -4    1    3    3    0  502 -0.25907764907E+03  0.13399659045E+03  0.53556223539E+03  0.60984000801E+03  0.12699999809E+01 0. -1.
</event>
<event>
 5   0  0.5190380E-02  0.6150301E+03  0.7818609E-02  0.9874705E-01
        1   -1    0    0  501    0  0.00000000000E+00  0.00000000000E+00  0.11562501332E+04  0.11562501332E+04  0.50400001928E-02 0. -1.
       -1   -1    0    0    0  501  0.00000000000E+00  0.00000000000E+00 -0.81786364138E+02  0.81786364293E+02  0.50400001928E-02 0.  1.
    10030    2    1    2    0    0  0.00000000000E+00  0.00000000000E+00  0.10744637691E+04  0.12380364975E+04  0.61503006279E+03 0.  0.
        5    1    3    3  502    0 -0.14093206710E+03  0.47546317186E+02 -0.44808888632E+01  0.14887803122E+03  0.46999998093E+01 0.  1.
       -5    1    3    3    0  502  0.14093206710E+03 -0.47546317186E+02  0.10789446580E+04  0.10891584663E+04  0.46999998093E+01 0. -1.
</event>
<event>
 5   0  0.8575590E-02  0.6002656E+03  0.7818609E-02  0.9904855E-01
        2   -1    0    0  501    0  0.00000000000E+00  0.00000000000E+00  0.11832378022E+03  0.11832378025E+03  0.25500000920E-02 0. -1.
       -2   -1    0    0    0  501  0.00000000000E+00  0.00000000000E+00 -0.76129841224E+03  0.76129841225E+03  0.25500000920E-02 0.  1.
    10030    2    1    2    0    0  0.00000000000E+00  0.00000000000E+00 -0.64297463202E+03  0.87962219249E+03  0.60026562795E+03 0.  0.
        4    1    3    3  502    0  0.29383550511E+03 -0.59984162868E+02 -0.33886865312E+03  0.45251627686E+03  0.12699999809E+01 0.  1.
       -4    1    3    3    0  502 -0.29383550511E+03  0.59984162868E+02 -0.30410597891E+03  0.42710591563E+03  0.12699999809E+01 0. -1.
</event>
<event>
 5   0  0.8817544E-02  0.6082453E+03  0.7818609E-02  0.9888446E-01
        2   -1    0    0  501    0  0.00000000000E+00  0.00000000000E+00  0.67720505088E+03  0.67720505088E+03  0.25500000920E-02 0.  1.
       -2   -1    0    0    0  501  0.00000000000E+00  0.00000000000E+00 -0.13657693042E+03  0.13657693044E+03  0.25500000920E-02 0. -1.
    10030    2    1    2    0    0  0.00000000000E+00  0.00000000000E+00  0.54062812046E+03  0.81378198132E+03  0.60824530289E+03 0.  0.
        5    1    3    3  502    0 -0.14296789433E+03  0.17614450100E+03  0.54122761228E+03  0.58686976607E+03  0.46999998093E+01 0.  1.
       -5    1    3    3    0  502  0.14296789433E+03 -0.17614450100E+03 -0.59949181434E+00  0.22691221525E+03  0.46999998093E+01 0. -1.
</event>
<event>
 5   0  0.5125031E-02  0.5828698E+03  0.7818609E-02  0.9941597E-01
        1   -1    0    0  501    0  0.00000000000E+00  0.00000000000E+00  0.40687426898E+03  0.40687426901E+03  0.50400001928E-02 0. -1.
       -1   -1    0    0    0  501  0.00000000000E+00  0.00000000000E+00 -0.20874826211E+03  0.20874826217E+03  0.50400001928E-02 0.  1.
    10030    2    1    2    0    0  0.00000000000E+00  0.00000000000E+00  0.19812600687E+03  0.61562253118E+03  0.58286978503E+03 0.  0.
        4    1    3    3  502    0 -0.26381234486E+02  0.19388677699E+03 -0.12904672015E+03  0.23439863631E+03  0.12699999809E+01 0.  1.
       -4    1    3    3    0  502  0.26381234486E+02 -0.19388677699E+03  0.32717272701E+03  0.38122389488E+03  0.12699999809E+01 0. -1.
</event>
<event>
 5   0  0.8575590E-02  0.5924724E+03  0.7818609E-02  0.9921148E-01
       -2   -1    0    0    0  501  0.00000000000E+00  0.00000000000E+00  0.54861728555E+02  0.54861728615E+02  0.25500000920E-02 0. -1.
        2   -1    0    0  501    0  0.00000000000E+00  0.00000000000E+00 -0.15995830121E+04  0.15995830121E+04  0.25500000920E-02 0.  1.
    10030    2    1    2    0    0  0.00000000000E+00  0.00000000000E+00 -0.15447212835E+04  0.16544447407E+04  0.59247240969E+03 0.  0.
        4    1    3    3  502    0 -0.19970134000E+03 -0.13013009609E+03 -0.28117806880E+03  0.36861522809E+03  0.12699999809E+01 0. -1.
       -4    1    3    3    0  502  0.19970134000E+03  0.13013009609E+03 -0.12635432147E+04  0.12858295126E+04  0.12699999809E+01 0.  1.
</event>
<event>
 5   0  0.5190380E-02  0.6039450E+03  0.7818609E-02  0.9897255E-01
       -1   -1    0    0    0  501  0.00000000000E+00  0.00000000000E+00  0.22295589025E+03  0.22295589031E+03  0.50400001928E-02 0.  1.
        1   -1    0    0  501    0  0.00000000000E+00  0.00000000000E+00 -0.40899291483E+03  0.40899291486E+03  0.50400001928E-02 0. -1.
    10030    2    1    2    0    0  0.00000000000E+00  0.00000000000E+00 -0.18603702458E+03  0.63194880517E+03  0.60394496260E+03 0.  0.
        5    1    3    3  502    0  0.96407879121E+02 -0.24873281398E+03 -0.24100767178E+03  0.35954037293E+03  0.46999998093E+01 0. -1.
       -5    1    3    3    0  502 -0.96407879121E+02  0.24873281398E+03  0.54970647199E+02  0.27240843225E+03  0.46999998093E+01 0.  1.
</event>
<event>
 5   0  0.4881209E-02  0.6031781E+03  0.7818609E-02  0.9898834E-01
       -1   -1    0    0    0  501  0.00000000000E+00  0.00000000000E+00  0.23394788096E+03  0.23394788102E+03  0.50400001928E-02 0.  1.
        1   -1    0    0  501    0  0.00000000000E+00  0.00000000000E+00 -0.38878732156E+03  0.38878732160E+03  0.50400001928E-02 0. -1.
    10030    2    1    2    0    0  0.00000000000E+00  0.00000000000E+00 -0.15483944060E+03  0.62273520261E+03  0.60317814965E+03 0.  0.
        3    1    3    3  502    0 -0.15031077559E+03  0.10717409349E+02  0.19229338016E+03  0.24430502732E+03  0.10100000352E+00 0.  1.
       -3    1    3    3    0  502  0.15031077559E+03 -0.10717409349E+02 -0.34713282076E+03  0.37843017529E+03  0.10100000352E+00 0. -1.
</event>
<event>
 5   0  0.5166903E-02  0.6076363E+03  0.7818609E-02  0.9889689E-01
       -1   -1    0    0    0  501  0.00000000000E+00  0.00000000000E+00  0.98396707909E+03  0.98396707910E+03  0.50400001928E-02 0. -1.
        1   -1    0    0  501    0  0.00000000000E+00  0.00000000000E+00 -0.93809514386E+02  0.93809514521E+02  0.50400001928E-02 0.  1.
    10030    2    1    2    0    0  0.00000000000E+00  0.00000000000E+00  0.89015756470E+03  0.10777765936E+04  0.60763631867E+03 0.  0.
        2    1    3    3  502    0 -0.14853549412E+03 -0.21587447817E+03  0.71779875227E+03  0.76413325547E+03  0.25500000920E-02 0. -1.
       -2    1    3    3    0  502  0.14853549412E+03  0.21587447817E+03  0.17235881243E+03  0.31364333815E+03  0.25500000920E-02 0.  1.
</event>
<event>
 5   0  0.5166903E-02  0.6020490E+03  0.7818609E-02  0.9901164E-01
       -1   -1    0    0    0  501  0.00000000000E+00  0.00000000000E+00  0.24763400336E+03  0.24763400341E+03  0.50400001928E-02 0. -1.
        1   -1    0    0  501    0  0.00000000000E+00  0.00000000000E+00 -0.36592606243E+03  0.36592606246E+03  0.50400001928E-02 0.  1.
    10030    2    1    2    0    0  0.00000000000E+00  0.00000000000E+00 -0.11829205907E+03  0.61356006587E+03  0.60204895415E+03 0.  0.
        2    1    3    3  502    0  0.27335428460E+03 -0.28102482999E+02 -0.18439176519E+03  0.33092693686E+03  0.25500000920E-02 0.  1.
       -2    1    3    3    0  502 -0.27335428460E+03  0.28102482999E+02  0.66099706121E+02  0.28263312901E+03  0.25500000920E-02 0. -1.
</event>
<event>
 5   0  0.4987389E-02  0.6048860E+03  0.7818609E-02  0.9895321E-01
        1   -1    0    0  501    0  0.00000000000E+00  0.00000000000E+00  0.17109163496E+04  0.17109163497E+04  0.50400001928E-02 0.  1.
       -1   -1    0    0    0  501  0.00000000000E+00  0.00000000000E+00 -0.53463618214E+02  0.53463618451E+02  0.50400001928E-02 0. -1.
    10030    2    1    2    0    0  0.00000000000E+00  0.00000000000E+00  0.16574527314E+04  0.17643799681E+04  0.60488603465E+03 0.  0.
        1    1    3    3  502    0  0.19326738102E+01 -0.27374818459E+03  0.12037465628E+04  0.12344827221E+04  0.50400001928E-02 0.  1.
       -1    1    3    3    0  502 -0.19326738102E+01  0.27374818459E+03  0.45370616863E+03  0.52989724596E+03  0.50400001928E-02 0. -1.
</event>
<event>
 5   0  0.5190380E-02  0.5987724E+03  0.7818609E-02  0.9907956E-01
        1   -1    0    0  501    0  0.00000000000E+00  0.00000000000E+00  0.80415692743E+03  0.80415692745E+03  0.50400001928E-02 0.  1.
       -1   -1    0    0    0  501  0.00000000000E+00  0.00000000000E+00 -0.11146094480E+03  0.11146094491E+03  0.50400001928E-02 0. -1.
    10030    2    1    2    0    0  0.00000000000E+00  0.00000000000E+00  0.69269598263E+03  0.91561787236E+03  0.59877238066E+03 0.  0.
        5    1    3    3  502    0 -0.29004635817E+03 -0.29009003416E+02  0.45052834638E+03  0.53662490909E+03  0.46999998093E+01 0.  1.
       -5    1    3    3    0  502  0.29004635817E+03  0.29009003416E+02  0.24216763625E+03  0.37899296327E+03  0.46999998093E+01 0. -1.
</event>
<event>
 5   0  0.5166903E-02  0.6078098E+03  0.7818609E-02  0.9889334E-01
        1   -1    0    0  501    0  0.00000000000E+00  0.00000000000E+00  0.14811847521E+04  0.14811847521E+04  0.50400001928E-02 0. -1.
       -1   -1    0    0    0  501  0.00000000000E+00  0.00000000000E+00 -0.62354272498E+02  0.62354272702E+02  0.50400001928E-02 0.  1.
    10030    2    1    2    0    0  0.00000000000E+00  0.00000000000E+00  0.14188304796E+04  0.15435390248E+04  0.60780983149E+03 0.  0.
        2    1    3    3  502    0  0.26382029876E+03  0.85342954514E+02  0.10253125789E+04  0.10621442719E+04  0.25500000920E-02 0.  1.
       -2    1    3    3    0  502 -0.26382029876E+03 -0.85342954514E+02  0.39351790069E+03  0.48139475288E+03  0.25500000920E-02 0. -1.
</event>
<event>
 5   0  0.8575590E-02  0.6029955E+03  0.7818609E-02  0.9899211E-01
        2   -1    0    0  501    0  0.00000000000E+00  0.00000000000E+00  0.19654113572E+03  0.19654113573E+03  0.25500000920E-02 0.  1.
       -2   -1    0    0    0  501  0.00000000000E+00  0.00000000000E+00 -0.46250308696E+03  0.46250308697E+03  0.25500000920E-02 0. -1.
    10030    2    1    2    0    0  0.00000000000E+00  0.00000000000E+00 -0.26596195124E+03  0.65904422270E+03  0.60299546264E+03 0.  0.
        4    1    3    3  502    0  0.12047791414E+03  0.27633103831E+03 -0.13849994978E+03  0.33174933236E+03  0.12699999809E+01 0. -1.
       -4    1    3    3    0  502 -0.12047791414E+03 -0.27633103831E+03 -0.12746200147E+03  0.32729489035E+03  0.12699999809E+01 0.  1.
</event>
<event>
 5   0  0.8575590E-02  0.5859816E+03  0.7818609E-02  0.9934924E-01
       -2   -1    0    0    0  501  0.00000000000E+00  0.00000000000E+00  0.11763184550E+04  0.11763184550E+04  0.25500000920E-02 0.  1.
        2   -1    0    0  501    0  0.00000000000E+00  0.00000000000E+00 -0.72976498308E+02  0.72976498353E+02  0.25500000920E-02 0. -1.
    10030    2    1    2    0    0  0.00000000000E+00  0.00000000000E+00  0.11033419567E+04  0.12492949533E+04  0.58598157571E+03 0.  0.
        4    1    3    3  502    0 -0.24891588772E+03 -0.17243396129E+02  0.87908998780E+03  0.91381468221E+03  0.12699999809E+01 0.  1.
       -4    1    3    3    0  502  0.24891588772E+03  0.17243396129E+02  0.22425196885E+03  0.33548027111E+03  0.12699999809E+01 0. -1.
</event>
<event>
 5   0  0.8207443E-02  0.5965289E+03  0.7818609E-02  0.9912634E-01
       -2   -1    0    0    0  501  0.00000000000E+00  0.00000000000E+00  0.18988829377E+03  0.18988829378E+03  0.25500000920E-02 0. -1.
        2   -1    0    0  501    0  0.00000000000E+00  0.00000000000E+00 -0.46849476772E+03  0.46849476772E+03  0.25500000920E-02 0.  1.
    10030    2    1    2    0    0  0.00000000000E+00  0.00000000000E+00 -0.27860647395E+03  0.65838306151E+03  0.59652886632E+03 0.  0.
        1    1    3    3  502    0 -0.16540416239E+03  0.24399191911E+03 -0.89075285195E+02  0.30793668178E+03  0.50400001928E-02 0. -1.
       -1    1    3    3    0  502  0.16540416239E+03 -0.24399191911E+03 -0.18953118875E+03  0.35044637973E+03  0.50400001928E-02 0.  1.
</event>
<event>
 5   0  0.5125031E-02  0.5989730E+03  0.7818609E-02  0.9907539E-01
        1   -1    0    0  501    0  0.00000000000E+00  0.00000000000E+00  0.11642819924E+04  0.11642819924E+04  0.50400001928E-02 0. -1.
       -1   -1    0    0    0  501  0.00000000000E+00  0.00000000000E+00 -0.77036471155E+02  0.77036471320E+02  0.50400001928E-02 0.  1.
    10030    2    1    2    0    0  0.00000000000E+00  0.00000000000E+00  0.10872455212E+04  0.12413184637E+04  0.59897304190E+03 0.  0.
        4    1    3    3  502    0  0.22407940894E+02  0.28930286389E+03  0.69720927439E+03  0.75518252633E+03  0.12699999809E+01 0. -1.
       -4    1    3    3    0  502 -0.22407940894E+02 -0.28930286389E+03  0.39003624682E+03  0.48613593738E+03  0.12699999809E+01 0.  1.
</event>
<event>
 5   0  0.5125031E-02  0.5991988E+03  0.7818609E-02  0.9907070E-01
        1   -1    0    0  501    0  0.00000000000E+00  0.00000000000E+00  0.33845357134E+03  0.33845357138E+03  0.50400001928E-02 0.  1.
       -1   -1    0    0    0  501  0.00000000000E+00  0.00000000000E+00 -0.26520563339E+03  0.26520563344E+03  0.50400001928E-02 0. -1.
    10030    2    1    2    0    0  0.00000000000E+00  0.00000000000E+00  0.73247937951E+02  0.60365920481E+03  0.59919877765E+03 0.  0.
        4    1    3    3  502    0 -0.18516742024E+03 -0.20159449897E+03  0.15931255310E+03  0.31671662099E+03  0.12699999809E+01 0.  1.
       -4    1    3    3    0  502  0.18516742024E+03  0.20159449897E+03 -0.86064615145E+02  0.28694258383E+03  0.12699999809E+01 0. -1.
</event>
<event>
 5   0  0.8817544E-02  0.5284910E+03  0.7818609E-02  0.1006599E+00
        2   -1    0    0  501    0  0.00000000000E+00  0.00000000000E+00  0.92991341179E+03  0.92991341179E+03  0.25500000920E-02 0.  1.
       -2   -1    0    0    0  501  0.00000000000E+00  0.00000000000E+00 -0.75088381940E+02  0.75088381983E+02  0.25500000920E-02 0. -1.
    10030    2    1    2    0    0  0.00000000000E+00  0.00000000000E+00  0.85482502985E+03  0.10050017938E+04  0.52849103477E+03 0.  0.
        5    1    3    3  502    0  0.12305414708E+03  0.77266108577E+02  0.77940603605E+01  0.14558575488E+03  0.46999998093E+01 0. -1.
       -5    1    3    3    0  502 -0.12305414708E+03 -0.77266108577E+02  0.84703096949E+03  0.85941603890E+03  0.46999998093E+01 0.  1.
</event>
<event>
 5   0  0.5190380E-02  0.6044076E+03  0.7818609E-02  0.9896304E-01
       -1   -1    0    0    0  501  0.00000000000E+00  0.00000000000E+00  0.59387063316E+02  0.59387063530E+02  0.50400001928E-02 0. -1.
        1   -1    0    0  501    0  0.00000000000E+00  0.00000000000E+00 -0.15378285578E+04  0.15378285578E+04  0.50400001928E-02 0.  1.
    10030    2    1    2    0    0  0.00000000000E+00  0.00000000000E+00 -0.14784414945E+04  0.15972156213E+04  0.60440755160E+03 0.  0.
        5    1    3    3  502    0 -0.10612256438E+03  0.28057579486E+03 -0.64320048885E+03  0.70972792969E+03  0.46999998093E+01 0. -1.
       -5    1    3    3    0  502  0.10612256438E+03 -0.28057579486E+03 -0.83524100562E+03  0.88748769163E+03  0.46999998093E+01 0.  1.
</event>
<event>
 5   0  0.5190380E-02  0.4833643E+03  0.7818609E-02  0.1018215E+00
       -1   -1    0    0    0  501  0.00000000000E+00  0.00000000000E+00  0.16074741433E+03  0.16074741441E+03  0.50400001928E-02 0. -1.
        1   -1    0    0  501    0  0.00000000000E+00  0.00000000000E+00 -0.36336673055E+03  0.36336673058E+03  0.50400001928E-02 0.  1.
    10030    2    1    2    0    0  0.00000000000E+00  0.00000000000E+00 -0.20261931622E+03  0.52411414499E+03  0.48336430327E+03 0.  0.
        5    1    3    3  502    0  0.71354825338E+02 -0.15649516949E+03  0.82721858850E+02  0.19091161595E+03  0.46999998093E+01 0. -1.
       -5    1    3    3    0  502 -0.71354825338E+02  0.15649516949E+03 -0.28534117507E+03  0.33320252904E+03  0.46999998093E+01 0.  1.
</event>
<event>
 5   0  0.8420604E-02  0.6114271E+03  0.7818609E-02  0.9881978E-01
        2   -1    0    0  501    0  0.00000000000E+00  0.00000000000E+00  0.15283863440E+04  0.15283863440E+04  0.25500000920E-02 0.  1.
       -2   -1    0    0    0  501  0.00000000000E+00  0.00000000000E+00 -0.61149967839E+02  0.61149967892E+02  0.25500000920E-02 0. -1.
    10030    2    1    2    0    0  0.00000000000E+00  0.00000000000E+00  0.14672363762E+04  0.15895363119E+04  0.61142710384E+03 0.  0.
        2    1    3    3  502    0 -0.41785413147E+02  0.18852424810E+03  0.11746176616E+03  0.22601920137E+03  0.25500000920E-02 0. -1.
       -2    1    3    3    0  502  0.41785413147E+02 -0.18852424810E+03  0.13497746100E+04  0.13635171105E+04  0.25500000920E-02 0.  1.
</event>
<event>
 5   0  0.4881209E-02  0.5991206E+03  0.7818609E-02  0.9907232E-01
        1   -1    0    0  501    0  0.00000000000E+00  0.00000000000E+00  0.79249355520E+03  0.79249355522E+03  0.50400001928E-02 0.  1.
       -1   -1    0    0    0  501  0.00000000000E+00  0.00000000000E+00 -0.11323293329E+03  0.11323293340E+03  0.50400001928E-02 0. -1.
    10030    2    1    2    0    0  0.00000000000E+00  0.00000000000E+00  0.67926062191E+03  0.90572648862E+03  0.59912058861E+03 0.  0.
        3    1    3    3  502    0 -0.10535956192E+03  0.27363159625E+02 -0.82275257237E+02  0.13645001996E+03  0.10100000352E+00 0. -1.
       -3    1    3    3    0  502  0.10535956192E+03 -0.27363159625E+02  0.76153587915E+03  0.76927646866E+03  0.10100000352E+00 0.  1.
</event>
<event>
 5   0  0.8699746E-02  0.6171988E+03  0.7818609E-02  0.9870353E-01
       -2   -1    0    0    0  501  0.00000000000E+00  0.00000000000E+00  0.49782028201E+03  0.49782028202E+03  0.25500000920E-02 0.  1.
        2   -1    0    0  501    0  0.00000000000E+00  0.00000000000E+00 -0.19130111963E+03  0.19130111965E+03  0.25500000920E-02 0. -1.
    10030    2    1    2    0    0  0.00000000000E+00  0.00000000000E+00  0.30651916238E+03  0.68912140167E+03  0.61719875999E+03 0.  0.
        3    1    3    3  502    0  0.11538147801E+03 -0.25186141822E+03  0.14503675469E+01  0.27703641136E+03  0.10100000352E+00 0. -1.
       -3    1    3    3    0  502 -0.11538147801E+03  0.25186141822E+03  0.30506879483E+03  0.41208499031E+03  0.10100000352E+00 0.  1.
</event>
<event>
 5   0  0.5190380E-02  0.5975464E+03  0.7818609E-02  0.9910510E-01
        1   -1    0    0  501    0  0.00000000000E+00  0.00000000000E+00  0.66237483773E+03  0.66237483775E+03  0.50400001928E-02 0.  1.
       -1   -1    0    0    0  501  0.00000000000E+00  0.00000000000E+00 -0.13476573456E+03  0.13476573465E+03  0.50400001928E-02 0. -1.
    10030    2    1    2    0    0  0.00000000000E+00  0.00000000000E+00  0.52760910317E+03  0.79714057239E+03  0.59754642197E+03 0.  0.
        5    1    3    3  502    0 -0.15264126456E+03 -0.73654623065E+02  0.59198225583E+03  0.61578359865E+03  0.46999998093E+01 0.  1.
       -5    1    3    3    0  502  0.15264126456E+03  0.73654623065E+02 -0.64373152661E+02  0.18135697375E+03  0.46999998093E+01 0. -1.
</event>
<event>
 5   0  0.8575590E-02  0.6036527E+03  0.7818609E-02  0.9897857E-01
        2   -1    0    0  501    0  0.00000000000E+00  0.00000000000E+00  0.14134966685E+03  0.14134966687E+03  0.25500000920E-02 0. -1.
       -2   -1    0    0    0  501  0.00000000000E+00  0.00000000000E+00 -0.64449484307E+03  0.64449484308E+03  0.25500000920E-02 0.  1.
    10030    2    1    2    0    0  0.00000000000E+00  0.00000000000E+00 -0.50314517623E+03  0.78584450995E+03  0.60365265299E+03 0.  0.
        4    1    3    3  502    0  0.13363673296E+03  0.15967984200E+03 -0.53601586654E+03  0.57504004245E+03  0.12699999809E+01 0.  1.
       -4    1    3    3    0  502 -0.13363673296E+03 -0.15967984200E+03  0.32870690309E+02  0.21080446750E+03  0.12699999809E+01 0. -1.
</event>
<event>
 5   0  0.8575590E-02  0.5976723E+03  0.7818609E-02  0.9910247E-01
        2   -1    0    0  501    0  0.00000000000E+00  0.00000000000E+00  0.12456396266E+03  0.12456396268E+03  0.25500000920E-02 0.  1.
       -2   -1    0    0    0  501  0.00000000000E+00  0.00000000000E+00 -0.71692526530E+03  0.71692526530E+03  0.25500000920E-02 0. -1.
    10030    2    1    2    0    0  0.00000000000E+00  0.00000000000E+00 -0.59236130264E+03  0.84148922799E+03  0.59767232490E+03 0.  0.
        4    1    3    3  502    0  0.13476995323E+03 -0.19520853805E+03 -0.40290439238E+02  0.24061223164E+03  0.12699999809E+01 0.  1.
       -4    1    3    3    0  502 -0.13476995323E+03  0.19520853805E+03 -0.55207086340E+03  0.60087699635E+03  0.12699999809E+01 0. -1.
</event>
<event>
 5   0  0.5166903E-02  0.5821716E+03  0.7818609E-02  0.9943101E-01
        1   -1    0    0  501    0  0.00000000000E+00  0.00000000000E+00  0.19590009207E+03  0.19590009214E+03  0.50400001928E-02 0.  1.
       -1   -1    0    0    0  501  0.00000000000E+00  0.00000000000E+00 -0.43252124681E+03  0.43252124684E+03  0.50400001928E-02 0. -1.
    10030    2    1    2    0    0  0.00000000000E+00  0.00000000000E+00 -0.23662115474E+03  0.62842133898E+03  0.58217163141E+03 0.  0.
        2    1    3    3  502    0  0.10832753986E+03  0.91590304264E+01  0.17316355016E+03  0.20446114262E+03  0.25500000920E-02 0.  1.
       -2    1    3    3    0  502 -0.10832753986E+03 -0.91590304264E+01 -0.40978470489E+03  0.42396019636E+03  0.25500000920E-02 0. -1.
</event>
<event>
 5   0  0.8207443E-02  0.5955434E+03  0.7818609E-02  0.9914695E-01
        2   -1    0    0  501    0  0.00000000000E+00  0.00000000000E+00  0.43368473982E+03  0.43368473983E+03  0.25500000920E-02 0.  1.
       -2   -1    0    0    0  501  0.00000000000E+00  0.00000000000E+00 -0.20445264665E+03  0.20445264667E+03  0.25500000920E-02 0. -1.
    10030    2    1    2    0    0  0.00000000000E+00  0.00000000000E+00  0.22923209317E+03  0.63813738650E+03  0.59554342538E+03 0.  0.
        1    1    3    3  502    0  0.87842745928E+02 -0.13815422089E+03 -0.15190006006E+03  0.22333061822E+03  0.50400001928E-02 0. -1.
       -1    1    3    3    0  502 -0.87842745928E+02  0.13815422089E+03  0.38113215323E+03  0.41480676828E+03  0.50400001928E-02 0.  1.
</event>
<event>
 5   0  0.4987389E-02  0.6040327E+03  0.7818609E-02  0.9897075E-01
        1   -1    0    0  501    0  0.00000000000E+00  0.00000000000E+00  0.10670656991E+03  0.10670657003E+03  0.50400001928E-02 0. -1.
       -1   -1    0    0    0  501  0.00000000000E+00  0.00000000000E+00 -0.85481040018E+03  0.85481040020E+03  0.50400001928E-02 0.  1.
    10030    2    1    2    0    0  0.00000000000E+00  0.00000000000E+00 -0.74810383027E+03  0.96151697023E+03  0.60403273353E+03 0.  0.
        1    1    3    3  502    0  0.16270389580E+03 -0.20895498740E+03 -0.60516414978E+03  0.66057429005E+03  0.50400001928E-02 0.  1.
       -1    1    3    3    0  502 -0.16270389580E+03  0.20895498740E+03 -0.14293968049E+03  0.30094268018E+03  0.50400001928E-02 0. -1.
</event>
<event>
 5   0  0.5190380E-02  0.5990873E+03  0.7818609E-02  0.9907301E-01
        1   -1    0    0  501    0  0.00000000000E+00  0.00000000000E+00  0.69533078235E+03  0.69533078237E+03  0.50400001928E-02 0. -1.
       -1   -1    0    0    0  501  0.00000000000E+00  0.00000000000E+00 -0.12904131732E+03  0.12904131742E+03  0.50400001928E-02 0.  1.
    10030    2    1    2    0    0  0.00000000000E+00  0.00000000000E+00  0.56628946503E+03  0.82437209979E+03  0.59908730642E+03 0.  0.
        5    1    3    3  502    0  0.12613974257E+03  0.25954163425E+03  0.17279286117E+03  0.33638156524E+03  0.46999998093E+01 0.  1.
       -5    1    3    3    0  502 -0.12613974257E+03 -0.25954163425E+03  0.39349660386E+03  0.48799053455E+03  0.46999998093E+01 0. -1.
</event>
<event>
 5   0  0.8207443E-02  0.5986218E+03  0.7818609E-02  0.9908270E-01
        2   -1    0    0  501    0  0.00000000000E+00  0.00000000000E+00  0.65185243162E+03  0.65185243162E+03  0.25500000920E-02 0.  1.
       -2   -1    0    0    0  501  0.00000000000E+00  0.00000000000E+00 -0.13743448153E+03  0.13743448155E+03  0.25500000920E-02 0. -1.
    10030    2    1    2    0    0  0.00000000000E+00  0.00000000000E+00  0.51441795009E+03  0.78928691318E+03  0.59862175365E+03 0.  0.
        1    1    3    3  502    0 -0.11292964510E+03  0.15811871992E+03  0.55738978603E+03  0.59028637790E+03  0.50400001928E-02 0.  1.
       -1    1    3    3    0  502  0.11292964510E+03 -0.15811871992E+03 -0.42971835945E+02  0.19900053528E+03  0.50400001928E-02 0. -1.
</event>
<event>
 5   0  0.4881209E-02  0.5253382E+03  0.7818609E-02  0.1007369E+00
       -1   -1    0    0    0  501  0.00000000000E+00  0.00000000000E+00  0.93790905142E+02  0.93790905277E+02  0.50400001928E-02 0.  1.
        1   -1    0    0  501    0  0.00000000000E+00  0.00000000000E+00 -0.73562629550E+03  0.73562629551E+03  0.50400001928E-02 0. -1.
    10030    2    1    2    0    0  0.00000000000E+00  0.00000000000E+00 -0.64183539035E+03  0.82941720079E+03  0.52533820026E+03 0.  0.
        3    1    3    3  502    0 -0.16639348615E+03  0.83071640197E+02 -0.61377745934E+03  0.64133491207E+03  0.10100000352E+00 0. -1.
       -3    1    3    3    0  502  0.16639348615E+03 -0.83071640197E+02 -0.28057931013E+02  0.18808228872E+03  0.10100000352E+00 0.  1.
</event>
<event>
 5   0  0.4881209E-02  0.6086612E+03  0.7818609E-02  0.9887598E-01
        1   -1    0    0  501    0  0.00000000000E+00  0.00000000000E+00  0.37827059185E+03  0.37827059189E+03  0.50400001928E-02 0. -1.
       -1   -1    0    0    0  501  0.00000000000E+00  0.00000000000E+00 -0.24484353460E+03  0.24484353466E+03  0.50400001928E-02 0.  1.
    10030    2    1    2    0    0  0.00000000000E+00  0.00000000000E+00  0.13342705725E+03  0.62311412654E+03  0.60866118251E+03 0.  0.
        3    1    3    3  502    0  0.23896641382E+03 -0.10482423432E+03  0.22703361005E+03  0.34588630694E+03  0.10100000352E+00 0. -1.
       -3    1    3    3    0  502 -0.23896641382E+03  0.10482423432E+03 -0.93606552797E+02  0.27722781960E+03  0.10100000352E+00 0.  1.
</event>
<event>
 5   0  0.5125031E-02  0.6091455E+03  0.7818609E-02  0.9886612E-01
       -1   -1    0    0    0  501  0.00000000000E+00  0.00000000000E+00  0.11006032000E+03  0.11006032012E+03  0.50400001928E-02 0. -1.
        1   -1    0    0  501    0  0.00000000000E+00  0.00000000000E+00 -0.84285189770E+03  0.84285189772E+03  0.50400001928E-02 0.  1.
    10030    2    1    2    0    0  0.00000000000E+00  0.00000000000E+00 -0.73279157770E+03  0.95291221783E+03  0.60914546584E+03 0.  0.
        4    1    3    3  502    0 -0.26613620107E+02 -0.13894801286E+03  0.55536451889E+02  0.15198929384E+03  0.12699999809E+01 0. -1.
       -4    1    3    3    0  502  0.26613620107E+02  0.13894801286E+03 -0.78832802959E+03  0.80092292400E+03  0.12699999809E+01 0.  1.
</event>
<event>
 5   0  0.8817544E-02  0.6209946E+03  0.7818609E-02  0.9862782E-01
        2   -1    0    0  501    0  0.00000000000E+00  0.00000000000E+00  0.53268751915E+03  0.53268751916E+03  0.25500000920E-02 0. -1.
       -2   -1    0    0    0  501  0.00000000000E+00  0.00000000000E+00 -0.18098521248E+03  0.18098521250E+03  0.25500000920E-02 0.  1.
    10030    2    1    2    0    0  0.00000000000E+00  0.00000000000E+00  0.35170230667E+03  0.71367273166E+03  0.62099456953E+03 0.  0.
        5    1    3    3  502    0 -0.18582802745E+03  0.22550587131E+03  0.55309359912E+02  0.29743262947E+03  0.46999998093E+01 0.  1.
       -5    1    3    3    0  502  0.18582802745E+03 -0.22550587131E+03  0.29639294676E+03  0.41624010219E+03  0.46999998093E+01 0. -1.
</event>
<event>
 5   0  0.8207443E-02  0.5987210E+03  0.7818609E-02  0.9908063E-01
        2   -1    0    0  501    0  0.00000000000E+00  0.00000000000E+00  0.30453824742E+03  0.30453824743E+03  0.25500000920E-02 0. -1.
       -2   -1    0    0    0  501  0.00000000000E+00  0.00000000000E+00 -0.29427081323E+03  0.29427081324E+03  0.25500000920E-02 0.  1.
    10030    2    1    2    0    0  0.00000000000E+00  0.00000000000E+00  0.10267434194E+02  0.59880906067E+03  0.59872102931E+03 0.  0.
        1    1    3    3  502    0  0.19501502487E+03 -0.16139716144E+03 -0.15469220099E+03  0.29666408734E+03  0.50400001928E-02 0.  1.
       -1    1    3    3    0  502 -0.19501502487E+03  0.16139716144E+03  0.16495963519E+03  0.30214497333E+03  0.50400001928E-02 0. -1.
</event>
<event>
 5   0  0.5166903E-02  0.6002673E+03  0.7818609E-02  0.9904852E-01
        1   -1    0    0  501    0  0.00000000000E+00  0.00000000000E+00  0.80229041953E+03  0.80229041955E+03  0.50400001928E-02 0. -1.
       -1   -1    0    0    0  501  0.00000000000E+00  0.00000000000E+00 -0.11227880758E+03  0.11227880769E+03  0.50400001928E-02 0.  1.
    10030    2    1    2    0    0  0.00000000000E+00  0.00000000000E+00  0.69001161196E+03  0.91456922724E+03  0.60026731277E+03 0.  0.
        2    1    3    3  502    0  0.13044996861E+03  0.68135310766E+02 -0.53528139526E+02  0.15660420369E+03  0.25500000920E-02 0.  1.
       -2    1    3    3    0  502 -0.13044996861E+03 -0.68135310766E+02  0.74353975148E+03  0.75796502355E+03  0.25500000920E-02 0. -1.
</event>
<event>
 5   0  0.4881209E-02  0.5996791E+03  0.7818609E-02  0.9906072E-01
        1   -1    0    0  501    0  0.00000000000E+00  0.00000000000E+00  0.31880851902E+03  0.31880851906E+03  0.50400001928E-02 0. -1.
       -1   -1    0    0    0  501  0.00000000000E+00  0.00000000000E+00 -0.28199923184E+03  0.28199923188E+03  0.50400001928E-02 0.  1.
    10030    2    1    2    0    0  0.00000000000E+00  0.00000000000E+00  0.36809287186E+02  0.60080775095E+03  0.59967910584E+03 0.  0.
        3    1    3    3  502    0 -0.28104155509E+03  0.39816362900E+02  0.11519935834E+03  0.30633413261E+03  0.10100000352E+00 0.  1.
       -3    1    3    3    0  502  0.28104155509E+03 -0.39816362900E+02 -0.78390071152E+02  0.29447361834E+03  0.10100000352E+00 0. -1.
</event>
<event>
 5   0  0.8699746E-02  0.6018608E+03  0.7818609E-02  0.9901553E-01
        2   -1    0    0  501    0  0.00000000000E+00  0.00000000000E+00  0.65117003656E+03  0.65117003657E+03  0.25500000920E-02 0.  1.
       -2   -1    0    0    0  501  0.00000000000E+00  0.00000000000E+00 -0.13907136217E+03  0.13907136219E+03  0.25500000920E-02 0. -1.
    10030    2    1    2    0    0  0.00000000000E+00  0.00000000000E+00  0.51209867439E+03  0.79024139876E+03  0.60186079454E+03 0.  0.
        3    1    3    3  502    0 -0.86401281239E+02  0.12850473137E+03 -0.82745727144E+02  0.17557195945E+03  0.10100000352E+00 0. -1.
       -3    1    3    3    0  502  0.86401281239E+02 -0.12850473137E+03  0.59484440153E+03  0.61466943931E+03  0.10100000352E+00 0.  1.
</event>
<event>
 5   0  0.8207443E-02  0.6190484E+03  0.7818609E-02  0.9866656E-01
       -2   -1    0    0    0  501  0.00000000000E+00  0.00000000000E+00  0.97617410963E+02  0.97617410996E+02  0.25500000920E-02 0. -1.
        2   -1    0    0  501    0  0.00000000000E+00  0.00000000000E+00 -0.98143603409E+03  0.98143603409E+03  0.25500000920E-02 0.  1.
    10030    2    1    2    0    0  0.00000000000E+00  0.00000000000E+00 -0.88381862312E+03  0.10790534451E+04  0.61904844622E+03 0.  0.
        1    1    3    3  502    0  0.16462188127E+03 -0.18517400693E+03 -0.11854271343E+03  0.27466734711E+03  0.50400001928E-02 0. -1.
       -1    1    3    3    0  502 -0.16462188127E+03  0.18517400693E+03 -0.76527590969E+03  0.80438609798E+03  0.50400001928E-02 0.  1.
</event>
<event>
 5   0  0.3437375E-02  0.5946314E+03  0.7818609E-02  0.9916607E-01
        3   -1    0    0  501    0  0.00000000000E+00  0.00000000000E+00  0.70205800926E+02  0.70205873577E+02  0.10100000352E+00 0. -1.
       -3   -1    0    0    0  501  0.00000000000E+00  0.00000000000E+00 -0.12591064249E+04  0.12591064290E+04  0.10100000352E+00 0.  1.
    10030    2    1    2    0    0  0.00000000000E+00  0.00000000000E+00 -0.11889006240E+04  0.13293123026E+04  0.59463140178E+03 0.  0.
        2    1    3    3  502    0 -0.85253234310E+02  0.18954073896E+03 -0.11915672977E+03  0.23956655013E+03  0.25500000920E-02 0. -1.
       -2    1    3    3    0  502  0.85253234310E+02 -0.18954073896E+03 -0.10697438942E+04  0.10897457524E+04  0.25500000920E-02 0.  1.
</event>
<event>
 5   0  0.5190380E-02  0.6001645E+03  0.7818609E-02  0.9905065E-01
        1   -1    0    0  501    0  0.00000000000E+00  0.00000000000E+00  0.29091289273E+03  0.29091289277E+03  0.50400001928E-02 0.  1.
       -1   -1    0    0    0  501  0.00000000000E+00  0.00000000000E+00 -0.30954061301E+03  0.30954061305E+03  0.50400001928E-02 0. -1.
    10030    2    1    2    0    0  0.00000000000E+00  0.00000000000E+00 -0.18627720277E+02  0.60045350582E+03  0.60016449469E+03 0.  0.
        5    1    3    3  502    0 -0.27006823966E+03 -0.11645881583E+03 -0.68737371811E+02  0.30207023378E+03  0.46999998093E+01 0. -1.
       -5    1    3    3    0  502  0.27006823966E+03  0.11645881583E+03  0.50109651534E+02  0.29838327204E+03  0.46999998093E+01 0.  1.
</event>
<event>
 5   0  0.5166903E-02  0.6039696E+03  0.7818609E-02  0.9897204E-01
        1   -1    0    0  501    0  0.00000000000E+00  0.00000000000E+00  0.14597931462E+04  0.14597931463E+04  0.50400001928E-02 0.  1.
       -1   -1    0    0    0  501  0.00000000000E+00  0.00000000000E+00 -0.62471057181E+02  0.62471057384E+02  0.50400001928E-02 0. -1.
    10030    2    1    2    0    0  0.00000000000E+00  0.00000000000E+00  0.13973220891E+04  0.15222642036E+04  0.60396960610E+03 0.  0.
        2    1    3    3  502    0 -0.26843251398E+03 -0.51734798897E+02  0.37527562503E+03  0.46428902499E+03  0.25500000920E-02 0. -1.
       -2    1    3    3    0  502  0.26843251398E+03  0.51734798897E+02  0.10220464640E+04  0.10579751786E+04  0.25500000920E-02 0.  1.
</event>
<event>
 5   0  0.5190380E-02  0.6015879E+03  0.7818609E-02  0.9902117E-01
        1   -1    0    0  501    0  0.00000000000E+00  0.00000000000E+00  0.47872692575E+02  0.47872692840E+02  0.50400001928E-02 0. -1.
       -1   -1    0    0    0  501  0.00000000000E+00  0.00000000000E+00 -0.18899501887E+04  0.18899501887E+04  0.50400001928E-02 0.  1.
    10030    2    1    2    0    0  0.00000000000E+00  0.00000000000E+00 -0.18420774961E+04  0.19378228815E+04  0.60158791420E+03 0.  0.
        5    1    3    3  502    0  0.24627736420E+02  0.65825846362E+02 -0.18630086114E+04  0.18643397608E+04  0.46999998093E+01 0.  1.
       -5    1    3    3    0  502 -0.24627736420E+02 -0.65825846362E+02  0.20931115292E+02  0.73483120756E+02  0.46999998093E+01 0. -1.
</event>
<event>
 5   0  0.5166903E-02  0.5821526E+03  0.7818609E-02  0.9943141E-01
        1   -1    0    0  501    0  0.00000000000E+00  0.00000000000E+00  0.50090663713E+03  0.50090663716E+03  0.50400001928E-02 0.  1.
       -1   -1    0    0    0  501  0.00000000000E+00  0.00000000000E+00 -0.16914413530E+03  0.16914413537E+03  0.50400001928E-02 0. -1.
    10030    2    1    2    0    0  0.00000000000E+00  0.00000000000E+00  0.33176250184E+03  0.67005077253E+03  0.58215262616E+03 0.  0.
        2    1    3    3  502    0 -0.49202895653E+01 -0.26472871716E+02 -0.16770759647E+03  0.16985540941E+03  0.25500000920E-02 0. -1.
       -2    1    3    3    0  502  0.49202895653E+01  0.26472871716E+02  0.49947009830E+03  0.50019536312E+03  0.25500000920E-02 0.  1.
</event>
<event>
 5   0  0.5190380E-02  0.5222330E+03  0.7818609E-02  0.1008133E+00
       -1   -1    0    0    0  501  0.00000000000E+00  0.00000000000E+00  0.35667553047E+03  0.35667553051E+03  0.50400001928E-02 0.  1.
        1   -1    0    0  501    0  0.00000000000E+00  0.00000000000E+00 -0.19115923429E+03  0.19115923435E+03  0.50400001928E-02 0. -1.
    10030    2    1    2    0    0  0.00000000000E+00  0.00000000000E+00  0.16551629618E+03  0.54783476486E+03  0.52223297989E+03 0.  0.
        5    1    3    3  502    0  0.19850876791E+02  0.25465398952E+03  0.26100966077E+02  0.25679965365E+03  0.46999998093E+01 0.  1.
       -5    1    3    3    0  502 -0.19850876791E+02 -0.25465398952E+03  0.13941533011E+03  0.29103511121E+03  0.46999998093E+01 0. -1.
</event>
<event>
 5   0  0.3437375E-02  0.6287626E+03  0.7818609E-02  0.9847466E-01
        4   -1    0    0  501    0  0.00000000000E+00  0.00000000000E+00  0.42466279491E+03  0.42466469394E+03  0.12699999809E+01 0. -1.
       -4   -1    0    0    0  501  0.00000000000E+00  0.00000000000E+00 -0.23273488831E+03  0.23273835338E+03  0.12699999809E+01 0.  1.
    10030    2    1    2    0    0  0.00000000000E+00  0.00000000000E+00  0.19192790660E+03  0.65740304733E+03  0.62876263033E+03 0.  0.
        1    1    3    3  502    0  0.28998602133E+02 -0.23217965124E+03 -0.12357002700E+03  0.26460888302E+03  0.50400001928E-02 0.  1.
       -1    1    3    3    0  502 -0.28998602133E+02  0.23217965124E+03  0.31549793361E+03  0.39279416430E+03  0.50400001928E-02 0. -1.
</event>
<event>
 5   0  0.8699746E-02  0.5994254E+03  0.7818609E-02  0.9906599E-01
        2   -1    0    0  501    0  0.00000000000E+00  0.00000000000E+00  0.22506799245E+03  0.22506799246E+03  0.25500000920E-02 0.  1.
       -2   -1    0    0    0  501  0.00000000000E+00  0.00000000000E+00 -0.39911356706E+03  0.39911356707E+03  0.25500000920E-02 0. -1.
    10030    2    1    2    0    0  0.00000000000E+00  0.00000000000E+00 -0.17404557461E+03  0.62418155954E+03  0.59942535584E+03 0.  0.
        3    1    3    3  502    0 -0.29145843736E+03 -0.44170635024E+02 -0.30671110074E+02  0.29637778746E+03  0.10100000352E+00 0.  1.
       -3    1    3    3    0  502  0.29145843736E+03  0.44170635024E+02 -0.14337446454E+03  0.32780377208E+03  0.10100000352E+00 0. -1.
</event>
<event>
 5   0  0.8420604E-02  0.5930188E+03  0.7818609E-02  0.9919997E-01
        2   -1    0    0  501    0  0.00000000000E+00  0.00000000000E+00  0.10385697790E+04  0.10385697790E+04  0.25500000920E-02 0.  1.
       -2   -1    0    0    0  501  0.00000000000E+00  0.00000000000E+00 -0.84652786150E+02  0.84652786188E+02  0.25500000920E-02 0. -1.
    10030    2    1    2    0    0  0.00000000000E+00  0.00000000000E+00  0.95391699287E+03  0.11232225652E+04  0.59301880384E+03 0.  0.
        2    1    3    3  502    0  0.22471509336E+01 -0.15236851095E+03  0.95872669227E+03  0.97076159961E+03  0.25500000920E-02 0.  1.
       -2    1    3    3    0  502 -0.22471509336E+01  0.15236851095E+03 -0.48096993984E+01  0.15246096560E+03  0.25500000920E-02 0. -1.
</event>
<event>
 5   0  0.8207443E-02  0.5911627E+03  0.7818609E-02  0.9923912E-01
        2   -1    0    0  501    0  0.00000000000E+00  0.00000000000E+00  0.11803050022E+04  0.11803050022E+04  0.25500000920E-02 0.  1.
       -2   -1    0    0    0  501  0.00000000000E+00  0.00000000000E+00 -0.74021827326E+02  0.74021827369E+02  0.25500000920E-02 0. -1.
    10030    2    1    2    0    0  0.00000000000E+00  0.00000000000E+00  0.11062831749E+04  0.12543268296E+04  0.59116269536E+03 0.  0.
        1    1    3    3  502    0  0.11112023602E+03  0.23523325145E+03  0.25543954807E+03  0.36459806937E+03  0.50400001928E-02 0. -1.
       -1    1    3    3    0  502 -0.11112023602E+03 -0.23523325145E+03  0.85084362683E+03  0.88972876023E+03  0.50400001928E-02 0.  1.
</event>
<event>
 5   0  0.5166903E-02  0.6083149E+03  0.7818609E-02  0.9888304E-01
        1   -1    0    0  501    0  0.00000000000E+00  0.00000000000E+00  0.48152941467E+03  0.48152941470E+03  0.50400001928E-02 0. -1.
       -1   -1    0    0    0  501  0.00000000000E+00  0.00000000000E+00 -0.19212068680E+03  0.19212068686E+03  0.50400001928E-02 0.  1.
    10030    2    1    2    0    0  0.00000000000E+00  0.00000000000E+00  0.28940872788E+03  0.67365010156E+03  0.60831492466E+03 0.  0.
        2    1    3    3  502    0  0.84377937038E+02  0.27015562753E+03  0.26805968691E+03  0.38982008042E+03  0.25500000920E-02 0. -1.
       -2    1    3    3    0  502 -0.84377937038E+02 -0.27015562753E+03  0.21349040968E+02  0.28383002115E+03  0.25500000920E-02 0.  1.
</event>
<event>
 5   0  0.8575590E-02  0.5672751E+03  0.7818609E-02  0.9975727E-01
       -2   -1    0    0    0  501  0.00000000000E+00  0.00000000000E+00  0.16477615077E+03  0.16477615079E+03  0.25500000920E-02 0.  1.
        2   -1    0    0  501    0  0.00000000000E+00  0.00000000000E+00 -0.48823975843E+03  0.48823975843E+03  0.25500000920E-02 0. -1.
    10030    2    1    2    0    0  0.00000000000E+00  0.00000000000E+00 -0.32346360766E+03  0.65301590922E+03  0.56727512921E+03 0.  0.
        4    1    3    3  502    0 -0.21586533730E+03 -0.18393918006E+03 -0.16650445493E+03  0.32887203016E+03  0.12699999809E+01 0.  1.
       -4    1    3    3    0  502  0.21586533730E+03  0.18393918006E+03 -0.15695915272E+03  0.32414387906E+03  0.12699999809E+01 0. -1.
</event>
<event>
 5   0  0.5125031E-02  0.6028005E+03  0.7818609E-02  0.9899613E-01
       -1   -1    0    0    0  501  0.00000000000E+00  0.00000000000E+00  0.39198161206E+02  0.39198161530E+02  0.50400001928E-02 0.  1.
        1   -1    0    0  501    0  0.00000000000E+00  0.00000000000E+00 -0.23175095612E+04  0.23175095612E+04  0.50400001928E-02 0. -1.
    10030    2    1    2    0    0  0.00000000000E+00  0.00000000000E+00 -0.22783114000E+04  0.23567077228E+04  0.60280051017E+03 0.  0.
        4    1    3    3  502    0  0.12118907390E+03 -0.26653264325E+03 -0.14187414254E+04  0.14486391154E+04  0.12699999809E+01 0. -1.
       -4    1    3    3    0  502 -0.12118907390E+03  0.26653264325E+03 -0.85956997463E+03  0.90806860740E+03  0.12699999809E+01 0.  1.
</event>
<event>
 5   0  0.5166903E-02  0.6151118E+03  0.7818609E-02  0.9874541E-01
       -1   -1    0    0    0  501  0.00000000000E+00  0.00000000000E+00  0.25051171002E+03  0.25051171007E+03  0.50400001928E-02 0. -1.
        1   -1    0    0  501    0  0.00000000000E+00  0.00000000000E+00 -0.37758969074E+03  0.37758969077E+03  0.50400001928E-02 0.  1.
    10030    2    1    2    0    0  0.00000000000E+00  0.00000000000E+00 -0.12707798072E+03  0.62810140084E+03  0.61511182443E+03 0.  0.
        2    1    3    3  502    0  0.15458775787E+03 -0.26587685635E+03 -0.61842120211E+02  0.31370738829E+03  0.25500000920E-02 0.  1.
       -2    1    3    3    0  502 -0.15458775787E+03  0.26587685635E+03 -0.65235860506E+02  0.31439401255E+03  0.25500000920E-02 0. -1.
</event>
<event>
 5   0  0.8699746E-02  0.6073584E+03  0.7818609E-02  0.9890256E-01
        2   -1    0    0  501    0  0.00000000000E+00  0.00000000000E+00  0.48191610848E+02  0.48191610915E+02  0.25500000920E-02 0. -1.
       -2   -1    0    0    0  501  0.00000000000E+00  0.00000000000E+00 -0.19136326968E+04  0.19136326968E+04  0.25500000920E-02 0.  1.
    10030    2    1    2    0    0  0.00000000000E+00  0.00000000000E+00 -0.18654410859E+04  0.19618243077E+04  0.60735835319E+03 0.  0.
        3    1    3    3  502    0 -0.24500990989E+03 -0.12769141416E+02 -0.35464997114E+03  0.43124183372E+03  0.10100000352E+00 0. -1.
       -3    1    3    3    0  502  0.24500990989E+03  0.12769141416E+02 -0.15107911148E+04  0.15305824740E+04  0.10100000352E+00 0.  1.
</event>
<event>
 5   0  0.4881209E-02  0.6044371E+03  0.7818609E-02  0.9896243E-01
        1   -1    0    0  501    0  0.00000000000E+00  0.00000000000E+00  0.64663997540E+03  0.64663997542E+03  0.50400001928E-02 0. -1.
       -1   -1    0    0    0  501  0.00000000000E+00  0.00000000000E+00 -0.14124712406E+03  0.14124712415E+03  0.50400001928E-02 0.  1.
    10030    2    1    2    0    0  0.00000000000E+00  0.00000000000E+00  0.50539285133E+03  0.78788709957E+03  0.60443705007E+03 0.  0.
        3    1    3    3  502    0 -0.24191705658E+03  0.17906241761E+03  0.21702666610E+03  0.37106306157E+03  0.10100000352E+00 0.  1.
       -3    1    3    3    0  502  0.24191705658E+03 -0.17906241761E+03  0.28836618524E+03  0.41682403800E+03  0.10100000352E+00 0. -1.
</event>
<event>
 5   0  0.8699746E-02  0.5994936E+03  0.7818609E-02  0.9906457E-01
        2   -1    0    0  501    0  0.00000000000E+00  0.00000000000E+00  0.34576369957E+03  0.34576369958E+03  0.25500000920E-02 0.  1.
       -2   -1    0    0    0  501  0.00000000000E+00  0.00000000000E+00 -0.25985416053E+03  0.25985416054E+03  0.25500000920E-02 0. -1.
    10030    2    1    2    0    0  0.00000000000E+00  0.00000000000E+00  0.85909539037E+02  0.60561786012E+03  0.59949357261E+03 0.  0.
        3    1    3    3  502    0  0.13129088230E+03 -0.26924877960E+03  0.53831590045E+02  0.30435185457E+03  0.10100000352E+00 0. -1.
       -3    1    3    3    0  502 -0.13129088230E+03  0.26924877960E+03  0.32077948993E+02  0.30126600555E+03  0.10100000352E+00 0.  1.
</event>
<event>
 5   0  0.3437375E-02  0.6199620E+03  0.7818609E-02  0.9864835E-01
        3   -1    0    0  501    0  0.00000000000E+00  0.00000000000E+00  0.74212894175E+03  0.74212894862E+03  0.10100000352E+00 0. -1.
       -3   -1    0    0    0  501  0.00000000000E+00  0.00000000000E+00 -0.12947641792E+03  0.12947645731E+03  0.10100000352E+00 0.  1.
    10030    2    1    2    0    0  0.00000000000E+00  0.00000000000E+00  0.61265252383E+03  0.87160540593E+03  0.61996198972E+03 0.  0.
        2    1    3    3  502    0 -0.65081645077E+02 -0.71780157673E+02 -0.10763996923E+03  0.14482532425E+03  0.25500000920E-02 0.  1.
       -2    1    3    3    0  502  0.65081645077E+02  0.71780157673E+02  0.72029249306E+03  0.72678008168E+03  0.25500000920E-02 0. -1.
</event>
<event>
 5   0  0.5125031E-02  0.5839462E+03  0.7818609E-02  0.9939284E-01
        1   -1    0    0  501    0  0.00000000000E+00  0.00000000000E+00  0.76792991107E+03  0.76792991108E+03  0.50400001928E-02 0. -1.
       -1   -1    0    0    0  501  0.00000000000E+00  0.00000000000E+00 -0.11101050330E+03  0.11101050341E+03  0.50400001928E-02 0.  1.
    10030    2    1    2    0    0  0.00000000000E+00  0.00000000000E+00  0.65691940777E+03  0.87894041449E+03  0.58394618239E+03 0.  0.
        4    1    3    3  502    0 -0.50085804898E+02  0.13531262364E+03 -0.53595295907E+02  0.15392258643E+03  0.12699999809E+01 0.  1.
       -4    1    3    3    0  502  0.50085804898E+02 -0.13531262364E+03  0.71051470368E+03  0.72501782806E+03  0.12699999809E+01 0. -1.
</event>
<event>
 5   0  0.5190380E-02  0.5908744E+03  0.7818609E-02  0.9924522E-01
        1   -1    0    0  501    0  0.00000000000E+00  0.00000000000E+00  0.90813541376E+03  0.90813541378E+03  0.50400001928E-02 0. -1.
       -1   -1    0    0    0  501  0.00000000000E+00  0.00000000000E+00 -0.96112461868E+02  0.96112462000E+02  0.50400001928E-02 0.  1.
    10030    2    1    2    0    0  0.00000000000E+00  0.00000000000E+00  0.81202295190E+03  0.10042478758E+04  0.59087437040E+03 0.  0.
        5    1    3    3  502    0 -0.25791019897E+03 -0.14179734704E+03  0.44890337446E+03  0.53680581961E+03  0.46999998093E+01 0.  1.
       -5    1    3    3    0  502  0.25791019897E+03  0.14179734704E+03  0.36311957744E+03  0.46744205617E+03  0.46999998093E+01 0. -1.
</event>
<event>
 5   0  0.8817544E-02  0.5805613E+03  0.7818609E-02  0.9946577E-01
       -2   -1    0    0    0  501  0.00000000000E+00  0.00000000000E+00  0.52443989214E+03  0.52443989215E+03  0.25500000920E-02 0. -1.
        2   -1    0    0  501    0  0.00000000000E+00  0.00000000000E+00 -0.16067208761E+03  0.16067208763E+03  0.25500000920E-02 0.  1.
    10030    2    1    2    0    0  0.00000000000E+00  0.00000000000E+00  0.36376780453E+03  0.68511197978E+03  0.58056128809E+03 0.  0.
        5    1    3    3  502    0  0.13961984113E+03  0.24212628573E+03  0.89550793972E+02  0.29353070194E+03  0.46999998093E+01 0.  1.
       -5    1    3    3    0  502 -0.13961984113E+03 -0.24212628573E+03  0.27421701056E+03  0.39158127785E+03  0.46999998093E+01 0. -1.
</event>
<event>
 5   0  0.4987389E-02  0.6009810E+03  0.7818609E-02  0.9903373E-01
       -1   -1    0    0    0  501  0.00000000000E+00  0.00000000000E+00  0.81414522566E+02  0.81414522722E+02  0.50400001928E-02 0.  1.
        1   -1    0    0  501    0  0.00000000000E+00  0.00000000000E+00 -0.11090717849E+04  0.11090717849E+04  0.50400001928E-02 0. -1.
    10030    2    1    2    0    0  0.00000000000E+00  0.00000000000E+00 -0.10276572623E+04  0.11904863076E+04  0.60098103117E+03 0.  0.
        1    1    3    3  502    0  0.18116392197E+02 -0.22441953792E+03 -0.11962248495E+03  0.25495464616E+03  0.50400001928E-02 0.  1.
       -1    1    3    3    0  502 -0.18116392197E+02  0.22441953792E+03 -0.90803477737E+03  0.93553166146E+03  0.50400001928E-02 0. -1.
</event>
<event>
 5   0  0.8817544E-02  0.6045013E+03  0.7818609E-02  0.9896111E-01
       -2   -1    0    0    0  501  0.00000000000E+00  0.00000000000E+00  0.79469651886E+02  0.79469651927E+02  0.25500000920E-02 0.  1.
        2   -1    0    0  501    0  0.00000000000E+00  0.00000000000E+00 -0.11495641753E+04  0.11495641753E+04  0.25500000920E-02 0. -1.
    10030    2    1    2    0    0  0.00000000000E+00  0.00000000000E+00 -0.10700945234E+04  0.12290338272E+04  0.60450133120E+03 0.  0.
        5    1    3    3  502    0  0.20369798938E+03 -0.15610170782E+03 -0.85953970193E+03  0.89704582004E+03  0.46999998093E+01 0. -1.
       -5    1    3    3    0  502 -0.20369798938E+03  0.15610170782E+03 -0.21055482146E+03  0.33198800716E+03  0.46999998093E+01 0.  1.
</event>
<event>
 5   0  0.5166903E-02  0.5974417E+03  0.7818609E-02  0.9910728E-01
       -1   -1    0    0    0  501  0.00000000000E+00  0.00000000000E+00  0.19146862557E+03  0.19146862564E+03  0.50400001928E-02 0. -1.
        1   -1    0    0  501    0  0.00000000000E+00  0.00000000000E+00 -0.46605102441E+03  0.46605102443E+03  0.50400001928E-02 0.  1.
    10030    2    1    2    0    0  0.00000000000E+00  0.00000000000E+00 -0.27458239883E+03  0.65751965007E+03  0.59744170970E+03 0.  0.
        2    1    3    3  502    0 -0.39414378527E+02  0.29447735292E+03 -0.17145720073E+03  0.34302766114E+03  0.25500000920E-02 0.  1.
       -2    1    3    3    0  502  0.39414378527E+02 -0.29447735292E+03 -0.10312519810E+03  0.31449198894E+03  0.25500000920E-02 0. -1.
</event>
<event>
 5   0  0.4987389E-02  0.6070406E+03  0.7818609E-02  0.9890906E-01
        1   -1    0    0  501    0  0.00000000000E+00  0.00000000000E+00  0.90990609458E+02  0.90990609597E+02  0.50400001928E-02 0. -1.
       -1   -1    0    0    0  501  0.00000000000E+00  0.00000000000E+00 -0.10124624455E+04  0.10124624455E+04  0.50400001928E-02 0.  1.
    10030    2    1    2    0    0  0.00000000000E+00  0.00000000000E+00 -0.92147183604E+03  0.11034530551E+04  0.60704060837E+03 0.  0.
        1    1    3    3  502    0  0.11580736532E+03  0.39651517310E+02 -0.96560492477E+03  0.97333265611E+03  0.50400001928E-02 0.  1.
       -1    1    3    3    0  502 -0.11580736532E+03 -0.39651517310E+02  0.44133088730E+02  0.13012039900E+03  0.50400001928E-02 0. -1.
</event>
<event>
 5   0  0.3437375E-02  0.5712730E+03  0.7818609E-02  0.9966866E-01
        3   -1    0    0  501    0  0.00000000000E+00  0.00000000000E+00  0.53377327721E+03  0.53377328676E+03  0.10100000352E+00 0.  1.
       -3   -1    0    0    0  501  0.00000000000E+00  0.00000000000E+00 -0.15285178610E+03  0.15285181947E+03  0.10100000352E+00 0. -1.
    10030    2    1    2    0    0  0.00000000000E+00  0.00000000000E+00  0.38092149111E+03  0.68662510623E+03  0.57127301190E+03 0.  0.
        2    1    3    3  502    0 -0.11439689188E+02 -0.25312270930E+03  0.31979155376E+02  0.25539114871E+03  0.25500000920E-02 0. -1.
       -2    1    3    3    0  502  0.11439689188E+02  0.25312270930E+03  0.34894233573E+03  0.43123395753E+03  0.25500000920E-02 0.  1.
</event>
<event>
 5   0  0.4881209E-02  0.6013695E+03  0.7818609E-02  0.9902569E-01
        1   -1    0    0  501    0  0.00000000000E+00  0.00000000000E+00  0.81059300772E+03  0.81059300774E+03  0.50400001928E-02 0.  1.
       -1   -1    0    0    0  501  0.00000000000E+00  0.00000000000E+00 -0.11153726503E+03  0.11153726515E+03  0.50400001928E-02 0. -1.
    10030    2    1    2    0    0  0.00000000000E+00  0.00000000000E+00  0.69905574269E+03  0.92213027288E+03  0.60136952764E+03 0.  0.
        3    1    3    3  502    0  0.40800537983E+01 -0.13859787809E+03 -0.59587706776E+02  0.15091959332E+03  0.10100000352E+00 0. -1.
       -3    1    3    3    0  502 -0.40800537983E+01  0.13859787809E+03  0.75864344946E+03  0.77121067956E+03  0.10100000352E+00 0.  1.
</event>
<event>
 5   0  0.8420604E-02  0.5989056E+03  0.7818609E-02  0.9907679E-01
       -2   -1    0    0    0  501  0.00000000000E+00  0.00000000000E+00  0.14556792040E+03  0.14556792042E+03  0.25500000920E-02 0. -1.
        2   -1    0    0  501    0  0.00000000000E+00  0.00000000000E+00 -0.61601464167E+03  0.61601464167E+03  0.25500000920E-02 0.  1.
    10030    2    1    2    0    0  0.00000000000E+00  0.00000000000E+00 -0.47044672126E+03  0.76158256210E+03  0.59890556964E+03 0.  0.
        2    1    3    3  502    0  0.28471552641E+03 -0.35819247459E+02 -0.12638231257E+03  0.31355771145E+03  0.25500000920E-02 0. -1.
       -2    1    3    3    0  502 -0.28471552641E+03  0.35819247459E+02 -0.34406440869E+03  0.44802485065E+03  0.25500000920E-02 0.  1.
</event>
<event>
 5   0  0.8207443E-02  0.6011491E+03  0.7818609E-02  0.9903025E-01
       -2   -1    0    0    0  501  0.00000000000E+00  0.00000000000E+00  0.19668517933E+03  0.19668517934E+03  0.25500000920E-02 0. -1.
        2   -1    0    0  501    0  0.00000000000E+00  0.00000000000E+00 -0.45933838172E+03  0.45933838173E+03  0.25500000920E-02 0.  1.
    10030    2    1    2    0    0  0.00000000000E+00  0.00000000000E+00 -0.26265320240E+03  0.65602356107E+03  0.60114907298E+03 0.  0.
        1    1    3    3  502    0  0.28557105784E+03 -0.36261687253E+02 -0.22570402267E+03  0.36579781972E+03  0.50400001928E-02 0. -1.
       -1    1    3    3    0  502 -0.28557105784E+03  0.36261687253E+02 -0.36949179727E+02  0.29022574135E+03  0.50400001928E-02 0.  1.
</event>
<event>
 5   0  0.5125031E-02  0.5893270E+03  0.7818609E-02  0.9927800E-01
       -1   -1    0    0    0  501  0.00000000000E+00  0.00000000000E+00  0.46790364194E+03  0.46790364196E+03  0.50400001928E-02 0. -1.
        1   -1    0    0  501    0  0.00000000000E+00  0.00000000000E+00 -0.18556506051E+03  0.18556506058E+03  0.50400001928E-02 0.  1.
    10030    2    1    2    0    0  0.00000000000E+00  0.00000000000E+00  0.28233858142E+03  0.65346870255E+03  0.58932696413E+03 0.  0.
        4    1    3    3  502    0 -0.10225912757E+03 -0.11540923080E+03 -0.13725470940E+03  0.20643809696E+03  0.12699999809E+01 0.  1.
       -4    1    3    3    0  502  0.10225912757E+03  0.11540923080E+03  0.41959329082E+03  0.44703060558E+03  0.12699999809E+01 0. -1.
</event>
<event>
 5   0  0.4987389E-02  0.6767016E+03  0.7818609E-02  0.9757927E-01
        1   -1    0    0  501    0  0.00000000000E+00  0.00000000000E+00  0.89734766233E+03  0.89734766234E+03  0.50400001928E-02 0.  1.
       -1   -1    0    0    0  501  0.00000000000E+00  0.00000000000E+00 -0.12757738478E+03  0.12757738488E+03  0.50400001928E-02 0. -1.
    10030    2    1    2    0    0  0.00000000000E+00  0.00000000000E+00  0.76977027755E+03  0.10249250472E+04  0.67670161240E+03 0.  0.
        1    1    3    3  502    0  0.32371107666E+03  0.49376263273E+02  0.25588345166E+03  0.41557576612E+03  0.50400001928E-02 0. -1.
       -1    1    3    3    0  502 -0.32371107666E+03 -0.49376263273E+02  0.51388682589E+03  0.60934928110E+03  0.50400001928E-02 0.  1.
</event>
<event>
 5   0  0.4987389E-02  0.6104800E+03  0.7818609E-02  0.9883899E-01
       -1   -1    0    0    0  501  0.00000000000E+00  0.00000000000E+00  0.74744066584E+02  0.74744066754E+02  0.50400001928E-02 0. -1.
        1   -1    0    0  501    0  0.00000000000E+00  0.00000000000E+00 -0.12465398105E+04  0.12465398105E+04  0.50400001928E-02 0.  1.
    10030    2    1    2    0    0  0.00000000000E+00  0.00000000000E+00 -0.11717957439E+04  0.13212838772E+04  0.61047999054E+03 0.  0.
        1    1    3    3  502    0 -0.16416359498E+03  0.70751328705E+02 -0.11213951168E+04  0.11355538052E+04  0.50400001928E-02 0.  1.
       -1    1    3    3    0  502  0.16416359498E+03 -0.70751328705E+02 -0.50400627083E+02  0.18573007206E+03  0.50400001928E-02 0. -1.
</event>
<event>
 5   0  0.5166903E-02  0.5392281E+03  0.7818609E-02  0.1004018E+00
       -1   -1    0    0    0  501  0.00000000000E+00  0.00000000000E+00  0.82696407490E+02  0.82696407643E+02  0.50400001928E-02 0. -1.
        1   -1    0    0  501    0  0.00000000000E+00  0.00000000000E+00 -0.87901932875E+03  0.87901932876E+03  0.50400001928E-02 0.  1.
    10030    2    1    2    0    0  0.00000000000E+00  0.00000000000E+00 -0.79632292126E+03  0.96171573641E+03  0.53922811752E+03 0.  0.
        2    1    3    3  502    0 -0.25543458825E+03  0.18812268024E+02 -0.54834704641E+03  0.60521501436E+03  0.25500000920E-02 0. -1.
       -2    1    3    3    0  502  0.25543458825E+03 -0.18812268024E+02 -0.24797587485E+03  0.35650072204E+03  0.25500000920E-02 0.  1.
</event>
<event>
 5   0  0.8207443E-02  0.6075114E+03  0.7818609E-02  0.9889944E-01
        2   -1    0    0  501    0  0.00000000000E+00  0.00000000000E+00  0.40573663368E+03  0.40573663369E+03  0.25500000920E-02 0.  1.
       -2   -1    0    0    0  501  0.00000000000E+00  0.00000000000E+00 -0.22740745310E+03  0.22740745311E+03  0.25500000920E-02 0. -1.
    10030    2    1    2    0    0  0.00000000000E+00  0.00000000000E+00  0.17832918058E+03  0.63314408680E+03  0.60751143035E+03 0.  0.
        1    1    3    3  502    0 -0.27061597827E+03 -0.13115298916E+03  0.13378968076E+03  0.32914099253E+03  0.50400001928E-02 0. -1.
       -1    1    3    3    0  502  0.27061597827E+03  0.13115298916E+03  0.44539499824E+02  0.30400309427E+03  0.50400001928E-02 0.  1.
</event>
<event>
 5   0  0.8699746E-02  0.6043739E+03  0.7818609E-02  0.9896373E-01
       -2   -1    0    0    0  501  0.00000000000E+00  0.00000000000E+00  0.17275787975E+03  0.17275787976E+03  0.25500000920E-02 0.  1.
        2   -1    0    0  501    0  0.00000000000E+00  0.00000000000E+00 -0.52858350341E+03  0.52858350341E+03  0.25500000920E-02 0. -1.
    10030    2    1    2    0    0  0.00000000000E+00  0.00000000000E+00 -0.35582562366E+03  0.70134138318E+03  0.60437394161E+03 0.  0.
        3    1    3    3  502    0  0.69256639540E+02  0.23238094842E+03  0.31351956619E+02  0.24450018956E+03  0.10100000352E+00 0.  1.
       -3    1    3    3    0  502 -0.69256639540E+02 -0.23238094842E+03 -0.38717758028E+03  0.45684119362E+03  0.10100000352E+00 0. -1.
</event>
<event>
 5   0  0.4881209E-02  0.6213634E+03  0.7818609E-02  0.9862049E-01
       -1   -1    0    0    0  501  0.00000000000E+00  0.00000000000E+00  0.40823140207E+03  0.40823140210E+03  0.50400001928E-02 0.  1.
        1   -1    0    0  501    0  0.00000000000E+00  0.00000000000E+00 -0.23644219056E+03  0.23644219062E+03  0.50400001928E-02 0. -1.
    10030    2    1    2    0    0  0.00000000000E+00  0.00000000000E+00  0.17178921150E+03  0.64467359272E+03  0.62136342663E+03 0.  0.
        3    1    3    3  502    0 -0.14880962750E+03  0.22806676806E+03 -0.69262774918E+02  0.28099127766E+03  0.10100000352E+00 0. -1.
       -3    1    3    3    0  502  0.14880962750E+03 -0.22806676806E+03  0.24105198642E+03  0.36368231506E+03  0.10100000352E+00 0.  1.
</event>
<event>
 5   0  0.8575590E-02  0.5947938E+03  0.7818609E-02  0.9916266E-01
       -2   -1    0    0    0  501  0.00000000000E+00  0.00000000000E+00  0.14745961871E+03  0.14745961873E+03  0.25500000920E-02 0.  1.
        2   -1    0    0  501    0  0.00000000000E+00  0.00000000000E+00 -0.59979084646E+03  0.59979084647E+03  0.25500000920E-02 0. -1.
    10030    2    1    2    0    0  0.00000000000E+00  0.00000000000E+00 -0.45233122775E+03  0.74725046520E+03  0.59479384507E+03 0.  0.
        4    1    3    3  502    0  0.26269223841E+03 -0.10660040692E+03 -0.11328935192E+03  0.30529813140E+03  0.12699999809E+01 0. -1.
       -4    1    3    3    0  502 -0.26269223841E+03  0.10660040692E+03 -0.33904187583E+03  0.44195233379E+03  0.12699999809E+01 0.  1.
</event>
<event>
 5   0  0.4881209E-02  0.6017605E+03  0.7818609E-02  0.9901760E-01
        1   -1    0    0  501    0  0.00000000000E+00  0.00000000000E+00  0.15328806416E+04  0.15328806416E+04  0.50400001928E-02 0.  1.
       -1   -1    0    0    0  501  0.00000000000E+00  0.00000000000E+00 -0.59058046399E+02  0.59058046615E+02  0.50400001928E-02 0. -1.
    10030    2    1    2    0    0  0.00000000000E+00  0.00000000000E+00  0.14738225952E+04  0.15919386882E+04  0.60176053787E+03 0.  0.
        3    1    3    3  502    0 -0.16551319544E+03  0.13111140202E+03  0.13039563261E+04  0.13209416824E+04  0.10100000352E+00 0.  1.
       -3    1    3    3    0  502  0.16551319544E+03 -0.13111140202E+03  0.16986626907E+03  0.27099700584E+03  0.10100000352E+00 0. -1.
</event>
<event>
 5   0  0.4881209E-02  0.6064303E+03  0.7818609E-02  0.9892154E-01
       -1   -1    0    0    0  501  0.00000000000E+00  0.00000000000E+00  0.80117315860E+03  0.80117315861E+03  0.50400001928E-02 0.  1.
        1   -1    0    0  501    0  0.00000000000E+00  0.00000000000E+00 -0.11475599632E+03  0.11475599643E+03  0.50400001928E-02 0. -1.
    10030    2    1    2    0    0  0.00000000000E+00  0.00000000000E+00  0.68641716228E+03  0.91592915504E+03  0.60643028979E+03 0.  0.
        3    1    3    3  502    0 -0.48699601088E+02  0.19020472694E+03 -0.57795457882E+01  0.19642531060E+03  0.10100000352E+00 0. -1.
       -3    1    3    3    0  502  0.48699601088E+02 -0.19020472694E+03  0.69219670807E+03  0.71950384444E+03  0.10100000352E+00 0.  1.
</event>
<event>
 5   0  0.8699746E-02  0.5923983E+03  0.7818609E-02  0.9921304E-01
       -2   -1    0    0    0  501  0.00000000000E+00  0.00000000000E+00  0.80542985774E+02  0.80542985815E+02  0.25500000920E-02 0.  1.
        2   -1    0    0  501    0  0.00000000000E+00  0.00000000000E+00 -0.10892807212E+04  0.10892807212E+04  0.25500000920E-02 0. -1.
    10030    2    1    2    0    0  0.00000000000E+00  0.00000000000E+00 -0.10087377354E+04  0.11698237070E+04  0.59239825003E+03 0.  0.
        3    1    3    3  502    0  0.22904985186E+02 -0.93927030530E+02 -0.10572460092E+04  0.10616572232E+04  0.10100000352E+00 0. -1.
       -3    1    3    3    0  502 -0.22904985186E+02  0.93927030530E+02  0.48508273725E+02  0.10816648386E+03  0.10100000352E+00 0.  1.
</event>
<event>
 5   0  0.5125031E-02  0.6051669E+03  0.7818609E-02  0.9894744E-01
        1   -1    0    0  501    0  0.00000000000E+00  0.00000000000E+00  0.39989070367E+03  0.39989070370E+03  0.50400001928E-02 0.  1.
       -1   -1    0    0    0  501  0.00000000000E+00  0.00000000000E+00 -0.22895443480E+03  0.22895443486E+03  0.50400001928E-02 0. -1.
    10030    2    1    2    0    0  0.00000000000E+00  0.00000000000E+00  0.17093626886E+03  0.62884513856E+03  0.60516691935E+03 0.  0.
        4    1    3    3  502    0  0.25178508754E+03  0.42065940776E+02  0.25427383156E+03  0.36030829577E+03  0.12699999809E+01 0.  1.
       -4    1    3    3    0  502 -0.25178508754E+03 -0.42065940776E+02 -0.83337562692E+02  0.26853684279E+03  0.12699999809E+01 0. -1.
</event>
<event>
 5   0  0.4881209E-02  0.6266244E+03  0.7818609E-02  0.9851658E-01
        1   -1    0    0  501    0  0.00000000000E+00  0.00000000000E+00  0.41594484236E+03  0.41594484239E+03  0.50400001928E-02 0. -1.
       -1   -1    0    0    0  501  0.00000000000E+00  0.00000000000E+00 -0.23600374737E+03  0.23600374742E+03  0.50400001928E-02 0.  1.
    10030    2    1    2    0    0  0.00000000000E+00  0.00000000000E+00  0.17994109499E+03  0.65194858981E+03  0.62662442187E+03 0.  0.
        3    1    3    3  502    0  0.13591368760E+03  0.60922053422E+02 -0.19681490603E+03  0.24682006504E+03  0.10100000352E+00 0.  1.
       -3    1    3    3    0  502 -0.13591368760E+03 -0.60922053422E+02  0.37675600103E+03  0.40512852477E+03  0.10100000352E+00 0. -1.
</event>
<event>
 5   0  0.8420604E-02  0.6030652E+03  0.7818609E-02  0.9899067E-01
        2   -1    0    0  501    0  0.00000000000E+00  0.00000000000E+00  0.14947589667E+03  0.14947589669E+03  0.25500000920E-02 0.  1.
       -2   -1    0    0    0  501  0.00000000000E+00  0.00000000000E+00 -0.60827130117E+03  0.60827130117E+03  0.25500000920E-02 0. -1.
    10030    2    1    2    0    0  0.00000000000E+00  0.00000000000E+00 -0.45879540450E+03  0.75774719787E+03  0.60306516455E+03 0.  0.
        2    1    3    3  502    0  0.12023558457E+03 -0.12240565600E+02  0.11771171037E+03  0.16870825116E+03  0.25500000920E-02 0.  1.
       -2    1    3    3    0  502 -0.12023558457E+03  0.12240565600E+02 -0.57650711487E+03  0.58903894671E+03  0.25500000920E-02 0. -1.
</event>
<event>
 5   0  0.5125031E-02  0.5964158E+03  0.7818609E-02  0.9912870E-01
       -1   -1    0    0    0  501  0.00000000000E+00  0.00000000000E+00  0.77795678282E+02  0.77795678446E+02  0.50400001928E-02 0. -1.
        1   -1    0    0  501    0  0.00000000000E+00  0.00000000000E+00 -0.11430963784E+04  0.11430963784E+04  0.50400001928E-02 0.  1.
    10030    2    1    2    0    0  0.00000000000E+00  0.00000000000E+00 -0.10653007001E+04  0.12208920569E+04  0.59641582208E+03 0.  0.
        4    1    3    3  502    0 -0.12262490996E+03  0.26397803407E+03 -0.39990633523E+03  0.49461900577E+03  0.12699999809E+01 0.  1.
       -4    1    3    3    0  502  0.12262490996E+03 -0.26397803407E+03 -0.66539436489E+03  0.72627305109E+03  0.12699999809E+01 0. -1.
</event>
<event>
 5   0  0.8207443E-02  0.5990013E+03  0.7818609E-02  0.9907480E-01
       -2   -1    0    0    0  501  0.00000000000E+00  0.00000000000E+00  0.50062682168E+03  0.50062682169E+03  0.25500000920E-02 0.  1.
        2   -1    0    0  501    0  0.00000000000E+00  0.00000000000E+00 -0.17917663753E+03  0.17917663754E+03  0.25500000920E-02 0. -1.
    10030    2    1    2    0    0  0.00000000000E+00  0.00000000000E+00  0.32145018416E+03  0.67980345923E+03  0.59900127069E+03 0.  0.
        1    1    3    3  502    0  0.11546018458E+03  0.28294201119E+02 -0.15125544820E+03  0.19237938215E+03  0.50400001928E-02 0. -1.
       -1    1    3    3    0  502 -0.11546018458E+03 -0.28294201119E+02  0.47270563235E+03  0.48742407709E+03  0.50400001928E-02 0.  1.
</event>
<event>
 5   0  0.3437375E-02  0.6184326E+03  0.7818609E-02  0.9867885E-01
        4   -1    0    0  501    0  0.00000000000E+00  0.00000000000E+00  0.97031172215E+03  0.97031255328E+03  0.12699999809E+01 0.  1.
       -4   -1    0    0    0  501  0.00000000000E+00  0.00000000000E+00 -0.98535255176E+02  0.98543439216E+02  0.12699999809E+01 0. -1.
    10030    2    1    2    0    0  0.00000000000E+00  0.00000000000E+00  0.87177646698E+03  0.10688559925E+04  0.61843263523E+03 0.  0.
        1    1    3    3  502    0  0.26077281470E+03 -0.14863215986E+03  0.56430622860E+03  0.63916781795E+03  0.50400001928E-02 0.  1.
       -1    1    3    3    0  502 -0.26077281470E+03  0.14863215986E+03  0.30747023837E+03  0.42968817455E+03  0.50400001928E-02 0. -1.
</event>
<event>
 5   0  0.5125031E-02  0.5566948E+03  0.7818609E-02  0.9999561E-01
        1   -1    0    0  501    0  0.00000000000E+00  0.00000000000E+00  0.86284861904E+03  0.86284861906E+03  0.50400001928E-02 0. -1.
       -1   -1    0    0    0  501  0.00000000000E+00  0.00000000000E+00 -0.89792429673E+02  0.89792429814E+02  0.50400001928E-02 0.  1.
    10030    2    1    2    0    0  0.00000000000E+00  0.00000000000E+00  0.77305618937E+03  0.95264104887E+03  0.55669479616E+03 0.  0.
        4    1    3    3  502    0 -0.41127233129E+02  0.25130578939E+03  0.19421576261E+03  0.32026149383E+03  0.12699999809E+01 0. -1.
       -4    1    3    3    0  502  0.41127233129E+02 -0.25130578939E+03  0.57884042676E+03  0.63237955504E+03  0.12699999809E+01 0.  1.
</event>
<event>
 5   0  0.8699746E-02  0.5905959E+03  0.7818609E-02  0.9925111E-01
       -2   -1    0    0    0  501  0.00000000000E+00  0.00000000000E+00  0.62061889368E+02  0.62061889420E+02  0.25500000920E-02 0. -1.
        2   -1    0    0  501    0  0.00000000000E+00  0.00000000000E+00 -0.14050631631E+04  0.14050631631E+04  0.25500000920E-02 0.  1.
    10030    2    1    2    0    0  0.00000000000E+00  0.00000000000E+00 -0.13430012738E+04  0.14671250526E+04  0.59059588426E+03 0.  0.
        3    1    3    3  502    0  0.17849310920E+03 -0.18306712341E+02 -0.88885844283E+02  0.20023893044E+03  0.10100000352E+00 0. -1.
       -3    1    3    3    0  502 -0.17849310920E+03  0.18306712341E+02 -0.12541154295E+04  0.12668861221E+04  0.10100000352E+00 0.  1.
</event>
<event>
 5   0  0.4881209E-02  0.6033408E+03  0.7818609E-02  0.9898499E-01
       -1   -1    0    0    0  501  0.00000000000E+00  0.00000000000E+00  0.26694863807E+03  0.26694863812E+03  0.50400001928E-02 0. -1.
        1   -1    0    0  501    0  0.00000000000E+00  0.00000000000E+00 -0.34090842741E+03  0.34090842745E+03  0.50400001928E-02 0.  1.
    10030    2    1    2    0    0  0.00000000000E+00  0.00000000000E+00 -0.73959789337E+02  0.60785706557E+03  0.60334083379E+03 0.  0.
        3    1    3    3  502    0 -0.12292902344E+03  0.15324009726E+03 -0.26762795100E+03  0.33199217245E+03  0.10100000352E+00 0.  1.
       -3    1    3    3    0  502  0.12292902344E+03 -0.15324009726E+03  0.19366816166E+03  0.27586489312E+03  0.10100000352E+00 0. -1.
</event>
<event>
 5   0  0.8420604E-02  0.6009242E+03  0.7818609E-02  0.9903490E-01
       -2   -1    0    0    0  501  0.00000000000E+00  0.00000000000E+00  0.19900955711E+03  0.19900955712E+03  0.25500000920E-02 0. -1.
        2   -1    0    0  501    0  0.00000000000E+00  0.00000000000E+00 -0.45363385347E+03  0.45363385348E+03  0.25500000920E-02 0.  1.
    10030    2    1    2    0    0  0.00000000000E+00  0.00000000000E+00 -0.25462429636E+03  0.65264341060E+03  0.60092419580E+03 0.  0.
        2    1    3    3  502    0 -0.24707011467E+03  0.58958536847E+02 -0.30161720604E+03  0.39432561370E+03  0.25500000920E-02 0.  1.
       -2    1    3    3    0  502  0.24707011467E+03 -0.58958536847E+02  0.46992909679E+02  0.25831779690E+03  0.25500000920E-02 0. -1.
</event>
<event>
 5   0  0.8699746E-02  0.6103999E+03  0.7818609E-02  0.9884061E-01
        2   -1    0    0  501    0  0.00000000000E+00  0.00000000000E+00  0.29276688723E+03  0.29276688724E+03  0.25500000920E-02 0. -1.
       -2   -1    0    0    0  501  0.00000000000E+00  0.00000000000E+00 -0.31816100814E+03  0.31816100815E+03  0.25500000920E-02 0.  1.
    10030    2    1    2    0    0  0.00000000000E+00  0.00000000000E+00 -0.25394120911E+02  0.61092789539E+03  0.61039989514E+03 0.  0.
        3    1    3    3  502    0 -0.41905427565E+02  0.11698930494E+03 -0.29169333890E+03  0.31706084036E+03  0.10100000352E+00 0.  1.
       -3    1    3    3    0  502  0.41905427565E+02 -0.11698930494E+03  0.26629921799E+03  0.29386705503E+03  0.10100000352E+00 0. -1.
</event>
<event>
 5   0  0.8420604E-02  0.5989892E+03  0.7818609E-02  0.9907505E-01
        2   -1    0    0  501    0  0.00000000000E+00  0.00000000000E+00  0.99590108882E+03  0.99590108882E+03  0.25500000920E-02 0.  1.
       -2   -1    0    0    0  501  0.00000000000E+00  0.00000000000E+00 -0.90066198355E+02  0.90066198391E+02  0.25500000920E-02 0. -1.
    10030    2    1    2    0    0  0.00000000000E+00  0.00000000000E+00  0.90583489046E+03  0.10859672872E+04  0.59898923205E+03 0.  0.
        2    1    3    3  502    0  0.10150860959E+03  0.72491291659E+02 -0.40731572962E+02  0.13121755305E+03  0.25500000920E-02 0. -1.
       -2    1    3    3    0  502 -0.10150860959E+03 -0.72491291659E+02  0.94656646342E+03  0.95474973416E+03  0.25500000920E-02 0.  1.
</event>
<event>
 5   0  0.8420604E-02  0.5946317E+03  0.7818609E-02  0.9916607E-01
       -2   -1    0    0    0  501  0.00000000000E+00  0.00000000000E+00  0.22936834135E+03  0.22936834137E+03  0.25500000920E-02 0. -1.
        2   -1    0    0  501    0  0.00000000000E+00  0.00000000000E+00 -0.38539199051E+03  0.38539199052E+03  0.25500000920E-02 0.  1.
    10030    2    1    2    0    0  0.00000000000E+00  0.00000000000E+00 -0.15602364916E+03  0.61476033188E+03  0.59463172347E+03 0.  0.
        2    1    3    3  502    0 -0.21637180360E+03  0.17516093820E+03  0.29918458654E+02  0.27998790302E+03  0.25500000920E-02 0.  1.
       -2    1    3    3    0  502  0.21637180360E+03 -0.17516093820E+03 -0.18594210781E+03  0.33477242886E+03  0.25500000920E-02 0. -1.
</event>
<event>
 5   0  0.5190380E-02  0.6017851E+03  0.7818609E-02  0.9901709E-01
       -1   -1    0    0    0  501  0.00000000000E+00  0.00000000000E+00  0.59165547783E+02  0.59165547998E+02  0.50400001928E-02 0. -1.
        1   -1    0    0  501    0  0.00000000000E+00  0.00000000000E+00 -0.15302204926E+04  0.15302204926E+04  0.50400001928E-02 0.  1.
    10030    2    1    2    0    0  0.00000000000E+00  0.00000000000E+00 -0.14710549448E+04  0.15893860406E+04  0.60178512395E+03 0.  0.
        5    1    3    3  502    0 -0.23876045230E+03 -0.11858101371E+03 -0.11038308436E+04  0.11355759031E+04  0.46999998093E+01 0.  1.
       -5    1    3    3    0  502  0.23876045230E+03  0.11858101371E+03 -0.36722410119E+03  0.45381013749E+03  0.46999998093E+01 0. -1.
</event>
<event>
 5   0  0.5125031E-02  0.5842799E+03  0.7818609E-02  0.9938568E-01
       -1   -1    0    0    0  501  0.00000000000E+00  0.00000000000E+00  0.14391925237E+03  0.14391925246E+03  0.50400001928E-02 0. -1.
        1   -1    0    0  501    0  0.00000000000E+00  0.00000000000E+00 -0.59301126254E+03  0.59301126256E+03  0.50400001928E-02 0.  1.
    10030    2    1    2    0    0  0.00000000000E+00  0.00000000000E+00 -0.44909201017E+03  0.73693051502E+03  0.58427985621E+03 0.  0.
        4    1    3    3  502    0 -0.14233821527E+02  0.29033788820E+03 -0.26121891756E+03  0.39081405655E+03  0.12699999809E+01 0. -1.
       -4    1    3    3    0  502  0.14233821527E+02 -0.29033788820E+03 -0.18787309260E+03  0.34611645847E+03  0.12699999809E+01 0.  1.
</event>
<event>
 5   0  0.8420604E-02  0.5943083E+03  0.7818609E-02  0.9917285E-01
        2   -1    0    0  501    0  0.00000000000E+00  0.00000000000E+00  0.30204017653E+03  0.30204017654E+03  0.25500000920E-02 0.  1.
       -2   -1    0    0    0  501  0.00000000000E+00  0.00000000000E+00 -0.29234719626E+03  0.29234719628E+03  0.25500000920E-02 0. -1.
    10030    2    1    2    0    0  0.00000000000E+00  0.00000000000E+00  0.96929802604E+01  0.59438737281E+03  0.59430833335E+03 0.  0.
        2    1    3    3  502    0  0.26963348255E+03 -0.98937521520E+00 -0.12005969063E+03  0.29515677714E+03  0.25500000920E-02 0. -1.
       -2    1    3    3    0  502 -0.26963348255E+03  0.98937521520E+00  0.12975267089E+03  0.29923059567E+03  0.25500000920E-02 0.  1.
</event>
<event>
 5   0  0.8420604E-02  0.5944610E+03  0.7818609E-02  0.9916965E-01
       -2   -1    0    0    0  501  0.00000000000E+00  0.00000000000E+00  0.68851308423E+02  0.68851308471E+02  0.25500000920E-02 0.  1.
        2   -1    0    0  501    0  0.00000000000E+00  0.00000000000E+00 -0.12831415344E+04  0.12831415344E+04  0.25500000920E-02 0. -1.
    10030    2    1    2    0    0  0.00000000000E+00  0.00000000000E+00 -0.12142902260E+04  0.13519928429E+04  0.59446101158E+03 0.  0.
        2    1    3    3  502    0 -0.22221994084E+03  0.12896188942E+03 -0.26726516250E+03  0.37073378336E+03  0.25500000920E-02 0.  1.
       -2    1    3    3    0  502  0.22221994084E+03 -0.12896188942E+03 -0.94702506352E+03  0.98125905956E+03  0.25500000920E-02 0. -1.
</event>
<event>
 5   0  0.5190380E-02  0.5986972E+03  0.7818609E-02  0.9908113E-01
       -1   -1    0    0    0  501  0.00000000000E+00  0.00000000000E+00  0.14554561022E+03  0.14554561031E+03  0.50400001928E-02 0. -1.
        1   -1    0    0  501    0  0.00000000000E+00  0.00000000000E+00 -0.61568047957E+03  0.61568047959E+03  0.50400001928E-02 0.  1.
    10030    2    1    2    0    0  0.00000000000E+00  0.00000000000E+00 -0.47013486935E+03  0.76122608990E+03  0.59869722278E+03 0.  0.
        5    1    3    3  502    0  0.16307962363E+03 -0.13355390518E+03  0.35119057867E+02  0.21374528640E+03  0.46999998093E+01 0. -1.
       -5    1    3    3    0  502 -0.16307962363E+03  0.13355390518E+03 -0.50525392722E+03  0.54748080350E+03  0.46999998093E+01 0.  1.
</event>
<event>
 5   0  0.8699746E-02  0.5998077E+03  0.7818609E-02  0.9905805E-01
        2   -1    0    0  501    0  0.00000000000E+00  0.00000000000E+00  0.89861605358E+03  0.89861605359E+03  0.25500000920E-02 0. -1.
       -2   -1    0    0    0  501  0.00000000000E+00  0.00000000000E+00 -0.10008983684E+03  0.10008983688E+03  0.25500000920E-02 0.  1.
    10030    2    1    2    0    0  0.00000000000E+00  0.00000000000E+00  0.79852621674E+03  0.99870589046E+03  0.59980774989E+03 0.  0.
        3    1    3    3  502    0  0.27080339318E+03  0.44101214655E+02  0.19764204260E+03  0.33814461714E+03  0.10100000352E+00 0. -1.
       -3    1    3    3    0  502 -0.27080339318E+03 -0.44101214655E+02  0.60088417413E+03  0.66056127333E+03  0.10100000352E+00 0.  1.
</event>
<event>
 5   0  0.3437375E-02  0.6181011E+03  0.7818609E-02  0.9868548E-01
        4   -1    0    0  501    0  0.00000000000E+00  0.00000000000E+00  0.72337935509E+02  0.72349083019E+02  0.12699999809E+01 0. -1.
       -4   -1    0    0    0  501  0.00000000000E+00  0.00000000000E+00 -0.13202485942E+04  0.13202492050E+04  0.12699999809E+01 0.  1.
    10030    2    1    2    0    0  0.00000000000E+00  0.00000000000E+00 -0.12479106587E+04  0.13925982881E+04  0.61810110808E+03 0.  0.
        4    1    3    3  502    0  0.18136627734E+03 -0.49193691980E+01 -0.60281078848E+02  0.19118929917E+03  0.12699999809E+01 0. -1.
       -4    1    3    3    0  502 -0.18136627734E+03  0.49193691980E+01 -0.11876295799E+04  0.12014089889E+04  0.12699999809E+01 0.  1.
</event>
<event>
 5   0  0.5125031E-02  0.6015775E+03  0.7818609E-02  0.9902139E-01
        1   -1    0    0  501    0  0.00000000000E+00  0.00000000000E+00  0.24545864976E+03  0.24545864981E+03  0.50400001928E-02 0.  1.
       -1   -1    0    0    0  501  0.00000000000E+00  0.00000000000E+00 -0.36859105008E+03  0.36859105012E+03  0.50400001928E-02 0. -1.
    10030    2    1    2    0    0  0.00000000000E+00  0.00000000000E+00 -0.12313240032E+03  0.61404969992E+03  0.60157746464E+03 0.  0.
        4    1    3    3  502    0 -0.54599705687E+02 -0.42679137243E+02  0.23719580417E+03  0.24711555805E+03  0.12699999809E+01 0.  1.
       -4    1    3    3    0  502  0.54599705687E+02  0.42679137243E+02 -0.36032820449E+03  0.36693414187E+03  0.12699999809E+01 0. -1.
</event>
<event>
 5   0  0.8420604E-02  0.5961154E+03  0.7818609E-02  0.9913498E-01
        2   -1    0    0  501    0  0.00000000000E+00  0.00000000000E+00  0.13787611227E+04  0.13787611227E+04  0.25500000920E-02 0.  1.
       -2   -1    0    0    0  501  0.00000000000E+00  0.00000000000E+00 -0.64433500544E+02  0.64433500595E+02  0.25500000920E-02 0. -1.
    10030    2    1    2    0    0  0.00000000000E+00  0.00000000000E+00  0.13143276221E+04  0.14431946233E+04  0.59611544381E+03 0.  0.
        2    1    3    3  502    0  0.10361658467E+03 -0.98917572612E+02  0.24373314387E+02  0.14531049945E+03  0.25500000920E-02 0. -1.
       -2    1    3    3    0  502 -0.10361658467E+03  0.98917572612E+02  0.12899543077E+04  0.12978841238E+04  0.25500000920E-02 0.  1.
</event>
<event>
 5   0  0.8817544E-02  0.6043292E+03  0.7818609E-02  0.9896465E-01
        2   -1    0    0  501    0  0.00000000000E+00  0.00000000000E+00  0.86576712650E+03  0.86576712650E+03  0.25500000920E-02 0.  1.
       -2   -1    0    0    0  501  0.00000000000E+00  0.00000000000E+00 -0.10545957362E+03  0.10545957365E+03  0.25500000920E-02 0. -1.
    10030    2    1    2    0    0  0.00000000000E+00  0.00000000000E+00  0.76030755288E+03  0.97122670016E+03  0.60432915545E+03 0.  0.
        5    1    3    3  502    0 -0.28482913166E+03 -0.59378488194E+02  0.51099214973E+03  0.58803784418E+03  0.46999998093E+01 0. -1.
       -5    1    3    3    0  502  0.28482913166E+03  0.59378488194E+02  0.24931540315E+03  0.38318885598E+03  0.46999998093E+01 0.  1.
</event>
<event>
 5   0  0.3437375E-02  0.5956833E+03  0.7818609E-02  0.9914403E-01
       -4   -1    0    0    0  501  0.00000000000E+00  0.00000000000E+00  0.49371165757E+03  0.49371329101E+03  0.12699999809E+01 0.  1.
        4   -1    0    0  501    0  0.00000000000E+00  0.00000000000E+00 -0.17967489143E+03  0.17967937976E+03  0.12699999809E+01 0. -1.
    10030    2    1    2    0    0  0.00000000000E+00  0.00000000000E+00  0.31403676614E+03  0.67339267077E+03  0.59568330391E+03 0.  0.
        4    1    3    3  502    0 -0.63699280881E+02  0.18903526505E+02 -0.17118946204E+03  0.18363656094E+03  0.12699999809E+01 0. -1.
       -4    1    3    3    0  502  0.63699280881E+02 -0.18903526505E+02  0.48522622819E+03  0.48975610983E+03  0.12699999809E+01 0.  1.
</event>
<event>
 5   0  0.5190380E-02  0.6036838E+03  0.7818609E-02  0.9897793E-01
        1   -1    0    0  501    0  0.00000000000E+00  0.00000000000E+00  0.76518842286E+03  0.76518842288E+03  0.50400001928E-02 0. -1.
       -1   -1    0    0    0  501  0.00000000000E+00  0.00000000000E+00 -0.11906681360E+03  0.11906681370E+03  0.50400001928E-02 0.  1.
    10030    2    1    2    0    0  0.00000000000E+00  0.00000000000E+00  0.64612160926E+03  0.88425523658E+03  0.60368384893E+03 0.  0.
        5    1    3    3  502    0 -0.18911675195E+03 -0.38378566105E+02 -0.16841785447E+02  0.19376221494E+03  0.46999998093E+01 0.  1.
       -5    1    3    3    0  502  0.18911675195E+03  0.38378566105E+02  0.66296339471E+03  0.69049302164E+03  0.46999998093E+01 0. -1.
</event>
<event>
 5   0  0.8575590E-02  0.6011938E+03  0.7818609E-02  0.9902932E-01
        2   -1    0    0  501    0  0.00000000000E+00  0.00000000000E+00  0.81091600931E+03  0.81091600932E+03  0.25500000920E-02 0.  1.
       -2   -1    0    0    0  501  0.00000000000E+00  0.00000000000E+00 -0.11142769607E+03  0.11142769609E+03  0.25500000920E-02 0. -1.
    10030    2    1    2    0    0  0.00000000000E+00  0.00000000000E+00  0.69948831325E+03  0.92234370541E+03  0.60119382111E+03 0.  0.
        4    1    3    3  502    0  0.26417784302E+03 -0.13911290620E+03  0.40321131572E+03  0.50172035183E+03  0.12699999809E+01 0. -1.
       -4    1    3    3    0  502 -0.26417784302E+03  0.13911290620E+03  0.29627699753E+03  0.42062335358E+03  0.12699999809E+01 0.  1.
</event>
<event>
 5   0  0.4881209E-02  0.6758990E+03  0.7818609E-02  0.9759360E-01
        1   -1    0    0  501    0  0.00000000000E+00  0.00000000000E+00  0.37290690992E+03  0.37290690995E+03  0.50400001928E-02 0.  1.
       -1   -1    0    0    0  501  0.00000000000E+00  0.00000000000E+00 -0.30626910006E+03  0.30626910010E+03  0.50400001928E-02 0. -1.
    10030    2    1    2    0    0  0.00000000000E+00  0.00000000000E+00  0.66637809859E+02  0.67917601005E+03  0.67589899757E+03 0.  0.
        3    1    3    3  502    0  0.21572349539E+03 -0.24799617013E+03  0.11225629542E+03  0.34733300005E+03  0.10100000352E+00 0.  1.
       -3    1    3    3    0  502 -0.21572349539E+03  0.24799617013E+03 -0.45618485560E+02  0.33184301000E+03  0.10100000352E+00 0. -1.
</event>
<event>
 5   0  0.5166903E-02  0.6013778E+03  0.7818609E-02  0.9902552E-01
        1   -1    0    0  501    0  0.00000000000E+00  0.00000000000E+00  0.49954522777E+03  0.49954522780E+03  0.50400001928E-02 0.  1.
       -1   -1    0    0    0  501  0.00000000000E+00  0.00000000000E+00 -0.18099222985E+03  0.18099222992E+03  0.50400001928E-02 0. -1.
    10030    2    1    2    0    0  0.00000000000E+00  0.00000000000E+00  0.31855299793E+03  0.68053745771E+03  0.60137776718E+03 0.  0.
        2    1    3    3  502    0  0.72815366464E+02 -0.27409978932E+03  0.27233218334E+03  0.39318900060E+03  0.25500000920E-02 0.  1.
       -2    1    3    3    0  502 -0.72815366464E+02  0.27409978932E+03  0.46220814583E+02  0.28734845712E+03  0.25500000920E-02 0. -1.
</event>
<event>
 5   0  0.8420604E-02  0.5957802E+03  0.7818609E-02  0.9914200E-01
       -2   -1    0    0    0  501  0.00000000000E+00  0.00000000000E+00  0.38763705772E+03  0.38763705773E+03  0.25500000920E-02 0.  1.
        2   -1    0    0  501    0  0.00000000000E+00  0.00000000000E+00 -0.22892162890E+03  0.22892162891E+03  0.25500000920E-02 0. -1.
    10030    2    1    2    0    0  0.00000000000E+00  0.00000000000E+00  0.15871542882E+03  0.61655868664E+03  0.59578018323E+03 0.  0.
        2    1    3    3  502    0  0.22533546344E+03  0.14721725114E+03  0.21143935811E+03  0.34227999107E+03  0.25500000920E-02 0.  1.
       -2    1    3    3    0  502 -0.22533546344E+03 -0.14721725114E+03 -0.52723929290E+02  0.27427869557E+03  0.25500000920E-02 0. -1.
</event>
<event>
 5   0  0.8699746E-02  0.6211549E+03  0.7818609E-02  0.9862463E-01
       -2   -1    0    0    0  501  0.00000000000E+00  0.00000000000E+00  0.14141837924E+03  0.14141837927E+03  0.25500000920E-02 0.  1.
        2   -1    0    0  501    0  0.00000000000E+00  0.00000000000E+00 -0.68207784754E+03  0.68207784755E+03  0.25500000920E-02 0. -1.
    10030    2    1    2    0    0  0.00000000000E+00  0.00000000000E+00 -0.54065946830E+03  0.82349622681E+03  0.62115487192E+03 0.  0.
        3    1    3    3  502    0  0.23755988672E+03  0.11656678667E+03 -0.54774737542E+02  0.27022730729E+03  0.10100000352E+00 0.  1.
       -3    1    3    3    0  502 -0.23755988672E+03 -0.11656678667E+03 -0.48588473075E+03  0.55326891952E+03  0.10100000352E+00 0. -1.
</event>
<event>
 5   0  0.5125031E-02  0.6231182E+03  0.7818609E-02  0.9858571E-01
       -1   -1    0    0    0  501  0.00000000000E+00  0.00000000000E+00  0.18765004660E+03  0.18765004667E+03  0.50400001928E-02 0. -1.
        1   -1    0    0  501    0  0.00000000000E+00  0.00000000000E+00 -0.51728776232E+03  0.51728776234E+03  0.50400001928E-02 0.  1.
    10030    2    1    2    0    0  0.00000000000E+00  0.00000000000E+00 -0.32963771572E+03  0.70493780901E+03  0.62311819982E+03 0.  0.
        4    1    3    3  502    0  0.52872692608E+02  0.16869259824E+03 -0.45504863702E+03  0.48818397074E+03  0.12699999809E+01 0.  1.
       -4    1    3    3    0  502 -0.52872692608E+02 -0.16869259824E+03  0.12541092131E+03  0.21675383828E+03  0.12699999809E+01 0. -1.
</event>
<event>
 5   0  0.8699746E-02  0.5947933E+03  0.7818609E-02  0.9916267E-01
        2   -1    0    0  501    0  0.00000000000E+00  0.00000000000E+00  0.46158857342E+03  0.46158857342E+03  0.25500000920E-02 0. -1.
       -2   -1    0    0    0  501  0.00000000000E+00  0.00000000000E+00 -0.19160954358E+03  0.19160954360E+03  0.25500000920E-02 0.  1.
    10030    2    1    2    0    0  0.00000000000E+00  0.00000000000E+00  0.26997902983E+03  0.65319811702E+03  0.59479332842E+03 0.  0.
        3    1    3    3  502    0 -0.14064235742E+03  0.13529180496E+03 -0.11145795944E+03  0.22473769624E+03  0.10100000352E+00 0.  1.
       -3    1    3    3    0  502  0.14064235742E+03 -0.13529180496E+03  0.38143698927E+03  0.42846042078E+03  0.10100000352E+00 0. -1.
</event>
<event>
 5   0  0.3437375E-02  0.5888759E+03  0.7818609E-02  0.9928758E-01
        3   -1    0    0  501    0  0.00000000000E+00  0.00000000000E+00  0.28970487154E+03  0.28970488915E+03  0.10100000352E+00 0.  1.
       -3   -1    0    0    0  501  0.00000000000E+00  0.00000000000E+00 -0.29924831748E+03  0.29924833453E+03  0.10100000352E+00 0. -1.
    10030    2    1    2    0    0  0.00000000000E+00  0.00000000000E+00 -0.95434459424E+01  0.58895322367E+03  0.58887589721E+03 0.  0.
        4    1    3    3  502    0  0.19667288583E+03  0.28274840239E+02  0.21254095956E+03  0.29095525945E+03  0.12699999809E+01 0.  1.
       -4    1    3    3    0  502 -0.19667288583E+03 -0.28274840239E+02 -0.22208440550E+03  0.29799796422E+03  0.12699999809E+01 0. -1.
</event>
<event>
 5   0  0.4987389E-02  0.6002134E+03  0.7818609E-02  0.9904963E-01
        1   -1    0    0  501    0  0.00000000000E+00  0.00000000000E+00  0.53607435343E+03  0.53607435345E+03  0.50400001928E-02 0. -1.
       -1   -1    0    0    0  501  0.00000000000E+00  0.00000000000E+00 -0.16800661002E+03  0.16800661009E+03  0.50400001928E-02 0.  1.
    10030    2    1    2    0    0  0.00000000000E+00  0.00000000000E+00  0.36806774341E+03  0.70408096354E+03  0.60021341161E+03 0.  0.
        1    1    3    3  502    0 -0.11810645918E+03  0.22012599597E+03  0.37912550203E+03  0.45402724160E+03  0.50400001928E-02 0. -1.
       -1    1    3    3    0  502  0.11810645918E+03 -0.22012599597E+03 -0.11057758618E+02  0.25005372194E+03  0.50400001928E-02 0.  1.
</event>
<event>
 5   0  0.8420604E-02  0.5965000E+03  0.7818609E-02  0.9912694E-01
        2   -1    0    0  501    0  0.00000000000E+00  0.00000000000E+00  0.17250274539E+04  0.17250274539E+04  0.25500000920E-02 0.  1.
       -2   -1    0    0    0  501  0.00000000000E+00  0.00000000000E+00 -0.51566167485E+02  0.51566167548E+02  0.25500000920E-02 0. -1.
    10030    2    1    2    0    0  0.00000000000E+00  0.00000000000E+00  0.16734612865E+04  0.17765936215E+04  0.59649997372E+03 0.  0.
        2    1    3    3  502    0 -0.18917798200E+03 -0.14926934465E+03  0.31332273176E+03  0.39527304534E+03  0.25500000920E-02 0. -1.
       -2    1    3    3    0  502  0.18917798200E+03  0.14926934465E+03  0.13601385547E+04  0.13813205762E+04  0.25500000920E-02 0.  1.
</event>
<event>
 5   0  0.8699746E-02  0.6034064E+03  0.7818609E-02  0.9898364E-01
       -2   -1    0    0    0  501  0.00000000000E+00  0.00000000000E+00  0.13951601141E+03  0.13951601144E+03  0.25500000920E-02 0.  1.
        2   -1    0    0  501    0  0.00000000000E+00  0.00000000000E+00 -0.65243275008E+03  0.65243275008E+03  0.25500000920E-02 0. -1.
    10030    2    1    2    0    0  0.00000000000E+00  0.00000000000E+00 -0.51291673867E+03  0.79194876152E+03  0.60340638054E+03 0.  0.
        3    1    3    3  502    0 -0.11929341657E+02 -0.28501751790E+03 -0.12754593573E+03  0.31248243251E+03  0.10100000352E+00 0.  1.
       -3    1    3    3    0  502  0.11929341657E+02  0.28501751790E+03 -0.38537080293E+03  0.47946632901E+03  0.10100000352E+00 0. -1.
</event>
<event>
 5   0  0.8207443E-02  0.6153694E+03  0.7818609E-02  0.9874023E-01
       -2   -1    0    0    0  501  0.00000000000E+00  0.00000000000E+00  0.10003244595E+03  0.10003244598E+03  0.25500000920E-02 0. -1.
        2   -1    0    0  501    0  0.00000000000E+00  0.00000000000E+00 -0.94639155785E+03  0.94639155785E+03  0.25500000920E-02 0.  1.
    10030    2    1    2    0    0  0.00000000000E+00  0.00000000000E+00 -0.84635911190E+03  0.10464240038E+04  0.61536936024E+03 0.  0.
        1    1    3    3  502    0  0.10395706870E+03 -0.15323194993E+03 -0.53219575362E+01  0.18524423303E+03  0.50400001928E-02 0. -1.
       -1    1    3    3    0  502 -0.10395706870E+03  0.15323194993E+03 -0.84103715436E+03  0.86117977081E+03  0.50400001928E-02 0.  1.
</event>
<event>
 5   0  0.5125031E-02  0.6097956E+03  0.7818609E-02  0.9885289E-01
       -1   -1    0    0    0  501  0.00000000000E+00  0.00000000000E+00  0.17376029253E+03  0.17376029260E+03  0.50400001928E-02 0.  1.
        1   -1    0    0  501    0  0.00000000000E+00  0.00000000000E+00 -0.53500532202E+03  0.53500532204E+03  0.50400001928E-02 0. -1.
    10030    2    1    2    0    0  0.00000000000E+00  0.00000000000E+00 -0.36124502949E+03  0.70876561465E+03  0.60979564214E+03 0.  0.
        4    1    3    3  502    0 -0.17219813164E+03 -0.68323694636E+02 -0.46208340796E+03  0.49783833983E+03  0.12699999809E+01 0. -1.
       -4    1    3    3    0  502  0.17219813164E+03  0.68323694636E+02  0.10083837847E+03  0.21092727482E+03  0.12699999809E+01 0.  1.
</event>
<event>
 5   0  0.8699746E-02  0.6332870E+03  0.7818609E-02  0.9838655E-01
       -2   -1    0    0    0  501  0.00000000000E+00  0.00000000000E+00  0.70099316808E+02  0.70099316854E+02  0.25500000920E-02 0. -1.
        2   -1    0    0  501    0  0.00000000000E+00  0.00000000000E+00 -0.14303006490E+04  0.14303006490E+04  0.25500000920E-02 0.  1.
    10030    2    1    2    0    0  0.00000000000E+00  0.00000000000E+00 -0.13602013322E+04  0.15003999658E+04  0.63328697558E+03 0.  0.
        3    1    3    3  502    0  0.22541098549E+03  0.80831152134E+02 -0.11709325967E+04  0.11951681654E+04  0.10100000352E+00 0.  1.
       -3    1    3    3    0  502 -0.22541098549E+03 -0.80831152134E+02 -0.18926873550E+03  0.30523180039E+03  0.10100000352E+00 0. -1.
</event>
<event>
 5   0  0.5125031E-02  0.6124775E+03  0.7818609E-02  0.9879852E-01
        1   -1    0    0  501    0  0.00000000000E+00  0.00000000000E+00  0.69367790196E+03  0.69367790198E+03  0.50400001928E-02 0.  1.
       -1   -1    0    0    0  501  0.00000000000E+00  0.00000000000E+00 -0.13519556740E+03  0.13519556749E+03  0.50400001928E-02 0. -1.
    10030    2    1    2    0    0  0.00000000000E+00  0.00000000000E+00  0.55848233456E+03  0.82887346948E+03  0.61247751826E+03 0.  0.
        4    1    3    3  502    0 -0.21182751798E+02  0.56129074092E+02 -0.12716148353E+03  0.14060881098E+03  0.12699999809E+01 0. -1.
       -4    1    3    3    0  502  0.21182751798E+02 -0.56129074092E+02  0.68564381810E+03  0.68826465849E+03  0.12699999809E+01 0.  1.
</event>
<event>
 5   0  0.8817544E-02  0.6028851E+03  0.7818609E-02  0.9899438E-01
       -2   -1    0    0    0  501  0.00000000000E+00  0.00000000000E+00  0.14867187724E+03  0.14867187726E+03  0.25500000920E-02 0.  1.
        2   -1    0    0  501    0  0.00000000000E+00  0.00000000000E+00 -0.61119575450E+03  0.61119575451E+03  0.25500000920E-02 0. -1.
    10030    2    1    2    0    0  0.00000000000E+00  0.00000000000E+00 -0.46252387727E+03  0.75986763177E+03  0.60288513066E+03 0.  0.
        5    1    3    3  502    0 -0.18865028935E+03  0.17786341373E+02  0.64164029009E+02  0.20011096479E+03  0.46999998093E+01 0.  1.
       -5    1    3    3    0  502  0.18865028935E+03 -0.17786341373E+02 -0.52668790628E+03  0.55975666698E+03  0.46999998093E+01 0. -1.
</event>
<event>
 5   0  0.5125031E-02  0.6070531E+03  0.7818609E-02  0.9890880E-01
        1   -1    0    0  501    0  0.00000000000E+00  0.00000000000E+00  0.21515353339E+03  0.21515353345E+03  0.50400001928E-02 0. -1.
       -1   -1    0    0    0  501  0.00000000000E+00  0.00000000000E+00 -0.42819822351E+03  0.42819822354E+03  0.50400001928E-02 0.  1.
    10030    2    1    2    0    0  0.00000000000E+00  0.00000000000E+00 -0.21304469013E+03  0.64335175699E+03  0.60705308106E+03 0.  0.
        4    1    3    3  502    0  0.16758713702E+03  0.12868448954E+03  0.12440986048E+03  0.24520312524E+03  0.12699999809E+01 0. -1.
       -4    1    3    3    0  502 -0.16758713702E+03 -0.12868448954E+03 -0.33745455060E+03  0.39814863175E+03  0.12699999809E+01 0.  1.
</event>
<event>
 5   0  0.4881209E-02  0.6010589E+03  0.7818609E-02  0.9903212E-01
       -1   -1    0    0    0  501  0.00000000000E+00  0.00000000000E+00  0.99229996281E+02  0.99229996409E+02  0.50400001928E-02 0.  1.
        1   -1    0    0  501    0  0.00000000000E+00  0.00000000000E+00 -0.91018788251E+03  0.91018788252E+03  0.50400001928E-02 0. -1.
    10030    2    1    2    0    0  0.00000000000E+00  0.00000000000E+00 -0.81095788622E+03  0.10094178789E+04  0.60105886656E+03 0.  0.
        3    1    3    3  502    0  0.29818086578E+03 -0.33234154887E+02 -0.43464408585E+03  0.52813997135E+03  0.10100000352E+00 0.  1.
       -3    1    3    3    0  502 -0.29818086578E+03  0.33234154887E+02 -0.37631380037E+03  0.48127790758E+03  0.10100000352E+00 0. -1.
</event>
<event>
 5   0  0.8207443E-02  0.6066967E+03  0.7818609E-02  0.9891609E-01
        2   -1    0    0  501    0  0.00000000000E+00  0.00000000000E+00  0.16508720264E+03  0.16508720266E+03  0.25500000920E-02 0.  1.
       -2   -1    0    0    0  501  0.00000000000E+00  0.00000000000E+00 -0.55740364472E+03  0.55740364473E+03  0.25500000920E-02 0. -1.
    10030    2    1    2    0    0  0.00000000000E+00  0.00000000000E+00 -0.39231644208E+03  0.72249084738E+03  0.60669665717E+03 0.  0.
        1    1    3    3  502    0  0.17354954566E+03 -0.98721974414E+00  0.10012382297E+03  0.20036266956E+03  0.50400001928E-02 0.  1.
       -1    1    3    3    0  502 -0.17354954566E+03  0.98721974414E+00 -0.49244026506E+03  0.52212817782E+03  0.50400001928E-02 0. -1.
</event>
<event>
 5   0  0.8575590E-02  0.5973532E+03  0.7818609E-02  0.9910913E-01
       -2   -1    0    0    0  501  0.00000000000E+00  0.00000000000E+00  0.20354238998E+03  0.20354238999E+03  0.25500000920E-02 0.  1.
        2   -1    0    0  501    0  0.00000000000E+00  0.00000000000E+00 -0.43827580012E+03  0.43827580013E+03  0.25500000920E-02 0. -1.
    10030    2    1    2    0    0  0.00000000000E+00  0.00000000000E+00 -0.23473341014E+03  0.64181819012E+03  0.59735317471E+03 0.  0.
        4    1    3    3  502    0 -0.21363272492E+02  0.21389091898E+03 -0.34016762179E+03  0.40239450599E+03  0.12699999809E+01 0.  1.
       -4    1    3    3    0  502  0.21363272492E+02 -0.21389091898E+03  0.10543421165E+03  0.23942368413E+03  0.12699999809E+01 0. -1.
</event>
<event>
 5   0  0.8699746E-02  0.5985918E+03  0.7818609E-02  0.9908332E-01
       -2   -1    0    0    0  501  0.00000000000E+00  0.00000000000E+00  0.11480286740E+03  0.11480286742E+03  0.25500000920E-02 0.  1.
        2   -1    0    0  501    0  0.00000000000E+00  0.00000000000E+00 -0.78027688635E+03  0.78027688635E+03  0.25500000920E-02 0. -1.
    10030    2    1    2    0    0  0.00000000000E+00  0.00000000000E+00 -0.66547401895E+03  0.89507975377E+03  0.59859176048E+03 0.  0.
        3    1    3    3  502    0  0.13342843381E+03  0.10059031716E+03 -0.70403301257E+03  0.72359108055E+03  0.10100000352E+00 0. -1.
       -3    1    3    3    0  502 -0.13342843381E+03 -0.10059031716E+03  0.38558993619E+02  0.17148867323E+03  0.10100000352E+00 0.  1.
</event>
<event>
 5   0  0.5166903E-02  0.5925940E+03  0.7818609E-02  0.9920891E-01
       -1   -1    0    0    0  501  0.00000000000E+00  0.00000000000E+00  0.41661016310E+02  0.41661016615E+02  0.50400001928E-02 0. -1.
        1   -1    0    0  501    0  0.00000000000E+00  0.00000000000E+00 -0.21072917908E+04  0.21072917908E+04  0.50400001928E-02 0.  1.
    10030    2    1    2    0    0  0.00000000000E+00  0.00000000000E+00 -0.20656307745E+04  0.21489528074E+04  0.59259401955E+03 0.  0.
        2    1    3    3  502    0  0.43758374213E+02 -0.46630052301E+02  0.16339252385E+02  0.66000971708E+02  0.25500000920E-02 0. -1.
       -2    1    3    3    0  502 -0.43758374213E+02  0.46630052301E+02 -0.20819700269E+04  0.20829518357E+04  0.25500000920E-02 0.  1.
</event>
<event>
 5   0  0.5166903E-02  0.5988750E+03  0.7818609E-02  0.9907743E-01
        1   -1    0    0  501    0  0.00000000000E+00  0.00000000000E+00  0.78842765656E+03  0.78842765658E+03  0.50400001928E-02 0. -1.
       -1   -1    0    0    0  501  0.00000000000E+00  0.00000000000E+00 -0.11372359845E+03  0.11372359856E+03  0.50400001928E-02 0.  1.
    10030    2    1    2    0    0  0.00000000000E+00  0.00000000000E+00  0.67470405811E+03  0.90215125513E+03  0.59887504632E+03 0.  0.
        2    1    3    3  502    0 -0.44156121441E+00 -0.49365421475E+02  0.78225504334E+03  0.78381126086E+03  0.25500000920E-02 0. -1.
       -2    1    3    3    0  502  0.44156121441E+00  0.49365421475E+02 -0.10755098523E+03  0.11833999427E+03  0.25500000920E-02 0.  1.
</event>
<event>
 5   0  0.8817544E-02  0.5698479E+03  0.7818609E-02  0.9970015E-01
        2   -1    0    0  501    0  0.00000000000E+00  0.00000000000E+00  0.16537198438E+03  0.16537198440E+03  0.25500000920E-02 0. -1.
       -2   -1    0    0    0  501  0.00000000000E+00  0.00000000000E+00 -0.49090324758E+03  0.49090324759E+03  0.25500000920E-02 0.  1.
    10030    2    1    2    0    0  0.00000000000E+00  0.00000000000E+00 -0.32553126320E+03  0.65627523199E+03  0.56984785409E+03 0.  0.
        5    1    3    3  502    0  0.20378436263E+03  0.11732100389E+03  0.22460558318E+02  0.23626013435E+03  0.46999998093E+01 0. -1.
       -5    1    3    3    0  502 -0.20378436263E+03 -0.11732100389E+03 -0.34799182152E+03  0.42001509764E+03  0.46999998093E+01 0.  1.
</event>
<event>
 5   0  0.4987389E-02  0.5962662E+03  0.7818609E-02  0.9913183E-01
       -1   -1    0    0    0  501  0.00000000000E+00  0.00000000000E+00  0.17041061919E+03  0.17041061926E+03  0.50400001928E-02 0.  1.
        1   -1    0    0  501    0  0.00000000000E+00  0.00000000000E+00 -0.52158333844E+03  0.52158333846E+03  0.50400001928E-02 0. -1.
    10030    2    1    2    0    0  0.00000000000E+00  0.00000000000E+00 -0.35117271925E+03  0.69199395773E+03  0.59626618115E+03 0.  0.
        1    1    3    3  502    0  0.37084195668E+02  0.23905702880E+03  0.26627937014E+02  0.24337737702E+03  0.50400001928E-02 0.  1.
       -1    1    3    3    0  502 -0.37084195668E+02 -0.23905702880E+03 -0.37780065626E+03  0.44861658071E+03  0.50400001928E-02 0. -1.
</event>
<event>
 5   0  0.8699746E-02  0.5983737E+03  0.7818609E-02  0.9908786E-01
        2   -1    0    0  501    0  0.00000000000E+00  0.00000000000E+00  0.98069999257E+03  0.98069999257E+03  0.25500000920E-02 0.  1.
       -2   -1    0    0    0  501  0.00000000000E+00  0.00000000000E+00 -0.91274376834E+02  0.91274376870E+02  0.25500000920E-02 0. -1.
    10030    2    1    2    0    0  0.00000000000E+00  0.00000000000E+00  0.88942561574E+03  0.10719743694E+04  0.59837373172E+03 0.  0.
        3    1    3    3  502    0  0.15043053108E+03 -0.14948435043E+03  0.82278656155E+03  0.84967796945E+03  0.10100000352E+00 0.  1.
       -3    1    3    3    0  502 -0.15043053108E+03  0.14948435043E+03  0.66639054186E+02  0.22229639999E+03  0.10100000352E+00 0. -1.
</event>
<event>
 5   0  0.3437375E-02  0.6051967E+03  0.7818609E-02  0.9894683E-01
       -4   -1    0    0    0  501  0.00000000000E+00  0.00000000000E+00  0.14393482275E+03  0.14394042553E+03  0.12699999809E+01 0.  1.
        4   -1    0    0  501    0  0.00000000000E+00  0.00000000000E+00 -0.63614268190E+03  0.63614394962E+03  0.12699999809E+01 0. -1.
    10030    2    1    2    0    0  0.00000000000E+00  0.00000000000E+00 -0.49220785915E+03  0.78008437515E+03  0.60519670830E+03 0.  0.
        1    1    3    3  502    0 -0.26477878810E+02  0.19378906644E+03 -0.54371654261E+03  0.57782606299E+03  0.50400001928E-02 0. -1.
       -1    1    3    3    0  502  0.26477878810E+02 -0.19378906644E+03  0.51508683466E+02  0.20225831215E+03  0.50400001928E-02 0.  1.
</event>
<event>
 5   0  0.5125031E-02  0.5899920E+03  0.7818609E-02  0.9926390E-01
       -1   -1    0    0    0  501  0.00000000000E+00  0.00000000000E+00  0.18409327774E+03  0.18409327781E+03  0.50400001928E-02 0. -1.
        1   -1    0    0  501    0  0.00000000000E+00  0.00000000000E+00 -0.47270954923E+03  0.47270954925E+03  0.50400001928E-02 0.  1.
    10030    2    1    2    0    0  0.00000000000E+00  0.00000000000E+00 -0.28861627148E+03  0.65680282707E+03  0.58999203510E+03 0.  0.
        4    1    3    3  502    0  0.64293720166E+02  0.96906162139E+02 -0.44611029571E+03  0.46102114437E+03  0.12699999809E+01 0.  1.
       -4    1    3    3    0  502 -0.64293720166E+02 -0.96906162139E+02  0.15749402423E+03  0.19578168270E+03  0.12699999809E+01 0. -1.
</event>
<event>
 5   0  0.5190380E-02  0.6076839E+03  0.7818609E-02  0.9889591E-01
       -1   -1    0    0    0  501  0.00000000000E+00  0.00000000000E+00  0.11417915838E+03  0.11417915849E+03  0.50400001928E-02 0.  1.
        1   -1    0    0  501    0  0.00000000000E+00  0.00000000000E+00 -0.80855328366E+03  0.80855328367E+03  0.50400001928E-02 0. -1.
    10030    2    1    2    0    0  0.00000000000E+00  0.00000000000E+00 -0.69437412527E+03  0.92273244217E+03  0.60768390959E+03 0.  0.
        5    1    3    3  502    0 -0.18766736451E+03 -0.28554877926E+02 -0.70736004111E+03  0.73240339876E+03  0.46999998093E+01 0. -1.
       -5    1    3    3    0  502  0.18766736451E+03  0.28554877926E+02  0.12985915838E+02  0.19032904341E+03  0.46999998093E+01 0.  1.
</event>
<event>
 5   0  0.8575590E-02  0.5692715E+03  0.7818609E-02  0.9971292E-01
        2   -1    0    0  501    0  0.00000000000E+00  0.00000000000E+00  0.11717593499E+03  0.11717593502E+03  0.25500000920E-02 0. -1.
       -2   -1    0    0    0  501  0.00000000000E+00  0.00000000000E+00 -0.69141768992E+03  0.69141768992E+03  0.25500000920E-02 0.  1.
    10030    2    1    2    0    0  0.00000000000E+00  0.00000000000E+00 -0.57424175492E+03  0.80859362494E+03  0.56927151448E+03 0.  0.
        4    1    3    3  502    0  0.21656668767E+03 -0.11580223668E+03 -0.82738041720E+02  0.25914954114E+03  0.12699999809E+01 0. -1.
       -4    1    3    3    0  502 -0.21656668767E+03  0.11580223668E+03 -0.49150371320E+03  0.54944408380E+03  0.12699999809E+01 0.  1.
</event>
<event>
 5   0  0.4881209E-02  0.5981706E+03  0.7818609E-02  0.9909209E-01
       -1   -1    0    0    0  501  0.00000000000E+00  0.00000000000E+00  0.67695473217E+03  0.67695473219E+03  0.50400001928E-02 0. -1.
        1   -1    0    0  501    0  0.00000000000E+00  0.00000000000E+00 -0.13213885567E+03  0.13213885577E+03  0.50400001928E-02 0.  1.
    10030    2    1    2    0    0  0.00000000000E+00  0.00000000000E+00  0.54481587650E+03  0.80909358796E+03  0.59817062348E+03 0.  0.
        3    1    3    3  502    0  0.26534890220E+03 -0.53552848359E+02  0.10038621872E+03  0.28871326706E+03  0.10100000352E+00 0.  1.
       -3    1    3    3    0  502 -0.26534890220E+03  0.53552848359E+02  0.44442965778E+03  0.52038032090E+03  0.10100000352E+00 0. -1.
</event>
<event>
 5   0  0.8420604E-02  0.5767400E+03  0.7818609E-02  0.9954874E-01
        2   -1    0    0  501    0  0.00000000000E+00  0.00000000000E+00  0.17333205721E+04  0.17333205721E+04  0.25500000920E-02 0.  1.
       -2   -1    0    0    0  501  0.00000000000E+00  0.00000000000E+00 -0.47975701837E+02  0.47975701905E+02  0.25500000920E-02 0. -1.
    10030    2    1    2    0    0  0.00000000000E+00  0.00000000000E+00  0.16853448703E+04  0.17812962740E+04  0.57674004896E+03 0.  0.
        2    1    3    3  502    0  0.96269958047E+02  0.10556319738E+02  0.37548782821E+01  0.96919759731E+02  0.25500000920E-02 0. -1.
       -2    1    3    3    0  502 -0.96269958047E+02 -0.10556319738E+02  0.16815899920E+04  0.16843765143E+04  0.25500000920E-02 0.  1.
</event>
<event>
 5   0  0.5166903E-02  0.6047329E+03  0.7818609E-02  0.9895635E-01
        1   -1    0    0  501    0  0.00000000000E+00  0.00000000000E+00  0.51983016767E+03  0.51983016770E+03  0.50400001928E-02 0.  1.
       -1   -1    0    0    0  501  0.00000000000E+00  0.00000000000E+00 -0.17587562383E+03  0.17587562390E+03  0.50400001928E-02 0. -1.
    10030    2    1    2    0    0  0.00000000000E+00  0.00000000000E+00  0.34395454384E+03  0.69570579160E+03  0.60473285030E+03 0.  0.
        2    1    3    3  502    0 -0.11651626338E+03 -0.82320543039E+02  0.47867714636E+03  0.49948425590E+03  0.25500000920E-02 0.  1.
       -2    1    3    3    0  502  0.11651626338E+03  0.82320543039E+02 -0.13472260252E+03  0.19622153570E+03  0.25500000920E-02 0. -1.
</event>
<event>
 5   0  0.5125031E-02  0.5927531E+03  0.7818609E-02  0.9920556E-01
       -1   -1    0    0    0  501  0.00000000000E+00  0.00000000000E+00  0.80885259772E+02  0.80885259929E+02  0.50400001928E-02 0. -1.
        1   -1    0    0  501    0  0.00000000000E+00  0.00000000000E+00 -0.10859711441E+04  0.10859711442E+04  0.50400001928E-02 0.  1.
    10030    2    1    2    0    0  0.00000000000E+00  0.00000000000E+00 -0.10050858844E+04  0.11668564041E+04  0.59275309598E+03 0.  0.
        4    1    3    3  502    0 -0.30990169468E+02 -0.17007586741E+02 -0.10818007915E+04  0.10823789604E+04  0.12699999809E+01 0.  1.
       -4    1    3    3    0  502  0.30990169468E+02  0.17007586741E+02  0.76714907125E+02  0.84477443649E+02  0.12699999809E+01 0. -1.
</event>
<event>
 5   0  0.8420604E-02  0.6916070E+03  0.7818609E-02  0.9731694E-01
        2   -1    0    0  501    0  0.00000000000E+00  0.00000000000E+00  0.11897385130E+04  0.11897385130E+04  0.25500000920E-02 0. -1.
       -2   -1    0    0    0  501  0.00000000000E+00  0.00000000000E+00 -0.10050953793E+03  0.10050953797E+03  0.25500000920E-02 0.  1.
    10030    2    1    2    0    0  0.00000000000E+00  0.00000000000E+00  0.10892289750E+04  0.12902480509E+04  0.69160702201E+03 0.  0.
        2    1    3    3  502    0 -0.16251981827E+03 -0.22679261894E+03  0.16350396492E+03  0.32339005843E+03  0.25500000920E-02 0.  1.
       -2    1    3    3    0  502  0.16251981827E+03  0.22679261894E+03  0.92572501011E+03  0.96685799251E+03  0.25500000920E-02 0. -1.
</event>
<event>
 5   0  0.8575590E-02  0.5934322E+03  0.7818609E-02  0.9919127E-01
        2   -1    0    0  501    0  0.00000000000E+00  0.00000000000E+00  0.31175370961E+03  0.31175370962E+03  0.25500000920E-02 0. -1.
       -2   -1    0    0    0  501  0.00000000000E+00  0.00000000000E+00 -0.28240385388E+03  0.28240385389E+03  0.25500000920E-02 0.  1.
    10030    2    1    2    0    0  0.00000000000E+00  0.00000000000E+00  0.29349855731E+02  0.59415756351E+03  0.59343221706E+03 0.  0.
        4    1    3    3  502    0 -0.49284206742E+02  0.20863832716E+03 -0.19070978985E+03  0.28693330486E+03  0.12699999809E+01 0.  1.
       -4    1    3    3    0  502  0.49284206742E+02 -0.20863832716E+03  0.22005964558E+03  0.30722425865E+03  0.12699999809E+01 0. -1.
</event>
<event>
 5   0  0.3437375E-02  0.6140004E+03  0.7818609E-02  0.9876778E-01
       -3   -1    0    0    0  501  0.00000000000E+00  0.00000000000E+00  0.69547284101E+03  0.69547284834E+03  0.10100000352E+00 0. -1.
        3   -1    0    0  501    0  0.00000000000E+00  0.00000000000E+00 -0.13551803332E+03  0.13551807096E+03  0.10100000352E+00 0.  1.
    10030    2    1    2    0    0  0.00000000000E+00  0.00000000000E+00  0.55995480769E+03  0.83099091930E+03  0.61400042451E+03 0.  0.
        1    1    3    3  502    0 -0.13916156445E+03 -0.96114773391E+02  0.62673732441E+03  0.64915611721E+03  0.50400001928E-02 0. -1.
       -1    1    3    3    0  502  0.13916156445E+03  0.96114773391E+02 -0.66782516720E+02  0.18183480208E+03  0.50400001928E-02 0.  1.
</event>
<event>
 5   0  0.5166903E-02  0.5783738E+03  0.7818609E-02  0.9951318E-01
        1   -1    0    0  501    0  0.00000000000E+00  0.00000000000E+00  0.15859807118E+04  0.15859807118E+04  0.50400001928E-02 0. -1.
       -1   -1    0    0    0  501  0.00000000000E+00  0.00000000000E+00 -0.52730191592E+02  0.52730191832E+02  0.50400001928E-02 0.  1.
    10030    2    1    2    0    0  0.00000000000E+00  0.00000000000E+00  0.15332505202E+04  0.16387109037E+04  0.57837381338E+03 0.  0.
        2    1    3    3  502    0 -0.13756845058E+03  0.16572195904E+03  0.21986134459E+03  0.30777890953E+03  0.25500000920E-02 0. -1.
       -2    1    3    3    0  502  0.13756845058E+03 -0.16572195904E+03  0.13133891757E+04  0.13309319941E+04  0.25500000920E-02 0.  1.
</event>
<event>
 5   0  0.4987389E-02  0.6000299E+03  0.7818609E-02  0.9905344E-01
        1   -1    0    0  501    0  0.00000000000E+00  0.00000000000E+00  0.65679322408E+03  0.65679322410E+03  0.50400001928E-02 0. -1.
       -1   -1    0    0    0  501  0.00000000000E+00  0.00000000000E+00 -0.13704309606E+03  0.13704309616E+03  0.50400001928E-02 0.  1.
    10030    2    1    2    0    0  0.00000000000E+00  0.00000000000E+00  0.51975012801E+03  0.79383632025E+03  0.60002992241E+03 0.  0.
        1    1    3    3  502    0  0.11776058541E+03  0.29714486855E+02 -0.10306570187E+03  0.15928918711E+03  0.50400001928E-02 0.  1.
       -1    1    3    3    0  502 -0.11776058541E+03 -0.29714486855E+02  0.62281582988E+03  0.63454713314E+03  0.50400001928E-02 0. -1.
</event>
<event>
 5   0  0.5125031E-02  0.6039110E+03  0.7818609E-02  0.9897325E-01
       -1   -1    0    0    0  501  0.00000000000E+00  0.00000000000E+00  0.11452403250E+03  0.11452403261E+03  0.50400001928E-02 0. -1.
        1   -1    0    0  501    0  0.00000000000E+00  0.00000000000E+00 -0.79613978627E+03  0.79613978629E+03  0.50400001928E-02 0.  1.
    10030    2    1    2    0    0  0.00000000000E+00  0.00000000000E+00 -0.68161575377E+03  0.91066381890E+03  0.60391104913E+03 0.  0.
        4    1    3    3  502    0 -0.95776997376E+02 -0.23050077195E+03 -0.84583063345E+02  0.26355217055E+03  0.12699999809E+01 0. -1.
       -4    1    3    3    0  502  0.95776997376E+02  0.23050077195E+03 -0.59703269042E+03  0.64711164835E+03  0.12699999809E+01 0.  1.
</event>
<event>
 5   0  0.8575590E-02  0.5980249E+03  0.7818609E-02  0.9909512E-01
        2   -1    0    0  501    0  0.00000000000E+00  0.00000000000E+00  0.40287531915E+03  0.40287531916E+03  0.25500000920E-02 0.  1.
       -2   -1    0    0    0  501  0.00000000000E+00  0.00000000000E+00 -0.22192582472E+03  0.22192582473E+03  0.25500000920E-02 0. -1.
    10030    2    1    2    0    0  0.00000000000E+00  0.00000000000E+00  0.18094949443E+03  0.62480114389E+03  0.59802487396E+03 0.  0.
        4    1    3    3  502    0 -0.17766523689E+03 -0.23933316089E+03  0.11523229391E+03  0.31957063814E+03  0.12699999809E+01 0.  1.
       -4    1    3    3    0  502  0.17766523689E+03  0.23933316089E+03  0.65717200522E+02  0.30523050576E+03  0.12699999809E+01 0. -1.
</event>
<event>
 5   0  0.4881209E-02  0.6206719E+03  0.7818609E-02  0.9863423E-01
       -1   -1    0    0    0  501  0.00000000000E+00  0.00000000000E+00  0.18920689058E+03  0.18920689064E+03  0.50400001928E-02 0. -1.
        1   -1    0    0  501    0  0.00000000000E+00  0.00000000000E+00 -0.50901114976E+03  0.50901114979E+03  0.50400001928E-02 0.  1.
    10030    2    1    2    0    0  0.00000000000E+00  0.00000000000E+00 -0.31980425919E+03  0.69821804043E+03  0.62067194861E+03 0.  0.
        3    1    3    3  502    0 -0.28131570091E+03 -0.10766223297E+03 -0.75879456628E+02  0.31062418149E+03  0.10100000352E+00 0. -1.
       -3    1    3    3    0  502  0.28131570091E+03  0.10766223297E+03 -0.24392480256E+03  0.38759385894E+03  0.10100000352E+00 0.  1.
</event>
<event>
 5   0  0.4987389E-02  0.5929830E+03  0.7818609E-02  0.9920072E-01
       -1   -1    0    0    0  501  0.00000000000E+00  0.00000000000E+00  0.10002053532E+03  0.10002053545E+03  0.50400001928E-02 0. -1.
        1   -1    0    0  501    0  0.00000000000E+00  0.00000000000E+00 -0.87889162159E+03  0.87889162160E+03  0.50400001928E-02 0.  1.
    10030    2    1    2    0    0  0.00000000000E+00  0.00000000000E+00 -0.77887108627E+03  0.97891215705E+03  0.59298300329E+03 0.  0.
        1    1    3    3  502    0 -0.15144250475E+02  0.29585796306E+03 -0.36949345500E+03  0.47358916367E+03  0.50400001928E-02 0. -1.
       -1    1    3    3    0  502  0.15144250475E+02 -0.29585796306E+03 -0.40937763127E+03  0.50532299338E+03  0.50400001928E-02 0.  1.
</event>
<event>
 5   0  0.4987389E-02  0.6299013E+03  0.7818609E-02  0.9845241E-01
       -1   -1    0    0    0  501  0.00000000000E+00  0.00000000000E+00  0.76251448538E+03  0.76251448540E+03  0.50400001928E-02 0. -1.
        1   -1    0    0  501    0  0.00000000000E+00  0.00000000000E+00 -0.13008791526E+03  0.13008791536E+03  0.50400001928E-02 0.  1.
    10030    2    1    2    0    0  0.00000000000E+00  0.00000000000E+00  0.63242657012E+03  0.89260240076E+03  0.62990132501E+03 0.  0.
        1    1    3    3  502    0 -0.10175595238E+03  0.29031784276E+03  0.22057339491E+03  0.37853843429E+03  0.50400001928E-02 0. -1.
       -1    1    3    3    0  502  0.10175595238E+03 -0.29031784276E+03  0.41185317520E+03  0.51406396647E+03  0.50400001928E-02 0.  1.
</event>
<event>
 5   0  0.8575590E-02  0.6014563E+03  0.7818609E-02  0.9902389E-01
        2   -1    0    0  501    0  0.00000000000E+00  0.00000000000E+00  0.97905453819E+03  0.97905453819E+03  0.25500000920E-02 0. -1.
       -2   -1    0    0    0  501  0.00000000000E+00  0.00000000000E+00 -0.92372201991E+02  0.92372202026E+02  0.25500000920E-02 0.  1.
    10030    2    1    2    0    0  0.00000000000E+00  0.00000000000E+00  0.88668233620E+03  0.10714267402E+04  0.60145631124E+03 0.  0.
        4    1    3    3  502    0 -0.18284612513E+03  0.23796654611E+03  0.47783888261E+03  0.56426269873E+03  0.12699999809E+01 0.  1.
       -4    1    3    3    0  502  0.18284612513E+03 -0.23796654611E+03  0.40884345358E+03  0.50716404149E+03  0.12699999809E+01 0. -1.
</event>
<event>
 5   0  0.8699746E-02  0.5924909E+03  0.7818609E-02  0.9921109E-01
       -2   -1    0    0    0  501  0.00000000000E+00  0.00000000000E+00  0.58182150321E+03  0.58182150322E+03  0.25500000920E-02 0. -1.
        2   -1    0    0  501    0  0.00000000000E+00  0.00000000000E+00 -0.15083899252E+03  0.15083899254E+03  0.25500000920E-02 0.  1.
    10030    2    1    2    0    0  0.00000000000E+00  0.00000000000E+00  0.43098251070E+03  0.73266049576E+03  0.59249090923E+03 0.  0.
        3    1    3    3  502    0 -0.10604425846E+03 -0.14275543946E+03 -0.77493577528E+02  0.19398392977E+03  0.10100000352E+00 0.  1.
       -3    1    3    3    0  502  0.10604425846E+03  0.14275543946E+03  0.50847608822E+03  0.53867656599E+03  0.10100000352E+00 0. -1.
</event>
<event>
 5   0  0.3437375E-02  0.6093530E+03  0.7818609E-02  0.9886189E-01
       -3   -1    0    0    0  501  0.00000000000E+00  0.00000000000E+00  0.17577840265E+03  0.17577843166E+03  0.10100000352E+00 0.  1.
        3   -1    0    0  501    0  0.00000000000E+00  0.00000000000E+00 -0.52809540316E+03  0.52809541282E+03  0.10100000352E+00 0. -1.
    10030    2    1    2    0    0  0.00000000000E+00  0.00000000000E+00 -0.35231700052E+03  0.70387384448E+03  0.60935303404E+03 0.  0.
        4    1    3    3  502    0 -0.30128694098E+03 -0.17124970699E+02 -0.12771128104E+03  0.32768715207E+03  0.12699999809E+01 0.  1.
       -4    1    3    3    0  502  0.30128694098E+03  0.17124970699E+02 -0.22460571947E+03  0.37618669241E+03  0.12699999809E+01 0. -1.
</event>
<event>
 5   0  0.8817544E-02  0.6034608E+03  0.7818609E-02  0.9898252E-01
        2   -1    0    0  501    0  0.00000000000E+00  0.00000000000E+00  0.40290892829E+03  0.40290892830E+03  0.25500000920E-02 0. -1.
       -2   -1    0    0    0  501  0.00000000000E+00  0.00000000000E+00 -0.22595985146E+03  0.22595985147E+03  0.25500000920E-02 0.  1.
    10030    2    1    2    0    0  0.00000000000E+00  0.00000000000E+00  0.17694907683E+03  0.62886877977E+03  0.60346082423E+03 0.  0.
        5    1    3    3  502    0  0.23010436237E+03 -0.86112180620E+01 -0.11466080777E+03  0.25727681881E+03  0.46999998093E+01 0. -1.
       -5    1    3    3    0  502 -0.23010436237E+03  0.86112180620E+01  0.29160988460E+03  0.37159196097E+03  0.46999998093E+01 0.  1.
</event>
<event>
 5   0  0.8699746E-02  0.6008531E+03  0.7818609E-02  0.9903638E-01
        2   -1    0    0  501    0  0.00000000000E+00  0.00000000000E+00  0.29536176478E+03  0.29536176479E+03  0.25500000920E-02 0. -1.
       -2   -1    0    0    0  501  0.00000000000E+00  0.00000000000E+00 -0.30557818890E+03  0.30557818891E+03  0.25500000920E-02 0.  1.
    10030    2    1    2    0    0  0.00000000000E+00  0.00000000000E+00 -0.10216424116E+02  0.60093995370E+03  0.60085310403E+03 0.  0.
        3    1    3    3  502    0  0.20466407725E+02  0.15178780363E+03 -0.26359806403E+03  0.30486449570E+03  0.10100000352E+00 0.  1.
       -3    1    3    3    0  502 -0.20466407725E+02 -0.15178780363E+03  0.25338163992E+03  0.29607545799E+03  0.10100000352E+00 0. -1.
</event>
<event>
 5   0  0.4881209E-02  0.6056476E+03  0.7818609E-02  0.9893758E-01
       -1   -1    0    0    0  501  0.00000000000E+00  0.00000000000E+00  0.45289640728E+03  0.45289640730E+03  0.50400001928E-02 0. -1.
        1   -1    0    0  501    0  0.00000000000E+00  0.00000000000E+00 -0.20247953080E+03  0.20247953087E+03  0.50400001928E-02 0.  1.
    10030    2    1    2    0    0  0.00000000000E+00  0.00000000000E+00  0.25041687647E+03  0.65537593817E+03  0.60564759416E+03 0.  0.
        3    1    3    3  502    0 -0.69619540036E+02  0.52240231694E+02  0.43906877841E+03  0.44761291820E+03  0.10100000352E+00 0. -1.
       -3    1    3    3    0  502  0.69619540036E+02 -0.52240231694E+02 -0.18865190194E+03  0.20776301997E+03  0.10100000352E+00 0.  1.
</event>
<event>
 5   0  0.8817544E-02  0.5924975E+03  0.7818609E-02  0.9921095E-01
        2   -1    0    0  501    0  0.00000000000E+00  0.00000000000E+00  0.27379040720E+03  0.27379040721E+03  0.25500000920E-02 0.  1.
       -2   -1    0    0    0  501  0.00000000000E+00  0.00000000000E+00 -0.32054934234E+03  0.32054934235E+03  0.25500000920E-02 0. -1.
    10030    2    1    2    0    0  0.00000000000E+00  0.00000000000E+00 -0.46758935147E+02  0.59433974956E+03  0.59249754421E+03 0.  0.
        5    1    3    3  502    0 -0.13302682874E+03 -0.90063680313E+02  0.22625901241E+03  0.27752988014E+03  0.46999998093E+01 0.  1.
       -5    1    3    3    0  502  0.13302682874E+03  0.90063680313E+02 -0.27301794755E+03  0.31680986942E+03  0.46999998093E+01 0. -1.
</event>
<event>
 5   0  0.8420604E-02  0.5966015E+03  0.7818609E-02  0.9912482E-01
        2   -1    0    0  501    0  0.00000000000E+00  0.00000000000E+00  0.12531633680E+04  0.12531633681E+04  0.25500000920E-02 0. -1.
       -2   -1    0    0    0  501  0.00000000000E+00  0.00000000000E+00 -0.71006972058E+02  0.71006972104E+02  0.25500000920E-02 0.  1.
    10030    2    1    2    0    0  0.00000000000E+00  0.00000000000E+00  0.11821563960E+04  0.13241703402E+04  0.59660149611E+03 0.  0.
        2    1    3    3  502    0  0.26829034556E+03  0.12946401996E+03  0.55650103893E+03  0.63121632451E+03  0.25500000920E-02 0.  1.
       -2    1    3    3    0  502 -0.26829034556E+03 -0.12946401996E+03  0.62565535706E+03  0.69295401565E+03  0.25500000920E-02 0. -1.
</event>
<event>
 5   0  0.8817544E-02  0.5974059E+03  0.7818609E-02  0.9910803E-01
       -2   -1    0    0    0  501  0.00000000000E+00  0.00000000000E+00  0.50342791320E+02  0.50342791384E+02  0.25500000920E-02 0. -1.
        2   -1    0    0  501    0  0.00000000000E+00  0.00000000000E+00 -0.17723182263E+04  0.17723182263E+04  0.25500000920E-02 0.  1.
    10030    2    1    2    0    0  0.00000000000E+00  0.00000000000E+00 -0.17219754350E+04  0.18226610177E+04  0.59740588106E+03 0.  0.
        5    1    3    3  502    0 -0.21574722561E+03  0.16573379317E+03 -0.12369718912E+04  0.12665449479E+04  0.46999998093E+01 0.  1.
       -5    1    3    3    0  502  0.21574722561E+03 -0.16573379317E+03 -0.48500354386E+03  0.55611606982E+03  0.46999998093E+01 0. -1.
</event>
<event>
 5   0  0.5125031E-02  0.6002893E+03  0.7818609E-02  0.9904806E-01
       -1   -1    0    0    0  501  0.00000000000E+00  0.00000000000E+00  0.22874495585E+03  0.22874495590E+03  0.50400001928E-02 0.  1.
        1   -1    0    0  501    0  0.00000000000E+00  0.00000000000E+00 -0.39383075861E+03  0.39383075864E+03  0.50400001928E-02 0. -1.
    10030    2    1    2    0    0  0.00000000000E+00  0.00000000000E+00 -0.16508580276E+03  0.62257571454E+03  0.60028926199E+03 0.  0.
        4    1    3    3  502    0  0.11916049342E+03  0.17569768087E+03  0.13750460074E+03  0.25293877990E+03  0.12699999809E+01 0.  1.
       -4    1    3    3    0  502 -0.11916049342E+03 -0.17569768087E+03 -0.30259040351E+03  0.36963693464E+03  0.12699999809E+01 0. -1.
</event>
<event>
 5   0  0.3437375E-02  0.5980959E+03  0.7818609E-02  0.9909364E-01
       -3   -1    0    0    0  501  0.00000000000E+00  0.00000000000E+00  0.23711892575E+03  0.23711894726E+03  0.10100000352E+00 0. -1.
        3   -1    0    0  501    0  0.00000000000E+00  0.00000000000E+00 -0.37715112769E+03  0.37715114121E+03  0.10100000352E+00 0.  1.
    10030    2    1    2    0    0  0.00000000000E+00  0.00000000000E+00 -0.14003220194E+03  0.61427008847E+03  0.59809591539E+03 0.  0.
        4    1    3    3  502    0 -0.21434637825E+03  0.20768169512E+03 -0.89285452806E+02  0.31152778583E+03  0.12699999809E+01 0. -1.
       -4    1    3    3    0  502  0.21434637825E+03 -0.20768169512E+03 -0.50746749135E+02  0.30274230264E+03  0.12699999809E+01 0.  1.
</event>
<event>
 5   0  0.8420604E-02  0.5994650E+03  0.7818609E-02  0.9906517E-01
       -2   -1    0    0    0  501  0.00000000000E+00  0.00000000000E+00  0.19391280086E+03  0.19391280088E+03  0.25500000920E-02 0. -1.
        2   -1    0    0  501    0  0.00000000000E+00  0.00000000000E+00 -0.46329879167E+03  0.46329879168E+03  0.25500000920E-02 0.  1.
    10030    2    1    2    0    0  0.00000000000E+00  0.00000000000E+00 -0.26938599081E+03  0.65721159256E+03  0.59946498259E+03 0.  0.
        2    1    3    3  502    0 -0.19730680643E+03  0.19204614730E+03 -0.48444083978E+01  0.27538185644E+03  0.25500000920E-02 0. -1.
       -2    1    3    3    0  502  0.19730680643E+03 -0.19204614730E+03 -0.26454158241E+03  0.38182973612E+03  0.25500000920E-02 0.  1.
</event>
<event>
 5   0  0.5190380E-02  0.6034621E+03  0.7818609E-02  0.9898249E-01
       -1   -1    0    0    0  501  0.00000000000E+00  0.00000000000E+00  0.34407181158E+03  0.34407181162E+03  0.50400001928E-02 0. -1.
        1   -1    0    0  501    0  0.00000000000E+00  0.00000000000E+00 -0.26460067183E+03  0.26460067188E+03  0.50400001928E-02 0.  1.
    10030    2    1    2    0    0  0.00000000000E+00  0.00000000000E+00  0.79471139753E+02  0.60867248350E+03  0.60346211987E+03 0.  0.
        5    1    3    3  502    0  0.20247750539E+03 -0.21799257807E+03  0.90183797027E+02  0.31092299936E+03  0.46999998093E+01 0. -1.
       -5    1    3    3    0  502 -0.20247750539E+03  0.21799257807E+03 -0.10712657274E+02  0.29774948414E+03  0.46999998093E+01 0.  1.
</event>
<event>
 5   0  0.4881209E-02  0.6020601E+03  0.7818609E-02  0.9901141E-01
        1   -1    0    0  501    0  0.00000000000E+00  0.00000000000E+00  0.19619807727E+04  0.19619807727E+04  0.50400001928E-02 0.  1.
       -1   -1    0    0    0  501  0.00000000000E+00  0.00000000000E+00 -0.46187551335E+02  0.46187551609E+02  0.50400001928E-02 0. -1.
    10030    2    1    2    0    0  0.00000000000E+00  0.00000000000E+00  0.19157932214E+04  0.20081683243E+04  0.60206008982E+03 0.  0.
        3    1    3    3  502    0  0.64128370519E+02 -0.16181994737E+03  0.13868838609E+03  0.22255925483E+03  0.10100000352E+00 0. -1.
       -3    1    3    3    0  502 -0.64128370519E+02  0.16181994737E+03  0.17771048353E+04  0.17856090695E+04  0.10100000352E+00 0.  1.
</event>
<event>
 5   0  0.8575590E-02  0.5841971E+03  0.7818609E-02  0.9938746E-01
       -2   -1    0    0    0  501  0.00000000000E+00  0.00000000000E+00  0.76934973293E+03  0.76934973293E+03  0.25500000920E-02 0. -1.
        2   -1    0    0  501    0  0.00000000000E+00  0.00000000000E+00 -0.11090087473E+03  0.11090087475E+03  0.25500000920E-02 0.  1.
    10030    2    1    2    0    0  0.00000000000E+00  0.00000000000E+00  0.65844885820E+03  0.88025060769E+03  0.58419708444E+03 0.  0.
        4    1    3    3  502    0  0.20511752800E+03  0.18522060476E+03  0.47169247734E+03  0.54669486809E+03  0.12699999809E+01 0. -1.
       -4    1    3    3    0  502 -0.20511752800E+03 -0.18522060476E+03  0.18675638086E+03  0.33355573959E+03  0.12699999809E+01 0.  1.
</event>
<event>
 5   0  0.4881209E-02  0.6012237E+03  0.7818609E-02  0.9902871E-01
       -1   -1    0    0    0  501  0.00000000000E+00  0.00000000000E+00  0.68742592456E+02  0.68742592641E+02  0.50400001928E-02 0. -1.
        1   -1    0    0  501    0  0.00000000000E+00  0.00000000000E+00 -0.13145776254E+04  0.13145776254E+04  0.50400001928E-02 0.  1.
    10030    2    1    2    0    0  0.00000000000E+00  0.00000000000E+00 -0.12458350330E+04  0.13833202181E+04  0.60122366584E+03 0.  0.
        3    1    3    3  502    0 -0.27063876431E+03 -0.22761582028E+01 -0.32189446781E+03  0.42055508587E+03  0.10100000352E+00 0. -1.
       -3    1    3    3    0  502  0.27063876431E+03  0.22761582028E+01 -0.92394056514E+03  0.96276513219E+03  0.10100000352E+00 0.  1.
</event>
<event>
 5   0  0.5125031E-02  0.6029052E+03  0.7818609E-02  0.9899397E-01
       -1   -1    0    0    0  501  0.00000000000E+00  0.00000000000E+00  0.22275815113E+03  0.22275815119E+03  0.50400001928E-02 0.  1.
        1   -1    0    0  501    0  0.00000000000E+00  0.00000000000E+00 -0.40794769959E+03  0.40794769962E+03  0.50400001928E-02 0. -1.
    10030    2    1    2    0    0  0.00000000000E+00  0.00000000000E+00 -0.18518954846E+03  0.63070585081E+03  0.60290521758E+03 0.  0.
        4    1    3    3  502    0  0.13882183584E+03 -0.12834270755E+03 -0.33821647353E+03  0.38747302945E+03  0.12699999809E+01 0. -1.
       -4    1    3    3    0  502 -0.13882183584E+03  0.12834270755E+03  0.15302692507E+03  0.24323282136E+03  0.12699999809E+01 0.  1.
</event>
<event>
 5   0  0.4881209E-02  0.5946296E+03  0.7818609E-02  0.9916611E-01
       -1   -1    0    0    0  501  0.00000000000E+00  0.00000000000E+00  0.79263144911E+02  0.79263145071E+02  0.50400001928E-02 0.  1.
        1   -1    0    0  501    0  0.00000000000E+00  0.00000000000E+00 -0.11152229624E+04  0.11152229624E+04  0.50400001928E-02 0. -1.
    10030    2    1    2    0    0  0.00000000000E+00  0.00000000000E+00 -0.10359598175E+04  0.11944861075E+04  0.59462956328E+03 0.  0.
        3    1    3    3  502    0  0.17171506854E+02  0.29680260141E+03 -0.52414670781E+03  0.60259142573E+03  0.10100000352E+00 0. -1.
       -3    1    3    3    0  502 -0.17171506854E+02 -0.29680260141E+03 -0.51181310971E+03  0.59189468178E+03  0.10100000352E+00 0.  1.
</event>
<event>
 5   0  0.8817544E-02  0.6008915E+03  0.7818609E-02  0.9903558E-01
       -2   -1    0    0    0  501  0.00000000000E+00  0.00000000000E+00  0.60536484613E+02  0.60536484667E+02  0.25500000920E-02 0.  1.
        2   -1    0    0  501    0  0.00000000000E+00  0.00000000000E+00 -0.14911279335E+04  0.14911279335E+04  0.25500000920E-02 0. -1.
    10030    2    1    2    0    0  0.00000000000E+00  0.00000000000E+00 -0.14305914488E+04  0.15516644181E+04  0.60089148186E+03 0.  0.
        5    1    3    3  502    0  0.90431600249E+02  0.27082640735E+03 -0.95644075886E+03  0.99816122567E+03  0.46999998093E+01 0. -1.
       -5    1    3    3    0  502 -0.90431600249E+02 -0.27082640735E+03 -0.47415068999E+03  0.55350319245E+03  0.46999998093E+01 0.  1.
</event>
<event>
 5   0  0.5125031E-02  0.5989345E+03  0.7818609E-02  0.9907619E-01
       -1   -1    0    0    0  501  0.00000000000E+00  0.00000000000E+00  0.13394707149E+03  0.13394707159E+03  0.50400001928E-02 0.  1.
        1   -1    0    0  501    0  0.00000000000E+00  0.00000000000E+00 -0.66952284149E+03  0.66952284151E+03  0.50400001928E-02 0. -1.
    10030    2    1    2    0    0  0.00000000000E+00  0.00000000000E+00 -0.53557577000E+03  0.80346991310E+03  0.59893446707E+03 0.  0.
        4    1    3    3  502    0 -0.46667973560E+02 -0.24558085074E+03 -0.48899757983E+03  0.54918858326E+03  0.12699999809E+01 0. -1.
       -4    1    3    3    0  502  0.46667973560E+02  0.24558085074E+03 -0.46578190169E+02  0.25428132984E+03  0.12699999809E+01 0.  1.
</event>
<event>
 5   0  0.5190380E-02  0.6046254E+03  0.7818609E-02  0.9895856E-01
        1   -1    0    0  501    0  0.00000000000E+00  0.00000000000E+00  0.10678381172E+04  0.10678381172E+04  0.50400001928E-02 0. -1.
       -1   -1    0    0    0  501  0.00000000000E+00  0.00000000000E+00 -0.85586901653E+02  0.85586901801E+02  0.50400001928E-02 0.  1.
    10030    2    1    2    0    0  0.00000000000E+00  0.00000000000E+00  0.98225121555E+03  0.11534250190E+04  0.60462535842E+03 0.  0.
        5    1    3    3  502    0 -0.31404776856E+02  0.19340197361E+03  0.93022227918E+03  0.95064512942E+03  0.46999998093E+01 0. -1.
       -5    1    3    3    0  502  0.31404776856E+02 -0.19340197361E+03  0.52028936369E+02  0.20277988960E+03  0.46999998093E+01 0.  1.
</event>
<event>
 5   0  0.8817544E-02  0.6230793E+03  0.7818609E-02  0.9858648E-01
       -2   -1    0    0    0  501  0.00000000000E+00  0.00000000000E+00  0.13055332611E+03  0.13055332614E+03  0.25500000920E-02 0. -1.
        2   -1    0    0  501    0  0.00000000000E+00  0.00000000000E+00 -0.74342768817E+03  0.74342768818E+03  0.25500000920E-02 0.  1.
    10030    2    1    2    0    0  0.00000000000E+00  0.00000000000E+00 -0.61287436206E+03  0.87398101432E+03  0.62307931254E+03 0.  0.
        5    1    3    3  502    0  0.22688069759E+03 -0.43856415386E+02 -0.59944841714E+03  0.64246301911E+03  0.46999998093E+01 0.  1.
       -5    1    3    3    0  502 -0.22688069759E+03  0.43856415386E+02 -0.13425944925E+02  0.23151799521E+03  0.46999998093E+01 0. -1.
</event>
<event>
 5   0  0.5190380E-02  0.5996008E+03  0.7818609E-02  0.9906235E-01
        1   -1    0    0  501    0  0.00000000000E+00  0.00000000000E+00  0.62930467975E+03  0.62930467977E+03  0.50400001928E-02 0. -1.
       -1   -1    0    0    0  501  0.00000000000E+00  0.00000000000E+00 -0.14282475415E+03  0.14282475424E+03  0.50400001928E-02 0.  1.
    10030    2    1    2    0    0  0.00000000000E+00  0.00000000000E+00  0.48647992559E+03  0.77212943401E+03  0.59960082126E+03 0.  0.
        5    1    3    3  502    0 -0.46893086708E+02 -0.67363916260E+02 -0.12802515797E+03  0.15214923551E+03  0.46999998093E+01 0.  1.
       -5    1    3    3    0  502  0.46893086708E+02  0.67363916260E+02  0.61450508357E+03  0.61998019849E+03  0.46999998093E+01 0. -1.
</event>
<event>
 5   0  0.8575590E-02  0.6008412E+03  0.7818609E-02  0.9903662E-01
        2   -1    0    0  501    0  0.00000000000E+00  0.00000000000E+00  0.49465244232E+03  0.49465244232E+03  0.25500000920E-02 0. -1.
       -2   -1    0    0    0  501  0.00000000000E+00  0.00000000000E+00 -0.18245646394E+03  0.18245646396E+03  0.25500000920E-02 0.  1.
    10030    2    1    2    0    0  0.00000000000E+00  0.00000000000E+00  0.31219597837E+03  0.67710890629E+03  0.60084119538E+03 0.  0.
        4    1    3    3  502    0 -0.16410905822E+03  0.18306720948E+03  0.35065518413E+03  0.42825933409E+03  0.12699999809E+01 0.  1.
       -4    1    3    3    0  502  0.16410905822E+03 -0.18306720948E+03 -0.38459205756E+02  0.24884957220E+03  0.12699999809E+01 0. -1.
</event>
<event>
 5   0  0.5166903E-02  0.5979042E+03  0.7818609E-02  0.9909764E-01
       -1   -1    0    0    0  501  0.00000000000E+00  0.00000000000E+00  0.13159684104E+03  0.13159684114E+03  0.50400001928E-02 0.  1.
        1   -1    0    0  501    0  0.00000000000E+00  0.00000000000E+00 -0.67913756636E+03  0.67913756638E+03  0.50400001928E-02 0. -1.
    10030    2    1    2    0    0  0.00000000000E+00  0.00000000000E+00 -0.54754072532E+03  0.81073440751E+03  0.59790420106E+03 0.  0.
        2    1    3    3  502    0  0.21436994958E+03 -0.37205972374E+02  0.42299516586E+01  0.21761583619E+03  0.25500000920E-02 0.  1.
       -2    1    3    3    0  502 -0.21436994958E+03  0.37205972374E+02 -0.55177067698E+03  0.59311857132E+03  0.25500000920E-02 0. -1.
</event>
<event>
 5   0  0.5166903E-02  0.6027762E+03  0.7818609E-02  0.9899663E-01
       -1   -1    0    0    0  501  0.00000000000E+00  0.00000000000E+00  0.18681239065E+03  0.18681239072E+03  0.50400001928E-02 0. -1.
        1   -1    0    0  501    0  0.00000000000E+00  0.00000000000E+00 -0.48623540124E+03  0.48623540127E+03  0.50400001928E-02 0.  1.
    10030    2    1    2    0    0  0.00000000000E+00  0.00000000000E+00 -0.29942301060E+03  0.67304779199E+03  0.60277623628E+03 0.  0.
        2    1    3    3  502    0  0.17896413599E+03  0.17478403893E+03 -0.33740713297E+03  0.42002523213E+03  0.25500000920E-02 0.  1.
       -2    1    3    3    0  502 -0.17896413599E+03 -0.17478403893E+03  0.37984122379E+02  0.25302255986E+03  0.25500000920E-02 0. -1.
</event>
<event>
 5   0  0.4987389E-02  0.5991109E+03  0.7818609E-02  0.9907252E-01
       -1   -1    0    0    0  501  0.00000000000E+00  0.00000000000E+00  0.16562555150E+03  0.16562555158E+03  0.50400001928E-02 0. -1.
        1   -1    0    0  501    0  0.00000000000E+00  0.00000000000E+00 -0.54178521180E+03  0.54178521182E+03  0.50400001928E-02 0.  1.
    10030    2    1    2    0    0  0.00000000000E+00  0.00000000000E+00 -0.37615966029E+03  0.70741076340E+03  0.59911092307E+03 0.  0.
        1    1    3    3  502    0 -0.13108937932E+03 -0.13590377644E+03  0.86506938168E+02  0.20769620169E+03  0.50400001928E-02 0. -1.
       -1    1    3    3    0  502  0.13108937932E+03  0.13590377644E+03 -0.46266659846E+03  0.49971456170E+03  0.50400001928E-02 0.  1.
</event>
<event>
 5   0  0.8699746E-02  0.6015057E+03  0.7818609E-02  0.9902287E-01
        2   -1    0    0  501    0  0.00000000000E+00  0.00000000000E+00  0.11570864628E+04  0.11570864628E+04  0.25500000920E-02 0.  1.
       -2   -1    0    0    0  501  0.00000000000E+00  0.00000000000E+00 -0.78172435723E+02  0.78172435765E+02  0.25500000920E-02 0. -1.
    10030    2    1    2    0    0  0.00000000000E+00  0.00000000000E+00  0.10789140271E+04  0.12352588986E+04  0.60150566803E+03 0.  0.
        3    1    3    3  502    0  0.16253160196E+03 -0.23009255471E+03  0.75575164550E+03  0.80654799315E+03  0.10100000352E+00 0.  1.
       -3    1    3    3    0  502 -0.16253160196E+03  0.23009255471E+03  0.32316238161E+03  0.42871090545E+03  0.10100000352E+00 0. -1.
</event>
<event>
 5   0  0.5166903E-02  0.6709106E+03  0.7818609E-02  0.9768314E-01
        1   -1    0    0  501    0  0.00000000000E+00  0.00000000000E+00  0.21735379753E+04  0.21735379753E+04  0.50400001928E-02 0.  1.
       -1   -1    0    0    0  501  0.00000000000E+00  0.00000000000E+00 -0.51772853087E+02  0.51772853333E+02  0.50400001928E-02 0. -1.
    10030    2    1    2    0    0  0.00000000000E+00  0.00000000000E+00  0.21217651222E+04  0.22253108287E+04  0.67091061269E+03 0.  0.
        2    1    3    3  502    0 -0.29702478096E+03 -0.15069851340E+03  0.11934114310E+04  0.12390175972E+04  0.25500000920E-02 0. -1.
       -2    1    3    3    0  502  0.29702478096E+03  0.15069851340E+03  0.92835369118E+03  0.98629323144E+03  0.25500000920E-02 0.  1.
</event>
<event>
 5   0  0.5190380E-02  0.5968691E+03  0.7818609E-02  0.9911923E-01
       -1   -1    0    0    0  501  0.00000000000E+00  0.00000000000E+00  0.89994333968E+02  0.89994334109E+02  0.50400001928E-02 0.  1.
        1   -1    0    0  501    0  0.00000000000E+00  0.00000000000E+00 -0.98965305070E+03  0.98965305072E+03  0.50400001928E-02 0. -1.
    10030    2    1    2    0    0  0.00000000000E+00  0.00000000000E+00 -0.89965871674E+03  0.10796473848E+04  0.59686905512E+03 0.  0.
        5    1    3    3  502    0  0.48005128468E+02  0.69471852290E+02  0.67863281485E+02  0.10843590546E+03  0.46999998093E+01 0.  1.
       -5    1    3    3    0  502 -0.48005128468E+02 -0.69471852290E+02 -0.96752199822E+03  0.97121147937E+03  0.46999998093E+01 0. -1.
</event>
<event>
 5   0  0.5166903E-02  0.5649049E+03  0.7818609E-02  0.9981017E-01
        1   -1    0    0  501    0  0.00000000000E+00  0.00000000000E+00  0.14205466803E+03  0.14205466812E+03  0.50400001928E-02 0. -1.
       -1   -1    0    0    0  501  0.00000000000E+00  0.00000000000E+00 -0.56161053696E+03  0.56161053698E+03  0.50400001928E-02 0.  1.
    10030    2    1    2    0    0  0.00000000000E+00  0.00000000000E+00 -0.41955586892E+03  0.70366520510E+03  0.56490494220E+03 0.  0.
        2    1    3    3  502    0 -0.27165151940E+03 -0.10792613869E+02 -0.30520013845E+03  0.40872748014E+03  0.25500000920E-02 0. -1.
       -2    1    3    3    0  502  0.27165151940E+03  0.10792613869E+02 -0.11435573048E+03  0.29493772496E+03  0.25500000920E-02 0.  1.
</event>
<event>
 5   0  0.8817544E-02  0.6092022E+03  0.7818609E-02  0.9886496E-01
       -2   -1    0    0    0  501  0.00000000000E+00  0.00000000000E+00  0.46626452909E+02  0.46626452978E+02  0.25500000920E-02 0. -1.
        2   -1    0    0  501    0  0.00000000000E+00  0.00000000000E+00 -0.19898970761E+04  0.19898970761E+04  0.25500000920E-02 0.  1.
    10030    2    1    2    0    0  0.00000000000E+00  0.00000000000E+00 -0.19432706232E+04  0.20365235291E+04  0.60920224026E+03 0.  0.
        5    1    3    3  502    0  0.10681648893E+03 -0.26083483071E+03 -0.58588926810E+03  0.65017912585E+03  0.46999998093E+01 0. -1.
       -5    1    3    3    0  502 -0.10681648893E+03  0.26083483071E+03 -0.13573813551E+04  0.13863444032E+04  0.46999998093E+01 0.  1.
</event>
<event>
 5   0  0.8575590E-02  0.6018073E+03  0.7818609E-02  0.9901664E-01
        2   -1    0    0  501    0  0.00000000000E+00  0.00000000000E+00  0.74012982619E+03  0.74012982620E+03  0.25500000920E-02 0. -1.
       -2   -1    0    0    0  501  0.00000000000E+00  0.00000000000E+00 -0.12233395065E+03  0.12233395068E+03  0.25500000920E-02 0.  1.
    10030    2    1    2    0    0  0.00000000000E+00  0.00000000000E+00  0.61779587554E+03  0.86246377688E+03  0.60180729689E+03 0.  0.
        4    1    3    3  502    0 -0.18240966120E+02  0.16850886583E+03  0.66520530999E+03  0.68646025963E+03  0.12699999809E+01 0. -1.
       -4    1    3    3    0  502  0.18240966120E+02 -0.16850886583E+03 -0.47409434454E+02  0.17600351725E+03  0.12699999809E+01 0.  1.
</event>
<event>
 5   0  0.5166903E-02  0.6032155E+03  0.7818609E-02  0.9898757E-01
       -1   -1    0    0    0  501  0.00000000000E+00  0.00000000000E+00  0.13370142362E+03  0.13370142372E+03  0.50400001928E-02 0. -1.
        1   -1    0    0  501    0  0.00000000000E+00  0.00000000000E+00 -0.68037597013E+03  0.68037597015E+03  0.50400001928E-02 0.  1.
    10030    2    1    2    0    0  0.00000000000E+00  0.00000000000E+00 -0.54667454650E+03  0.81407739387E+03  0.60321550329E+03 0.  0.
        2    1    3    3  502    0  0.29608909001E+03 -0.35085424199E+02 -0.21197295404E+03  0.36583093016E+03  0.25500000920E-02 0. -1.
       -2    1    3    3    0  502 -0.29608909001E+03  0.35085424199E+02 -0.33470159247E+03  0.44824646370E+03  0.25500000920E-02 0.  1.
</event>
<event>
 5   0  0.4987389E-02  0.5255517E+03  0.7818609E-02  0.1007317E+00
       -1   -1    0    0    0  501  0.00000000000E+00  0.00000000000E+00  0.14566356504E+03  0.14566356512E+03  0.50400001928E-02 0.  1.
        1   -1    0    0  501    0  0.00000000000E+00  0.00000000000E+00 -0.47404551919E+03  0.47404551921E+03  0.50400001928E-02 0. -1.
    10030    2    1    2    0    0  0.00000000000E+00  0.00000000000E+00 -0.32838195415E+03  0.61970908434E+03  0.52555174950E+03 0.  0.
        1    1    3    3  502    0 -0.11094860410E+03 -0.23820440264E+03 -0.16362530741E+03  0.30955479554E+03  0.50400001928E-02 0.  1.
       -1    1    3    3    0  502  0.11094860410E+03  0.23820440264E+03 -0.16475664674E+03  0.31015428880E+03  0.50400001928E-02 0. -1.
</event>
<event>
 5   0  0.4881209E-02  0.6325834E+03  0.7818609E-02  0.9840020E-01
       -1   -1    0    0    0  501  0.00000000000E+00  0.00000000000E+00  0.21761400204E+03  0.21761400210E+03  0.50400001928E-02 0.  1.
        1   -1    0    0  501    0  0.00000000000E+00  0.00000000000E+00 -0.45971508663E+03  0.45971508666E+03  0.50400001928E-02 0. -1.
    10030    2    1    2    0    0  0.00000000000E+00  0.00000000000E+00 -0.24210108458E+03  0.67732908876E+03  0.63258340108E+03 0.  0.
        3    1    3    3  502    0  0.16538574348E+03  0.57222231325E+02  0.16105019762E+03  0.23783188234E+03  0.10100000352E+00 0.  1.
       -3    1    3    3    0  502 -0.16538574348E+03 -0.57222231325E+02 -0.40315128220E+03  0.43949720642E+03  0.10100000352E+00 0. -1.
</event>
<event>
 5   0  0.8420604E-02  0.5979038E+03  0.7818609E-02  0.9909765E-01
        2   -1    0    0  501    0  0.00000000000E+00  0.00000000000E+00  0.72527141920E+03  0.72527141921E+03  0.25500000920E-02 0. -1.
       -2   -1    0    0    0  501  0.00000000000E+00  0.00000000000E+00 -0.12322591271E+03  0.12322591274E+03  0.25500000920E-02 0.  1.
    10030    2    1    2    0    0  0.00000000000E+00  0.00000000000E+00  0.60204550649E+03  0.84849733194E+03  0.59790378024E+03 0.  0.
        2    1    3    3  502    0 -0.36173843445E+02  0.26604102524E+03  0.48760256866E+03  0.55663510402E+03  0.25500000920E-02 0. -1.
       -2    1    3    3    0  502  0.36173843445E+02 -0.26604102524E+03  0.11444293783E+03  0.29186222792E+03  0.25500000920E-02 0.  1.
</event>
<event>
 5   0  0.4987389E-02  0.5973500E+03  0.7818609E-02  0.9910919E-01
       -1   -1    0    0    0  501  0.00000000000E+00  0.00000000000E+00  0.66373147810E+03  0.66373147812E+03  0.50400001928E-02 0. -1.
        1   -1    0    0  501    0  0.00000000000E+00  0.00000000000E+00 -0.13440189649E+03  0.13440189659E+03  0.50400001928E-02 0.  1.
    10030    2    1    2    0    0  0.00000000000E+00  0.00000000000E+00  0.52932958161E+03  0.79813337471E+03  0.59735004634E+03 0.  0.
        1    1    3    3  502    0 -0.20719041405E+03  0.19530741301E+03  0.38516739051E+03  0.47898514799E+03  0.50400001928E-02 0. -1.
       -1    1    3    3    0  502  0.20719041405E+03 -0.19530741301E+03  0.14416219110E+03  0.31914822672E+03  0.50400001928E-02 0.  1.
</event>
<event>
 5   0  0.8817544E-02  0.6069368E+03  0.7818609E-02  0.9891118E-01
       -2   -1    0    0    0  501  0.00000000000E+00  0.00000000000E+00  0.14348824217E+03  0.14348824220E+03  0.25500000920E-02 0. -1.
        2   -1    0    0  501    0  0.00000000000E+00  0.00000000000E+00 -0.64181606227E+03  0.64181606228E+03  0.25500000920E-02 0.  1.
    10030    2    1    2    0    0  0.00000000000E+00  0.00000000000E+00 -0.49832782010E+03  0.78530430447E+03  0.60693676305E+03 0.  0.
        5    1    3    3  502    0  0.83470860206E+02  0.26295117049E+03 -0.85702742464E+02  0.28892516787E+03  0.46999998093E+01 0. -1.
       -5    1    3    3    0  502 -0.83470860206E+02 -0.26295117049E+03 -0.41262507764E+03  0.49637913660E+03  0.46999998093E+01 0.  1.
</event>
<event>
 5   0  0.4987389E-02  0.5934737E+03  0.7818609E-02  0.9919039E-01
       -1   -1    0    0    0  501  0.00000000000E+00  0.00000000000E+00  0.10325146184E+04  0.10325146184E+04  0.50400001928E-02 0.  1.
        1   -1    0    0  501    0  0.00000000000E+00  0.00000000000E+00 -0.85279910213E+02  0.85279910362E+02  0.50400001928E-02 0. -1.
    10030    2    1    2    0    0  0.00000000000E+00  0.00000000000E+00  0.94723470815E+03  0.11177945287E+04  0.59347368615E+03 0.  0.
        1    1    3    3  502    0 -0.80857856743E+01 -0.75634020629E+02 -0.66605553813E+02  0.10110482101E+03  0.50400001928E-02 0. -1.
       -1    1    3    3    0  502  0.80857856743E+01  0.75634020629E+02  0.10138402620E+04  0.10166897077E+04  0.50400001928E-02 0.  1.
</event>
<event>
 5   0  0.8420604E-02  0.5960294E+03  0.7818609E-02  0.9913678E-01
       -2   -1    0    0    0  501  0.00000000000E+00  0.00000000000E+00  0.73358445818E+03  0.73358445819E+03  0.25500000920E-02 0.  1.
        2   -1    0    0  501    0  0.00000000000E+00  0.00000000000E+00 -0.12106687056E+03  0.12106687059E+03  0.25500000920E-02 0. -1.
    10030    2    1    2    0    0  0.00000000000E+00  0.00000000000E+00  0.61251758762E+03  0.85465132878E+03  0.59602944443E+03 0.  0.
        2    1    3    3  502    0  0.30981833814E+02 -0.28574657505E+03  0.41918116188E+03  0.50825566959E+03  0.25500000920E-02 0. -1.
       -2    1    3    3    0  502 -0.30981833814E+02  0.28574657505E+03  0.19333642574E+03  0.34639565919E+03  0.25500000920E-02 0.  1.
</event>
<event>
 5   0  0.5190380E-02  0.6101211E+03  0.7818609E-02  0.9884628E-01
        1   -1    0    0  501    0  0.00000000000E+00  0.00000000000E+00  0.12233815587E+04  0.12233815587E+04  0.50400001928E-02 0. -1.
       -1   -1    0    0    0  501  0.00000000000E+00  0.00000000000E+00 -0.76069423403E+02  0.76069423570E+02  0.50400001928E-02 0.  1.
    10030    2    1    2    0    0  0.00000000000E+00  0.00000000000E+00  0.11473121353E+04  0.12994509823E+04  0.61012106959E+03 0.  0.
        5    1    3    3  502    0  0.13584357108E+03 -0.87037318889E+02  0.11249922624E+04  0.11365116150E+04  0.46999998093E+01 0. -1.
       -5    1    3    3    0  502 -0.13584357108E+03  0.87037318889E+02  0.22319872947E+02  0.16293936728E+03  0.46999998093E+01 0.  1.
</event>
<event>
 5   0  0.8817544E-02  0.5929785E+03  0.7818609E-02  0.9920081E-01
       -2   -1    0    0    0  501  0.00000000000E+00  0.00000000000E+00  0.25628324040E+03  0.25628324041E+03  0.25500000920E-02 0.  1.
        2   -1    0    0  501    0  0.00000000000E+00  0.00000000000E+00 -0.34300283436E+03  0.34300283437E+03  0.25500000920E-02 0. -1.
    10030    2    1    2    0    0  0.00000000000E+00  0.00000000000E+00 -0.86719593962E+02  0.59928607478E+03  0.59297850842E+03 0.  0.
        5    1    3    3  502    0  0.14833891896E+03 -0.23888445386E+03 -0.13823903304E+03  0.31337252181E+03  0.46999998093E+01 0. -1.
       -5    1    3    3    0  502 -0.14833891896E+03  0.23888445386E+03  0.51519439073E+02  0.28591355297E+03  0.46999998093E+01 0.  1.
</event>
<event>
 5   0  0.4987389E-02  0.5972104E+03  0.7818609E-02  0.9911211E-01
       -1   -1    0    0    0  501  0.00000000000E+00  0.00000000000E+00  0.21301593223E+03  0.21301593229E+03  0.50400001928E-02 0.  1.
        1   -1    0    0  501    0  0.00000000000E+00  0.00000000000E+00 -0.41858403667E+03  0.41858403670E+03  0.50400001928E-02 0. -1.
    10030    2    1    2    0    0  0.00000000000E+00  0.00000000000E+00 -0.20556810443E+03  0.63159996899E+03  0.59721041122E+03 0.  0.
        1    1    3    3  502    0 -0.21512413781E+03  0.20677125224E+03 -0.11494963747E+03  0.31975954184E+03  0.50400001928E-02 0. -1.
       -1    1    3    3    0  502  0.21512413781E+03 -0.20677125224E+03 -0.90618466966E+02  0.31184042714E+03  0.50400001928E-02 0.  1.
</event>
<event>
 5   0  0.5166903E-02  0.6121179E+03  0.7818609E-02  0.9880579E-01
        1   -1    0    0  501    0  0.00000000000E+00  0.00000000000E+00  0.75992779529E+02  0.75992779696E+02  0.50400001928E-02 0. -1.
       -1   -1    0    0    0  501  0.00000000000E+00  0.00000000000E+00 -0.12326444034E+04  0.12326444035E+04  0.50400001928E-02 0.  1.
    10030    2    1    2    0    0  0.00000000000E+00  0.00000000000E+00 -0.11566516239E+04  0.13086371831E+04  0.61211787919E+03 0.  0.
        2    1    3    3  502    0 -0.12027456767E+03  0.18923353576E+03 -0.13296407364E+03  0.26068131420E+03  0.25500000920E-02 0. -1.
       -2    1    3    3    0  502  0.12027456767E+03 -0.18923353576E+03 -0.10236875503E+04  0.10479558690E+04  0.25500000920E-02 0.  1.
</event>
<event>
 5   0  0.8699746E-02  0.5993143E+03  0.7818609E-02  0.9906830E-01
        2   -1    0    0  501    0  0.00000000000E+00  0.00000000000E+00  0.60008881472E+03  0.60008881473E+03  0.25500000920E-02 0.  1.
       -2   -1    0    0    0  501  0.00000000000E+00  0.00000000000E+00 -0.14963518316E+03  0.14963518318E+03  0.25500000920E-02 0. -1.
    10030    2    1    2    0    0  0.00000000000E+00  0.00000000000E+00  0.45045363156E+03  0.74972399791E+03  0.59931427386E+03 0.  0.
        3    1    3    3  502    0  0.12435047777E+03 -0.27159467589E+03  0.19542116074E+03  0.35695398802E+03  0.10100000352E+00 0. -1.
       -3    1    3    3    0  502 -0.12435047777E+03  0.27159467589E+03  0.25503247082E+03  0.39277000989E+03  0.10100000352E+00 0.  1.
</event>
<event>
 5   0  0.4881209E-02  0.5939776E+03  0.7818609E-02  0.9917980E-01
        1   -1    0    0  501    0  0.00000000000E+00  0.00000000000E+00  0.83204332887E+03  0.83204332889E+03  0.50400001928E-02 0.  1.
       -1   -1    0    0    0  501  0.00000000000E+00  0.00000000000E+00 -0.10600691623E+03  0.10600691635E+03  0.50400001928E-02 0. -1.
    10030    2    1    2    0    0  0.00000000000E+00  0.00000000000E+00  0.72603641264E+03  0.93805024524E+03  0.59397760068E+03 0.  0.
        3    1    3    3  502    0  0.44317313362E+02 -0.27148056046E+03  0.53984425245E+03  0.60588575332E+03  0.10100000352E+00 0.  1.
       -3    1    3    3    0  502 -0.44317313362E+02  0.27148056046E+03  0.18619216019E+03  0.33216449192E+03  0.10100000352E+00 0. -1.
</event>
<event>
 5   0  0.3437375E-02  0.6030670E+03  0.7818609E-02  0.9899063E-01
        3   -1    0    0  501    0  0.00000000000E+00  0.00000000000E+00  0.62396661251E+03  0.62396662068E+03  0.10100000352E+00 0.  1.
       -3   -1    0    0    0  501  0.00000000000E+00  0.00000000000E+00 -0.14571683001E+03  0.14571686501E+03  0.10100000352E+00 0. -1.
    10030    2    1    2    0    0  0.00000000000E+00  0.00000000000E+00  0.47824978250E+03  0.76968348570E+03  0.60306700598E+03 0.  0.
        3    1    3    3  502    0  0.19992790034E+03  0.10412312853E+03  0.49473089279E+03  0.54366483950E+03  0.10100000352E+00 0.  1.
       -3    1    3    3    0  502 -0.19992790034E+03 -0.10412312853E+03 -0.16481110290E+02  0.22601864620E+03  0.10100000352E+00 0. -1.
</event>
<event>
 5   0  0.8207443E-02  0.5987631E+03  0.7818609E-02  0.9907976E-01
       -2   -1    0    0    0  501  0.00000000000E+00  0.00000000000E+00  0.58122921153E+02  0.58122921209E+02  0.25500000920E-02 0.  1.
        2   -1    0    0  501    0  0.00000000000E+00  0.00000000000E+00 -0.15420648002E+04  0.15420648002E+04  0.25500000920E-02 0. -1.
    10030    2    1    2    0    0  0.00000000000E+00  0.00000000000E+00 -0.14839418790E+04  0.16001877214E+04  0.59876309452E+03 0.  0.
        1    1    3    3  502    0 -0.63723502411E+02 -0.26185517918E+03 -0.10904258942E+04  0.11232352605E+04  0.50400001928E-02 0. -1.
       -1    1    3    3    0  502  0.63723502411E+02  0.26185517918E+03 -0.39351598479E+03  0.47695246088E+03  0.50400001928E-02 0.  1.
</event>
<event>
 5   0  0.4987389E-02  0.5841956E+03  0.7818609E-02  0.9938749E-01
        1   -1    0    0  501    0  0.00000000000E+00  0.00000000000E+00  0.60001780654E+03  0.60001780656E+03  0.50400001928E-02 0. -1.
       -1   -1    0    0    0  501  0.00000000000E+00  0.00000000000E+00 -0.14219767855E+03  0.14219767864E+03  0.50400001928E-02 0.  1.
    10030    2    1    2    0    0  0.00000000000E+00  0.00000000000E+00  0.45782012799E+03  0.74221548520E+03  0.58419564949E+03 0.  0.
        1    1    3    3  502    0  0.19690610973E+03 -0.38129247271E+01  0.50297887392E+03  0.54016136670E+03  0.50400001928E-02 0. -1.
       -1    1    3    3    0  502 -0.19690610973E+03  0.38129247271E+01 -0.45158745927E+02  0.20205411850E+03  0.50400001928E-02 0.  1.
</event>
<event>
 5   0  0.8420604E-02  0.7025378E+03  0.7818609E-02  0.9712902E-01
        2   -1    0    0  501    0  0.00000000000E+00  0.00000000000E+00  0.85173435895E+03  0.85173435895E+03  0.25500000920E-02 0.  1.
       -2   -1    0    0    0  501  0.00000000000E+00  0.00000000000E+00 -0.14486892975E+03  0.14486892978E+03  0.25500000920E-02 0. -1.
    10030    2    1    2    0    0  0.00000000000E+00  0.00000000000E+00  0.70686542919E+03  0.99660328873E+03  0.70253781401E+03 0.  0.
        2    1    3    3  502    0 -0.30281692089E+02 -0.32385942188E+03  0.54156359434E+03  0.63173810454E+03  0.25500000920E-02 0.  1.
       -2    1    3    3    0  502  0.30281692089E+02  0.32385942188E+03  0.16530183486E+03  0.36486518418E+03  0.25500000920E-02 0. -1.
</event>
<event>
 5   0  0.4987389E-02  0.5282244E+03  0.7818609E-02  0.1006664E+00
       -1   -1    0    0    0  501  0.00000000000E+00  0.00000000000E+00  0.10521814122E+03  0.10521814134E+03  0.50400001928E-02 0. -1.
        1   -1    0    0  501    0  0.00000000000E+00  0.00000000000E+00 -0.66295846522E+03  0.66295846524E+03  0.50400001928E-02 0.  1.
    10030    2    1    2    0    0  0.00000000000E+00  0.00000000000E+00 -0.55774032400E+03  0.76817660657E+03  0.52822441242E+03 0.  0.
        1    1    3    3  502    0 -0.21826468712E+03 -0.11599839534E+03 -0.41420371016E+03  0.48234822991E+03  0.50400001928E-02 0.  1.
       -1    1    3    3    0  502  0.21826468712E+03  0.11599839534E+03 -0.14353661384E+03  0.28582837666E+03  0.50400001928E-02 0. -1.
</event>
<event>
 5   0  0.8575590E-02  0.6071405E+03  0.7818609E-02  0.9890702E-01
        2   -1    0    0  501    0  0.00000000000E+00  0.00000000000E+00  0.11181617335E+04  0.11181617335E+04  0.25500000920E-02 0. -1.
       -2   -1    0    0    0  501  0.00000000000E+00  0.00000000000E+00 -0.82416433638E+02  0.82416433678E+02  0.25500000920E-02 0.  1.
    10030    2    1    2    0    0  0.00000000000E+00  0.00000000000E+00  0.10357452998E+04  0.12005781671E+04  0.60714051859E+03 0.  0.
        4    1    3    3  502    0  0.15980641998E+02  0.28994134519E+03  0.69287161487E+03  0.75126164028E+03  0.12699999809E+01 0. -1.
       -4    1    3    3    0  502 -0.15980641998E+02 -0.28994134519E+03  0.34287368495E+03  0.44931652685E+03  0.12699999809E+01 0.  1.
</event>
<event>
 5   0  0.8207443E-02  0.5983796E+03  0.7818609E-02  0.9908774E-01
       -2   -1    0    0    0  501  0.00000000000E+00  0.00000000000E+00  0.58557021770E+02  0.58557021826E+02  0.25500000920E-02 0. -1.
        2   -1    0    0  501    0  0.00000000000E+00  0.00000000000E+00 -0.15286728946E+04  0.15286728946E+04  0.25500000920E-02 0.  1.
    10030    2    1    2    0    0  0.00000000000E+00  0.00000000000E+00 -0.14701158728E+04  0.15872299164E+04  0.59837958525E+03 0.  0.
        1    1    3    3  502    0 -0.15237193093E+03  0.22241348937E+03 -0.10791697128E+04  0.11123363856E+04  0.50400001928E-02 0.  1.
       -1    1    3    3    0  502  0.15237193093E+03 -0.22241348937E+03 -0.39094616001E+03  0.47489353084E+03  0.50400001928E-02 0. -1.
</event>
<event>
 5   0  0.4881209E-02  0.6010764E+03  0.7818609E-02  0.9903175E-01
        1   -1    0    0  501    0  0.00000000000E+00  0.00000000000E+00  0.43690892201E+03  0.43690892204E+03  0.50400001928E-02 0. -1.
       -1   -1    0    0    0  501  0.00000000000E+00  0.00000000000E+00 -0.20673231902E+03  0.20673231908E+03  0.50400001928E-02 0.  1.
    10030    2    1    2    0    0  0.00000000000E+00  0.00000000000E+00  0.23017660299E+03  0.64364124113E+03  0.60107635015E+03 0.  0.
        3    1    3    3  502    0  0.15160718153E+03 -0.55362658150E+02 -0.15638675867E+03  0.22473671240E+03  0.10100000352E+00 0.  1.
       -3    1    3    3    0  502 -0.15160718153E+03  0.55362658150E+02  0.38656336166E+03  0.41890452873E+03  0.10100000352E+00 0. -1.
</event>
<event>
 5   0  0.5190380E-02  0.5974340E+03  0.7818609E-02  0.9910744E-01
       -1   -1    0    0    0  501  0.00000000000E+00  0.00000000000E+00  0.13548537255E+03  0.13548537264E+03  0.50400001928E-02 0. -1.
        1   -1    0    0  501    0  0.00000000000E+00  0.00000000000E+00 -0.65860867875E+03  0.65860867877E+03  0.50400001928E-02 0.  1.
    10030    2    1    2    0    0  0.00000000000E+00  0.00000000000E+00 -0.52312330621E+03  0.79409405141E+03  0.59743398714E+03 0.  0.
        5    1    3    3  502    0 -0.15119714918E+03  0.24879323273E+03 -0.35023962966E+03  0.45546518940E+03  0.46999998093E+01 0.  1.
       -5    1    3    3    0  502  0.15119714918E+03 -0.24879323273E+03 -0.17288367654E+03  0.33862886201E+03  0.46999998093E+01 0. -1.
</event>
<event>
 5   0  0.4881209E-02  0.6047836E+03  0.7818609E-02  0.9895531E-01
       -1   -1    0    0    0  501  0.00000000000E+00  0.00000000000E+00  0.22989224194E+03  0.22989224199E+03  0.50400001928E-02 0.  1.
        1   -1    0    0  501    0  0.00000000000E+00  0.00000000000E+00 -0.39775504179E+03  0.39775504182E+03  0.50400001928E-02 0. -1.
    10030    2    1    2    0    0  0.00000000000E+00  0.00000000000E+00 -0.16786279985E+03  0.62764728381E+03  0.60478359213E+03 0.  0.
        3    1    3    3  502    0 -0.13895684495E+03 -0.65931370603E+02  0.18626647806E+03  0.24155985063E+03  0.10100000352E+00 0.  1.
       -3    1    3    3    0  502  0.13895684495E+03  0.65931370603E+02 -0.35412927791E+03  0.38608743318E+03  0.10100000352E+00 0. -1.
</event>
<event>
 5   0  0.5190380E-02  0.5937894E+03  0.7818609E-02  0.9918375E-01
       -1   -1    0    0    0  501  0.00000000000E+00  0.00000000000E+00  0.27166704857E+03  0.27166704862E+03  0.50400001928E-02 0. -1.
        1   -1    0    0  501    0  0.00000000000E+00  0.00000000000E+00 -0.32446509881E+03  0.32446509885E+03  0.50400001928E-02 0.  1.
    10030    2    1    2    0    0  0.00000000000E+00  0.00000000000E+00 -0.52798050239E+02  0.59613214747E+03  0.59378944344E+03 0.  0.
        5    1    3    3  502    0  0.79390586076E+02 -0.28549977412E+03 -0.44115164916E+02  0.29963515140E+03  0.46999998093E+01 0.  1.
       -5    1    3    3    0  502 -0.79390586076E+02  0.28549977412E+03 -0.86828853233E+01  0.29649699607E+03  0.46999998093E+01 0. -1.
</event>
<event>
 5   0  0.8420604E-02  0.5953043E+03  0.7818609E-02  0.9915196E-01
        2   -1    0    0  501    0  0.00000000000E+00  0.00000000000E+00  0.68091679643E+03  0.68091679643E+03  0.25500000920E-02 0.  1.
       -2   -1    0    0    0  501  0.00000000000E+00  0.00000000000E+00 -0.13011399985E+03  0.13011399988E+03  0.25500000920E-02 0. -1.
    10030    2    1    2    0    0  0.00000000000E+00  0.00000000000E+00  0.55080279658E+03  0.81103079631E+03  0.59530431869E+03 0.  0.
        2    1    3    3  502    0 -0.20770870846E+01 -0.88620564441E+02 -0.11171333220E+03  0.14261061437E+03  0.25500000920E-02 0. -1.
       -2    1    3    3    0  502  0.20770870846E+01  0.88620564441E+02  0.66251612878E+03  0.66842018194E+03  0.25500000920E-02 0.  1.
</event>
<event>
 5   0  0.4987389E-02  0.5972529E+03  0.7818609E-02  0.9911122E-01
       -1   -1    0    0    0  501  0.00000000000E+00  0.00000000000E+00  0.27084828427E+03  0.27084828432E+03  0.50400001928E-02 0.  1.
        1   -1    0    0  501    0  0.00000000000E+00  0.00000000000E+00 -0.32925349069E+03  0.32925349073E+03  0.50400001928E-02 0. -1.
    10030    2    1    2    0    0  0.00000000000E+00  0.00000000000E+00 -0.58405206424E+02  0.60010177505E+03  0.59725285456E+03 0.  0.
        1    1    3    3  502    0 -0.23819691608E+03 -0.56292326555E+02  0.14270161815E+03  0.28332022291E+03  0.50400001928E-02 0.  1.
       -1    1    3    3    0  502  0.23819691608E+03  0.56292326555E+02 -0.20110682458E+03  0.31678155214E+03  0.50400001928E-02 0. -1.
</event>
<event>
 5   0  0.8207443E-02  0.6266726E+03  0.7818609E-02  0.9851563E-01
        2   -1    0    0  501    0  0.00000000000E+00  0.00000000000E+00  0.51208255434E+03  0.51208255435E+03  0.25500000920E-02 0.  1.
       -2   -1    0    0    0  501  0.00000000000E+00  0.00000000000E+00 -0.19172621697E+03  0.19172621699E+03  0.25500000920E-02 0. -1.
    10030    2    1    2    0    0  0.00000000000E+00  0.00000000000E+00  0.32035633737E+03  0.70380877134E+03  0.62667264478E+03 0.  0.
        1    1    3    3  502    0  0.26034782857E+03 -0.84463215941E+02  0.33147998132E+03  0.42987673202E+03  0.50400001928E-02 0.  1.
       -1    1    3    3    0  502 -0.26034782857E+03  0.84463215941E+02 -0.11123643956E+02  0.27393203932E+03  0.50400001928E-02 0. -1.
</event>
<event>
 5   0  0.8575590E-02  0.6012589E+03  0.7818609E-02  0.9902798E-01
       -2   -1    0    0    0  501  0.00000000000E+00  0.00000000000E+00  0.70964532532E+02  0.70964532578E+02  0.25500000920E-02 0. -1.
        2   -1    0    0  501    0  0.00000000000E+00  0.00000000000E+00 -0.12735668719E+04  0.12735668719E+04  0.25500000920E-02 0.  1.
    10030    2    1    2    0    0  0.00000000000E+00  0.00000000000E+00 -0.12026023394E+04  0.13445314045E+04  0.60125893839E+03 0.  0.
        4    1    3    3  502    0  0.12184106074E+03  0.20328698892E+03 -0.18772248856E+03  0.30234448822E+03  0.12699999809E+01 0. -1.
       -4    1    3    3    0  502 -0.12184106074E+03 -0.20328698892E+03 -0.10148798509E+04  0.10421869163E+04  0.12699999809E+01 0.  1.
</event>
<event>
 5   0  0.4881209E-02  0.5827580E+03  0.7818609E-02  0.9941838E-01
        1   -1    0    0  501    0  0.00000000000E+00  0.00000000000E+00  0.42563698116E+03  0.42563698119E+03  0.50400001928E-02 0.  1.
       -1   -1    0    0    0  501  0.00000000000E+00  0.00000000000E+00 -0.19946976577E+03  0.19946976583E+03  0.50400001928E-02 0. -1.
    10030    2    1    2    0    0  0.00000000000E+00  0.00000000000E+00  0.22616721540E+03  0.62510674703E+03  0.58275795649E+03 0.  0.
        3    1    3    3  502    0  0.22530635456E+03 -0.15920697468E+03  0.21366252668E+03  0.34894340472E+03  0.10100000352E+00 0.  1.
       -3    1    3    3    0  502 -0.22530635456E+03  0.15920697468E+03  0.12504688719E+02  0.27616334230E+03  0.10100000352E+00 0. -1.
</event>
<event>
 5   0  0.8699746E-02  0.6054645E+03  0.7818609E-02  0.9894133E-01
       -2   -1    0    0    0  501  0.00000000000E+00  0.00000000000E+00  0.77823143080E+02  0.77823143122E+02  0.25500000920E-02 0. -1.
        2   -1    0    0  501    0  0.00000000000E+00  0.00000000000E+00 -0.11776291566E+04  0.11776291566E+04  0.25500000920E-02 0.  1.
    10030    2    1    2    0    0  0.00000000000E+00  0.00000000000E+00 -0.10998060135E+04  0.12554522997E+04  0.60546445767E+03 0.  0.
        3    1    3    3  502    0  0.18734573539E+03 -0.18680449535E+03 -0.85501906556E+03  0.89501505950E+03  0.10100000352E+00 0. -1.
       -3    1    3    3    0  502 -0.18734573539E+03  0.18680449535E+03 -0.24478694795E+03  0.36043724022E+03  0.10100000352E+00 0.  1.
</event>
<event>
 5   0  0.8207443E-02  0.6019015E+03  0.7818609E-02  0.9901469E-01
        2   -1    0    0  501    0  0.00000000000E+00  0.00000000000E+00  0.34917109953E+03  0.34917109954E+03  0.25500000920E-02 0.  1.
       -2   -1    0    0    0  501  0.00000000000E+00  0.00000000000E+00 -0.25938959189E+03  0.25938959191E+03  0.25500000920E-02 0. -1.
    10030    2    1    2    0    0  0.00000000000E+00  0.00000000000E+00  0.89781507639E+02  0.60856069145E+03  0.60190148369E+03 0.  0.
        1    1    3    3  502    0  0.79711361260E+02 -0.18597671630E+03 -0.18035213919E+03  0.27105005858E+03  0.50400001928E-02 0. -1.
       -1    1    3    3    0  502 -0.79711361260E+02  0.18597671630E+03  0.27013364683E+03  0.33751063287E+03  0.50400001928E-02 0.  1.
</event>
<event>
 5   0  0.5166903E-02  0.5908459E+03  0.7818609E-02  0.9924582E-01
       -1   -1    0    0    0  501  0.00000000000E+00  0.00000000000E+00  0.24031545123E+03  0.24031545128E+03  0.50400001928E-02 0.  1.
        1   -1    0    0  501    0  0.00000000000E+00  0.00000000000E+00 -0.36316736286E+03  0.36316736289E+03  0.50400001928E-02 0. -1.
    10030    2    1    2    0    0  0.00000000000E+00  0.00000000000E+00 -0.12285191163E+03  0.60348281417E+03  0.59084593153E+03 0.  0.
        2    1    3    3  502    0  0.26620903238E+03 -0.95193249816E+01  0.69043538988E+02  0.27518153418E+03  0.25500000920E-02 0. -1.
       -2    1    3    3    0  502 -0.26620903238E+03  0.95193249816E+01 -0.19189545062E+03  0.32830127999E+03  0.25500000920E-02 0.  1.
</event>
<event>
 5   0  0.4881209E-02  0.6123625E+03  0.7818609E-02  0.9880085E-01
        1   -1    0    0  501    0  0.00000000000E+00  0.00000000000E+00  0.73342156004E+03  0.73342156005E+03  0.50400001928E-02 0.  1.
       -1   -1    0    0    0  501  0.00000000000E+00  0.00000000000E+00 -0.12782137173E+03  0.12782137183E+03  0.50400001928E-02 0. -1.
    10030    2    1    2    0    0  0.00000000000E+00  0.00000000000E+00  0.60560018830E+03  0.86124293189E+03  0.61236247407E+03 0.  0.
        3    1    3    3  502    0  0.29474003759E+03  0.46294982858E+02  0.39954778201E+03  0.49865153716E+03  0.10100000352E+00 0. -1.
       -3    1    3    3    0  502 -0.29474003759E+03 -0.46294982858E+02  0.20605240629E+03  0.36259139473E+03  0.10100000352E+00 0.  1.
</event>
<event>
 5   0  0.5125031E-02  0.5930807E+03  0.7818609E-02  0.9919866E-01
       -1   -1    0    0    0  501  0.00000000000E+00  0.00000000000E+00  0.14864181839E+03  0.14864181847E+03  0.50400001928E-02 0.  1.
        1   -1    0    0  501    0  0.00000000000E+00  0.00000000000E+00 -0.59159787160E+03  0.59159787162E+03  0.50400001928E-02 0. -1.
    10030    2    1    2    0    0  0.00000000000E+00  0.00000000000E+00 -0.44295605321E+03  0.74023969009E+03  0.59308071433E+03 0.  0.
        4    1    3    3  502    0  0.16792933118E+03  0.21478728238E+03 -0.75918802424E+02  0.28301786941E+03  0.12699999809E+01 0.  1.
       -4    1    3    3    0  502 -0.16792933118E+03 -0.21478728238E+03 -0.36703725079E+03  0.45722182068E+03  0.12699999809E+01 0. -1.
</event>
<event>
 5   0  0.8817544E-02  0.5209006E+03  0.7818609E-02  0.1008463E+00
        2   -1    0    0  501    0  0.00000000000E+00  0.00000000000E+00  0.82243535219E+03  0.82243535220E+03  0.25500000920E-02 0. -1.
       -2   -1    0    0    0  501  0.00000000000E+00  0.00000000000E+00 -0.82479881778E+02  0.82479881817E+02  0.25500000920E-02 0.  1.
    10030    2    1    2    0    0  0.00000000000E+00  0.00000000000E+00  0.73995547042E+03  0.90491523401E+03  0.52090064557E+03 0.  0.
        5    1    3    3  502    0  0.17823481608E+03 -0.11115902619E+03  0.63735222464E+03  0.67109159362E+03  0.46999998093E+01 0. -1.
       -5    1    3    3    0  502 -0.17823481608E+03  0.11115902619E+03  0.10260324577E+03  0.23382364040E+03  0.46999998093E+01 0.  1.
</event>
<event>
 5   0  0.8699746E-02  0.5954127E+03  0.7818609E-02  0.9914969E-01
       -2   -1    0    0    0  501  0.00000000000E+00  0.00000000000E+00  0.23252730117E+03  0.23252730119E+03  0.25500000920E-02 0.  1.
        2   -1    0    0  501    0  0.00000000000E+00  0.00000000000E+00 -0.38115554093E+03  0.38115554093E+03  0.25500000920E-02 0. -1.
    10030    2    1    2    0    0  0.00000000000E+00  0.00000000000E+00 -0.14862823975E+03  0.61368284212E+03  0.59541269474E+03 0.  0.
        3    1    3    3  502    0  0.13283069249E+03 -0.25794391952E+03 -0.14306937926E+03  0.32349330127E+03  0.10100000352E+00 0. -1.
       -3    1    3    3    0  502 -0.13283069249E+03  0.25794391952E+03 -0.55588604936E+01  0.29018954085E+03  0.10100000352E+00 0.  1.
</event>
<event>
 5   0  0.8575590E-02  0.6009495E+03  0.7818609E-02  0.9903438E-01
       -2   -1    0    0    0  501  0.00000000000E+00  0.00000000000E+00  0.20249629046E+03  0.20249629047E+03  0.25500000920E-02 0.  1.
        2   -1    0    0  501    0  0.00000000000E+00  0.00000000000E+00 -0.44586044040E+03  0.44586044040E+03  0.25500000920E-02 0. -1.
    10030    2    1    2    0    0  0.00000000000E+00  0.00000000000E+00 -0.24336414994E+03  0.64835673088E+03  0.60094953282E+03 0.  0.
        4    1    3    3  502    0  0.69912701797E+02 -0.26190719973E+03  0.18158952964E+02  0.27168829127E+03  0.12699999809E+01 0.  1.
       -4    1    3    3    0  502 -0.69912701797E+02  0.26190719973E+03 -0.26152310291E+03  0.37666843960E+03  0.12699999809E+01 0. -1.
</event>
<event>
 5   0  0.8699746E-02  0.6004018E+03  0.7818609E-02  0.9904573E-01
        2   -1    0    0  501    0  0.00000000000E+00  0.00000000000E+00  0.22254271611E+03  0.22254271612E+03  0.25500000920E-02 0.  1.
       -2   -1    0    0    0  501  0.00000000000E+00  0.00000000000E+00 -0.40495858336E+03  0.40495858337E+03  0.25500000920E-02 0. -1.
    10030    2    1    2    0    0  0.00000000000E+00  0.00000000000E+00 -0.18241586725E+03  0.62750129949E+03  0.60040180899E+03 0.  0.
        3    1    3    3  502    0 -0.68491048833E+02  0.15544230836E+03 -0.34990219097E+03  0.38895358135E+03  0.10100000352E+00 0. -1.
       -3    1    3    3    0  502  0.68491048833E+02 -0.15544230836E+03  0.16748632372E+03  0.23854771814E+03  0.10100000352E+00 0.  1.
</event>
<event>
 5   0  0.5190380E-02  0.6035391E+03  0.7818609E-02  0.9898091E-01
       -1   -1    0    0    0  501  0.00000000000E+00  0.00000000000E+00  0.21757170055E+03  0.21757170061E+03  0.50400001928E-02 0. -1.
        1   -1    0    0  501    0  0.00000000000E+00  0.00000000000E+00 -0.41855099158E+03  0.41855099161E+03  0.50400001928E-02 0.  1.
    10030    2    1    2    0    0  0.00000000000E+00  0.00000000000E+00 -0.20097929103E+03  0.63612269222E+03  0.60353906596E+03 0.  0.
        5    1    3    3  502    0  0.20978209383E+03 -0.12745876490E+03 -0.28542917523E+03  0.37649192251E+03  0.46999998093E+01 0.  1.
       -5    1    3    3    0  502 -0.20978209383E+03  0.12745876490E+03  0.84449884207E+02  0.25963076971E+03  0.46999998093E+01 0. -1.
</event>
<event>
 5   0  0.5125031E-02  0.6280067E+03  0.7818609E-02  0.9848946E-01
        1   -1    0    0  501    0  0.00000000000E+00  0.00000000000E+00  0.22879427088E+03  0.22879427094E+03  0.50400001928E-02 0. -1.
       -1   -1    0    0    0  501  0.00000000000E+00  0.00000000000E+00 -0.43094662574E+03  0.43094662577E+03  0.50400001928E-02 0.  1.
    10030    2    1    2    0    0  0.00000000000E+00  0.00000000000E+00 -0.20215235486E+03  0.65974089671E+03  0.62800674854E+03 0.  0.
        4    1    3    3  502    0 -0.13670485311E+02  0.28571793496E+03  0.34986458299E+02  0.28817925965E+03  0.12699999809E+01 0. -1.
       -4    1    3    3    0  502  0.13670485311E+02 -0.28571793496E+03 -0.23713881315E+03  0.37156163706E+03  0.12699999809E+01 0.  1.
</event>
<event>
 5   0  0.5190380E-02  0.6049452E+03  0.7818609E-02  0.9895199E-01
        1   -1    0    0  501    0  0.00000000000E+00  0.00000000000E+00  0.21513380921E+03  0.21513380927E+03  0.50400001928E-02 0.  1.
       -1   -1    0    0    0  501  0.00000000000E+00  0.00000000000E+00 -0.42526870163E+03  0.42526870166E+03  0.50400001928E-02 0. -1.
    10030    2    1    2    0    0  0.00000000000E+00  0.00000000000E+00 -0.21013489242E+03  0.64040251093E+03  0.60494520660E+03 0.  0.
        5    1    3    3  502    0  0.12729226800E+03 -0.26703483880E+03 -0.17165626399E+03  0.34205100437E+03  0.46999998093E+01 0. -1.
       -5    1    3    3    0  502 -0.12729226800E+03  0.26703483880E+03 -0.38478628435E+02  0.29835150656E+03  0.46999998093E+01 0.  1.
</event>
<event>
 5   0  0.5125031E-02  0.5977879E+03  0.7818609E-02  0.9910006E-01
       -1   -1    0    0    0  501  0.00000000000E+00  0.00000000000E+00  0.21378080494E+03  0.21378080500E+03  0.50400001928E-02 0.  1.
        1   -1    0    0  501    0  0.00000000000E+00  0.00000000000E+00 -0.41789342309E+03  0.41789342312E+03  0.50400001928E-02 0. -1.
    10030    2    1    2    0    0  0.00000000000E+00  0.00000000000E+00 -0.20411261815E+03  0.63167422811E+03  0.59778789681E+03 0.  0.
        4    1    3    3  502    0  0.11490037843E+03  0.12744233406E+03  0.15654556004E+03  0.23227520475E+03  0.12699999809E+01 0.  1.
       -4    1    3    3    0  502 -0.11490037843E+03 -0.12744233406E+03 -0.36065817818E+03  0.39939902337E+03  0.12699999809E+01 0. -1.
</event>
<event>
 5   0  0.8699746E-02  0.5988778E+03  0.7818609E-02  0.9907737E-01
       -2   -1    0    0    0  501  0.00000000000E+00  0.00000000000E+00  0.10275961948E+03  0.10275961951E+03  0.25500000920E-02 0.  1.
        2   -1    0    0  501    0  0.00000000000E+00  0.00000000000E+00 -0.87255714189E+03  0.87255714189E+03  0.25500000920E-02 0. -1.
    10030    2    1    2    0    0  0.00000000000E+00  0.00000000000E+00 -0.76979752240E+03  0.97531676140E+03  0.59887775011E+03 0.  0.
        3    1    3    3  502    0 -0.11850607350E+03  0.27276053988E+03 -0.44182035088E+03  0.53258542435E+03  0.10100000352E+00 0.  1.
       -3    1    3    3    0  502  0.11850607350E+03 -0.27276053988E+03 -0.32797717152E+03  0.44273133706E+03  0.10100000352E+00 0. -1.
</event>
<event>
 5   0  0.4987389E-02  0.5991117E+03  0.7818609E-02  0.9907251E-01
        1   -1    0    0  501    0  0.00000000000E+00  0.00000000000E+00  0.26692919566E+03  0.26692919571E+03  0.50400001928E-02 0. -1.
       -1   -1    0    0    0  501  0.00000000000E+00  0.00000000000E+00 -0.33617042880E+03  0.33617042884E+03  0.50400001928E-02 0.  1.
    10030    2    1    2    0    0  0.00000000000E+00  0.00000000000E+00 -0.69241233139E+02  0.60309962454E+03  0.59911168304E+03 0.  0.
        1    1    3    3  502    0  0.15014715180E+03 -0.55982930293E+02  0.22015584447E+03  0.27229919493E+03  0.50400001928E-02 0. -1.
       -1    1    3    3    0  502 -0.15014715180E+03  0.55982930293E+02 -0.28939707761E+03  0.33080042961E+03  0.50400001928E-02 0.  1.
</event>
<event>
 5   0  0.8817544E-02  0.5881473E+03  0.7818609E-02  0.9930306E-01
        2   -1    0    0  501    0  0.00000000000E+00  0.00000000000E+00  0.12182549200E+03  0.12182549202E+03  0.25500000920E-02 0.  1.
       -2   -1    0    0    0  501  0.00000000000E+00  0.00000000000E+00 -0.70986214262E+03  0.70986214262E+03  0.25500000920E-02 0. -1.
    10030    2    1    2    0    0  0.00000000000E+00  0.00000000000E+00 -0.58803665062E+03  0.83168763465E+03  0.58814727675E+03 0.  0.
        5    1    3    3  502    0 -0.18110165692E+02 -0.53291517732E+02  0.11408358895E+03  0.12729932925E+03  0.46999998093E+01 0.  1.
       -5    1    3    3    0  502  0.18110165692E+02  0.53291517732E+02 -0.70212023957E+03  0.70438830539E+03  0.46999998093E+01 0. -1.
</event>
<event>
 5   0  0.8699746E-02  0.5978998E+03  0.7818609E-02  0.9909773E-01
       -2   -1    0    0    0  501  0.00000000000E+00  0.00000000000E+00  0.82102700752E+02  0.82102700791E+02  0.25500000920E-02 0.  1.
        2   -1    0    0  501    0  0.00000000000E+00  0.00000000000E+00 -0.10885274230E+04  0.10885274230E+04  0.25500000920E-02 0. -1.
    10030    2    1    2    0    0  0.00000000000E+00  0.00000000000E+00 -0.10064247222E+04  0.11706301238E+04  0.59789979527E+03 0.  0.
        3    1    3    3  502    0  0.20686157916E+03  0.18752044002E+03 -0.29402429264E+03  0.40547000286E+03  0.10100000352E+00 0.  1.
       -3    1    3    3    0  502 -0.20686157916E+03 -0.18752044002E+03 -0.71240042961E+03  0.76516012093E+03  0.10100000352E+00 0. -1.
</event>
<event>
 5   0  0.4881209E-02  0.6066743E+03  0.7818609E-02  0.9891655E-01
        1   -1    0    0  501    0  0.00000000000E+00  0.00000000000E+00  0.41999100132E+03  0.41999100135E+03  0.50400001928E-02 0. -1.
       -1   -1    0    0    0  501  0.00000000000E+00  0.00000000000E+00 -0.21908428824E+03  0.21908428830E+03  0.50400001928E-02 0.  1.
    10030    2    1    2    0    0  0.00000000000E+00  0.00000000000E+00  0.20090671308E+03  0.63907528965E+03  0.60667431005E+03 0.  0.
        3    1    3    3  502    0 -0.19682291166E+03 -0.58219785520E+02  0.33573050268E+03  0.39350194740E+03  0.10100000352E+00 0. -1.
       -3    1    3    3    0  502  0.19682291166E+03  0.58219785520E+02 -0.13482378960E+03  0.24557334225E+03  0.10100000352E+00 0.  1.
</event>
<event>
 5   0  0.8575590E-02  0.5805142E+03  0.7818609E-02  0.9946678E-01
        2   -1    0    0  501    0  0.00000000000E+00  0.00000000000E+00  0.12497625459E+03  0.12497625462E+03  0.25500000920E-02 0.  1.
       -2   -1    0    0    0  501  0.00000000000E+00  0.00000000000E+00 -0.67412160198E+03  0.67412160199E+03  0.25500000920E-02 0. -1.
    10030    2    1    2    0    0  0.00000000000E+00  0.00000000000E+00 -0.54914534739E+03  0.79909785661E+03  0.58051423055E+03 0.  0.
        4    1    3    3  502    0  0.14202168759E+03 -0.17321636880E+03 -0.20478017501E+02  0.22493339518E+03  0.12699999809E+01 0.  1.
       -4    1    3    3    0  502 -0.14202168759E+03  0.17321636880E+03 -0.52866732989E+03  0.57416446142E+03  0.12699999809E+01 0. -1.
</event>
<event>
 5   0  0.3437375E-02  0.6138681E+03  0.7818609E-02  0.9877045E-01
        4   -1    0    0  501    0  0.00000000000E+00  0.00000000000E+00  0.41775200280E+03  0.41775393324E+03  0.12699999809E+01 0. -1.
       -4   -1    0    0    0  501  0.00000000000E+00  0.00000000000E+00 -0.22550874687E+03  0.22551232298E+03  0.12699999809E+01 0.  1.
    10030    2    1    2    0    0  0.00000000000E+00  0.00000000000E+00  0.19224325593E+03  0.64326625622E+03  0.61386806965E+03 0.  0.
        2    1    3    3  502    0 -0.22324962920E+03 -0.20107100868E+03  0.16188501043E+03  0.34128683549E+03  0.25500000920E-02 0.  1.
       -2    1    3    3    0  502  0.22324962920E+03  0.20107100868E+03  0.30358245498E+02  0.30197942073E+03  0.25500000920E-02 0. -1.
</event>
<event>
 5   0  0.5166903E-02  0.6082626E+03  0.7818609E-02  0.9888411E-01
        1   -1    0    0  501    0  0.00000000000E+00  0.00000000000E+00  0.95444428216E+03  0.95444428217E+03  0.50400001928E-02 0.  1.
       -1   -1    0    0    0  501  0.00000000000E+00  0.00000000000E+00 -0.96910675386E+02  0.96910675517E+02  0.50400001928E-02 0. -1.
    10030    2    1    2    0    0  0.00000000000E+00  0.00000000000E+00  0.85753360678E+03  0.10513549577E+04  0.60826257514E+03 0.  0.
        2    1    3    3  502    0 -0.17267903644E+03  0.25439235796E+02 -0.17215305942E+01  0.17455133347E+03  0.25500000920E-02 0. -1.
       -2    1    3    3    0  502  0.17267903644E+03 -0.25439235796E+02  0.85925513737E+03  0.87680362422E+03  0.25500000920E-02 0.  1.
</event>
<event>
 5   0  0.5125031E-02  0.6024755E+03  0.7818609E-02  0.9900283E-01
       -1   -1    0    0    0  501  0.00000000000E+00  0.00000000000E+00  0.43607045001E+03  0.43607045004E+03  0.50400001928E-02 0.  1.
        1   -1    0    0  501    0  0.00000000000E+00  0.00000000000E+00 -0.20809524857E+03  0.20809524863E+03  0.50400001928E-02 0. -1.
    10030    2    1    2    0    0  0.00000000000E+00  0.00000000000E+00  0.22797520143E+03  0.64416569867E+03  0.60247552222E+03 0.  0.
        4    1    3    3  502    0 -0.22030160692E+02  0.21269327096E+03 -0.11287099726E+03  0.24179584449E+03  0.12699999809E+01 0. -1.
       -4    1    3    3    0  502  0.22030160692E+02 -0.21269327096E+03  0.34084619869E+03  0.40236985418E+03  0.12699999809E+01 0.  1.
</event>
<event>
 5   0  0.4987389E-02  0.6194361E+03  0.7818609E-02  0.9865883E-01
        1   -1    0    0  501    0  0.00000000000E+00  0.00000000000E+00  0.59703621506E+03  0.59703621508E+03  0.50400001928E-02 0.  1.
       -1   -1    0    0    0  501  0.00000000000E+00  0.00000000000E+00 -0.16066908890E+03  0.16066908898E+03  0.50400001928E-02 0. -1.
    10030    2    1    2    0    0  0.00000000000E+00  0.00000000000E+00  0.43636712615E+03  0.75770530406E+03  0.61943608146E+03 0.  0.
        1    1    3    3  502    0  0.22608657664E+03 -0.10598707783E+03 -0.59587729115E+01  0.24976770769E+03  0.50400001928E-02 0. -1.
       -1    1    3    3    0  502 -0.22608657664E+03  0.10598707783E+03  0.44232589907E+03  0.50793759638E+03  0.50400001928E-02 0.  1.
</event>
<event>
 5   0  0.5190380E-02  0.5349920E+03  0.7818609E-02  0.1005029E+00
       -1   -1    0    0    0  501  0.00000000000E+00  0.00000000000E+00  0.24035294875E+03  0.24035294881E+03  0.50400001928E-02 0.  1.
        1   -1    0    0  501    0  0.00000000000E+00  0.00000000000E+00 -0.29770436708E+03  0.29770436712E+03  0.50400001928E-02 0. -1.
    10030    2    1    2    0    0  0.00000000000E+00  0.00000000000E+00 -0.57351418321E+02  0.53805731593E+03  0.53499204671E+03 0.  0.
        5    1    3    3  502    0  0.15964968113E+03 -0.45078861928E+02 -0.23966786687E+03  0.29151826853E+03  0.46999998093E+01 0. -1.
       -5    1    3    3    0  502 -0.15964968113E+03  0.45078861928E+02  0.18231644855E+03  0.24653904739E+03  0.46999998093E+01 0.  1.
</event>
<event>
 5   0  0.8207443E-02  0.5995003E+03  0.7818609E-02  0.9906443E-01
        2   -1    0    0  501    0  0.00000000000E+00  0.00000000000E+00  0.10480370098E+04  0.10480370098E+04  0.25500000920E-02 0.  1.
       -2   -1    0    0    0  501  0.00000000000E+00  0.00000000000E+00 -0.85731859885E+02  0.85731859923E+02  0.25500000920E-02 0. -1.
    10030    2    1    2    0    0  0.00000000000E+00  0.00000000000E+00  0.96230514995E+03  0.11337688698E+04  0.59950033229E+03 0.  0.
        1    1    3    3  502    0 -0.21480363138E+03  0.55185660327E+02  0.99787684016E+02  0.24319465263E+03  0.50400001928E-02 0. -1.
       -1    1    3    3    0  502  0.21480363138E+03 -0.55185660327E+02  0.86251746593E+03  0.89057421713E+03  0.50400001928E-02 0.  1.
</event>
<event>
 5   0  0.4987389E-02  0.6260876E+03  0.7818609E-02  0.9852713E-01
       -1   -1    0    0    0  501  0.00000000000E+00  0.00000000000E+00  0.20170812923E+03  0.20170812929E+03  0.50400001928E-02 0.  1.
        1   -1    0    0  501    0  0.00000000000E+00  0.00000000000E+00 -0.48583273315E+03  0.48583273317E+03  0.50400001928E-02 0. -1.
    10030    2    1    2    0    0  0.00000000000E+00  0.00000000000E+00 -0.28412460392E+03  0.68754086247E+03  0.62608757136E+03 0.  0.
        1    1    3    3  502    0  0.37322112002E+02 -0.11508787459E+03 -0.45911958495E+03  0.47479358908E+03  0.50400001928E-02 0. -1.
       -1    1    3    3    0  502 -0.37322112002E+02  0.11508787459E+03  0.17499498103E+03  0.21274727339E+03  0.50400001928E-02 0.  1.
</event>
<event>
 5   0  0.8207443E-02  0.5845103E+03  0.7818609E-02  0.9938074E-01
        2   -1    0    0  501    0  0.00000000000E+00  0.00000000000E+00  0.18930548485E+03  0.18930548486E+03  0.25500000920E-02 0. -1.
       -2   -1    0    0    0  501  0.00000000000E+00  0.00000000000E+00 -0.45119172928E+03  0.45119172929E+03  0.25500000920E-02 0.  1.
    10030    2    1    2    0    0  0.00000000000E+00  0.00000000000E+00 -0.26188624443E+03  0.64049721415E+03  0.58451028760E+03 0.  0.
        1    1    3    3  502    0  0.19195662443E+03 -0.37663961329E+02  0.10698885065E+03  0.22296307729E+03  0.50400001928E-02 0. -1.
       -1    1    3    3    0  502 -0.19195662443E+03  0.37663961329E+02 -0.36887509508E+03  0.41753413686E+03  0.50400001928E-02 0.  1.
</event>
<event>
 5   0  0.4881209E-02  0.5835962E+03  0.7818609E-02  0.9940035E-01
       -1   -1    0    0    0  501  0.00000000000E+00  0.00000000000E+00  0.95184110246E+02  0.95184110379E+02  0.50400001928E-02 0. -1.
        1   -1    0    0  501    0  0.00000000000E+00  0.00000000000E+00 -0.89454148403E+03  0.89454148404E+03  0.50400001928E-02 0.  1.
    10030    2    1    2    0    0  0.00000000000E+00  0.00000000000E+00 -0.79935737378E+03  0.98972559442E+03  0.58359621420E+03 0.  0.
        3    1    3    3  502    0 -0.27582870767E+03 -0.22991125074E+02 -0.55636497643E+03  0.62141134927E+03  0.10100000352E+00 0.  1.
       -3    1    3    3    0  502  0.27582870767E+03  0.22991125074E+02 -0.24299239736E+03  0.36831424515E+03  0.10100000352E+00 0. -1.
</event>
<event>
 5   0  0.5166903E-02  0.6116145E+03  0.7818609E-02  0.9881598E-01
       -1   -1    0    0    0  501  0.00000000000E+00  0.00000000000E+00  0.13589387410E+03  0.13589387420E+03  0.50400001928E-02 0.  1.
        1   -1    0    0  501    0  0.00000000000E+00  0.00000000000E+00 -0.68816983173E+03  0.68816983175E+03  0.50400001928E-02 0. -1.
    10030    2    1    2    0    0  0.00000000000E+00  0.00000000000E+00 -0.55227595763E+03  0.82406370595E+03  0.61161446850E+03 0.  0.
        2    1    3    3  502    0  0.77922606698E+02  0.37463957707E+02  0.11908278942E+03  0.14716042778E+03  0.25500000920E-02 0.  1.
       -2    1    3    3    0  502 -0.77922606698E+02 -0.37463957707E+02 -0.67135874704E+03  0.67690327817E+03  0.25500000920E-02 0. -1.
</event>
<event>
 5   0  0.5190380E-02  0.6038594E+03  0.7818609E-02  0.9897431E-01
       -1   -1    0    0    0  501  0.00000000000E+00  0.00000000000E+00  0.27509045028E+03  0.27509045033E+03  0.50400001928E-02 0. -1.
        1   -1    0    0  501    0  0.00000000000E+00  0.00000000000E+00 -0.33138756866E+03  0.33138756870E+03  0.50400001928E-02 0.  1.
    10030    2    1    2    0    0  0.00000000000E+00  0.00000000000E+00 -0.56297118381E+02  0.60647801903E+03  0.60385943896E+03 0.  0.
        5    1    3    3  502    0  0.24613995935E+03  0.25858735848E+02  0.14547652142E+03  0.28712203345E+03  0.46999998093E+01 0. -1.
       -5    1    3    3    0  502 -0.24613995935E+03 -0.25858735848E+02 -0.20177363981E+03  0.31935598558E+03  0.46999998093E+01 0.  1.
</event>
<event>
 5   0  0.8817544E-02  0.6003868E+03  0.7818609E-02  0.9904604E-01
        2   -1    0    0  501    0  0.00000000000E+00  0.00000000000E+00  0.23773644643E+04  0.23773644643E+04  0.25500000920E-02 0. -1.
       -2   -1    0    0    0  501  0.00000000000E+00  0.00000000000E+00 -0.37905870282E+02  0.37905870368E+02  0.25500000920E-02 0.  1.
    10030    2    1    2    0    0  0.00000000000E+00  0.00000000000E+00  0.23394585941E+04  0.24152703347E+04  0.60038677235E+03 0.  0.
        5    1    3    3  502    0 -0.64456446518E+02 -0.80373479431E+02  0.35601338459E+02  0.10910579724E+03  0.46999998093E+01 0.  1.
       -5    1    3    3    0  502  0.64456446518E+02  0.80373479431E+02  0.23038572556E+04  0.23061645375E+04  0.46999998093E+01 0. -1.
</event>
<event>
 5   0  0.8817544E-02  0.6030356E+03  0.7818609E-02  0.9899128E-01
       -2   -1    0    0    0  501  0.00000000000E+00  0.00000000000E+00  0.23710789975E+03  0.23710789977E+03  0.25500000920E-02 0. -1.
        2   -1    0    0  501    0  0.00000000000E+00  0.00000000000E+00 -0.38342453824E+03  0.38342453825E+03  0.25500000920E-02 0.  1.
    10030    2    1    2    0    0  0.00000000000E+00  0.00000000000E+00 -0.14631663849E+03  0.62053243802E+03  0.60303561083E+03 0.  0.
        5    1    3    3  502    0 -0.17842845071E+03 -0.21776333975E+03 -0.18414560562E+03  0.33643614287E+03  0.46999998093E+01 0.  1.
       -5    1    3    3    0  502  0.17842845071E+03  0.21776333975E+03  0.37828967130E+02  0.28409629515E+03  0.46999998093E+01 0. -1.
</event>
<event>
 5   0  0.8817544E-02  0.6052999E+03  0.7818609E-02  0.9894471E-01
        2   -1    0    0  501    0  0.00000000000E+00  0.00000000000E+00  0.92242871000E+03  0.92242871000E+03  0.25500000920E-02 0.  1.
       -2   -1    0    0    0  501  0.00000000000E+00  0.00000000000E+00 -0.99299806216E+02  0.99299806249E+02  0.25500000920E-02 0. -1.
    10030    2    1    2    0    0  0.00000000000E+00  0.00000000000E+00  0.82312890378E+03  0.10217285163E+04  0.60529989978E+03 0.  0.
        5    1    3    3  502    0  0.12610939308E+03  0.21840937432E+03  0.69385790568E+03  0.73828660904E+03  0.46999998093E+01 0.  1.
       -5    1    3    3    0  502 -0.12610939308E+03 -0.21840937432E+03  0.12927099810E+03  0.28344190721E+03  0.46999998093E+01 0. -1.
</event>
<event>
 5   0  0.5125031E-02  0.6046345E+03  0.7818609E-02  0.9895837E-01
        1   -1    0    0  501    0  0.00000000000E+00  0.00000000000E+00  0.88362250519E+03  0.88362250520E+03  0.50400001928E-02 0. -1.
       -1   -1    0    0    0  501  0.00000000000E+00  0.00000000000E+00 -0.10343298100E+03  0.10343298112E+03  0.50400001928E-02 0.  1.
    10030    2    1    2    0    0  0.00000000000E+00  0.00000000000E+00  0.78018952419E+03  0.98705548633E+03  0.60463446762E+03 0.  0.
        4    1    3    3  502    0 -0.26784093205E+03  0.47066709978E+02  0.17450773951E+03  0.32312320269E+03  0.12699999809E+01 0.  1.
       -4    1    3    3    0  502  0.26784093205E+03 -0.47066709978E+02  0.60568178467E+03  0.66393228364E+03  0.12699999809E+01 0. -1.
</event>
<event>
 5   0  0.3437375E-02  0.5967351E+03  0.7818609E-02  0.9912203E-01
        3   -1    0    0  501    0  0.00000000000E+00  0.00000000000E+00  0.53726415300E+03  0.53726416250E+03  0.10100000352E+00 0.  1.
       -3   -1    0    0    0  501  0.00000000000E+00  0.00000000000E+00 -0.16569722258E+03  0.16569725336E+03  0.10100000352E+00 0. -1.
    10030    2    1    2    0    0  0.00000000000E+00  0.00000000000E+00  0.37156693043E+03  0.70296141586E+03  0.59673509064E+03 0.  0.
        5    1    3    3  502    0 -0.23322089210E+03 -0.18598832346E+03  0.18086096159E+03  0.34887880188E+03  0.46999998093E+01 0.  1.
       -5    1    3    3    0  502  0.23322089210E+03  0.18598832346E+03  0.19070596883E+03  0.35408261398E+03  0.46999998093E+01 0. -1.
</event>
<event>
 5   0  0.8420604E-02  0.6092661E+03  0.7818609E-02  0.9886366E-01
        2   -1    0    0  501    0  0.00000000000E+00  0.00000000000E+00  0.62498957980E+03  0.62498957980E+03  0.25500000920E-02 0.  1.
       -2   -1    0    0    0  501  0.00000000000E+00  0.00000000000E+00 -0.14848454399E+03  0.14848454401E+03  0.25500000920E-02 0. -1.
    10030    2    1    2    0    0  0.00000000000E+00  0.00000000000E+00  0.47650503581E+03  0.77347412382E+03  0.60926609217E+03 0.  0.
        2    1    3    3  502    0 -0.24511518131E+03 -0.17730086908E+03  0.28374737394E+03  0.41476453863E+03  0.25500000920E-02 0.  1.
       -2    1    3    3    0  502  0.24511518131E+03  0.17730086908E+03  0.19275766187E+03  0.35870958518E+03  0.25500000920E-02 0. -1.
</event>
<event>
 5   0  0.8699746E-02  0.6096673E+03  0.7818609E-02  0.9885550E-01
       -2   -1    0    0    0  501  0.00000000000E+00  0.00000000000E+00  0.16427871435E+03  0.16427871437E+03  0.25500000920E-02 0.  1.
        2   -1    0    0  501    0  0.00000000000E+00  0.00000000000E+00 -0.56564576716E+03  0.56564576716E+03  0.25500000920E-02 0. -1.
    10030    2    1    2    0    0  0.00000000000E+00  0.00000000000E+00 -0.40136705281E+03  0.72992448153E+03  0.60966731720E+03 0.  0.
        3    1    3    3  502    0  0.13444941008E+02 -0.26161523169E+02  0.16257567750E+03  0.16521517136E+03  0.10100000352E+00 0.  1.
       -3    1    3    3    0  502 -0.13444941008E+02  0.26161523169E+02 -0.56394273031E+03  0.56470931017E+03  0.10100000352E+00 0. -1.
</event>
<event>
 5   0  0.4987389E-02  0.6046521E+03  0.7818609E-02  0.9895801E-01
        1   -1    0    0  501    0  0.00000000000E+00  0.00000000000E+00  0.19121158656E+04  0.19121158657E+04  0.50400001928E-02 0. -1.
       -1   -1    0    0    0  501  0.00000000000E+00  0.00000000000E+00 -0.47800992883E+02  0.47800993149E+02  0.50400001928E-02 0.  1.
    10030    2    1    2    0    0  0.00000000000E+00  0.00000000000E+00  0.18643148728E+04  0.19599168588E+04  0.60465208890E+03 0.  0.
        1    1    3    3  502    0 -0.13152380280E+02 -0.11497857936E+03  0.26838504428E+02  0.11879968083E+03  0.50400001928E-02 0.  1.
       -1    1    3    3    0  502  0.13152380280E+02  0.11497857936E+03  0.18374763683E+04  0.18411171780E+04  0.50400001928E-02 0. -1.
</event>
<event>
 5   0  0.8699746E-02  0.5989824E+03  0.7818609E-02  0.9907520E-01
        2   -1    0    0  501    0  0.00000000000E+00  0.00000000000E+00  0.26002012632E+03  0.26002012634E+03  0.25500000920E-02 0.  1.
       -2   -1    0    0    0  501  0.00000000000E+00  0.00000000000E+00 -0.34495396410E+03  0.34495396411E+03  0.25500000920E-02 0. -1.
    10030    2    1    2    0    0  0.00000000000E+00  0.00000000000E+00 -0.84933837780E+02  0.60497409045E+03  0.59898238147E+03 0.  0.
        3    1    3    3  502    0 -0.12848678729E+03 -0.12454097583E+03 -0.28502681104E+03  0.33654064001E+03  0.10100000352E+00 0. -1.
       -3    1    3    3    0  502  0.12848678729E+03  0.12454097583E+03  0.20009297326E+03  0.26843345044E+03  0.10100000352E+00 0.  1.
</event>
<event>
 5   0  0.5125031E-02  0.5967976E+03  0.7818609E-02  0.9912072E-01
       -1   -1    0    0    0  501  0.00000000000E+00  0.00000000000E+00  0.16406814987E+03  0.16406814995E+03  0.50400001928E-02 0.  1.
        1   -1    0    0  501    0  0.00000000000E+00  0.00000000000E+00 -0.54271256048E+03  0.54271256050E+03  0.50400001928E-02 0. -1.
    10030    2    1    2    0    0  0.00000000000E+00  0.00000000000E+00 -0.37864441061E+03  0.70678071045E+03  0.59679760638E+03 0.  0.
        4    1    3    3  502    0 -0.12944223802E+03 -0.66966607209E+02  0.11904897741E+03  0.18818632093E+03  0.12699999809E+01 0.  1.
       -4    1    3    3    0  502  0.12944223802E+03  0.66966607209E+02 -0.49769338802E+03  0.51859438952E+03  0.12699999809E+01 0. -1.
</event>
<event>
 5   0  0.8817544E-02  0.6408267E+03  0.7818609E-02  0.9824146E-01
        2   -1    0    0  501    0  0.00000000000E+00  0.00000000000E+00  0.10025201704E+04  0.10025201704E+04  0.25500000920E-02 0.  1.
       -2   -1    0    0    0  501  0.00000000000E+00  0.00000000000E+00 -0.10240664503E+03  0.10240664506E+03  0.25500000920E-02 0. -1.
    10030    2    1    2    0    0  0.00000000000E+00  0.00000000000E+00  0.90011352539E+03  0.11049268155E+04  0.64082673866E+03 0.  0.
        5    1    3    3  502    0  0.11121879414E+03  0.27663170242E+03  0.65222427182E+03  0.71715640533E+03  0.46999998093E+01 0.  1.
       -5    1    3    3    0  502 -0.11121879414E+03 -0.27663170242E+03  0.24788925358E+03  0.38777041016E+03  0.46999998093E+01 0. -1.
</event>
<event>
 5   0  0.4881209E-02  0.5972842E+03  0.7818609E-02  0.9911057E-01
        1   -1    0    0  501    0  0.00000000000E+00  0.00000000000E+00  0.16108024991E+04  0.16108024991E+04  0.50400001928E-02 0. -1.
       -1   -1    0    0    0  501  0.00000000000E+00  0.00000000000E+00 -0.55368120902E+02  0.55368121132E+02  0.50400001928E-02 0.  1.
    10030    2    1    2    0    0  0.00000000000E+00  0.00000000000E+00  0.15554343782E+04  0.16661706202E+04  0.59728421280E+03 0.  0.
        3    1    3    3  502    0  0.14838023852E+03  0.12413947398E+03  0.14306657699E+03  0.24061454618E+03  0.10100000352E+00 0.  1.
       -3    1    3    3    0  502 -0.14838023852E+03 -0.12413947398E+03  0.14123678012E+04  0.14255560740E+04  0.10100000352E+00 0. -1.
</event>
<event>
 5   0  0.8420604E-02  0.5982177E+03  0.7818609E-02  0.9909111E-01
       -2   -1    0    0    0  501  0.00000000000E+00  0.00000000000E+00  0.10116845421E+03  0.10116845424E+03  0.25500000920E-02 0.  1.
        2   -1    0    0  501    0  0.00000000000E+00  0.00000000000E+00 -0.88432798399E+03  0.88432798400E+03  0.25500000920E-02 0. -1.
    10030    2    1    2    0    0  0.00000000000E+00  0.00000000000E+00 -0.78315952978E+03  0.98549643824E+03  0.59821766999E+03 0.  0.
        2    1    3    3  502    0 -0.64058067589E+02  0.48023229927E+02 -0.86634886787E+03  0.87004024476E+03  0.25500000920E-02 0. -1.
       -2    1    3    3    0  502  0.64058067589E+02 -0.48023229927E+02  0.83189338083E+02  0.11545619348E+03  0.25500000920E-02 0.  1.
</event>
<event>
 5   0  0.5190380E-02  0.6017485E+03  0.7818609E-02  0.9901785E-01
        1   -1    0    0  501    0  0.00000000000E+00  0.00000000000E+00  0.48388016526E+03  0.48388016529E+03  0.50400001928E-02 0.  1.
       -1   -1    0    0    0  501  0.00000000000E+00  0.00000000000E+00 -0.18708211590E+03  0.18708211597E+03  0.50400001928E-02 0. -1.
    10030    2    1    2    0    0  0.00000000000E+00  0.00000000000E+00  0.29679804936E+03  0.67096228125E+03  0.60174853615E+03 0.  0.
        5    1    3    3  502    0 -0.13031164719E+02 -0.16857039613E+03  0.42585212327E+03  0.45821164389E+03  0.46999998093E+01 0.  1.
       -5    1    3    3    0  502  0.13031164719E+02  0.16857039613E+03 -0.12905407391E+03  0.21275063736E+03  0.46999998093E+01 0. -1.
</event>
<event>
 5   0  0.5166903E-02  0.6067725E+03  0.7818609E-02  0.9891454E-01
        1   -1    0    0  501    0  0.00000000000E+00  0.00000000000E+00  0.39179850454E+03  0.39179850457E+03  0.50400001928E-02 0.  1.
       -1   -1    0    0    0  501  0.00000000000E+00  0.00000000000E+00 -0.23492484384E+03  0.23492484389E+03  0.50400001928E-02 0. -1.
    10030    2    1    2    0    0  0.00000000000E+00  0.00000000000E+00  0.15687366070E+03  0.62672334846E+03  0.60677245330E+03 0.  0.
        2    1    3    3  502    0  0.23901130884E+03  0.17289435365E+03  0.15165004828E+03  0.33168750418E+03  0.25500000920E-02 0.  1.
       -2    1    3    3    0  502 -0.23901130884E+03 -0.17289435365E+03  0.52236124187E+01  0.29503584428E+03  0.25500000920E-02 0. -1.
</event>
<event>
 5   0  0.5190380E-02  0.6210799E+03  0.7818609E-02  0.9862612E-01
        1   -1    0    0  501    0  0.00000000000E+00  0.00000000000E+00  0.29836279059E+03  0.29836279063E+03  0.50400001928E-02 0. -1.
       -1   -1    0    0    0  501  0.00000000000E+00  0.00000000000E+00 -0.32321414834E+03  0.32321414838E+03  0.50400001928E-02 0.  1.
    10030    2    1    2    0    0  0.00000000000E+00  0.00000000000E+00 -0.24851357750E+02  0.62157693900E+03  0.62107994745E+03 0.  0.
        5    1    3    3  502    0  0.28357582910E+03 -0.11643967406E+02  0.11362014047E+03  0.30574901332E+03  0.46999998093E+01 0. -1.
       -5    1    3    3    0  502 -0.28357582910E+03  0.11643967406E+02 -0.13847149822E+03  0.31582792569E+03  0.46999998093E+01 0.  1.
</event>
<event>
 5   0  0.8817544E-02  0.6081554E+03  0.7818609E-02  0.9888629E-01
       -2   -1    0    0    0  501  0.00000000000E+00  0.00000000000E+00  0.12749783209E+03  0.12749783212E+03  0.25500000920E-02 0. -1.
        2   -1    0    0  501    0  0.00000000000E+00  0.00000000000E+00 -0.72521432047E+03  0.72521432048E+03  0.25500000920E-02 0.  1.
    10030    2    1    2    0    0  0.00000000000E+00  0.00000000000E+00 -0.59771648838E+03  0.85271215259E+03  0.60815541986E+03 0.  0.
        5    1    3    3  502    0 -0.23781372134E+03  0.57832177760E+02 -0.45925591511E+02  0.24906058860E+03  0.46999998093E+01 0. -1.
       -5    1    3    3    0  502  0.23781372134E+03 -0.57832177760E+02 -0.55179089687E+03  0.60365156399E+03  0.46999998093E+01 0.  1.
</event>
<event>
 5   0  0.5190380E-02  0.6038868E+03  0.7818609E-02  0.9897375E-01
       -1   -1    0    0    0  501  0.00000000000E+00  0.00000000000E+00  0.14196359364E+03  0.14196359372E+03  0.50400001928E-02 0.  1.
        1   -1    0    0  501    0  0.00000000000E+00  0.00000000000E+00 -0.64220571937E+03  0.64220571939E+03  0.50400001928E-02 0. -1.
    10030    2    1    2    0    0  0.00000000000E+00  0.00000000000E+00 -0.50024212574E+03  0.78416931312E+03  0.60388684973E+03 0.  0.
        5    1    3    3  502    0 -0.50249781490E+02 -0.16701295596E+03 -0.57012378459E+03  0.59622276689E+03  0.46999998093E+01 0. -1.
       -5    1    3    3    0  502  0.50249781490E+02  0.16701295596E+03  0.69881658857E+02  0.18794654623E+03  0.46999998093E+01 0.  1.
</event>
<event>
 5   0  0.8207443E-02  0.6040406E+03  0.7818609E-02  0.9897058E-01
       -2   -1    0    0    0  501  0.00000000000E+00  0.00000000000E+00  0.46426427149E+03  0.46426427150E+03  0.25500000920E-02 0. -1.
        2   -1    0    0  501    0  0.00000000000E+00  0.00000000000E+00 -0.19647484781E+03  0.19647484783E+03  0.25500000920E-02 0.  1.
    10030    2    1    2    0    0  0.00000000000E+00  0.00000000000E+00  0.26778942368E+03  0.66073911933E+03  0.60404056848E+03 0.  0.
        1    1    3    3  502    0  0.51555249837E+02  0.12940351259E+03  0.42702828779E+03  0.44917298611E+03  0.50400001928E-02 0. -1.
       -1    1    3    3    0  502 -0.51555249837E+02 -0.12940351259E+03 -0.15923886411E+03  0.21156613321E+03  0.50400001928E-02 0.  1.
</event>
<event>
 5   0  0.8817544E-02  0.6008435E+03  0.7818609E-02  0.9903658E-01
       -2   -1    0    0    0  501  0.00000000000E+00  0.00000000000E+00  0.12409885716E+03  0.12409885718E+03  0.25500000920E-02 0.  1.
        2   -1    0    0  501    0  0.00000000000E+00  0.00000000000E+00 -0.72726889988E+03  0.72726889988E+03  0.25500000920E-02 0. -1.
    10030    2    1    2    0    0  0.00000000000E+00  0.00000000000E+00 -0.60317004272E+03  0.85136775707E+03  0.60084353815E+03 0.  0.
        5    1    3    3  502    0  0.25043823011E+03 -0.29352630351E+02 -0.70268542753E+02  0.26180267781E+03  0.46999998093E+01 0.  1.
       -5    1    3    3    0  502 -0.25043823011E+03  0.29352630351E+02 -0.53290149997E+03  0.58956507926E+03  0.46999998093E+01 0. -1.
</event>
<event>
 5   0  0.8817544E-02  0.6022097E+03  0.7818609E-02  0.9900832E-01
       -2   -1    0    0    0  501  0.00000000000E+00  0.00000000000E+00  0.16596156565E+03  0.16596156567E+03  0.25500000920E-02 0.  1.
        2   -1    0    0  501    0  0.00000000000E+00  0.00000000000E+00 -0.54629600692E+03  0.54629600692E+03  0.25500000920E-02 0. -1.
    10030    2    1    2    0    0  0.00000000000E+00  0.00000000000E+00 -0.38033444127E+03  0.71225757259E+03  0.60220973298E+03 0.  0.
        5    1    3    3  502    0 -0.10314349614E+03  0.13978594548E+02  0.14396065205E+03  0.17770971059E+03  0.46999998093E+01 0.  1.
       -5    1    3    3    0  502  0.10314349614E+03 -0.13978594548E+02 -0.52429509331E+03  0.53454786200E+03  0.46999998093E+01 0. -1.
</event>
<event>
 5   0  0.4881209E-02  0.6024517E+03  0.7818609E-02  0.9900333E-01
        1   -1    0    0  501    0  0.00000000000E+00  0.00000000000E+00  0.30267948349E+03  0.30267948353E+03  0.50400001928E-02 0.  1.
       -1   -1    0    0    0  501  0.00000000000E+00  0.00000000000E+00 -0.29977920246E+03  0.29977920250E+03  0.50400001928E-02 0. -1.
    10030    2    1    2    0    0  0.00000000000E+00  0.00000000000E+00  0.29002810274E+01  0.60245868603E+03  0.60245170491E+03 0.  0.
        3    1    3    3  502    0 -0.17534845572E+02  0.29333799909E+03 -0.64749957910E+02  0.30091065081E+03  0.10100000352E+00 0.  1.
       -3    1    3    3    0  502  0.17534845572E+02 -0.29333799909E+03  0.67650238937E+02  0.30154803522E+03  0.10100000352E+00 0. -1.
</event>
<event>
 5   0  0.5190380E-02  0.5322765E+03  0.7818609E-02  0.1005682E+00
        1   -1    0    0  501    0  0.00000000000E+00  0.00000000000E+00  0.12760108409E+03  0.12760108419E+03  0.50400001928E-02 0. -1.
       -1   -1    0    0    0  501  0.00000000000E+00  0.00000000000E+00 -0.55508602985E+03  0.55508602987E+03  0.50400001928E-02 0.  1.
    10030    2    1    2    0    0  0.00000000000E+00  0.00000000000E+00 -0.42748494576E+03  0.68268711406E+03  0.53227654170E+03 0.  0.
        5    1    3    3  502    0  0.62430687847E+02 -0.25113756545E+03 -0.13426575842E+03  0.29157683627E+03  0.46999998093E+01 0. -1.
       -5    1    3    3    0  502 -0.62430687847E+02  0.25113756545E+03 -0.29321918734E+03  0.39111027779E+03  0.46999998093E+01 0.  1.
</event>
<event>
 5   0  0.8817544E-02  0.6055751E+03  0.7818609E-02  0.9893906E-01
        2   -1    0    0  501    0  0.00000000000E+00  0.00000000000E+00  0.15201964202E+04  0.15201964202E+04  0.25500000920E-02 0. -1.
       -2   -1    0    0    0  501  0.00000000000E+00  0.00000000000E+00 -0.60308203472E+02  0.60308203526E+02  0.25500000920E-02 0.  1.
    10030    2    1    2    0    0  0.00000000000E+00  0.00000000000E+00  0.14598882167E+04  0.15805046237E+04  0.60557514834E+03 0.  0.
        5    1    3    3  502    0 -0.16442837144E+03 -0.15304179354E+03  0.20018919746E+03  0.30092571290E+03  0.46999998093E+01 0.  1.
       -5    1    3    3    0  502  0.16442837144E+03  0.15304179354E+03  0.12596990193E+04  0.12795789108E+04  0.46999998093E+01 0. -1.
</event>
<event>
 5   0  0.5166903E-02  0.5979883E+03  0.7818609E-02  0.9909589E-01
        1   -1    0    0  501    0  0.00000000000E+00  0.00000000000E+00  0.15676701305E+03  0.15676701313E+03  0.50400001928E-02 0.  1.
       -1   -1    0    0    0  501  0.00000000000E+00  0.00000000000E+00 -0.57025705386E+03  0.57025705388E+03  0.50400001928E-02 0. -1.
    10030    2    1    2    0    0  0.00000000000E+00  0.00000000000E+00 -0.41349004080E+03  0.72702406701E+03  0.59798827762E+03 0.  0.
        2    1    3    3  502    0  0.10446151168E+03  0.14101851887E+03 -0.50105260893E+03  0.53089749199E+03  0.25500000920E-02 0. -1.
       -2    1    3    3    0  502 -0.10446151168E+03 -0.14101851887E+03  0.87562568123E+02  0.19612657502E+03  0.25500000920E-02 0.  1.
</event>
<event>
 5   0  0.8207443E-02  0.6008618E+03  0.7818609E-02  0.9903620E-01
       -2   -1    0    0    0  501  0.00000000000E+00  0.00000000000E+00  0.10127586774E+03  0.10127586777E+03  0.25500000920E-02 0.  1.
        2   -1    0    0  501    0  0.00000000000E+00  0.00000000000E+00 -0.89121638319E+03  0.89121638319E+03  0.25500000920E-02 0. -1.
    10030    2    1    2    0    0  0.00000000000E+00  0.00000000000E+00 -0.78994051544E+03  0.99249225096E+03  0.60086175638E+03 0.  0.
        1    1    3    3  502    0  0.25030637414E+03 -0.10388717629E+03 -0.60914768552E+03  0.66671337855E+03  0.50400001928E-02 0. -1.
       -1    1    3    3    0  502 -0.25030637414E+03  0.10388717629E+03 -0.18079282992E+03  0.32577887241E+03  0.50400001928E-02 0.  1.
</event>
<event>
 5   0  0.5190380E-02  0.5977765E+03  0.7818609E-02  0.9910030E-01
        1   -1    0    0  501    0  0.00000000000E+00  0.00000000000E+00  0.14027081073E+03  0.14027081082E+03  0.50400001928E-02 0. -1.
       -1   -1    0    0    0  501  0.00000000000E+00  0.00000000000E+00 -0.63686932434E+03  0.63686932436E+03  0.50400001928E-02 0.  1.
    10030    2    1    2    0    0  0.00000000000E+00  0.00000000000E+00 -0.49659851362E+03  0.77714013518E+03  0.59777646824E+03 0.  0.
        5    1    3    3  502    0 -0.12617864813E+03  0.19883432313E+03 -0.48750852811E+03  0.54142662871E+03  0.46999998093E+01 0.  1.
       -5    1    3    3    0  502  0.12617864813E+03 -0.19883432313E+03 -0.90899855066E+01  0.23571350647E+03  0.46999998093E+01 0. -1.
</event>
<event>
 5   0  0.4987389E-02  0.6133213E+03  0.7818609E-02  0.9878148E-01
        1   -1    0    0  501    0  0.00000000000E+00  0.00000000000E+00  0.86218173620E+03  0.86218173622E+03  0.50400001928E-02 0. -1.
       -1   -1    0    0    0  501  0.00000000000E+00  0.00000000000E+00 -0.10907301856E+03  0.10907301867E+03  0.50400001928E-02 0.  1.
    10030    2    1    2    0    0  0.00000000000E+00  0.00000000000E+00  0.75310871765E+03  0.97125475489E+03  0.61332133364E+03 0.  0.
        1    1    3    3  502    0 -0.30394178100E+03 -0.30291100646E+02  0.41970872691E+03  0.51908917585E+03  0.50400001928E-02 0.  1.
       -1    1    3    3    0  502  0.30394178100E+03  0.30291100646E+02  0.33339999073E+03  0.45216557903E+03  0.50400001928E-02 0. -1.
</event>
<event>
 5   0  0.4987389E-02  0.6071448E+03  0.7818609E-02  0.9890693E-01
        1   -1    0    0  501    0  0.00000000000E+00  0.00000000000E+00  0.27594648120E+03  0.27594648124E+03  0.50400001928E-02 0.  1.
       -1   -1    0    0    0  501  0.00000000000E+00  0.00000000000E+00 -0.33396404711E+03  0.33396404715E+03  0.50400001928E-02 0. -1.
    10030    2    1    2    0    0  0.00000000000E+00  0.00000000000E+00 -0.58017565911E+02  0.60991052839E+03  0.60714480537E+03 0.  0.
        1    1    3    3  502    0 -0.27528988160E+03 -0.12790384986E+03 -0.25487114571E+02  0.30462026649E+03  0.50400001928E-02 0.  1.
       -1    1    3    3    0  502  0.27528988160E+03  0.12790384986E+03 -0.32530451339E+02  0.30529026190E+03  0.50400001928E-02 0. -1.
</event>
<event>
 5   0  0.5166903E-02  0.6124704E+03  0.7818609E-02  0.9879866E-01
       -1   -1    0    0    0  501  0.00000000000E+00  0.00000000000E+00  0.45065836620E+02  0.45065836901E+02  0.50400001928E-02 0. -1.
        1   -1    0    0  501    0  0.00000000000E+00  0.00000000000E+00 -0.20809555398E+04  0.20809555398E+04  0.50400001928E-02 0.  1.
    10030    2    1    2    0    0  0.00000000000E+00  0.00000000000E+00 -0.20358897032E+04  0.21260213767E+04  0.61247041618E+03 0.  0.
        2    1    3    3  502    0 -0.29011300141E+03 -0.72481274124E+02 -0.78871494836E+03  0.84349887875E+03  0.25500000920E-02 0. -1.
       -2    1    3    3    0  502  0.29011300141E+03  0.72481274124E+02 -0.12471747548E+04  0.12825224980E+04  0.25500000920E-02 0.  1.
</event>
<event>
 5   0  0.8575590E-02  0.6023221E+03  0.7818609E-02  0.9900600E-01
        2   -1    0    0  501    0  0.00000000000E+00  0.00000000000E+00  0.33625494272E+03  0.33625494273E+03  0.25500000920E-02 0.  1.
       -2   -1    0    0    0  501  0.00000000000E+00  0.00000000000E+00 -0.26972981903E+03  0.26972981904E+03  0.25500000920E-02 0. -1.
    10030    2    1    2    0    0  0.00000000000E+00  0.00000000000E+00  0.66525123692E+02  0.60598476178E+03  0.60232212264E+03 0.  0.
        4    1    3    3  502    0  0.20487576690E+02  0.27182521587E+03  0.16205538657E+03  0.31713128196E+03  0.12699999809E+01 0.  1.
       -4    1    3    3    0  502 -0.20487576690E+02 -0.27182521587E+03 -0.95530262881E+02  0.28885347982E+03  0.12699999809E+01 0. -1.
</event>
<event>
 5   0  0.8207443E-02  0.6409511E+03  0.7818609E-02  0.9823909E-01
        2   -1    0    0  501    0  0.00000000000E+00  0.00000000000E+00  0.90190049817E+03  0.90190049817E+03  0.25500000920E-02 0.  1.
       -2   -1    0    0    0  501  0.00000000000E+00  0.00000000000E+00 -0.11387571525E+03  0.11387571528E+03  0.25500000920E-02 0. -1.
    10030    2    1    2    0    0  0.00000000000E+00  0.00000000000E+00  0.78802478291E+03  0.10157762135E+04  0.64095105689E+03 0.  0.
        1    1    3    3  502    0  0.34513351034E+02  0.12020386624E+03  0.86163288388E+03  0.87066145400E+03  0.50400001928E-02 0.  1.
       -1    1    3    3    0  502 -0.34513351034E+02 -0.12020386624E+03 -0.73608100969E+02  0.14511475946E+03  0.50400001928E-02 0. -1.
</event>
<event>
 5   0  0.5125031E-02  0.5800206E+03  0.7818609E-02  0.9947746E-01
       -1   -1    0    0    0  501  0.00000000000E+00  0.00000000000E+00  0.84621342700E+03  0.84621342701E+03  0.50400001928E-02 0. -1.
        1   -1    0    0  501    0  0.00000000000E+00  0.00000000000E+00 -0.99390983863E+02  0.99390983991E+02  0.50400001928E-02 0.  1.
    10030    2    1    2    0    0  0.00000000000E+00  0.00000000000E+00  0.74682244314E+03  0.94560441101E+03  0.58002063803E+03 0.  0.
        4    1    3    3  502    0  0.23879487638E+03 -0.14234570378E+03  0.23878522498E+03  0.36647686003E+03  0.12699999809E+01 0.  1.
       -4    1    3    3    0  502 -0.23879487638E+03  0.14234570378E+03  0.50803721815E+03  0.57912755097E+03  0.12699999809E+01 0. -1.
</event>
<event>
 5   0  0.8817544E-02  0.6084599E+03  0.7818609E-02  0.9888008E-01
       -2   -1    0    0    0  501  0.00000000000E+00  0.00000000000E+00  0.10312030633E+03  0.10312030636E+03  0.25500000920E-02 0. -1.
        2   -1    0    0  501    0  0.00000000000E+00  0.00000000000E+00 -0.89755230811E+03  0.89755230811E+03  0.25500000920E-02 0.  1.
    10030    2    1    2    0    0  0.00000000000E+00  0.00000000000E+00 -0.79443200178E+03  0.10006726145E+04  0.60845992137E+03 0.  0.
        5    1    3    3  502    0  0.24045877443E+02 -0.21576841133E+03 -0.74763358815E+03  0.77853213400E+03  0.46999998093E+01 0.  1.
       -5    1    3    3    0  502 -0.24045877443E+02  0.21576841133E+03 -0.46798413630E+02  0.22214048048E+03  0.46999998093E+01 0. -1.
</event>
<event>
 5   0  0.8699746E-02  0.6206881E+03  0.7818609E-02  0.9863391E-01
        2   -1    0    0  501    0  0.00000000000E+00  0.00000000000E+00  0.52553160908E+03  0.52553160909E+03  0.25500000920E-02 0. -1.
       -2   -1    0    0    0  501  0.00000000000E+00  0.00000000000E+00 -0.18326857904E+03  0.18326857905E+03  0.25500000920E-02 0.  1.
    10030    2    1    2    0    0  0.00000000000E+00  0.00000000000E+00  0.34226303005E+03  0.70880018814E+03  0.62068810603E+03 0.  0.
        3    1    3    3  502    0 -0.74658583305E+02 -0.74985540290E+02  0.50429527385E+03  0.51527707958E+03  0.10100000352E+00 0. -1.
       -3    1    3    3    0  502  0.74658583305E+02  0.74985540290E+02 -0.16203224380E+03  0.19352310856E+03  0.10100000352E+00 0.  1.
</event>
<event>
 5   0  0.8575590E-02  0.6096884E+03  0.7818609E-02  0.9885507E-01
        2   -1    0    0  501    0  0.00000000000E+00  0.00000000000E+00  0.10749980533E+04  0.10749980533E+04  0.25500000920E-02 0.  1.
       -2   -1    0    0    0  501  0.00000000000E+00  0.00000000000E+00 -0.86446655508E+02  0.86446655546E+02  0.25500000920E-02 0. -1.
    10030    2    1    2    0    0  0.00000000000E+00  0.00000000000E+00  0.98855139784E+03  0.11614447089E+04  0.60968840046E+03 0.  0.
        4    1    3    3  502    0  0.59929154032E+02 -0.14504136557E+02  0.10629898483E+04  0.10647773965E+04  0.12699999809E+01 0.  1.
       -4    1    3    3    0  502 -0.59929154032E+02  0.14504136557E+02 -0.74438450491E+02  0.96667312426E+02  0.12699999809E+01 0. -1.
</event>
<event>
 5   0  0.8420604E-02  0.5997744E+03  0.7818609E-02  0.9905874E-01
        2   -1    0    0  501    0  0.00000000000E+00  0.00000000000E+00  0.17625414568E+04  0.17625414568E+04  0.25500000920E-02 0.  1.
       -2   -1    0    0    0  501  0.00000000000E+00  0.00000000000E+00 -0.51024243799E+02  0.51024243862E+02  0.25500000920E-02 0. -1.
    10030    2    1    2    0    0  0.00000000000E+00  0.00000000000E+00  0.17115172130E+04  0.18135657007E+04  0.59977444113E+03 0.  0.
        2    1    3    3  502    0  0.12123788588E+03 -0.25394260220E+03  0.11692217142E+04  0.12026075366E+04  0.25500000920E-02 0.  1.
       -2    1    3    3    0  502 -0.12123788588E+03  0.25394260220E+03  0.54229549885E+03  0.61095816409E+03  0.25500000920E-02 0. -1.
</event>
<event>
 5   0  0.8420604E-02  0.5997953E+03  0.7818609E-02  0.9905831E-01
        2   -1    0    0  501    0  0.00000000000E+00  0.00000000000E+00  0.57354405767E+03  0.57354405767E+03  0.25500000920E-02 0.  1.
       -2   -1    0    0    0  501  0.00000000000E+00  0.00000000000E+00 -0.15681199388E+03  0.15681199390E+03  0.25500000920E-02 0. -1.
    10030    2    1    2    0    0  0.00000000000E+00  0.00000000000E+00  0.41673206379E+03  0.73035605157E+03  0.59979525597E+03 0.  0.
        2    1    3    3  502    0  0.84616911793E+02  0.11662837113E+03  0.52863182001E+03  0.54791769441E+03  0.25500000920E-02 0.  1.
       -2    1    3    3    0  502 -0.84616911793E+02 -0.11662837113E+03 -0.11189975622E+03  0.18243835716E+03  0.25500000920E-02 0. -1.
</event>
<event>
 5   0  0.8420604E-02  0.5432497E+03  0.7818609E-02  0.1003069E+00
       -2   -1    0    0    0  501  0.00000000000E+00  0.00000000000E+00  0.75545748204E+02  0.75545748247E+02  0.25500000920E-02 0.  1.
        2   -1    0    0  501    0  0.00000000000E+00  0.00000000000E+00 -0.97662752985E+03  0.97662752986E+03  0.25500000920E-02 0. -1.
    10030    2    1    2    0    0  0.00000000000E+00  0.00000000000E+00 -0.90108178165E+03  0.10521732781E+04  0.54324969391E+03 0.  0.
        2    1    3    3  502    0 -0.20642746723E+03 -0.15726685186E+02 -0.79111414369E+03  0.81775376257E+03  0.25500000920E-02 0. -1.
       -2    1    3    3    0  502  0.20642746723E+03  0.15726685186E+02 -0.10996763796E+03  0.23441951553E+03  0.25500000920E-02 0.  1.
</event>
<event>
 5   0  0.8699746E-02  0.5984355E+03  0.7818609E-02  0.9908657E-01
       -2   -1    0    0    0  501  0.00000000000E+00  0.00000000000E+00  0.44420515396E+03  0.44420515396E+03  0.25500000920E-02 0.  1.
        2   -1    0    0  501    0  0.00000000000E+00  0.00000000000E+00 -0.20155386969E+03  0.20155386970E+03  0.25500000920E-02 0. -1.
    10030    2    1    2    0    0  0.00000000000E+00  0.00000000000E+00  0.24265128427E+03  0.64575902367E+03  0.59843551941E+03 0.  0.
        3    1    3    3  502    0 -0.12657931697E+03  0.38425470834E+02 -0.16828673305E+03  0.21405437397E+03  0.10100000352E+00 0. -1.
       -3    1    3    3    0  502  0.12657931697E+03 -0.38425470834E+02  0.41093801732E+03  0.43170464970E+03  0.10100000352E+00 0.  1.
</event>
<event>
 5   0  0.8575590E-02  0.5764267E+03  0.7818609E-02  0.9955557E-01
        2   -1    0    0  501    0  0.00000000000E+00  0.00000000000E+00  0.44315310500E+03  0.44315310501E+03  0.25500000920E-02 0.  1.
       -2   -1    0    0    0  501  0.00000000000E+00  0.00000000000E+00 -0.18744523856E+03  0.18744523858E+03  0.25500000920E-02 0. -1.
    10030    2    1    2    0    0  0.00000000000E+00  0.00000000000E+00  0.25570786644E+03  0.63059834358E+03  0.57642671518E+03 0.  0.
        4    1    3    3  502    0  0.20880315991E+03  0.16878904992E+03  0.24247041363E+03  0.36177619788E+03  0.12699999809E+01 0.  1.
       -4    1    3    3    0  502 -0.20880315991E+03 -0.16878904992E+03  0.13237452808E+02  0.26882214570E+03  0.12699999809E+01 0. -1.
</event>
<event>
 5   0  0.8207443E-02  0.6040906E+03  0.7818609E-02  0.9896956E-01
        2   -1    0    0  501    0  0.00000000000E+00  0.00000000000E+00  0.14614483543E+03  0.14614483545E+03  0.25500000920E-02 0.  1.
       -2   -1    0    0    0  501  0.00000000000E+00  0.00000000000E+00 -0.62425298532E+03  0.62425298532E+03  0.25500000920E-02 0. -1.
    10030    2    1    2    0    0  0.00000000000E+00  0.00000000000E+00 -0.47810814989E+03  0.77039782078E+03  0.60409055552E+03 0.  0.
        1    1    3    3  502    0 -0.96391311765E+02  0.54300671072E+02 -0.59748311197E+03  0.60763962756E+03  0.50400001928E-02 0. -1.
       -1    1    3    3    0  502  0.96391311765E+02 -0.54300671072E+02  0.11937496208E+03  0.16275819322E+03  0.50400001928E-02 0.  1.
</event>
<event>
 5   0  0.5125031E-02  0.5952927E+03  0.7818609E-02  0.9915221E-01
        1   -1    0    0  501    0  0.00000000000E+00  0.00000000000E+00  0.19422367625E+03  0.19422367632E+03  0.50400001928E-02 0. -1.
       -1   -1    0    0    0  501  0.00000000000E+00  0.00000000000E+00 -0.45614086243E+03  0.45614086245E+03  0.50400001928E-02 0.  1.
    10030    2    1    2    0    0  0.00000000000E+00  0.00000000000E+00 -0.26191718617E+03  0.65036453877E+03  0.59529271865E+03 0.  0.
        4    1    3    3  502    0 -0.13298437529E+03 -0.10732721914E+03  0.13528231023E+03  0.21796075886E+03  0.12699999809E+01 0. -1.
       -4    1    3    3    0  502  0.13298437529E+03  0.10732721914E+03 -0.39719949640E+03  0.43240377991E+03  0.12699999809E+01 0.  1.
</event>
<event>
 5   0  0.4881209E-02  0.6224924E+03  0.7818609E-02  0.9859810E-01
        1   -1    0    0  501    0  0.00000000000E+00  0.00000000000E+00  0.97831729462E+02  0.97831729592E+02  0.50400001928E-02 0. -1.
       -1   -1    0    0    0  501  0.00000000000E+00  0.00000000000E+00 -0.99021242270E+03  0.99021242271E+03  0.50400001928E-02 0.  1.
    10030    2    1    2    0    0  0.00000000000E+00  0.00000000000E+00 -0.89238069324E+03  0.10880441523E+04  0.62249239007E+03 0.  0.
        3    1    3    3  502    0  0.11643542460E+03 -0.72202211287E+00 -0.95070973702E+03  0.95781352239E+03  0.10100000352E+00 0.  1.
       -3    1    3    3    0  502 -0.11643542460E+03  0.72202211287E+00  0.58329043781E+02  0.13023062991E+03  0.10100000352E+00 0. -1.
</event>
<event>
 5   0  0.5125031E-02  0.5385263E+03  0.7818609E-02  0.1004185E+00
       -1   -1    0    0    0  501  0.00000000000E+00  0.00000000000E+00  0.10986356116E+04  0.10986356116E+04  0.50400001928E-02 0.  1.
        1   -1    0    0  501    0  0.00000000000E+00  0.00000000000E+00 -0.65993356043E+02  0.65993356235E+02  0.50400001928E-02 0. -1.
    10030    2    1    2    0    0  0.00000000000E+00  0.00000000000E+00  0.10326422555E+04  0.11646289678E+04  0.53852632691E+03 0.  0.
        4    1    3    3  502    0  0.34850607167E+02  0.20293756409E+03  0.89153961577E+03  0.91500968253E+03  0.12699999809E+01 0.  1.
       -4    1    3    3    0  502 -0.34850607167E+02 -0.20293756409E+03  0.14110263976E+03  0.24961928529E+03  0.12699999809E+01 0. -1.
</event>
<event>
 5   0  0.8575590E-02  0.6088253E+03  0.7818609E-02  0.9887264E-01
       -2   -1    0    0    0  501  0.00000000000E+00  0.00000000000E+00  0.65778983451E+03  0.65778983451E+03  0.25500000920E-02 0.  1.
        2   -1    0    0  501    0  0.00000000000E+00  0.00000000000E+00 -0.14087639376E+03  0.14087639378E+03  0.25500000920E-02 0. -1.
    10030    2    1    2    0    0  0.00000000000E+00  0.00000000000E+00  0.51691344075E+03  0.79866622829E+03  0.60882529430E+03 0.  0.
        4    1    3    3  502    0  0.20959879092E+03 -0.21720431024E+03  0.20670929152E+03  0.36584109889E+03  0.12699999809E+01 0. -1.
       -4    1    3    3    0  502 -0.20959879092E+03  0.21720431024E+03  0.31020414923E+03  0.43282512940E+03  0.12699999809E+01 0.  1.
</event>
<event>
 5   0  0.8420604E-02  0.5961030E+03  0.7818609E-02  0.9913524E-01
       -2   -1    0    0    0  501  0.00000000000E+00  0.00000000000E+00  0.17413870127E+03  0.17413870128E+03  0.25500000920E-02 0.  1.
        2   -1    0    0  501    0  0.00000000000E+00  0.00000000000E+00 -0.51013757730E+03  0.51013757730E+03  0.25500000920E-02 0. -1.
    10030    2    1    2    0    0  0.00000000000E+00  0.00000000000E+00 -0.33599887603E+03  0.68427627859E+03  0.59610299508E+03 0.  0.
        2    1    3    3  502    0 -0.43376530997E+02 -0.74183069521E+02  0.15960957576E+03  0.18127291007E+03  0.25500000920E-02 0.  1.
       -2    1    3    3    0  502  0.43376530997E+02  0.74183069521E+02 -0.49560845179E+03  0.50300336852E+03  0.25500000920E-02 0. -1.
</event>
<event>
 5   0  0.8420604E-02  0.6024412E+03  0.7818609E-02  0.9900354E-01
       -2   -1    0    0    0  501  0.00000000000E+00  0.00000000000E+00  0.68415608703E+02  0.68415608751E+02  0.25500000920E-02 0. -1.
        2   -1    0    0  501    0  0.00000000000E+00  0.00000000000E+00 -0.13262157512E+04  0.13262157512E+04  0.25500000920E-02 0.  1.
    10030    2    1    2    0    0  0.00000000000E+00  0.00000000000E+00 -0.12578001425E+04  0.13946313600E+04  0.60244122676E+03 0.  0.
        2    1    3    3  502    0  0.16232541795E+03 -0.20483347075E+03 -0.97558567899E+03  0.10099869846E+04  0.25500000920E-02 0.  1.
       -2    1    3    3    0  502 -0.16232541795E+03  0.20483347075E+03 -0.28221446351E+03  0.38464437533E+03  0.25500000920E-02 0. -1.
</event>
<event>
 5   0  0.8207443E-02  0.6095220E+03  0.7818609E-02  0.9885846E-01
        2   -1    0    0  501    0  0.00000000000E+00  0.00000000000E+00  0.11975339014E+04  0.11975339014E+04  0.25500000920E-02 0.  1.
       -2   -1    0    0    0  501  0.00000000000E+00  0.00000000000E+00 -0.77558766240E+02  0.77558766282E+02  0.25500000920E-02 0. -1.
    10030    2    1    2    0    0  0.00000000000E+00  0.00000000000E+00  0.11199751352E+04  0.12750926677E+04  0.60952195023E+03 0.  0.
        1    1    3    3  502    0  0.16420821638E+03  0.10664894233E+03  0.10485427391E+04  0.10666678072E+04  0.50400001928E-02 0.  1.
       -1    1    3    3    0  502 -0.16420821638E+03 -0.10664894233E+03  0.71432396070E+02  0.20842486047E+03  0.50400001928E-02 0. -1.
</event>
<event>
 5   0  0.8817544E-02  0.6086551E+03  0.7818609E-02  0.9887610E-01
       -2   -1    0    0    0  501  0.00000000000E+00  0.00000000000E+00  0.17614793269E+03  0.17614793271E+03  0.25500000920E-02 0.  1.
        2   -1    0    0  501    0  0.00000000000E+00  0.00000000000E+00 -0.52578112357E+03  0.52578112357E+03  0.25500000920E-02 0. -1.
    10030    2    1    2    0    0  0.00000000000E+00  0.00000000000E+00 -0.34963319088E+03  0.70192905628E+03  0.60865510094E+03 0.  0.
        5    1    3    3  502    0  0.77924581219E+01 -0.12441726218E+03  0.14530586037E+03  0.19151047122E+03  0.46999998093E+01 0.  1.
       -5    1    3    3    0  502 -0.77924581219E+01  0.12441726218E+03 -0.49493905125E+03  0.51041858506E+03  0.46999998093E+01 0. -1.
</event>
<event>
 5   0  0.5166903E-02  0.5993066E+03  0.7818609E-02  0.9906846E-01
        1   -1    0    0  501    0  0.00000000000E+00  0.00000000000E+00  0.30301813085E+03  0.30301813089E+03  0.50400001928E-02 0. -1.
       -1   -1    0    0    0  501  0.00000000000E+00  0.00000000000E+00 -0.29632581506E+03  0.29632581510E+03  0.50400001928E-02 0.  1.
    10030    2    1    2    0    0  0.00000000000E+00  0.00000000000E+00  0.66923157872E+01  0.59934394599E+03  0.59930658139E+03 0.  0.
        2    1    3    3  502    0  0.37039173674E+02  0.29349415027E+03 -0.44420592768E+02  0.29913860617E+03  0.25500000920E-02 0.  1.
       -2    1    3    3    0  502 -0.37039173674E+02 -0.29349415027E+03  0.51112908555E+02  0.30020533982E+03  0.25500000920E-02 0. -1.
</event>
<event>
 5   0  0.4881209E-02  0.5942432E+03  0.7818609E-02  0.9917422E-01
       -1   -1    0    0    0  501  0.00000000000E+00  0.00000000000E+00  0.31914228697E+03  0.31914228700E+03  0.50400001928E-02 0.  1.
        1   -1    0    0  501    0  0.00000000000E+00  0.00000000000E+00 -0.27662037254E+03  0.27662037258E+03  0.50400001928E-02 0. -1.
    10030    2    1    2    0    0  0.00000000000E+00  0.00000000000E+00  0.42521914430E+02  0.59576265959E+03  0.59424324426E+03 0.  0.
        3    1    3    3  502    0  0.43339427770E+02  0.16653937745E+03 -0.22157226677E+03  0.28054937150E+03  0.10100000352E+00 0. -1.
       -3    1    3    3    0  502 -0.43339427770E+02 -0.16653937745E+03  0.26409418120E+03  0.31521328809E+03  0.10100000352E+00 0.  1.
</event>
<event>
 5   0  0.4987389E-02  0.5956136E+03  0.7818609E-02  0.9914548E-01
       -1   -1    0    0    0  501  0.00000000000E+00  0.00000000000E+00  0.66570208374E+02  0.66570208565E+02  0.50400001928E-02 0. -1.
        1   -1    0    0  501    0  0.00000000000E+00  0.00000000000E+00 -0.13322611091E+04  0.13322611092E+04  0.50400001928E-02 0.  1.
    10030    2    1    2    0    0  0.00000000000E+00  0.00000000000E+00 -0.12656909008E+04  0.13988313177E+04  0.59561363243E+03 0.  0.
        1    1    3    3  502    0  0.16511994502E+03  0.21373791460E+03 -0.33819391962E+03  0.43280898752E+03  0.50400001928E-02 0. -1.
       -1    1    3    3    0  502 -0.16511994502E+03 -0.21373791460E+03 -0.92749698115E+03  0.96602233020E+03  0.50400001928E-02 0.  1.
</event>
<event>
 5   0  0.5166903E-02  0.5886133E+03  0.7818609E-02  0.9929315E-01
        1   -1    0    0  501    0  0.00000000000E+00  0.00000000000E+00  0.28537776188E+03  0.28537776193E+03  0.50400001928E-02 0. -1.
       -1   -1    0    0    0  501  0.00000000000E+00  0.00000000000E+00 -0.30351494007E+03  0.30351494011E+03  0.50400001928E-02 0.  1.
    10030    2    1    2    0    0  0.00000000000E+00  0.00000000000E+00 -0.18137178182E+02  0.58889270204E+03  0.58861333427E+03 0.  0.
        2    1    3    3  502    0  0.58080793867E+02 -0.21353473561E+03  0.18504914818E+03  0.28846776107E+03  0.25500000920E-02 0. -1.
       -2    1    3    3    0  502 -0.58080793867E+02  0.21353473561E+03 -0.20318632636E+03  0.30042494097E+03  0.25500000920E-02 0.  1.
</event>
<event>
 5   0  0.8699746E-02  0.5986221E+03  0.7818609E-02  0.9908269E-01
        2   -1    0    0  501    0  0.00000000000E+00  0.00000000000E+00  0.37739354127E+03  0.37739354127E+03  0.25500000920E-02 0. -1.
       -2   -1    0    0    0  501  0.00000000000E+00  0.00000000000E+00 -0.23738381529E+03  0.23738381531E+03  0.25500000920E-02 0.  1.
    10030    2    1    2    0    0  0.00000000000E+00  0.00000000000E+00  0.14000972597E+03  0.61477735658E+03  0.59862214693E+03 0.  0.
        3    1    3    3  502    0  0.18053782411E+03 -0.22317260674E+03 -0.17060346839E+02  0.28756040056E+03  0.10100000352E+00 0.  1.
       -3    1    3    3    0  502 -0.18053782411E+03  0.22317260674E+03  0.15707007281E+03  0.32721695602E+03  0.10100000352E+00 0. -1.
</event>
<event>
 5   0  0.5166903E-02  0.5935623E+03  0.7818609E-02  0.9918853E-01
        1   -1    0    0  501    0  0.00000000000E+00  0.00000000000E+00  0.56903925581E+03  0.56903925584E+03  0.50400001928E-02 0. -1.
       -1   -1    0    0    0  501  0.00000000000E+00  0.00000000000E+00 -0.15478553606E+03  0.15478553614E+03  0.50400001928E-02 0.  1.
    10030    2    1    2    0    0  0.00000000000E+00  0.00000000000E+00  0.41425371976E+03  0.72382479198E+03  0.59356228413E+03 0.  0.
        2    1    3    3  502    0 -0.12314348665E+03  0.22874426748E+03  0.32140723929E+02  0.26176570507E+03  0.25500000920E-02 0.  1.
       -2    1    3    3    0  502  0.12314348665E+03 -0.22874426748E+03  0.38211299583E+03  0.46205908691E+03  0.25500000920E-02 0. -1.
</event>
<event>
 5   0  0.8817544E-02  0.6190553E+03  0.7818609E-02  0.9866642E-01
        2   -1    0    0  501    0  0.00000000000E+00  0.00000000000E+00  0.15579954663E+03  0.15579954665E+03  0.25500000920E-02 0.  1.
       -2   -1    0    0    0  501  0.00000000000E+00  0.00000000000E+00 -0.61493995424E+03  0.61493995425E+03  0.25500000920E-02 0. -1.
    10030    2    1    2    0    0  0.00000000000E+00  0.00000000000E+00 -0.45914040761E+03  0.77073950090E+03  0.61905529991E+03 0.  0.
        5    1    3    3  502    0 -0.17604519177E+03  0.16058372545E+03  0.16322238397E+02  0.23888814932E+03  0.46999998093E+01 0.  1.
       -5    1    3    3    0  502  0.17604519177E+03 -0.16058372545E+03 -0.47546264601E+03  0.53185135157E+03  0.46999998093E+01 0. -1.
</event>
<event>
 5   0  0.8207443E-02  0.6028000E+03  0.7818609E-02  0.9899614E-01
       -2   -1    0    0    0  501  0.00000000000E+00  0.00000000000E+00  0.10608841235E+03  0.10608841238E+03  0.25500000920E-02 0. -1.
        2   -1    0    0  501    0  0.00000000000E+00  0.00000000000E+00 -0.85628533331E+03  0.85628533331E+03  0.25500000920E-02 0.  1.
    10030    2    1    2    0    0  0.00000000000E+00  0.00000000000E+00 -0.75019692096E+03  0.96237374569E+03  0.60279997195E+03 0.  0.
        1    1    3    3  502    0 -0.18582354870E+03 -0.81052364723E+02 -0.73116608706E+03  0.75875142436E+03  0.50400001928E-02 0.  1.
       -1    1    3    3    0  502  0.18582354870E+03  0.81052364723E+02 -0.19030833903E+02  0.20362232133E+03  0.50400001928E-02 0. -1.
</event>
<event>
 5   0  0.5190380E-02  0.6312584E+03  0.7818609E-02  0.9842596E-01
       -1   -1    0    0    0  501  0.00000000000E+00  0.00000000000E+00  0.26029613739E+03  0.26029613744E+03  0.50400001928E-02 0.  1.
        1   -1    0    0  501    0  0.00000000000E+00  0.00000000000E+00 -0.38272484319E+03  0.38272484322E+03  0.50400001928E-02 0. -1.
    10030    2    1    2    0    0  0.00000000000E+00  0.00000000000E+00 -0.12242870580E+03  0.64302098066E+03  0.63125842059E+03 0.  0.
        5    1    3    3  502    0  0.76441956107E+01  0.68091299883E+02  0.25259231077E+03  0.26176291621E+03  0.46999998093E+01 0.  1.
       -5    1    3    3    0  502 -0.76441956107E+01 -0.68091299883E+02 -0.37502101656E+03  0.38125806445E+03  0.46999998093E+01 0. -1.
</event>
<event>
 5   0  0.4881209E-02  0.6017074E+03  0.7818609E-02  0.9901870E-01
       -1   -1    0    0    0  501  0.00000000000E+00  0.00000000000E+00  0.25763034538E+03  0.25763034543E+03  0.50400001928E-02 0.  1.
        1   -1    0    0  501    0  0.00000000000E+00  0.00000000000E+00 -0.35132881047E+03  0.35132881051E+03  0.50400001928E-02 0. -1.
    10030    2    1    2    0    0  0.00000000000E+00  0.00000000000E+00 -0.93698465089E+02  0.60895915594E+03  0.60170744656E+03 0.  0.
        3    1    3    3  502    0  0.26235643794E+03  0.36915702261E+02 -0.19111289983E+03  0.32667693564E+03  0.10100000352E+00 0. -1.
       -3    1    3    3    0  502 -0.26235643794E+03 -0.36915702261E+02  0.97414434738E+02  0.28228222030E+03  0.10100000352E+00 0.  1.
</event>
<event>
 5   0  0.5125031E-02  0.5890187E+03  0.7818609E-02  0.9928454E-01
       -1   -1    0    0    0  501  0.00000000000E+00  0.00000000000E+00  0.16250434793E+03  0.16250434801E+03  0.50400001928E-02 0.  1.
        1   -1    0    0  501    0  0.00000000000E+00  0.00000000000E+00 -0.53374426478E+03  0.53374426481E+03  0.50400001928E-02 0. -1.
    10030    2    1    2    0    0  0.00000000000E+00  0.00000000000E+00 -0.37123991685E+03  0.69624861282E+03  0.58901872210E+03 0.  0.
        4    1    3    3  502    0 -0.15754425341E+03 -0.24167628054E+02  0.10711279539E+03  0.19203913628E+03  0.12699999809E+01 0.  1.
       -4    1    3    3    0  502  0.15754425341E+03  0.24167628054E+02 -0.47835271224E+03  0.50420947654E+03  0.12699999809E+01 0. -1.
</event>
<event>
 5   0  0.5190380E-02  0.6011397E+03  0.7818609E-02  0.9903044E-01
        1   -1    0    0  501    0  0.00000000000E+00  0.00000000000E+00  0.74732458356E+03  0.74732458357E+03  0.50400001928E-02 0.  1.
       -1   -1    0    0    0  501  0.00000000000E+00  0.00000000000E+00 -0.12088753613E+03  0.12088753624E+03  0.50400001928E-02 0. -1.
    10030    2    1    2    0    0  0.00000000000E+00  0.00000000000E+00  0.62643704742E+03  0.86821211981E+03  0.60113967645E+03 0.  0.
        5    1    3    3  502    0  0.14105575570E+03 -0.11445144851E+02  0.69613556872E+03  0.71039041210E+03  0.46999998093E+01 0.  1.
       -5    1    3    3    0  502 -0.14105575570E+03  0.11445144851E+02 -0.69698521301E+02  0.15782170772E+03  0.46999998093E+01 0. -1.
</event>
<event>
 5   0  0.8420604E-02  0.6035412E+03  0.7818609E-02  0.9898086E-01
       -2   -1    0    0    0  501  0.00000000000E+00  0.00000000000E+00  0.53969846027E+02  0.53969846087E+02  0.25500000920E-02 0.  1.
        2   -1    0    0  501    0  0.00000000000E+00  0.00000000000E+00 -0.16873400132E+04  0.16873400132E+04  0.25500000920E-02 0. -1.
    10030    2    1    2    0    0  0.00000000000E+00  0.00000000000E+00 -0.16333701672E+04  0.17413098593E+04  0.60354115274E+03 0.  0.
        2    1    3    3  502    0 -0.26649726244E+03  0.75064160255E+02 -0.47034553115E+03  0.54578414938E+03  0.25500000920E-02 0.  1.
       -2    1    3    3    0  502  0.26649726244E+03 -0.75064160255E+02 -0.11630246361E+04  0.11955257099E+04  0.25500000920E-02 0. -1.
</event>
<event>
 5   0  0.5166903E-02  0.5973423E+03  0.7818609E-02  0.9910935E-01
       -1   -1    0    0    0  501  0.00000000000E+00  0.00000000000E+00  0.17170349507E+03  0.17170349514E+03  0.50400001928E-02 0.  1.
        1   -1    0    0  501    0  0.00000000000E+00  0.00000000000E+00 -0.51952609018E+03  0.51952609021E+03  0.50400001928E-02 0. -1.
    10030    2    1    2    0    0  0.00000000000E+00  0.00000000000E+00 -0.34782259511E+03  0.69122958535E+03  0.59734226537E+03 0.  0.
        2    1    3    3  502    0  0.21437533570E+03 -0.25786703769E+02 -0.41270106128E+03  0.46577237427E+03  0.25500000920E-02 0. -1.
       -2    1    3    3    0  502 -0.21437533570E+03  0.25786703769E+02  0.64878466163E+02  0.22545721108E+03  0.25500000920E-02 0.  1.
</event>
<event>
 5   0  0.8817544E-02  0.6246831E+03  0.7818609E-02  0.9855480E-01
        2   -1    0    0  501    0  0.00000000000E+00  0.00000000000E+00  0.35600636160E+03  0.35600636161E+03  0.25500000920E-02 0. -1.
       -2   -1    0    0    0  501  0.00000000000E+00  0.00000000000E+00 -0.27403234750E+03  0.27403234751E+03  0.25500000920E-02 0.  1.
    10030    2    1    2    0    0  0.00000000000E+00  0.00000000000E+00  0.81974014098E+02  0.63003870912E+03  0.62468314849E+03 0.  0.
        5    1    3    3  502    0 -0.20525106894E+03 -0.87340016932E+02 -0.17947079164E+03  0.28633570317E+03  0.46999998093E+01 0.  1.
       -5    1    3    3    0  502  0.20525106894E+03  0.87340016932E+02  0.26144480574E+03  0.34370300596E+03  0.46999998093E+01 0. -1.
</event>
<event>
 5   0  0.4987389E-02  0.5993335E+03  0.7818609E-02  0.9906790E-01
        1   -1    0    0  501    0  0.00000000000E+00  0.00000000000E+00  0.46182491058E+03  0.46182491061E+03  0.50400001928E-02 0.  1.
       -1   -1    0    0    0  501  0.00000000000E+00  0.00000000000E+00 -0.19444636658E+03  0.19444636665E+03  0.50400001928E-02 0. -1.
    10030    2    1    2    0    0  0.00000000000E+00  0.00000000000E+00  0.26737854400E+03  0.65627127725E+03  0.59933354950E+03 0.  0.
        1    1    3    3  502    0  0.14838133220E+03 -0.43576658383E+02 -0.14737493870E+03  0.21362424367E+03  0.50400001928E-02 0. -1.
       -1    1    3    3    0  502 -0.14838133220E+03  0.43576658383E+02  0.41475348270E+03  0.44264703358E+03  0.50400001928E-02 0.  1.
</event>
<event>
 5   0  0.8699746E-02  0.6015007E+03  0.7818609E-02  0.9902297E-01
        2   -1    0    0  501    0  0.00000000000E+00  0.00000000000E+00  0.96925721885E+03  0.96925721886E+03  0.25500000920E-02 0. -1.
       -2   -1    0    0    0  501  0.00000000000E+00  0.00000000000E+00 -0.93319689596E+02  0.93319689631E+02  0.25500000920E-02 0.  1.
    10030    2    1    2    0    0  0.00000000000E+00  0.00000000000E+00  0.87593752926E+03  0.10625769085E+04  0.60150073258E+03 0.  0.
        3    1    3    3  502    0 -0.19598796797E+03  0.93355640481E+02  0.80566531583E+03  0.83439988646E+03  0.10100000352E+00 0. -1.
       -3    1    3    3    0  502  0.19598796797E+03 -0.93355640481E+02  0.70272213429E+02  0.22817702203E+03  0.10100000352E+00 0.  1.
</event>
<event>
 5   0  0.8817544E-02  0.6052228E+03  0.7818609E-02  0.9894629E-01
       -2   -1    0    0    0  501  0.00000000000E+00  0.00000000000E+00  0.53464625650E+02  0.53464625711E+02  0.25500000920E-02 0.  1.
        2   -1    0    0  501    0  0.00000000000E+00  0.00000000000E+00 -0.17127895686E+04  0.17127895686E+04  0.25500000920E-02 0. -1.
    10030    2    1    2    0    0  0.00000000000E+00  0.00000000000E+00 -0.16593249430E+04  0.17662541943E+04  0.60522277935E+03 0.  0.
        5    1    3    3  502    0  0.14776481022E+03  0.92017152209E+02 -0.15519179964E+04  0.15616571816E+04  0.46999998093E+01 0. -1.
       -5    1    3    3    0  502 -0.14776481022E+03 -0.92017152209E+02 -0.10740694662E+03  0.20459701274E+03  0.46999998093E+01 0.  1.
</event>
<event>
 5   0  0.8817544E-02  0.6054217E+03  0.7818609E-02  0.9894221E-01
       -2   -1    0    0    0  501  0.00000000000E+00  0.00000000000E+00  0.13616164021E+03  0.13616164024E+03  0.25500000920E-02 0.  1.
        2   -1    0    0  501    0  0.00000000000E+00  0.00000000000E+00 -0.67297851209E+03  0.67297851209E+03  0.25500000920E-02 0. -1.
    10030    2    1    2    0    0  0.00000000000E+00  0.00000000000E+00 -0.53681687187E+03  0.80914015233E+03  0.60542169782E+03 0.  0.
        5    1    3    3  502    0 -0.40139455396E+02 -0.12308280544E+03 -0.63405811695E+03  0.64715712045E+03  0.46999998093E+01 0. -1.
       -5    1    3    3    0  502  0.40139455396E+02  0.12308280544E+03  0.97241245078E+02  0.16198303188E+03  0.46999998093E+01 0.  1.
</event>
<event>
 5   0  0.8699746E-02  0.6059136E+03  0.7818609E-02  0.9893213E-01
        2   -1    0    0  501    0  0.00000000000E+00  0.00000000000E+00  0.31022297561E+03  0.31022297562E+03  0.25500000920E-02 0. -1.
       -2   -1    0    0    0  501  0.00000000000E+00  0.00000000000E+00 -0.29586077363E+03  0.29586077364E+03  0.25500000920E-02 0.  1.
    10030    2    1    2    0    0  0.00000000000E+00  0.00000000000E+00  0.14362201980E+02  0.60608374927E+03  0.60591355677E+03 0.  0.
        3    1    3    3  502    0 -0.13224339842E+03 -0.15304424360E+03  0.23279254766E+03  0.30838812780E+03  0.10100000352E+00 0. -1.
       -3    1    3    3    0  502  0.13224339842E+03  0.15304424360E+03 -0.21843034568E+03  0.29769562146E+03  0.10100000352E+00 0.  1.
</event>
<event>
 5   0  0.4987389E-02  0.5928827E+03  0.7818609E-02  0.9920283E-01
        1   -1    0    0  501    0  0.00000000000E+00  0.00000000000E+00  0.56352451599E+03  0.56352451602E+03  0.50400001928E-02 0.  1.
       -1   -1    0    0    0  501  0.00000000000E+00  0.00000000000E+00 -0.15594257403E+03  0.15594257411E+03  0.50400001928E-02 0. -1.
    10030    2    1    2    0    0  0.00000000000E+00  0.00000000000E+00  0.40758194197E+03  0.71946709012E+03  0.59288266491E+03 0.  0.
        1    1    3    3  502    0  0.72246730500E+01  0.17421811587E+03 -0.87130186964E+02  0.19492515821E+03  0.50400001928E-02 0. -1.
       -1    1    3    3    0  502 -0.72246730500E+01 -0.17421811587E+03  0.49471212893E+03  0.52454193191E+03  0.50400001928E-02 0.  1.
</event>
<event>
 5   0  0.5166903E-02  0.5953643E+03  0.7818609E-02  0.9915071E-01
        1   -1    0    0  501    0  0.00000000000E+00  0.00000000000E+00  0.68717888098E+03  0.68717888100E+03  0.50400001928E-02 0.  1.
       -1   -1    0    0    0  501  0.00000000000E+00  0.00000000000E+00 -0.12895427660E+03  0.12895427670E+03  0.50400001928E-02 0. -1.
    10030    2    1    2    0    0  0.00000000000E+00  0.00000000000E+00  0.55822460438E+03  0.81613315770E+03  0.59536427687E+03 0.  0.
        2    1    3    3  502    0  0.85074908630E+02  0.26030146139E+03  0.11913151303E+03  0.29864177251E+03  0.25500000920E-02 0. -1.
       -2    1    3    3    0  502 -0.85074908630E+02 -0.26030146139E+03  0.43909309134E+03  0.51749138520E+03  0.25500000920E-02 0.  1.
</event>
<event>
 5   0  0.5190380E-02  0.6040688E+03  0.7818609E-02  0.9897000E-01
       -1   -1    0    0    0  501  0.00000000000E+00  0.00000000000E+00  0.33143205574E+03  0.33143205578E+03  0.50400001928E-02 0.  1.
        1   -1    0    0  501    0  0.00000000000E+00  0.00000000000E+00 -0.27524431472E+03  0.27524431477E+03  0.50400001928E-02 0. -1.
    10030    2    1    2    0    0  0.00000000000E+00  0.00000000000E+00  0.56187741021E+02  0.60667637055E+03  0.60406883411E+03 0.  0.
        5    1    3    3  502    0  0.79014910315E+02  0.24511007185E+03 -0.13032222025E+03  0.28866637224E+03  0.46999998093E+01 0. -1.
       -5    1    3    3    0  502 -0.79014910315E+02 -0.24511007185E+03  0.18650996127E+03  0.31800999831E+03  0.46999998093E+01 0.  1.
</event>
<event>
 5   0  0.8420604E-02  0.6070312E+03  0.7818609E-02  0.9890925E-01
       -2   -1    0    0    0  501  0.00000000000E+00  0.00000000000E+00  0.10949165395E+03  0.10949165398E+03  0.25500000920E-02 0. -1.
        2   -1    0    0  501    0  0.00000000000E+00  0.00000000000E+00 -0.84135849076E+03  0.84135849076E+03  0.25500000920E-02 0.  1.
    10030    2    1    2    0    0  0.00000000000E+00  0.00000000000E+00 -0.73186683680E+03  0.95085014474E+03  0.60703124380E+03 0.  0.
        2    1    3    3  502    0  0.18236987263E+03  0.24114761771E+03 -0.40769445867E+03  0.50756843441E+03  0.25500000920E-02 0.  1.
       -2    1    3    3    0  502 -0.18236987263E+03 -0.24114761771E+03 -0.32417237813E+03  0.44328171034E+03  0.25500000920E-02 0. -1.
</event>
<event>
 5   0  0.4881209E-02  0.5961633E+03  0.7818609E-02  0.9913398E-01
        1   -1    0    0  501    0  0.00000000000E+00  0.00000000000E+00  0.10204136862E+03  0.10204136875E+03  0.50400001928E-02 0. -1.
       -1   -1    0    0    0  501  0.00000000000E+00  0.00000000000E+00 -0.87075148486E+03  0.87075148487E+03  0.50400001928E-02 0.  1.
    10030    2    1    2    0    0  0.00000000000E+00  0.00000000000E+00 -0.76871011624E+03  0.97279285362E+03  0.59616331089E+03 0.  0.
        3    1    3    3  502    0  0.26138135847E+03  0.86859003471E+02 -0.57031766783E+03  0.63334584034E+03  0.10100000352E+00 0. -1.
       -3    1    3    3    0  502 -0.26138135847E+03 -0.86859003471E+02 -0.19839244841E+03  0.33944701328E+03  0.10100000352E+00 0.  1.
</event>
<event>
 5   0  0.5125031E-02  0.6030564E+03  0.7818609E-02  0.9899085E-01
        1   -1    0    0  501    0  0.00000000000E+00  0.00000000000E+00  0.10091765491E+04  0.10091765491E+04  0.50400001928E-02 0.  1.
       -1   -1    0    0    0  501  0.00000000000E+00  0.00000000000E+00 -0.90092522712E+02  0.90092522853E+02  0.50400001928E-02 0. -1.
    10030    2    1    2    0    0  0.00000000000E+00  0.00000000000E+00  0.91908402640E+03  0.10992690720E+04  0.60305641944E+03 0.  0.
        4    1    3    3  502    0 -0.79959297697E+02  0.94351727041E+02  0.96080990529E+03  0.96873785137E+03  0.12699999809E+01 0.  1.
       -4    1    3    3    0  502  0.79959297697E+02 -0.94351727041E+02 -0.41725878887E+02  0.13053122061E+03  0.12699999809E+01 0. -1.
</event>
<event>
 5   0  0.8575590E-02  0.7150786E+03  0.7818609E-02  0.9691788E-01
       -2   -1    0    0    0  501  0.00000000000E+00  0.00000000000E+00  0.17521528280E+03  0.17521528282E+03  0.25500000920E-02 0. -1.
        2   -1    0    0  501    0  0.00000000000E+00  0.00000000000E+00 -0.72958443375E+03  0.72958443375E+03  0.25500000920E-02 0.  1.
    10030    2    1    2    0    0  0.00000000000E+00  0.00000000000E+00 -0.55436915095E+03  0.90479971657E+03  0.71507857721E+03 0.  0.
        4    1    3    3  502    0 -0.31270448840E+03  0.15426973815E+03 -0.17715678903E+03  0.39111301433E+03  0.12699999809E+01 0. -1.
       -4    1    3    3    0  502  0.31270448840E+03 -0.15426973815E+03 -0.37721236192E+03  0.51368670224E+03  0.12699999809E+01 0.  1.
</event>
<event>
 5   0  0.3437375E-02  0.5988206E+03  0.7818609E-02  0.9907856E-01
       -3   -1    0    0    0  501  0.00000000000E+00  0.00000000000E+00  0.12628084798E+03  0.12628088837E+03  0.10100000352E+00 0. -1.
        3   -1    0    0  501    0  0.00000000000E+00  0.00000000000E+00 -0.70989799537E+03  0.70989800256E+03  0.10100000352E+00 0.  1.
    10030    2    1    2    0    0  0.00000000000E+00  0.00000000000E+00 -0.58361714739E+03  0.83617889092E+03  0.59882064334E+03 0.  0.
        2    1    3    3  502    0 -0.17413736437E+03  0.14621482911E+02  0.47682992493E+02  0.18113883408E+03  0.25500000920E-02 0. -1.
       -2    1    3    3    0  502  0.17413736437E+03 -0.14621482911E+02 -0.63130013989E+03  0.65504005684E+03  0.25500000920E-02 0.  1.
</event>
<event>
 5   0  0.5125031E-02  0.6019405E+03  0.7818609E-02  0.9901388E-01
        1   -1    0    0  501    0  0.00000000000E+00  0.00000000000E+00  0.14775043690E+03  0.14775043699E+03  0.50400001928E-02 0.  1.
       -1   -1    0    0    0  501  0.00000000000E+00  0.00000000000E+00 -0.61308170633E+03  0.61308170635E+03  0.50400001928E-02 0. -1.
    10030    2    1    2    0    0  0.00000000000E+00  0.00000000000E+00 -0.46533126942E+03  0.76083214334E+03  0.60194049542E+03 0.  0.
        4    1    3    3  502    0  0.77694102065E+02 -0.28096267503E+03 -0.32729504945E+03  0.43829220909E+03  0.12699999809E+01 0. -1.
       -4    1    3    3    0  502 -0.77694102065E+02  0.28096267503E+03 -0.13803621997E+03  0.32253993424E+03  0.12699999809E+01 0.  1.
</event>
<event>
 5   0  0.3437375E-02  0.6019124E+03  0.7818609E-02  0.9901446E-01
        3   -1    0    0  501    0  0.00000000000E+00  0.00000000000E+00  0.17765274599E+04  0.17765274628E+04  0.10100000352E+00 0. -1.
       -3   -1    0    0    0  501  0.00000000000E+00  0.00000000000E+00 -0.50984030694E+02  0.50984130735E+02  0.10100000352E+00 0.  1.
    10030    2    1    2    0    0  0.00000000000E+00  0.00000000000E+00  0.17255434292E+04  0.18275115935E+04  0.60191236764E+03 0.  0.
        1    1    3    3  502    0  0.14036453899E+03 -0.17580849487E+02  0.16692940916E+04  0.16752773067E+04  0.50400001928E-02 0. -1.
       -1    1    3    3    0  502 -0.14036453899E+03  0.17580849487E+02  0.56249337623E+02  0.15223428682E+03  0.50400001928E-02 0.  1.
</event>
<event>
 5   0  0.5125031E-02  0.6099712E+03  0.7818609E-02  0.9884932E-01
        1   -1    0    0  501    0  0.00000000000E+00  0.00000000000E+00  0.76327656743E+03  0.76327656745E+03  0.50400001928E-02 0. -1.
       -1   -1    0    0    0  501  0.00000000000E+00  0.00000000000E+00 -0.12186435986E+03  0.12186435996E+03  0.50400001928E-02 0.  1.
    10030    2    1    2    0    0  0.00000000000E+00  0.00000000000E+00  0.64141220757E+03  0.88514092741E+03  0.60997118075E+03 0.  0.
        4    1    3    3  502    0  0.22047042971E+03  0.55193890265E+02  0.25586041387E+02  0.22871343274E+03  0.12699999809E+01 0.  1.
       -4    1    3    3    0  502 -0.22047042971E+03 -0.55193890265E+02  0.61582616619E+03  0.65642749467E+03  0.12699999809E+01 0. -1.
</event>
<event>
 5   0  0.4987389E-02  0.6137933E+03  0.7818609E-02  0.9877195E-01
        1   -1    0    0  501    0  0.00000000000E+00  0.00000000000E+00  0.60303964540E+03  0.60303964542E+03  0.50400001928E-02 0. -1.
       -1   -1    0    0    0  501  0.00000000000E+00  0.00000000000E+00 -0.15618469573E+03  0.15618469581E+03  0.50400001928E-02 0.  1.
    10030    2    1    2    0    0  0.00000000000E+00  0.00000000000E+00  0.44685494967E+03  0.75922434123E+03  0.61379333189E+03 0.  0.
        1    1    3    3  502    0  0.24046680150E+03  0.12621487701E+03  0.46622825784E+02  0.27555065907E+03  0.50400001928E-02 0.  1.
       -1    1    3    3    0  502 -0.24046680150E+03 -0.12621487701E+03  0.40023212388E+03  0.48367368216E+03  0.50400001928E-02 0. -1.
</event>
<event>
 5   0  0.8207443E-02  0.4890318E+03  0.7818609E-02  0.1016682E+00
       -2   -1    0    0    0  501  0.00000000000E+00  0.00000000000E+00  0.41635943294E+02  0.41635943372E+02  0.25500000920E-02 0. -1.
        2   -1    0    0  501    0  0.00000000000E+00  0.00000000000E+00 -0.14359713726E+04  0.14359713726E+04  0.25500000920E-02 0.  1.
    10030    2    1    2    0    0  0.00000000000E+00  0.00000000000E+00 -0.13943354294E+04  0.14776073160E+04  0.48903178916E+03 0.  0.
        1    1    3    3  502    0 -0.12673327994E+03  0.16618134225E+03 -0.10806770246E+04  0.11006999565E+04  0.50400001928E-02 0.  1.
       -1    1    3    3    0  502  0.12673327994E+03 -0.16618134225E+03 -0.31365840480E+03  0.37690735955E+03  0.50400001928E-02 0. -1.
</event>
<event>
 5   0  0.4881209E-02  0.5986021E+03  0.7818609E-02  0.9908310E-01
       -1   -1    0    0    0  501  0.00000000000E+00  0.00000000000E+00  0.71182009747E+02  0.71182009926E+02  0.50400001928E-02 0.  1.
        1   -1    0    0  501    0  0.00000000000E+00  0.00000000000E+00 -0.12584799367E+04  0.12584799367E+04  0.50400001928E-02 0. -1.
    10030    2    1    2    0    0  0.00000000000E+00  0.00000000000E+00 -0.11872979270E+04  0.13296619466E+04  0.59860214248E+03 0.  0.
        3    1    3    3  502    0  0.86974170768E+02  0.28604097932E+03 -0.62483976165E+03  0.69268224041E+03  0.10100000352E+00 0. -1.
       -3    1    3    3    0  502 -0.86974170768E+02 -0.28604097932E+03 -0.56245816530E+03  0.63697970623E+03  0.10100000352E+00 0.  1.
</event>
<event>
 5   0  0.8420604E-02  0.5977802E+03  0.7818609E-02  0.9910022E-01
       -2   -1    0    0    0  501  0.00000000000E+00  0.00000000000E+00  0.10923126319E+04  0.10923126319E+04  0.25500000920E-02 0. -1.
        2   -1    0    0  501    0  0.00000000000E+00  0.00000000000E+00 -0.81785454492E+02  0.81785454532E+02  0.25500000920E-02 0.  1.
    10030    2    1    2    0    0  0.00000000000E+00  0.00000000000E+00  0.10105271774E+04  0.11740980864E+04  0.59778017722E+03 0.  0.
        2    1    3    3  502    0 -0.21782675545E+02 -0.34174280484E+02  0.10868913578E+04  0.10876466292E+04  0.25500000920E-02 0. -1.
       -2    1    3    3    0  502  0.21782675545E+02  0.34174280484E+02 -0.76364180391E+02  0.86451457210E+02  0.25500000920E-02 0.  1.
</event>
<event>
 5   0  0.8699746E-02  0.6013908E+03  0.7818609E-02  0.9902525E-01
       -2   -1    0    0    0  501  0.00000000000E+00  0.00000000000E+00  0.21034338536E+03  0.21034338538E+03  0.25500000920E-02 0. -1.
        2   -1    0    0  501    0  0.00000000000E+00  0.00000000000E+00 -0.42985770533E+03  0.42985770533E+03  0.25500000920E-02 0.  1.
    10030    2    1    2    0    0  0.00000000000E+00  0.00000000000E+00 -0.21951431996E+03  0.64020109071E+03  0.60139080462E+03 0.  0.
        3    1    3    3  502    0 -0.38233049651E+02  0.24835094741E+03  0.66061086112E+02  0.25981538919E+03  0.10100000352E+00 0. -1.
       -3    1    3    3    0  502  0.38233049651E+02 -0.24835094741E+03 -0.28557540608E+03  0.38038570152E+03  0.10100000352E+00 0.  1.
</event>
<event>
 5   0  0.5190380E-02  0.6026981E+03  0.7818609E-02  0.9899824E-01
        1   -1    0    0  501    0  0.00000000000E+00  0.00000000000E+00  0.28876126740E+03  0.28876126744E+03  0.50400001928E-02 0.  1.
       -1   -1    0    0    0  501  0.00000000000E+00  0.00000000000E+00 -0.31448559485E+03  0.31448559489E+03  0.50400001928E-02 0. -1.
    10030    2    1    2    0    0  0.00000000000E+00  0.00000000000E+00 -0.25724327448E+02  0.60324686233E+03  0.60269812999E+03 0.  0.
        5    1    3    3  502    0 -0.17234169681E+03  0.85180311212E+02  0.21936593778E+03  0.29172050071E+03  0.46999998093E+01 0.  1.
       -5    1    3    3    0  502  0.17234169681E+03 -0.85180311212E+02 -0.24509026523E+03  0.31152636162E+03  0.46999998093E+01 0. -1.
</event>
<event>
 5   0  0.5190380E-02  0.6034066E+03  0.7818609E-02  0.9898363E-01
       -1   -1    0    0    0  501  0.00000000000E+00  0.00000000000E+00  0.95707838228E+03  0.95707838230E+03  0.50400001928E-02 0. -1.
        1   -1    0    0  501    0  0.00000000000E+00  0.00000000000E+00 -0.95107041851E+02  0.95107041985E+02  0.50400001928E-02 0.  1.
    10030    2    1    2    0    0  0.00000000000E+00  0.00000000000E+00  0.86197134043E+03  0.10521854243E+04  0.60340664178E+03 0.  0.
        5    1    3    3  502    0  0.24920760076E+03  0.45243965309E+02  0.71672191444E+03  0.76017355736E+03  0.46999998093E+01 0. -1.
       -5    1    3    3    0  502 -0.24920760076E+03 -0.45243965309E+02  0.14524942600E+03  0.29201186692E+03  0.46999998093E+01 0.  1.
</event>
<event>
 5   0  0.8575590E-02  0.5734722E+03  0.7818609E-02  0.9962024E-01
        2   -1    0    0  501    0  0.00000000000E+00  0.00000000000E+00  0.17539865900E+04  0.17539865900E+04  0.25500000920E-02 0.  1.
       -2   -1    0    0    0  501  0.00000000000E+00  0.00000000000E+00 -0.46874698291E+02  0.46874698360E+02  0.25500000920E-02 0. -1.
    10030    2    1    2    0    0  0.00000000000E+00  0.00000000000E+00  0.17071118917E+04  0.18008612884E+04  0.57347220431E+03 0.  0.
        4    1    3    3  502    0  0.19254388356E+03  0.93291486446E+02  0.25410413289E+03  0.33218514686E+03  0.12699999809E+01 0. -1.
       -4    1    3    3    0  502 -0.19254388356E+03 -0.93291486446E+02  0.14530077588E+04  0.14686761415E+04  0.12699999809E+01 0.  1.
</event>
<event>
 5   0  0.8575590E-02  0.5986349E+03  0.7818609E-02  0.9908242E-01
        2   -1    0    0  501    0  0.00000000000E+00  0.00000000000E+00  0.13211155611E+03  0.13211155613E+03  0.25500000920E-02 0.  1.
       -2   -1    0    0    0  501  0.00000000000E+00  0.00000000000E+00 -0.67814598897E+03  0.67814598897E+03  0.25500000920E-02 0. -1.
    10030    2    1    2    0    0  0.00000000000E+00  0.00000000000E+00 -0.54603443286E+03  0.81025754510E+03  0.59863485325E+03 0.  0.
        4    1    3    3  502    0  0.79401766136E+02  0.24930667176E+03 -0.46976941268E+03  0.53772053247E+03  0.12699999809E+01 0. -1.
       -4    1    3    3    0  502 -0.79401766136E+02 -0.24930667176E+03 -0.76265020179E+02  0.27253701263E+03  0.12699999809E+01 0.  1.
</event>
<event>
 5   0  0.8420604E-02  0.6035088E+03  0.7818609E-02  0.9898153E-01
        2   -1    0    0  501    0  0.00000000000E+00  0.00000000000E+00  0.64120493212E+03  0.64120493212E+03  0.25500000920E-02 0.  1.
       -2   -1    0    0    0  501  0.00000000000E+00  0.00000000000E+00 -0.14200719395E+03  0.14200719397E+03  0.25500000920E-02 0. -1.
    10030    2    1    2    0    0  0.00000000000E+00  0.00000000000E+00  0.49919773817E+03  0.78321212609E+03  0.60350878425E+03 0.  0.
        2    1    3    3  502    0 -0.11664450521E+03 -0.16369799500E+03  0.54167581194E+03  0.57776782483E+03  0.25500000920E-02 0.  1.
       -2    1    3    3    0  502  0.11664450521E+03  0.16369799500E+03 -0.42478073776E+02  0.20544430126E+03  0.25500000920E-02 0. -1.
</event>
<event>
 5   0  0.4881209E-02  0.6029043E+03  0.7818609E-02  0.9899399E-01
        1   -1    0    0  501    0  0.00000000000E+00  0.00000000000E+00  0.20340347092E+04  0.20340347092E+04  0.50400001928E-02 0. -1.
       -1   -1    0    0    0  501  0.00000000000E+00  0.00000000000E+00 -0.44676417391E+02  0.44676417675E+02  0.50400001928E-02 0.  1.
    10030    2    1    2    0    0  0.00000000000E+00  0.00000000000E+00  0.19893582918E+04  0.20787111269E+04  0.60290425097E+03 0.  0.
        3    1    3    3  502    0 -0.30808941095E+02 -0.25989753268E+03  0.15104432879E+04  0.15329497234E+04  0.10100000352E+00 0. -1.
       -3    1    3    3    0  502  0.30808941095E+02  0.25989753268E+03  0.47891500388E+03  0.54576140344E+03  0.10100000352E+00 0.  1.
</event>
<event>
 5   0  0.8699746E-02  0.6000205E+03  0.7818609E-02  0.9905364E-01
       -2   -1    0    0    0  501  0.00000000000E+00  0.00000000000E+00  0.65867279807E+02  0.65867279856E+02  0.25500000920E-02 0.  1.
        2   -1    0    0  501    0  0.00000000000E+00  0.00000000000E+00 -0.13664773947E+04  0.13664773947E+04  0.25500000920E-02 0. -1.
    10030    2    1    2    0    0  0.00000000000E+00  0.00000000000E+00 -0.13006101149E+04  0.14323446746E+04  0.60002049613E+03 0.  0.
        3    1    3    3  502    0 -0.28580013641E+03  0.80536698051E+02 -0.54795571821E+03  0.62323619682E+03  0.10100000352E+00 0.  1.
       -3    1    3    3    0  502  0.28580013641E+03 -0.80536698051E+02 -0.75265439672E+03  0.80910847777E+03  0.10100000352E+00 0. -1.
</event>
<event>
 5   0  0.5190380E-02  0.5820350E+03  0.7818609E-02  0.9943395E-01
       -1   -1    0    0    0  501  0.00000000000E+00  0.00000000000E+00  0.83896329304E+02  0.83896329455E+02  0.50400001928E-02 0.  1.
        1   -1    0    0  501    0  0.00000000000E+00  0.00000000000E+00 -0.10094743799E+04  0.10094743800E+04  0.50400001928E-02 0. -1.
    10030    2    1    2    0    0  0.00000000000E+00  0.00000000000E+00 -0.92557805065E+03  0.10933707094E+04  0.58203503363E+03 0.  0.
        5    1    3    3  502    0 -0.15131116964E+03 -0.36897265162E+02 -0.92451272726E+03  0.93755125252E+03  0.46999998093E+01 0. -1.
       -5    1    3    3    0  502  0.15131116964E+03  0.36897265162E+02 -0.10653233822E+01  0.15581945689E+03  0.46999998093E+01 0.  1.
</event>
<event>
 5   0  0.4881209E-02  0.6034472E+03  0.7818609E-02  0.9898280E-01
        1   -1    0    0  501    0  0.00000000000E+00  0.00000000000E+00  0.55132078723E+03  0.55132078725E+03  0.50400001928E-02 0. -1.
       -1   -1    0    0    0  501  0.00000000000E+00  0.00000000000E+00 -0.16512551482E+03  0.16512551490E+03  0.50400001928E-02 0.  1.
    10030    2    1    2    0    0  0.00000000000E+00  0.00000000000E+00  0.38619527241E+03  0.71644630215E+03  0.60344719357E+03 0.  0.
        3    1    3    3  502    0 -0.21463253535E+03 -0.43260426739E+02 -0.53378908357E+02  0.22536172659E+03  0.10100000352E+00 0.  1.
       -3    1    3    3    0  502  0.21463253535E+03  0.43260426739E+02  0.43957418077E+03  0.49108457556E+03  0.10100000352E+00 0. -1.
</event>
<event>
 5   0  0.5190380E-02  0.6031106E+03  0.7818609E-02  0.9898974E-01
       -1   -1    0    0    0  501  0.00000000000E+00  0.00000000000E+00  0.33341067589E+02  0.33341067970E+02  0.50400001928E-02 0. -1.
        1   -1    0    0  501    0  0.00000000000E+00  0.00000000000E+00 -0.27274349235E+04  0.27274349235E+04  0.50400001928E-02 0.  1.
    10030    2    1    2    0    0  0.00000000000E+00  0.00000000000E+00 -0.26940938559E+04  0.27607759915E+04  0.60311057912E+03 0.  0.
        5    1    3    3  502    0 -0.21907704556E+03  0.11858271853E+03 -0.56944203917E+03  0.62156491133E+03  0.46999998093E+01 0. -1.
       -5    1    3    3    0  502  0.21907704556E+03 -0.11858271853E+03 -0.21246518167E+04  0.21392110801E+04  0.46999998093E+01 0.  1.
</event>
<event>
 5   0  0.8575590E-02  0.6030041E+03  0.7818609E-02  0.9899193E-01
       -2   -1    0    0    0  501  0.00000000000E+00  0.00000000000E+00  0.29947830160E+03  0.29947830161E+03  0.25500000920E-02 0.  1.
        2   -1    0    0  501    0  0.00000000000E+00  0.00000000000E+00 -0.30353945876E+03  0.30353945877E+03  0.25500000920E-02 0. -1.
    10030    2    1    2    0    0  0.00000000000E+00  0.00000000000E+00 -0.40611571582E+01  0.60301776039E+03  0.60300408485E+03 0.  0.
        4    1    3    3  502    0  0.19215354504E+03 -0.50789365114E+02  0.22468875365E+03  0.29998198845E+03  0.12699999809E+01 0.  1.
       -4    1    3    3    0  502 -0.19215354504E+03  0.50789365114E+02 -0.22874991081E+03  0.30303577194E+03  0.12699999809E+01 0. -1.
</event>
<event>
 5   0  0.5166903E-02  0.6107150E+03  0.7818609E-02  0.9883422E-01
        1   -1    0    0  501    0  0.00000000000E+00  0.00000000000E+00  0.59400657072E+03  0.59400657074E+03  0.50400001928E-02 0.  1.
       -1   -1    0    0    0  501  0.00000000000E+00  0.00000000000E+00 -0.15697336507E+03  0.15697336515E+03  0.50400001928E-02 0. -1.
    10030    2    1    2    0    0  0.00000000000E+00  0.00000000000E+00  0.43703320565E+03  0.75097993589E+03  0.61071502459E+03 0.  0.
        2    1    3    3  502    0 -0.53274429721E+02  0.14180458102E+03 -0.10751267354E+03  0.18575704303E+03  0.25500000920E-02 0. -1.
       -2    1    3    3    0  502  0.53274429721E+02 -0.14180458102E+03  0.54454587919E+03  0.56522289285E+03  0.25500000920E-02 0.  1.
</event>
<event>
 5   0  0.4881209E-02  0.6237467E+03  0.7818609E-02  0.9857328E-01
       -1   -1    0    0    0  501  0.00000000000E+00  0.00000000000E+00  0.31932087850E+03  0.31932087854E+03  0.50400001928E-02 0.  1.
        1   -1    0    0  501    0  0.00000000000E+00  0.00000000000E+00 -0.30459947719E+03  0.30459947723E+03  0.50400001928E-02 0. -1.
    10030    2    1    2    0    0  0.00000000000E+00  0.00000000000E+00  0.14721401313E+02  0.62392035577E+03  0.62374665586E+03 0.  0.
        3    1    3    3  502    0  0.11290142432E+03 -0.93163403369E+02 -0.26810446219E+03  0.30546057714E+03  0.10100000352E+00 0. -1.
       -3    1    3    3    0  502 -0.11290142432E+03  0.93163403369E+02  0.28282586350E+03  0.31845977863E+03  0.10100000352E+00 0.  1.
</event>
<event>
 5   0  0.8420604E-02  0.6082573E+03  0.7818609E-02  0.9888421E-01
        2   -1    0    0  501    0  0.00000000000E+00  0.00000000000E+00  0.60301844935E+03  0.60301844936E+03  0.25500000920E-02 0. -1.
       -2   -1    0    0    0  501  0.00000000000E+00  0.00000000000E+00 -0.15338542599E+03  0.15338542601E+03  0.25500000920E-02 0.  1.
    10030    2    1    2    0    0  0.00000000000E+00  0.00000000000E+00  0.44963302336E+03  0.75640387537E+03  0.60825731971E+03 0.  0.
        2    1    3    3  502    0  0.11505965395E+03  0.18434026537E+03 -0.39784633053E+02  0.22091372623E+03  0.25500000920E-02 0.  1.
       -2    1    3    3    0  502 -0.11505965395E+03 -0.18434026537E+03  0.48941765642E+03  0.53549014914E+03  0.25500000920E-02 0. -1.
</event>
<event>
 5   0  0.4881209E-02  0.6038525E+03  0.7818609E-02  0.9897445E-01
       -1   -1    0    0    0  501  0.00000000000E+00  0.00000000000E+00  0.41485051402E+03  0.41485051405E+03  0.50400001928E-02 0.  1.
        1   -1    0    0  501    0  0.00000000000E+00  0.00000000000E+00 -0.21974052210E+03  0.21974052215E+03  0.50400001928E-02 0. -1.
    10030    2    1    2    0    0  0.00000000000E+00  0.00000000000E+00  0.19510999192E+03  0.63459103620E+03  0.60385252693E+03 0.  0.
        3    1    3    3  502    0  0.21357627794E+03  0.10001378254E+03  0.29567722881E+03  0.37820975269E+03  0.10100000352E+00 0.  1.
       -3    1    3    3    0  502 -0.21357627794E+03 -0.10001378254E+03 -0.10056723689E+03  0.25638128351E+03  0.10100000352E+00 0. -1.
</event>
<event>
 5   0  0.8575590E-02  0.5862744E+03  0.7818609E-02  0.9934299E-01
       -2   -1    0    0    0  501  0.00000000000E+00  0.00000000000E+00  0.23721079558E+03  0.23721079560E+03  0.25500000920E-02 0. -1.
        2   -1    0    0  501    0  0.00000000000E+00  0.00000000000E+00 -0.36224914079E+03  0.36224914080E+03  0.25500000920E-02 0.  1.
    10030    2    1    2    0    0  0.00000000000E+00  0.00000000000E+00 -0.12503834521E+03  0.59945993640E+03  0.58627436203E+03 0.  0.
        4    1    3    3  502    0  0.17839268796E+03  0.18276730849E+03  0.84591421325E+02  0.26904490634E+03  0.12699999809E+01 0. -1.
       -4    1    3    3    0  502 -0.17839268796E+03 -0.18276730849E+03 -0.20962976653E+03  0.33041503005E+03  0.12699999809E+01 0.  1.
</event>
<event>
 5   0  0.8207443E-02  0.5885055E+03  0.7818609E-02  0.9929545E-01
        2   -1    0    0  501    0  0.00000000000E+00  0.00000000000E+00  0.36108790976E+03  0.36108790977E+03  0.25500000920E-02 0. -1.
       -2   -1    0    0    0  501  0.00000000000E+00  0.00000000000E+00 -0.23978835217E+03  0.23978835218E+03  0.25500000920E-02 0.  1.
    10030    2    1    2    0    0  0.00000000000E+00  0.00000000000E+00  0.12129955759E+03  0.60087626195E+03  0.58850547959E+03 0.  0.
        1    1    3    3  502    0  0.11564686981E+03  0.20228172692E+03  0.24412858415E+03  0.33747720096E+03  0.50400001928E-02 0. -1.
       -1    1    3    3    0  502 -0.11564686981E+03 -0.20228172692E+03 -0.12282902656E+03  0.26339906100E+03  0.50400001928E-02 0.  1.
</event>
<event>
 5   0  0.8207443E-02  0.5615393E+03  0.7818609E-02  0.9988578E-01
        2   -1    0    0  501    0  0.00000000000E+00  0.00000000000E+00  0.21262451961E+04  0.21262451961E+04  0.25500000920E-02 0.  1.
       -2   -1    0    0    0  501  0.00000000000E+00  0.00000000000E+00 -0.37075494221E+02  0.37075494309E+02  0.25500000920E-02 0. -1.
    10030    2    1    2    0    0  0.00000000000E+00  0.00000000000E+00  0.20891697019E+04  0.21633206904E+04  0.56153928296E+03 0.  0.
        1    1    3    3  502    0  0.20458200100E+03  0.18689680418E+03  0.12189019926E+04  0.12500025112E+04  0.50400001928E-02 0.  1.
       -1    1    3    3    0  502 -0.20458200100E+03 -0.18689680418E+03  0.87026770931E+03  0.91331817919E+03  0.50400001928E-02 0. -1.
</event>
<event>
 5   0  0.8699746E-02  0.5872739E+03  0.7818609E-02  0.9932166E-01
        2   -1    0    0  501    0  0.00000000000E+00  0.00000000000E+00  0.15244262312E+04  0.15244262312E+04  0.25500000920E-02 0. -1.
       -2   -1    0    0    0  501  0.00000000000E+00  0.00000000000E+00 -0.56560737565E+02  0.56560737622E+02  0.25500000920E-02 0.  1.
    10030    2    1    2    0    0  0.00000000000E+00  0.00000000000E+00  0.14678654937E+04  0.15809869688E+04  0.58727394646E+03 0.  0.
        3    1    3    3  502    0  0.27069324975E+03  0.10880820087E+03  0.64429821646E+03  0.70727241002E+03  0.10100000352E+00 0.  1.
       -3    1    3    3    0  502 -0.27069324975E+03 -0.10880820087E+03  0.82356727719E+03  0.87371455882E+03  0.10100000352E+00 0. -1.
</event>
<event>
 5   0  0.8817544E-02  0.6099638E+03  0.7818609E-02  0.9884947E-01
       -2   -1    0    0    0  501  0.00000000000E+00  0.00000000000E+00  0.19220504233E+03  0.19220504235E+03  0.25500000920E-02 0.  1.
        2   -1    0    0  501    0  0.00000000000E+00  0.00000000000E+00 -0.48393095695E+03  0.48393095696E+03  0.25500000920E-02 0. -1.
    10030    2    1    2    0    0  0.00000000000E+00  0.00000000000E+00 -0.29172591462E+03  0.67613599930E+03  0.60996383524E+03 0.  0.
        5    1    3    3  502    0  0.89900011898E+02 -0.94578327608E+02 -0.45138053006E+03  0.46988673646E+03  0.46999998093E+01 0. -1.
       -5    1    3    3    0  502 -0.89900011898E+02  0.94578327608E+02  0.15965461544E+03  0.20624926284E+03  0.46999998093E+01 0.  1.
</event>
<event>
 5   0  0.3437375E-02  0.5710355E+03  0.7818609E-02  0.9967390E-01
        3   -1    0    0  501    0  0.00000000000E+00  0.00000000000E+00  0.26461359624E+03  0.26461361552E+03  0.10100000352E+00 0.  1.
       -3   -1    0    0    0  501  0.00000000000E+00  0.00000000000E+00 -0.30807327723E+03  0.30807329378E+03  0.10100000352E+00 0. -1.
    10030    2    1    2    0    0  0.00000000000E+00  0.00000000000E+00 -0.43459680982E+02  0.57268690930E+03  0.57103550871E+03 0.  0.
        3    1    3    3  502    0 -0.19850312771E+03  0.15570152388E+03 -0.15580986031E+03  0.29651842948E+03  0.10100000352E+00 0. -1.
       -3    1    3    3    0  502  0.19850312771E+03 -0.15570152388E+03  0.11235017933E+03  0.27616847982E+03  0.10100000352E+00 0.  1.
</event>
<event>
 5   0  0.4881209E-02  0.5996187E+03  0.7818609E-02  0.9906197E-01
        1   -1    0    0  501    0  0.00000000000E+00  0.00000000000E+00  0.12140887784E+04  0.12140887784E+04  0.50400001928E-02 0.  1.
       -1   -1    0    0    0  501  0.00000000000E+00  0.00000000000E+00 -0.74035485842E+02  0.74035486013E+02  0.50400001928E-02 0. -1.
    10030    2    1    2    0    0  0.00000000000E+00  0.00000000000E+00  0.11400532925E+04  0.12881242644E+04  0.59961872112E+03 0.  0.
        3    1    3    3  502    0 -0.15403287848E+03  0.10663433157E+02  0.11221106954E+04  0.11326836537E+04  0.10100000352E+00 0.  1.
       -3    1    3    3    0  502  0.15403287848E+03 -0.10663433157E+02  0.17942597140E+02  0.15544061069E+03  0.10100000352E+00 0. -1.
</event>
<event>
 5   0  0.5125031E-02  0.5999624E+03  0.7818609E-02  0.9905484E-01
       -1   -1    0    0    0  501  0.00000000000E+00  0.00000000000E+00  0.79822889815E+02  0.79822889974E+02  0.50400001928E-02 0.  1.
        1   -1    0    0  501    0  0.00000000000E+00  0.00000000000E+00 -0.11273549264E+04  0.11273549264E+04  0.50400001928E-02 0. -1.
    10030    2    1    2    0    0  0.00000000000E+00  0.00000000000E+00 -0.10475320365E+04  0.12071778163E+04  0.59996242606E+03 0.  0.
        4    1    3    3  502    0  0.15147073247E+03 -0.72275365601E+02 -0.23487669356E+02  0.16947092606E+03  0.12699999809E+01 0.  1.
       -4    1    3    3    0  502 -0.15147073247E+03  0.72275365601E+02 -0.10240443672E+04  0.10377068903E+04  0.12699999809E+01 0. -1.
</event>
<event>
 5   0  0.8575590E-02  0.5950564E+03  0.7818609E-02  0.9915716E-01
        2   -1    0    0  501    0  0.00000000000E+00  0.00000000000E+00  0.10123926050E+04  0.10123926050E+04  0.25500000920E-02 0. -1.
       -2   -1    0    0    0  501  0.00000000000E+00  0.00000000000E+00 -0.87439441038E+02  0.87439441075E+02  0.25500000920E-02 0.  1.
    10030    2    1    2    0    0  0.00000000000E+00  0.00000000000E+00  0.92495316400E+03  0.10998320461E+04  0.59505644612E+03 0.  0.
        4    1    3    3  502    0  0.25193000264E+02  0.26618261941E+03  0.22125238302E+03  0.34704769706E+03  0.12699999809E+01 0. -1.
       -4    1    3    3    0  502 -0.25193000264E+02 -0.26618261941E+03  0.70370078098E+03  0.75278434906E+03  0.12699999809E+01 0.  1.
</event>
<event>
 5   0  0.4987389E-02  0.6087341E+03  0.7818609E-02  0.9887449E-01
        1   -1    0    0  501    0  0.00000000000E+00  0.00000000000E+00  0.13109844588E+04  0.13109844589E+04  0.50400001928E-02 0. -1.
       -1   -1    0    0    0  501  0.00000000000E+00  0.00000000000E+00 -0.70663930480E+02  0.70663930659E+02  0.50400001928E-02 0.  1.
    10030    2    1    2    0    0  0.00000000000E+00  0.00000000000E+00  0.12403205284E+04  0.13816483895E+04  0.60873414490E+03 0.  0.
        1    1    3    3  502    0  0.17656436056E+03  0.53289670759E+02  0.70607189403E+02  0.19748452509E+03  0.50400001928E-02 0.  1.
       -1    1    3    3    0  502 -0.17656436056E+03 -0.53289670759E+02  0.11697133390E+04  0.11841638644E+04  0.50400001928E-02 0. -1.
</event>
<event>
 5   0  0.5166903E-02  0.5813336E+03  0.7818609E-02  0.9944908E-01
       -1   -1    0    0    0  501  0.00000000000E+00  0.00000000000E+00  0.48886788872E+03  0.48886788875E+03  0.50400001928E-02 0. -1.
        1   -1    0    0  501    0  0.00000000000E+00  0.00000000000E+00 -0.17282211653E+03  0.17282211660E+03  0.50400001928E-02 0.  1.
    10030    2    1    2    0    0  0.00000000000E+00  0.00000000000E+00  0.31604577220E+03  0.66169000535E+03  0.58133358157E+03 0.  0.
        2    1    3    3  502    0 -0.15756208883E+03 -0.27241265439E+02  0.43430826146E+03  0.46280834517E+03  0.25500000920E-02 0. -1.
       -2    1    3    3    0  502  0.15756208883E+03  0.27241265439E+02 -0.11826248927E+03  0.19888166018E+03  0.25500000920E-02 0.  1.
</event>
<event>
 5   0  0.4881209E-02  0.6038882E+03  0.7818609E-02  0.9897372E-01
       -1   -1    0    0    0  501  0.00000000000E+00  0.00000000000E+00  0.13670795158E+03  0.13670795167E+03  0.50400001928E-02 0.  1.
        1   -1    0    0  501    0  0.00000000000E+00  0.00000000000E+00 -0.66689794444E+03  0.66689794446E+03  0.50400001928E-02 0. -1.
    10030    2    1    2    0    0  0.00000000000E+00  0.00000000000E+00 -0.53018999286E+03  0.80360589613E+03  0.60388824113E+03 0.  0.
        3    1    3    3  502    0  0.14275698148E+02 -0.89374734315E+02  0.11823217192E+03  0.14889760028E+03  0.10100000352E+00 0.  1.
       -3    1    3    3    0  502 -0.14275698148E+02  0.89374734315E+02 -0.64842216477E+03  0.65470829585E+03  0.10100000352E+00 0. -1.
</event>
<event>
 5   0  0.4987389E-02  0.5975437E+03  0.7818609E-02  0.9910515E-01
       -1   -1    0    0    0  501  0.00000000000E+00  0.00000000000E+00  0.90621804931E+02  0.90621805071E+02  0.50400001928E-02 0.  1.
        1   -1    0    0  501    0  0.00000000000E+00  0.00000000000E+00 -0.98502376792E+03  0.98502376794E+03  0.50400001928E-02 0. -1.
    10030    2    1    2    0    0  0.00000000000E+00  0.00000000000E+00 -0.89440196299E+03  0.10756455730E+04  0.59754374512E+03 0.  0.
        1    1    3    3  502    0  0.21700907241E+03 -0.14726674052E+03 -0.18956352178E+03  0.32359659947E+03  0.50400001928E-02 0.  1.
       -1    1    3    3    0  502 -0.21700907241E+03  0.14726674052E+03 -0.70483844121E+03  0.75204897354E+03  0.50400001928E-02 0. -1.
</event>
<event>
 5   0  0.5190380E-02  0.6360980E+03  0.7818609E-02  0.9833221E-01
       -1   -1    0    0    0  501  0.00000000000E+00  0.00000000000E+00  0.20443789340E+03  0.20443789346E+03  0.50400001928E-02 0. -1.
        1   -1    0    0  501    0  0.00000000000E+00  0.00000000000E+00 -0.49479659518E+03  0.49479659520E+03  0.50400001928E-02 0.  1.
    10030    2    1    2    0    0  0.00000000000E+00  0.00000000000E+00 -0.29035870178E+03  0.69923448866E+03  0.63609802267E+03 0.  0.
        5    1    3    3  502    0  0.69855788130E+02  0.24966448595E+03  0.57277491521E+02  0.26554658294E+03  0.46999998093E+01 0. -1.
       -5    1    3    3    0  502 -0.69855788130E+02 -0.24966448595E+03 -0.34763619330E+03  0.43368790572E+03  0.46999998093E+01 0.  1.
</event>
<event>
 5   0  0.3437375E-02  0.5959556E+03  0.7818609E-02  0.9913833E-01
       -4   -1    0    0    0  501  0.00000000000E+00  0.00000000000E+00  0.13368916398E+03  0.13369519612E+03  0.12699999809E+01 0.  1.
        4   -1    0    0  501    0  0.00000000000E+00  0.00000000000E+00 -0.66413675063E+03  0.66413796491E+03  0.12699999809E+01 0. -1.
    10030    2    1    2    0    0  0.00000000000E+00  0.00000000000E+00 -0.53044758665E+03  0.79783316103E+03  0.59595562810E+03 0.  0.
        5    1    3    3  502    0 -0.25971604414E+03  0.14233763663E+03 -0.22171431882E+03  0.36998885869E+03  0.46999998093E+01 0.  1.
       -5    1    3    3    0  502  0.25971604414E+03 -0.14233763663E+03 -0.30873326783E+03  0.42784430235E+03  0.46999998093E+01 0. -1.
</event>
<event>
 5   0  0.5190380E-02  0.6016552E+03  0.7818609E-02  0.9901978E-01
       -1   -1    0    0    0  501  0.00000000000E+00  0.00000000000E+00  0.12776741592E+03  0.12776741602E+03  0.50400001928E-02 0.  1.
        1   -1    0    0  501    0  0.00000000000E+00  0.00000000000E+00 -0.70829678978E+03  0.70829678980E+03  0.50400001928E-02 0. -1.
    10030    2    1    2    0    0  0.00000000000E+00  0.00000000000E+00 -0.58052937386E+03  0.83606420582E+03  0.60165521882E+03 0.  0.
        5    1    3    3  502    0  0.95434573959E+02  0.48470922486E+02  0.10035567938E+03  0.14680102389E+03  0.46999998093E+01 0.  1.
       -5    1    3    3    0  502 -0.95434573959E+02 -0.48470922486E+02 -0.68088505324E+03  0.68926318193E+03  0.46999998093E+01 0. -1.
</event>
<event>
 5   0  0.3437375E-02  0.6099471E+03  0.7818609E-02  0.9884981E-01
       -4   -1    0    0    0  501  0.00000000000E+00  0.00000000000E+00  0.22345559358E+03  0.22345920254E+03  0.12699999809E+01 0.  1.
        4   -1    0    0  501    0  0.00000000000E+00  0.00000000000E+00 -0.41622175361E+03  0.41622369115E+03  0.12699999809E+01 0. -1.
    10030    2    1    2    0    0  0.00000000000E+00  0.00000000000E+00 -0.19276616003E+03  0.63968289370E+03  0.60994705675E+03 0.  0.
        1    1    3    3  502    0  0.22317432439E+03 -0.14776765111E+03  0.56916967949E+02  0.27364502379E+03  0.50400001928E-02 0.  1.
       -1    1    3    3    0  502 -0.22317432439E+03  0.14776765111E+03 -0.24968312798E+03  0.36603786990E+03  0.50400001928E-02 0. -1.
</event>
<event>
 5   0  0.8817544E-02  0.5923577E+03  0.7818609E-02  0.9921389E-01
        2   -1    0    0  501    0  0.00000000000E+00  0.00000000000E+00  0.19885763502E+03  0.19885763503E+03  0.25500000920E-02 0.  1.
       -2   -1    0    0    0  501  0.00000000000E+00  0.00000000000E+00 -0.44112919633E+03  0.44112919633E+03  0.25500000920E-02 0. -1.
    10030    2    1    2    0    0  0.00000000000E+00  0.00000000000E+00 -0.24227156131E+03  0.63998683137E+03  0.59235769169E+03 0.  0.
        5    1    3    3  502    0 -0.10111181527E+03 -0.83420802490E+02  0.16576683156E+03  0.21138439375E+03  0.46999998093E+01 0.  1.
       -5    1    3    3    0  502  0.10111181527E+03  0.83420802490E+02 -0.40803839287E+03  0.42860243762E+03  0.46999998093E+01 0. -1.
</event>
<event>
 5   0  0.4987389E-02  0.6036479E+03  0.7818609E-02  0.9897867E-01
       -1   -1    0    0    0  501  0.00000000000E+00  0.00000000000E+00  0.11104907981E+04  0.11104907981E+04  0.50400001928E-02 0. -1.
        1   -1    0    0  501    0  0.00000000000E+00  0.00000000000E+00 -0.82033728311E+02  0.82033728466E+02  0.50400001928E-02 0.  1.
    10030    2    1    2    0    0  0.00000000000E+00  0.00000000000E+00  0.10284570697E+04  0.11925245265E+04  0.60364791234E+03 0.  0.
        1    1    3    3  502    0 -0.19702302221E+03 -0.22043240949E+03  0.63421953157E+03  0.69974490544E+03  0.50400001928E-02 0.  1.
       -1    1    3    3    0  502  0.19702302221E+03  0.22043240949E+03  0.39423753817E+03  0.49277962109E+03  0.50400001928E-02 0. -1.
</event>
<event>
 5   0  0.8817544E-02  0.5931802E+03  0.7818609E-02  0.9919657E-01
        2   -1    0    0  501    0  0.00000000000E+00  0.00000000000E+00  0.66772643048E+03  0.66772643048E+03  0.25500000920E-02 0.  1.
       -2   -1    0    0    0  501  0.00000000000E+00  0.00000000000E+00 -0.13173909424E+03  0.13173909426E+03  0.25500000920E-02 0. -1.
    10030    2    1    2    0    0  0.00000000000E+00  0.00000000000E+00  0.53598733624E+03  0.79946552474E+03  0.59318015867E+03 0.  0.
        5    1    3    3  502    0 -0.13129549980E+03  0.11964417910E+03  0.58804195677E+03  0.61430340287E+03  0.46999998093E+01 0.  1.
       -5    1    3    3    0  502  0.13129549980E+03 -0.11964417910E+03 -0.52054620532E+02  0.18516212187E+03  0.46999998093E+01 0. -1.
</event>
<event>
 5   0  0.4881209E-02  0.6019086E+03  0.7818609E-02  0.9901454E-01
       -1   -1    0    0    0  501  0.00000000000E+00  0.00000000000E+00  0.14893870600E+03  0.14893870609E+03  0.50400001928E-02 0. -1.
        1   -1    0    0  501    0  0.00000000000E+00  0.00000000000E+00 -0.60812593519E+03  0.60812593522E+03  0.50400001928E-02 0.  1.
    10030    2    1    2    0    0  0.00000000000E+00  0.00000000000E+00 -0.45918722919E+03  0.75706464130E+03  0.60190859743E+03 0.  0.
        3    1    3    3  502    0  0.12996638918E+02 -0.12850642798E+03 -0.57149212135E+03  0.58590619524E+03  0.10100000352E+00 0.  1.
       -3    1    3    3    0  502 -0.12996638918E+02  0.12850642798E+03  0.11230489216E+03  0.17115844606E+03  0.10100000352E+00 0. -1.
</event>
<event>
 5   0  0.8575590E-02  0.5984966E+03  0.7818609E-02  0.9908530E-01
       -2   -1    0    0    0  501  0.00000000000E+00  0.00000000000E+00  0.64965296643E+02  0.64965296693E+02  0.25500000920E-02 0.  1.
        2   -1    0    0  501    0  0.00000000000E+00  0.00000000000E+00 -0.13784214019E+04  0.13784214019E+04  0.25500000920E-02 0. -1.
    10030    2    1    2    0    0  0.00000000000E+00  0.00000000000E+00 -0.13134561052E+04  0.14433866986E+04  0.59849663428E+03 0.  0.
        4    1    3    3  502    0  0.12967236267E+03  0.22747244520E+03 -0.30733035340E+03  0.40374768604E+03  0.12699999809E+01 0.  1.
       -4    1    3    3    0  502 -0.12967236267E+03 -0.22747244520E+03 -0.10061257518E+04  0.10396390125E+04  0.12699999809E+01 0. -1.
</event>
<event>
 5   0  0.5125031E-02  0.5977558E+03  0.7818609E-02  0.9910073E-01
        1   -1    0    0  501    0  0.00000000000E+00  0.00000000000E+00  0.53918734688E+03  0.53918734691E+03  0.50400001928E-02 0. -1.
       -1   -1    0    0    0  501  0.00000000000E+00  0.00000000000E+00 -0.16567155487E+03  0.16567155495E+03  0.50400001928E-02 0.  1.
    10030    2    1    2    0    0  0.00000000000E+00  0.00000000000E+00  0.37351579201E+03  0.70485890186E+03  0.59775582360E+03 0.  0.
        4    1    3    3  502    0 -0.24730962218E+03  0.66537759629E+02  0.36843154264E+03  0.44870116691E+03  0.12699999809E+01 0. -1.
       -4    1    3    3    0  502  0.24730962218E+03 -0.66537759629E+02  0.50842493702E+01  0.25615773494E+03  0.12699999809E+01 0.  1.
</event>
<event>
 5   0  0.8575590E-02  0.5155947E+03  0.7818609E-02  0.1009787E+00
        2   -1    0    0  501    0  0.00000000000E+00  0.00000000000E+00  0.16114929337E+04  0.16114929337E+04  0.25500000920E-02 0. -1.
       -2   -1    0    0    0  501  0.00000000000E+00  0.00000000000E+00 -0.41240939579E+02  0.41240939658E+02  0.25500000920E-02 0.  1.
    10030    2    1    2    0    0  0.00000000000E+00  0.00000000000E+00  0.15702519941E+04  0.16527338733E+04  0.51559473533E+03 0.  0.
        4    1    3    3  502    0  0.16142525468E+02  0.76739421738E+02  0.15723225378E+04  0.15742773884E+04  0.12699999809E+01 0. -1.
       -4    1    3    3    0  502 -0.16142525468E+02 -0.76739421738E+02 -0.20705436651E+01  0.78456484934E+02  0.12699999809E+01 0.  1.
</event>
<event>
 5   0  0.8420604E-02  0.5936857E+03  0.7818609E-02  0.9918593E-01
        2   -1    0    0  501    0  0.00000000000E+00  0.00000000000E+00  0.21194461661E+04  0.21194461661E+04  0.25500000920E-02 0. -1.
       -2   -1    0    0    0  501  0.00000000000E+00  0.00000000000E+00 -0.41574865018E+02  0.41574865096E+02  0.25500000920E-02 0.  1.
    10030    2    1    2    0    0  0.00000000000E+00  0.00000000000E+00  0.20778713011E+04  0.21610210312E+04  0.59368573624E+03 0.  0.
        2    1    3    3  502    0  0.27434624986E+03 -0.16271313215E+02  0.14472833942E+04  0.14731462397E+04  0.25500000920E-02 0. -1.
       -2    1    3    3    0  502 -0.27434624986E+03  0.16271313215E+02  0.63058790683E+03  0.68787479143E+03  0.25500000920E-02 0.  1.
</event>
<event>
 5   0  0.4987389E-02  0.6017577E+03  0.7818609E-02  0.9901766E-01
       -1   -1    0    0    0  501  0.00000000000E+00  0.00000000000E+00  0.37346761714E+02  0.37346762054E+02  0.50400001928E-02 0. -1.
        1   -1    0    0  501    0  0.00000000000E+00  0.00000000000E+00 -0.24239872934E+04  0.24239872934E+04  0.50400001928E-02 0.  1.
    10030    2    1    2    0    0  0.00000000000E+00  0.00000000000E+00 -0.23866405317E+04  0.24613340555E+04  0.60175767970E+03 0.  0.
        1    1    3    3  502    0 -0.10239643914E+03 -0.18867964705E+03 -0.20556051640E+04  0.20667843696E+04  0.50400001928E-02 0.  1.
       -1    1    3    3    0  502  0.10239643914E+03  0.18867964705E+03 -0.33103536768E+03  0.39454968589E+03  0.50400001928E-02 0. -1.
</event>
<event>
 5   0  0.5190380E-02  0.5982457E+03  0.7818609E-02  0.9909052E-01
       -1   -1    0    0    0  501  0.00000000000E+00  0.00000000000E+00  0.19788202348E+03  0.19788202354E+03  0.50400001928E-02 0.  1.
        1   -1    0    0  501    0  0.00000000000E+00  0.00000000000E+00 -0.45216075979E+03  0.45216075981E+03  0.50400001928E-02 0. -1.
    10030    2    1    2    0    0  0.00000000000E+00  0.00000000000E+00 -0.25427873631E+03  0.65004278335E+03  0.59824572247E+03 0.  0.
        5    1    3    3  502    0 -0.14845441748E+03 -0.23022647781E+03 -0.25757193944E+03  0.37604300171E+03  0.46999998093E+01 0. -1.
       -5    1    3    3    0  502  0.14845441748E+03  0.23022647781E+03  0.32932031306E+01  0.27399978164E+03  0.46999998093E+01 0.  1.
</event>
<event>
 5   0  0.4987389E-02  0.6074305E+03  0.7818609E-02  0.9890109E-01
        1   -1    0    0  501    0  0.00000000000E+00  0.00000000000E+00  0.11718171845E+04  0.11718171845E+04  0.50400001928E-02 0.  1.
       -1   -1    0    0    0  501  0.00000000000E+00  0.00000000000E+00 -0.78717874264E+02  0.78717874425E+02  0.50400001928E-02 0. -1.
    10030    2    1    2    0    0  0.00000000000E+00  0.00000000000E+00  0.10930993103E+04  0.12505350590E+04  0.60743051586E+03 0.  0.
        1    1    3    3  502    0  0.67118141870E+02  0.15519555530E+03  0.27143805377E+02  0.17125212860E+03  0.50400001928E-02 0. -1.
       -1    1    3    3    0  502 -0.67118141870E+02 -0.15519555530E+03  0.10659555049E+04  0.10792829304E+04  0.50400001928E-02 0.  1.
</event>
<event>
 5   0  0.8817544E-02  0.5863354E+03  0.7818609E-02  0.9934168E-01
       -2   -1    0    0    0  501  0.00000000000E+00  0.00000000000E+00  0.12639756961E+03  0.12639756964E+03  0.25500000920E-02 0. -1.
        2   -1    0    0  501    0  0.00000000000E+00  0.00000000000E+00 -0.67997598539E+03  0.67997598539E+03  0.25500000920E-02 0.  1.
    10030    2    1    2    0    0  0.00000000000E+00  0.00000000000E+00 -0.55357841578E+03  0.80637355503E+03  0.58633543970E+03 0.  0.
        5    1    3    3  502    0 -0.26262603520E+03  0.52850464473E+02 -0.44043915513E+03  0.51553306910E+03  0.46999998093E+01 0.  1.
       -5    1    3    3    0  502  0.26262603520E+03 -0.52850464473E+02 -0.11313926065E+03  0.29084048594E+03  0.46999998093E+01 0. -1.
</event>
<event>
 5   0  0.8699746E-02  0.5997052E+03  0.7818609E-02  0.9906018E-01
       -2   -1    0    0    0  501  0.00000000000E+00  0.00000000000E+00  0.56052180008E+02  0.56052180066E+02  0.25500000920E-02 0. -1.
        2   -1    0    0  501    0  0.00000000000E+00  0.00000000000E+00 -0.16040690746E+04  0.16040690746E+04  0.25500000920E-02 0.  1.
    10030    2    1    2    0    0  0.00000000000E+00  0.00000000000E+00 -0.15480168946E+04  0.16601212547E+04  0.59970515610E+03 0.  0.
        3    1    3    3  502    0 -0.29181931732E+03 -0.22555855038E+02 -0.95435337350E+03  0.99822725482E+03  0.10100000352E+00 0.  1.
       -3    1    3    3    0  502  0.29181931732E+03  0.22555855038E+02 -0.59366352109E+03  0.66189399984E+03  0.10100000352E+00 0. -1.
</event>
<event>
 5   0  0.8699746E-02  0.6054478E+03  0.7818609E-02  0.9894168E-01
        2   -1    0    0  501    0  0.00000000000E+00  0.00000000000E+00  0.42445055086E+03  0.42445055087E+03  0.25500000920E-02 0. -1.
       -2   -1    0    0    0  501  0.00000000000E+00  0.00000000000E+00 -0.21590679199E+03  0.21590679200E+03  0.25500000920E-02 0.  1.
    10030    2    1    2    0    0  0.00000000000E+00  0.00000000000E+00  0.20854375887E+03  0.64035734287E+03  0.60544779065E+03 0.  0.
        3    1    3    3  502    0 -0.21897702709E+03 -0.44510588061E+02  0.32027687221E+03  0.39052453946E+03  0.10100000352E+00 0. -1.
       -3    1    3    3    0  502  0.21897702709E+03  0.44510588061E+02 -0.11173311334E+03  0.24983280341E+03  0.10100000352E+00 0.  1.
</event>
<event>
 5   0  0.5166903E-02  0.6187547E+03  0.7818609E-02  0.9867242E-01
        1   -1    0    0  501    0  0.00000000000E+00  0.00000000000E+00  0.13908050172E+04  0.13908050172E+04  0.50400001928E-02 0.  1.
       -1   -1    0    0    0  501  0.00000000000E+00  0.00000000000E+00 -0.68819385548E+02  0.68819385733E+02  0.50400001928E-02 0. -1.
    10030    2    1    2    0    0  0.00000000000E+00  0.00000000000E+00  0.13219856316E+04  0.14596244029E+04  0.61875470694E+03 0.  0.
        2    1    3    3  502    0  0.21057170358E+02 -0.24394716580E+03  0.21489947172E+03  0.32578429532E+03  0.25500000920E-02 0. -1.
       -2    1    3    3    0  502 -0.21057170358E+02  0.24394716580E+03  0.11070861599E+04  0.11338401076E+04  0.25500000920E-02 0.  1.
</event>
<event>
 5   0  0.8575590E-02  0.6021316E+03  0.7818609E-02  0.9900994E-01
       -2   -1    0    0    0  501  0.00000000000E+00  0.00000000000E+00  0.14291491171E+03  0.14291491174E+03  0.25500000920E-02 0.  1.
        2   -1    0    0  501    0  0.00000000000E+00  0.00000000000E+00 -0.63422784620E+03  0.63422784620E+03  0.25500000920E-02 0. -1.
    10030    2    1    2    0    0  0.00000000000E+00  0.00000000000E+00 -0.49131293448E+03  0.77714275794E+03  0.60213160242E+03 0.  0.
        4    1    3    3  502    0 -0.27200639972E+03 -0.44318396532E+02 -0.40207271870E+03  0.48745839390E+03  0.12699999809E+01 0. -1.
       -4    1    3    3    0  502  0.27200639972E+03  0.44318396532E+02 -0.89240215782E+02  0.28968436404E+03  0.12699999809E+01 0.  1.
</event>
<event>
 5   0  0.4987389E-02  0.6134012E+03  0.7818609E-02  0.9877986E-01
       -1   -1    0    0    0  501  0.00000000000E+00  0.00000000000E+00  0.46886480870E+03  0.46886480872E+03  0.50400001928E-02 0.  1.
        1   -1    0    0  501    0  0.00000000000E+00  0.00000000000E+00 -0.20062344405E+03  0.20062344412E+03  0.50400001928E-02 0. -1.
    10030    2    1    2    0    0  0.00000000000E+00  0.00000000000E+00  0.26824136465E+03  0.66948825284E+03  0.61340124795E+03 0.  0.
        1    1    3    3  502    0  0.16735886447E+03 -0.83490129166E+02  0.39942201438E+03  0.44104142298E+03  0.50400001928E-02 0.  1.
       -1    1    3    3    0  502 -0.16735886447E+03  0.83490129166E+02 -0.13118064974E+03  0.22844682986E+03  0.50400001928E-02 0. -1.
</event>
<event>
 5   0  0.8699746E-02  0.6109659E+03  0.7818609E-02  0.9882913E-01
        2   -1    0    0  501    0  0.00000000000E+00  0.00000000000E+00  0.30667603190E+03  0.30667603191E+03  0.25500000920E-02 0.  1.
       -2   -1    0    0    0  501  0.00000000000E+00  0.00000000000E+00 -0.30429449885E+03  0.30429449886E+03  0.25500000920E-02 0. -1.
    10030    2    1    2    0    0  0.00000000000E+00  0.00000000000E+00  0.23815330505E+01  0.61097053076E+03  0.61096588920E+03 0.  0.
        3    1    3    3  502    0 -0.74482969569E+02  0.34019700052E+02 -0.29311533694E+03  0.30433807468E+03  0.10100000352E+00 0. -1.
       -3    1    3    3    0  502  0.74482969569E+02 -0.34019700052E+02  0.29549686999E+03  0.30663245608E+03  0.10100000352E+00 0.  1.
</event>
<event>
 5   0  0.4987389E-02  0.5841484E+03  0.7818609E-02  0.9938850E-01
       -1   -1    0    0    0  501  0.00000000000E+00  0.00000000000E+00  0.89160358982E+02  0.89160359124E+02  0.50400001928E-02 0.  1.
        1   -1    0    0  501    0  0.00000000000E+00  0.00000000000E+00 -0.95678540211E+03  0.95678540212E+03  0.50400001928E-02 0. -1.
    10030    2    1    2    0    0  0.00000000000E+00  0.00000000000E+00 -0.86762504313E+03  0.10459457612E+04  0.58414837157E+03 0.  0.
        1    1    3    3  502    0 -0.23270145988E+03 -0.44708391005E+02 -0.12806092418E+03  0.26934812044E+03  0.50400001928E-02 0.  1.
       -1    1    3    3    0  502  0.23270145988E+03  0.44708391005E+02 -0.73956411894E+03  0.77659764081E+03  0.50400001928E-02 0. -1.
</event>
<event>
 5   0  0.3437375E-02  0.6213266E+03  0.7818609E-02  0.9862122E-01
        3   -1    0    0  501    0  0.00000000000E+00  0.00000000000E+00  0.26868082078E+03  0.26868083977E+03  0.10100000352E+00 0. -1.
       -3   -1    0    0    0  501  0.00000000000E+00  0.00000000000E+00 -0.35920566566E+03  0.35920567986E+03  0.10100000352E+00 0.  1.
    10030    2    1    2    0    0  0.00000000000E+00  0.00000000000E+00 -0.90524844876E+02  0.62788651962E+03  0.62132659205E+03 0.  0.
        1    1    3    3  502    0 -0.13816272496E+03  0.17645233241E+03 -0.26267878848E+03  0.34528902405E+03  0.50400001928E-02 0.  1.
       -1    1    3    3    0  502  0.13816272496E+03 -0.17645233241E+03  0.17215394361E+03  0.28259749558E+03  0.50400001928E-02 0. -1.
</event>
<event>
 5   0  0.8817544E-02  0.5910555E+03  0.7818609E-02  0.9924139E-01
        2   -1    0    0  501    0  0.00000000000E+00  0.00000000000E+00  0.15574653504E+04  0.15574653504E+04  0.25500000920E-02 0.  1.
       -2   -1    0    0    0  501  0.00000000000E+00  0.00000000000E+00 -0.56076144894E+02  0.56076144952E+02  0.25500000920E-02 0. -1.
    10030    2    1    2    0    0  0.00000000000E+00  0.00000000000E+00  0.15013892056E+04  0.16135414954E+04  0.59105550571E+03 0.  0.
        5    1    3    3  502    0  0.13175537380E+03  0.56037101265E+02  0.14563434268E+04  0.14633720996E+04  0.46999998093E+01 0.  1.
       -5    1    3    3    0  502 -0.13175537380E+03 -0.56037101265E+02  0.45045778766E+02  0.15016939577E+03  0.46999998093E+01 0. -1.
</event>
<event>
 5   0  0.5190380E-02  0.6006236E+03  0.7818609E-02  0.9904113E-01
        1   -1    0    0  501    0  0.00000000000E+00  0.00000000000E+00  0.78525563972E+03  0.78525563974E+03  0.50400001928E-02 0. -1.
       -1   -1    0    0    0  501  0.00000000000E+00  0.00000000000E+00 -0.11485071231E+03  0.11485071242E+03  0.50400001928E-02 0.  1.
    10030    2    1    2    0    0  0.00000000000E+00  0.00000000000E+00  0.67040492741E+03  0.90010635215E+03  0.60062357470E+03 0.  0.
        5    1    3    3  502    0 -0.58701358964E+02  0.12612121233E+03  0.73399492207E+03  0.74707633169E+03  0.46999998093E+01 0. -1.
       -5    1    3    3    0  502  0.58701358964E+02 -0.12612121233E+03 -0.63589994662E+02  0.15303002046E+03  0.46999998093E+01 0.  1.
</event>
<event>
 5   0  0.5166903E-02  0.6011683E+03  0.7818609E-02  0.9902985E-01
       -1   -1    0    0    0  501  0.00000000000E+00  0.00000000000E+00  0.66348533037E+02  0.66348533228E+02  0.50400001928E-02 0. -1.
        1   -1    0    0  501    0  0.00000000000E+00  0.00000000000E+00 -0.13617607804E+04  0.13617607804E+04  0.50400001928E-02 0.  1.
    10030    2    1    2    0    0  0.00000000000E+00  0.00000000000E+00 -0.12954122473E+04  0.14281093136E+04  0.60116829680E+03 0.  0.
        2    1    3    3  502    0 -0.82024622561E+02  0.22475569055E+03 -0.10799508448E+04  0.11061360614E+04  0.25500000920E-02 0.  1.
       -2    1    3    3    0  502  0.82024622561E+02 -0.22475569055E+03 -0.21546140250E+03  0.32197325217E+03  0.25500000920E-02 0. -1.
</event>
<event>
 5   0  0.8420604E-02  0.5822436E+03  0.7818609E-02  0.9942946E-01
       -2   -1    0    0    0  501  0.00000000000E+00  0.00000000000E+00  0.48757334559E+02  0.48757334625E+02  0.25500000920E-02 0.  1.
        2   -1    0    0  501    0  0.00000000000E+00  0.00000000000E+00 -0.17382387687E+04  0.17382387687E+04  0.25500000920E-02 0. -1.
    10030    2    1    2    0    0  0.00000000000E+00  0.00000000000E+00 -0.16894814342E+04  0.17869961034E+04  0.58224355471E+03 0.  0.
        2    1    3    3  502    0 -0.55578695752E+02 -0.28310010525E+03 -0.96428928371E+03  0.10065229673E+04  0.25500000920E-02 0.  1.
       -2    1    3    3    0  502  0.55578695752E+02  0.28310010525E+03 -0.72519215046E+03  0.78047313605E+03  0.25500000920E-02 0. -1.
</event>
<event>
 5   0  0.8699746E-02  0.6053677E+03  0.7818609E-02  0.9894332E-01
        2   -1    0    0  501    0  0.00000000000E+00  0.00000000000E+00  0.53883102653E+03  0.53883102654E+03  0.25500000920E-02 0. -1.
       -2   -1    0    0    0  501  0.00000000000E+00  0.00000000000E+00 -0.17003014786E+03  0.17003014788E+03  0.25500000920E-02 0.  1.
    10030    2    1    2    0    0  0.00000000000E+00  0.00000000000E+00  0.36880087868E+03  0.70886117442E+03  0.60536772005E+03 0.  0.
        3    1    3    3  502    0  0.74206539108E+02 -0.32507659316E+02 -0.15709875727E+03  0.17675799302E+03  0.10100000352E+00 0.  1.
       -3    1    3    3    0  502 -0.74206539108E+02  0.32507659316E+02  0.52589963595E+03  0.53210318139E+03  0.10100000352E+00 0. -1.
</event>
<event>
 5   0  0.4881209E-02  0.5723150E+03  0.7818609E-02  0.9964569E-01
       -1   -1    0    0    0  501  0.00000000000E+00  0.00000000000E+00  0.65328455469E+03  0.65328455471E+03  0.50400001928E-02 0.  1.
        1   -1    0    0  501    0  0.00000000000E+00  0.00000000000E+00 -0.12534523814E+03  0.12534523824E+03  0.50400001928E-02 0. -1.
    10030    2    1    2    0    0  0.00000000000E+00  0.00000000000E+00  0.52793931655E+03  0.77862979295E+03  0.57231497666E+03 0.  0.
        3    1    3    3  502    0 -0.13825220074E+03  0.16968601629E+03  0.13184557041E+02  0.21927347737E+03  0.10100000352E+00 0. -1.
       -3    1    3    3    0  502  0.13825220074E+03 -0.16968601629E+03  0.51475475951E+03  0.55935631558E+03  0.10100000352E+00 0.  1.
</event>
<event>
 5   0  0.3437375E-02  0.5994956E+03  0.7818609E-02  0.9906453E-01
       -4   -1    0    0    0  501  0.00000000000E+00  0.00000000000E+00  0.47806783450E+03  0.47806952139E+03  0.12699999809E+01 0.  1.
        4   -1    0    0  501    0  0.00000000000E+00  0.00000000000E+00 -0.18793722207E+03  0.18794151308E+03  0.12699999809E+01 0. -1.
    10030    2    1    2    0    0  0.00000000000E+00  0.00000000000E+00  0.29013061243E+03  0.66601103447E+03  0.59949555942E+03 0.  0.
        2    1    3    3  502    0  0.64709360784E+02  0.27931593868E+03  0.24219607563E+03  0.37531804384E+03  0.25500000920E-02 0.  1.
       -2    1    3    3    0  502 -0.64709360784E+02 -0.27931593868E+03  0.47934536794E+02  0.29069299062E+03  0.25500000920E-02 0. -1.
</event>
<event>
 5   0  0.8575590E-02  0.5971912E+03  0.7818609E-02  0.9911251E-01
        2   -1    0    0  501    0  0.00000000000E+00  0.00000000000E+00  0.71987103360E+03  0.71987103360E+03  0.25500000920E-02 0. -1.
       -2   -1    0    0    0  501  0.00000000000E+00  0.00000000000E+00 -0.12385457540E+03  0.12385457542E+03  0.25500000920E-02 0.  1.
    10030    2    1    2    0    0  0.00000000000E+00  0.00000000000E+00  0.59601645820E+03  0.84372560903E+03  0.59719116276E+03 0.  0.
        4    1    3    3  502    0 -0.10507261385E+03 -0.16244793339E+03  0.61933818841E+03  0.64885359656E+03  0.12699999809E+01 0. -1.
       -4    1    3    3    0  502  0.10507261385E+03  0.16244793339E+03 -0.23321730206E+02  0.19487201247E+03  0.12699999809E+01 0.  1.
</event>
<event>
 5   0  0.8420604E-02  0.6072141E+03  0.7818609E-02  0.9890551E-01
       -2   -1    0    0    0  501  0.00000000000E+00  0.00000000000E+00  0.14513975347E+03  0.14513975349E+03  0.25500000920E-02 0. -1.
        2   -1    0    0  501    0  0.00000000000E+00  0.00000000000E+00 -0.63509293757E+03  0.63509293757E+03  0.25500000920E-02 0.  1.
    10030    2    1    2    0    0  0.00000000000E+00  0.00000000000E+00 -0.48995318410E+03  0.78023269107E+03  0.60721407230E+03 0.  0.
        2    1    3    3  502    0 -0.20397990426E+03 -0.11055984636E+03 -0.49659480522E+03  0.54812195864E+03  0.25500000920E-02 0.  1.
       -2    1    3    3    0  502  0.20397990426E+03  0.11055984636E+03  0.66416211225E+01  0.23211073242E+03  0.25500000920E-02 0. -1.
</event>
<event>
 5   0  0.3437375E-02  0.5969563E+03  0.7818609E-02  0.9911741E-01
       -4   -1    0    0    0  501  0.00000000000E+00  0.00000000000E+00  0.20223838426E+03  0.20224237184E+03  0.12699999809E+01 0. -1.
        4   -1    0    0  501    0  0.00000000000E+00  0.00000000000E+00 -0.44050660082E+03  0.44050843155E+03  0.12699999809E+01 0.  1.
    10030    2    1    2    0    0  0.00000000000E+00  0.00000000000E+00 -0.23826821656E+03  0.64275080338E+03  0.59695632355E+03 0.  0.
        3    1    3    3  502    0 -0.97946815702E+02  0.13426742904E+03 -0.38608058567E+03  0.42033266592E+03  0.10100000352E+00 0.  1.
       -3    1    3    3    0  502  0.97946815702E+02 -0.13426742904E+03  0.14781236911E+03  0.22241813746E+03  0.10100000352E+00 0. -1.
</event>
<event>
 5   0  0.8420604E-02  0.5696264E+03  0.7818609E-02  0.9970506E-01
        2   -1    0    0  501    0  0.00000000000E+00  0.00000000000E+00  0.99130656378E+02  0.99130656411E+02  0.25500000920E-02 0. -1.
       -2   -1    0    0    0  501  0.00000000000E+00  0.00000000000E+00 -0.81829947426E+03  0.81829947427E+03  0.25500000920E-02 0.  1.
    10030    2    1    2    0    0  0.00000000000E+00  0.00000000000E+00 -0.71916881789E+03  0.91743013068E+03  0.56962641798E+03 0.  0.
        2    1    3    3  502    0 -0.17214183129E+03  0.17065620515E+03 -0.60043087157E+03  0.64751338363E+03  0.25500000920E-02 0.  1.
       -2    1    3    3    0  502  0.17214183129E+03 -0.17065620515E+03 -0.11873794631E+03  0.26991674705E+03  0.25500000920E-02 0. -1.
</event>
<event>
 5   0  0.8817544E-02  0.6066520E+03  0.7818609E-02  0.9891701E-01
        2   -1    0    0  501    0  0.00000000000E+00  0.00000000000E+00  0.12901948345E+04  0.12901948345E+04  0.25500000920E-02 0. -1.
       -2   -1    0    0    0  501  0.00000000000E+00  0.00000000000E+00 -0.71312230888E+02  0.71312230933E+02  0.25500000920E-02 0.  1.
    10030    2    1    2    0    0  0.00000000000E+00  0.00000000000E+00  0.12188826036E+04  0.13615070654E+04  0.60665203192E+03 0.  0.
        5    1    3    3  502    0 -0.14820258670E+03 -0.18827569869E+03  0.19214191237E+03  0.30716827621E+03  0.46999998093E+01 0.  1.
       -5    1    3    3    0  502  0.14820258670E+03  0.18827569869E+03  0.10267406912E+04  0.10543387892E+04  0.46999998093E+01 0. -1.
</event>
<event>
 5   0  0.3437375E-02  0.5996379E+03  0.7818609E-02  0.9906158E-01
       -3   -1    0    0    0  501  0.00000000000E+00  0.00000000000E+00  0.10782523261E+03  0.10782527991E+03  0.10100000352E+00 0.  1.
        3   -1    0    0  501    0  0.00000000000E+00  0.00000000000E+00 -0.83367661548E+03  0.83367662160E+03  0.10100000352E+00 0. -1.
    10030    2    1    2    0    0  0.00000000000E+00  0.00000000000E+00 -0.72585138287E+03  0.94150190151E+03  0.59963789117E+03 0.  0.
        5    1    3    3  502    0  0.26357296474E+02 -0.20541137108E+03 -0.70324940094E+03  0.73312369240E+03  0.46999998093E+01 0. -1.
       -5    1    3    3    0  502 -0.26357296474E+02  0.20541137108E+03 -0.22601981935E+02  0.20837820911E+03  0.46999998093E+01 0.  1.
</event>
<event>
 5   0  0.8575590E-02  0.6333088E+03  0.7818609E-02  0.9838613E-01
        2   -1    0    0  501    0  0.00000000000E+00  0.00000000000E+00  0.45210241524E+03  0.45210241524E+03  0.25500000920E-02 0. -1.
       -2   -1    0    0    0  501  0.00000000000E+00  0.00000000000E+00 -0.22178602578E+03  0.22178602579E+03  0.25500000920E-02 0.  1.
    10030    2    1    2    0    0  0.00000000000E+00  0.00000000000E+00  0.23031638946E+03  0.67388844104E+03  0.63330876491E+03 0.  0.
        4    1    3    3  502    0  0.20151625479E+03 -0.17561782509E+03  0.29579413025E+03  0.39868057619E+03  0.12699999809E+01 0. -1.
       -4    1    3    3    0  502 -0.20151625479E+03  0.17561782509E+03 -0.65477740789E+02  0.27520786485E+03  0.12699999809E+01 0.  1.
</event>
<event>
 5   0  0.8420604E-02  0.5938815E+03  0.7818609E-02  0.9918182E-01
       -2   -1    0    0    0  501  0.00000000000E+00  0.00000000000E+00  0.12234474053E+03  0.12234474056E+03  0.25500000920E-02 0.  1.
        2   -1    0    0  501    0  0.00000000000E+00  0.00000000000E+00 -0.72069973601E+03  0.72069973602E+03  0.25500000920E-02 0. -1.
    10030    2    1    2    0    0  0.00000000000E+00  0.00000000000E+00 -0.59835499548E+03  0.84304447658E+03  0.59388154448E+03 0.  0.
        2    1    3    3  502    0  0.27508047329E+03  0.10183941839E+03 -0.36474300604E+03  0.46805768275E+03  0.25500000920E-02 0. -1.
       -2    1    3    3    0  502 -0.27508047329E+03 -0.10183941839E+03 -0.23361198944E+03  0.37498679382E+03  0.25500000920E-02 0.  1.
</event>
<event>
 5   0  0.8817544E-02  0.6031004E+03  0.7818609E-02  0.9898995E-01
       -2   -1    0    0    0  501  0.00000000000E+00  0.00000000000E+00  0.16256313630E+03  0.16256313632E+03  0.25500000920E-02 0. -1.
        2   -1    0    0  501    0  0.00000000000E+00  0.00000000000E+00 -0.55936734717E+03  0.55936734717E+03  0.25500000920E-02 0.  1.
    10030    2    1    2    0    0  0.00000000000E+00  0.00000000000E+00 -0.39680421086E+03  0.72193048350E+03  0.60310035752E+03 0.  0.
        5    1    3    3  502    0  0.21540411585E+02  0.26954979349E+03 -0.35805827659E+03  0.44871917714E+03  0.46999998093E+01 0.  1.
       -5    1    3    3    0  502 -0.21540411585E+02 -0.26954979349E+03 -0.38745934276E+02  0.27321130636E+03  0.46999998093E+01 0. -1.
</event>
<event>
 5   0  0.4987389E-02  0.6105865E+03  0.7818609E-02  0.9883683E-01
       -1   -1    0    0    0  501  0.00000000000E+00  0.00000000000E+00  0.11486670106E+03  0.11486670117E+03  0.50400001928E-02 0.  1.
        1   -1    0    0  501    0  0.00000000000E+00  0.00000000000E+00 -0.81140983876E+03  0.81140983878E+03  0.50400001928E-02 0. -1.
    10030    2    1    2    0    0  0.00000000000E+00  0.00000000000E+00 -0.69654313770E+03  0.92627653995E+03  0.61058650966E+03 0.  0.
        1    1    3    3  502    0  0.15086664543E+02 -0.28708925271E+03 -0.50413553423E+03  0.58034514159E+03  0.50400001928E-02 0.  1.
       -1    1    3    3    0  502 -0.15086664543E+02  0.28708925271E+03 -0.19240760347E+03  0.34593139836E+03  0.50400001928E-02 0. -1.
</event>
<event>
 5   0  0.8699746E-02  0.5923759E+03  0.7818609E-02  0.9921351E-01
       -2   -1    0    0    0  501  0.00000000000E+00  0.00000000000E+00  0.49646732761E+02  0.49646732826E+02  0.25500000920E-02 0. -1.
        2   -1    0    0  501    0  0.00000000000E+00  0.00000000000E+00 -0.17670308690E+04  0.17670308690E+04  0.25500000920E-02 0.  1.
    10030    2    1    2    0    0  0.00000000000E+00  0.00000000000E+00 -0.17173841363E+04  0.18166776019E+04  0.59237592590E+03 0.  0.
        3    1    3    3  502    0  0.10095445867E+03  0.23075417327E+03 -0.38074873309E+03  0.45651823530E+03  0.10100000352E+00 0. -1.
       -3    1    3    3    0  502 -0.10095445867E+03 -0.23075417327E+03 -0.13366354032E+04  0.13601593666E+04  0.10100000352E+00 0.  1.
</event>
<event>
 5   0  0.5125031E-02  0.5924514E+03  0.7818609E-02  0.9921192E-01
        1   -1    0    0  501    0  0.00000000000E+00  0.00000000000E+00  0.74216495835E+03  0.74216495836E+03  0.50400001928E-02 0. -1.
       -1   -1    0    0    0  501  0.00000000000E+00  0.00000000000E+00 -0.11823472238E+03  0.11823472249E+03  0.50400001928E-02 0.  1.
    10030    2    1    2    0    0  0.00000000000E+00  0.00000000000E+00  0.62393023596E+03  0.86039968086E+03  0.59245140853E+03 0.  0.
        4    1    3    3  502    0  0.28345002855E+03 -0.85827219690E+02  0.32089683403E+03  0.43667679274E+03  0.12699999809E+01 0. -1.
       -4    1    3    3    0  502 -0.28345002855E+03  0.85827219690E+02  0.30303340194E+03  0.42372288812E+03  0.12699999809E+01 0.  1.
</event>
<event>
 5   0  0.8420604E-02  0.6291965E+03  0.7818609E-02  0.9846618E-01
       -2   -1    0    0    0  501  0.00000000000E+00  0.00000000000E+00  0.36064179002E+03  0.36064179003E+03  0.25500000920E-02 0. -1.
        2   -1    0    0  501    0  0.00000000000E+00  0.00000000000E+00 -0.27443317161E+03  0.27443317162E+03  0.25500000920E-02 0.  1.
    10030    2    1    2    0    0  0.00000000000E+00  0.00000000000E+00  0.86208618405E+02  0.63507496165E+03  0.62919653609E+03 0.  0.
        2    1    3    3  502    0 -0.25316437876E+03  0.15088980255E+03 -0.67979054014E+02  0.30245840536E+03  0.25500000920E-02 0.  1.
       -2    1    3    3    0  502  0.25316437876E+03 -0.15088980255E+03  0.15418767242E+03  0.33261655629E+03  0.25500000920E-02 0. -1.
</event>
<event>
 5   0  0.8817544E-02  0.6006432E+03  0.7818609E-02  0.9904073E-01
       -2   -1    0    0    0  501  0.00000000000E+00  0.00000000000E+00  0.44393148270E+03  0.44393148271E+03  0.25500000920E-02 0.  1.
        2   -1    0    0  501    0  0.00000000000E+00  0.00000000000E+00 -0.20316887494E+03  0.20316887495E+03  0.25500000920E-02 0. -1.
    10030    2    1    2    0    0  0.00000000000E+00  0.00000000000E+00  0.24076260777E+03  0.64710035767E+03  0.60064318825E+03 0.  0.
        5    1    3    3  502    0  0.15919645104E+03 -0.18015439306E+02 -0.15323672933E+03  0.22174681800E+03  0.46999998093E+01 0. -1.
       -5    1    3    3    0  502 -0.15919645104E+03  0.18015439306E+02  0.39399933710E+03  0.42535353967E+03  0.46999998093E+01 0.  1.
</event>
<event>
 5   0  0.4987389E-02  0.5993818E+03  0.7818609E-02  0.9906689E-01
        1   -1    0    0  501    0  0.00000000000E+00  0.00000000000E+00  0.44420046934E+03  0.44420046937E+03  0.50400001928E-02 0. -1.
       -1   -1    0    0    0  501  0.00000000000E+00  0.00000000000E+00 -0.20219391081E+03  0.20219391087E+03  0.50400001928E-02 0.  1.
    10030    2    1    2    0    0  0.00000000000E+00  0.00000000000E+00  0.24200655854E+03  0.64639438024E+03  0.59938178186E+03 0.  0.
        1    1    3    3  502    0  0.23941926419E+03 -0.17865752827E+03  0.95153802764E+02  0.31351928598E+03  0.50400001928E-02 0.  1.
       -1    1    3    3    0  502 -0.23941926419E+03  0.17865752827E+03  0.14685275577E+03  0.33287509426E+03  0.50400001928E-02 0. -1.
</event>
<event>
 5   0  0.5125031E-02  0.5813033E+03  0.7818609E-02  0.9944973E-01
       -1   -1    0    0    0  501  0.00000000000E+00  0.00000000000E+00  0.28370027541E+03  0.28370027546E+03  0.50400001928E-02 0.  1.
        1   -1    0    0  501    0  0.00000000000E+00  0.00000000000E+00 -0.29777337676E+03  0.29777337681E+03  0.50400001928E-02 0. -1.
    10030    2    1    2    0    0  0.00000000000E+00  0.00000000000E+00 -0.14073101349E+02  0.58147365226E+03  0.58130332538E+03 0.  0.
        4    1    3    3  502    0 -0.16809890980E+02  0.54719603831E+02 -0.29207612722E+03  0.29763548927E+03  0.12699999809E+01 0. -1.
       -4    1    3    3    0  502  0.16809890980E+02 -0.54719603831E+02  0.27800302587E+03  0.28383816300E+03  0.12699999809E+01 0.  1.
</event>
<event>
 5   0  0.4881209E-02  0.5849561E+03  0.7818609E-02  0.9937118E-01
        1   -1    0    0  501    0  0.00000000000E+00  0.00000000000E+00  0.62969096213E+03  0.62969096215E+03  0.50400001928E-02 0. -1.
       -1   -1    0    0    0  501  0.00000000000E+00  0.00000000000E+00 -0.13584984591E+03  0.13584984601E+03  0.50400001928E-02 0.  1.
    10030    2    1    2    0    0  0.00000000000E+00  0.00000000000E+00  0.49384111622E+03  0.76554080816E+03  0.58495613586E+03 0.  0.
        3    1    3    3  502    0  0.16458473162E+03  0.50612145559E+02 -0.62483798248E+02  0.18317739600E+03  0.10100000352E+00 0.  1.
       -3    1    3    3    0  502 -0.16458473162E+03 -0.50612145559E+02  0.55632491447E+03  0.58236341216E+03  0.10100000352E+00 0. -1.
</event>
<event>
 5   0  0.5190380E-02  0.6025807E+03  0.7818609E-02  0.9900066E-01
       -1   -1    0    0    0  501  0.00000000000E+00  0.00000000000E+00  0.44628300373E+03  0.44628300376E+03  0.50400001928E-02 0.  1.
        1   -1    0    0  501    0  0.00000000000E+00  0.00000000000E+00 -0.20340426342E+03  0.20340426348E+03  0.50400001928E-02 0. -1.
    10030    2    1    2    0    0  0.00000000000E+00  0.00000000000E+00  0.24287874031E+03  0.64968726724E+03  0.60258066905E+03 0.  0.
        5    1    3    3  502    0  0.48054918441E+02 -0.24566281036E+03 -0.59277270579E+02  0.25728462136E+03  0.46999998093E+01 0. -1.
       -5    1    3    3    0  502 -0.48054918441E+02  0.24566281036E+03  0.30215601089E+03  0.39240264588E+03  0.46999998093E+01 0.  1.
</event>
<event>
 5   0  0.5190380E-02  0.6012150E+03  0.7818609E-02  0.9902889E-01
       -1   -1    0    0    0  501  0.00000000000E+00  0.00000000000E+00  0.16758503463E+03  0.16758503471E+03  0.50400001928E-02 0.  1.
        1   -1    0    0  501    0  0.00000000000E+00  0.00000000000E+00 -0.53921795330E+03  0.53921795332E+03  0.50400001928E-02 0. -1.
    10030    2    1    2    0    0  0.00000000000E+00  0.00000000000E+00 -0.37163291866E+03  0.70680298803E+03  0.60121496792E+03 0.  0.
        5    1    3    3  502    0 -0.72690600901E+02 -0.11230169207E+03 -0.50224767733E+03  0.51977919628E+03  0.46999998093E+01 0. -1.
       -5    1    3    3    0  502  0.72690600901E+02  0.11230169207E+03  0.13061475867E+03  0.18702379175E+03  0.46999998093E+01 0.  1.
</event>
<event>
 5   0  0.4987389E-02  0.5846319E+03  0.7818609E-02  0.9937813E-01
       -1   -1    0    0    0  501  0.00000000000E+00  0.00000000000E+00  0.65218300593E+02  0.65218300787E+02  0.50400001928E-02 0.  1.
        1   -1    0    0  501    0  0.00000000000E+00  0.00000000000E+00 -0.13101938181E+04  0.13101938181E+04  0.50400001928E-02 0. -1.
    10030    2    1    2    0    0  0.00000000000E+00  0.00000000000E+00 -0.12449755175E+04  0.13754121189E+04  0.58463189924E+03 0.  0.
        1    1    3    3  502    0 -0.21415699966E+03 -0.91976739737E+00 -0.15441519754E+03  0.26402295304E+03  0.50400001928E-02 0.  1.
       -1    1    3    3    0  502  0.21415699966E+03  0.91976739737E+00 -0.10905603199E+04  0.11113891658E+04  0.50400001928E-02 0. -1.
</event>
<event>
 5   0  0.8817544E-02  0.5952379E+03  0.7818609E-02  0.9915335E-01
        2   -1    0    0  501    0  0.00000000000E+00  0.00000000000E+00  0.72502451654E+03  0.72502451655E+03  0.25500000920E-02 0.  1.
       -2   -1    0    0    0  501  0.00000000000E+00  0.00000000000E+00 -0.12217111462E+03  0.12217111465E+03  0.25500000920E-02 0. -1.
    10030    2    1    2    0    0  0.00000000000E+00  0.00000000000E+00  0.60285340192E+03  0.84719563119E+03  0.59523794679E+03 0.  0.
        5    1    3    3  502    0 -0.10769416440E+03 -0.22708562149E+03  0.52821274729E+03  0.58497581910E+03  0.46999998093E+01 0.  1.
       -5    1    3    3    0  502  0.10769416440E+03  0.22708562149E+03  0.74640654630E+02  0.26221981209E+03  0.46999998093E+01 0. -1.
</event>
<event>
 5   0  0.3437375E-02  0.6036288E+03  0.7818609E-02  0.9897906E-01
        3   -1    0    0  501    0  0.00000000000E+00  0.00000000000E+00  0.16708665968E+03  0.16708669021E+03  0.10100000352E+00 0. -1.
       -3   -1    0    0    0  501  0.00000000000E+00  0.00000000000E+00 -0.54517760270E+03  0.54517761205E+03  0.10100000352E+00 0.  1.
    10030    2    1    2    0    0  0.00000000000E+00  0.00000000000E+00 -0.37809094301E+03  0.71226430226E+03  0.60362875602E+03 0.  0.
        4    1    3    3  502    0  0.26181376377E+03  0.72036308301E+02 -0.33599694485E+02  0.27361693840E+03  0.12699999809E+01 0. -1.
       -4    1    3    3    0  502 -0.26181376377E+03 -0.72036308301E+02 -0.34449124853E+03  0.43864736386E+03  0.12699999809E+01 0.  1.
</event>
<event>
 5   0  0.5190380E-02  0.5891058E+03  0.7818609E-02  0.9928269E-01
        1   -1    0    0  501    0  0.00000000000E+00  0.00000000000E+00  0.26749546920E+03  0.26749546925E+03  0.50400001928E-02 0. -1.
       -1   -1    0    0    0  501  0.00000000000E+00  0.00000000000E+00 -0.32434721212E+03  0.32434721216E+03  0.50400001928E-02 0.  1.
    10030    2    1    2    0    0  0.00000000000E+00  0.00000000000E+00 -0.56851742920E+02  0.59184268141E+03  0.58910579598E+03 0.  0.
        5    1    3    3  502    0 -0.14919484975E+03 -0.17010973013E+03 -0.21782997886E+03  0.31411528643E+03  0.46999998093E+01 0.  1.
       -5    1    3    3    0  502  0.14919484975E+03  0.17010973013E+03  0.16097823594E+03  0.27772739498E+03  0.46999998093E+01 0. -1.
</event>
<event>
 5   0  0.8817544E-02  0.6067967E+03  0.7818609E-02  0.9891404E-01
        2   -1    0    0  501    0  0.00000000000E+00  0.00000000000E+00  0.79152737823E+03  0.79152737824E+03  0.25500000920E-02 0.  1.
       -2   -1    0    0    0  501  0.00000000000E+00  0.00000000000E+00 -0.11629486650E+03  0.11629486653E+03  0.25500000920E-02 0. -1.
    10030    2    1    2    0    0  0.00000000000E+00  0.00000000000E+00  0.67523251173E+03  0.90782224477E+03  0.60679673961E+03 0.  0.
        5    1    3    3  502    0 -0.48698177883E+02 -0.21322118832E+03  0.23103887145E+02  0.21997878824E+03  0.46999998093E+01 0. -1.
       -5    1    3    3    0  502  0.48698177883E+02  0.21322118832E+03  0.65212862459E+03  0.68784345652E+03  0.46999998093E+01 0.  1.
</event>
<event>
 5   0  0.5125031E-02  0.6025381E+03  0.7818609E-02  0.9900154E-01
       -1   -1    0    0    0  501  0.00000000000E+00  0.00000000000E+00  0.16798736966E+03  0.16798736973E+03  0.50400001928E-02 0.  1.
        1   -1    0    0  501    0  0.00000000000E+00  0.00000000000E+00 -0.54029679201E+03  0.54029679203E+03  0.50400001928E-02 0. -1.
    10030    2    1    2    0    0  0.00000000000E+00  0.00000000000E+00 -0.37230942235E+03  0.70828416177E+03  0.60253808829E+03 0.  0.
        4    1    3    3  502    0  0.17729118893E+03 -0.48187476944E+02  0.94510107631E+02  0.20661067724E+03  0.12699999809E+01 0.  1.
       -4    1    3    3    0  502 -0.17729118893E+03  0.48187476944E+02 -0.46681952998E+03  0.50167348453E+03  0.12699999809E+01 0. -1.
</event>
<event>
 5   0  0.5190380E-02  0.6106739E+03  0.7818609E-02  0.9883505E-01
       -1   -1    0    0    0  501  0.00000000000E+00  0.00000000000E+00  0.31836850471E+03  0.31836850475E+03  0.50400001928E-02 0.  1.
        1   -1    0    0  501    0  0.00000000000E+00  0.00000000000E+00 -0.29283879368E+03  0.29283879372E+03  0.50400001928E-02 0. -1.
    10030    2    1    2    0    0  0.00000000000E+00  0.00000000000E+00  0.25529711025E+02  0.61120729847E+03  0.61067388642E+03 0.  0.
        5    1    3    3  502    0 -0.27218567698E+03 -0.24844119680E+01  0.15115111095E+03  0.31138394852E+03  0.46999998093E+01 0.  1.
       -5    1    3    3    0  502  0.27218567698E+03  0.24844119680E+01 -0.12562139993E+03  0.29982334995E+03  0.46999998093E+01 0. -1.
</event>
<event>
 5   0  0.8699746E-02  0.6453172E+03  0.7818609E-02  0.9815606E-01
        2   -1    0    0  501    0  0.00000000000E+00  0.00000000000E+00  0.19465073032E+04  0.19465073032E+04  0.25500000920E-02 0. -1.
       -2   -1    0    0    0  501  0.00000000000E+00  0.00000000000E+00 -0.53484802147E+02  0.53484802207E+02  0.25500000920E-02 0.  1.
    10030    2    1    2    0    0  0.00000000000E+00  0.00000000000E+00  0.18930225010E+04  0.19999921054E+04  0.64531715629E+03 0.  0.
        3    1    3    3  502    0 -0.28995853678E+03  0.12177336133E+03  0.11700831280E+04  0.12116101854E+04  0.10100000352E+00 0.  1.
       -3    1    3    3    0  502  0.28995853678E+03 -0.12177336133E+03  0.72293937301E+03  0.78838192003E+03  0.10100000352E+00 0. -1.
</event>
<event>
 5   0  0.8817544E-02  0.5783389E+03  0.7818609E-02  0.9951394E-01
        2   -1    0    0  501    0  0.00000000000E+00  0.00000000000E+00  0.89117043477E+03  0.89117043477E+03  0.25500000920E-02 0.  1.
       -2   -1    0    0    0  501  0.00000000000E+00  0.00000000000E+00 -0.93830489054E+02  0.93830489089E+02  0.25500000920E-02 0. -1.
    10030    2    1    2    0    0  0.00000000000E+00  0.00000000000E+00  0.79733994571E+03  0.98500092386E+03  0.57833885480E+03 0.  0.
        5    1    3    3  502    0 -0.41764024284E+02  0.26715052605E+03  0.57305204486E+03  0.63365950905E+03  0.46999998093E+01 0.  1.
       -5    1    3    3    0  502  0.41764024284E+02 -0.26715052605E+03  0.22428790085E+03  0.35134141481E+03  0.46999998093E+01 0. -1.
</event>
<event>
 5   0  0.5190380E-02  0.6268144E+03  0.7818609E-02  0.9851285E-01
       -1   -1    0    0    0  501  0.00000000000E+00  0.00000000000E+00  0.82486978152E+03  0.82486978154E+03  0.50400001928E-02 0. -1.
        1   -1    0    0  501    0  0.00000000000E+00  0.00000000000E+00 -0.11907828731E+03  0.11907828741E+03  0.50400001928E-02 0.  1.
    10030    2    1    2    0    0  0.00000000000E+00  0.00000000000E+00  0.70579149422E+03  0.94394806895E+03  0.62681442515E+03 0.  0.
        5    1    3    3  502    0 -0.29739193732E+02  0.26856878997E+03  0.11388952549E+03  0.29326869694E+03  0.46999998093E+01 0.  1.
       -5    1    3    3    0  502  0.29739193732E+02 -0.26856878997E+03  0.59190196873E+03  0.65067937202E+03  0.46999998093E+01 0. -1.
</event>
<event>
 5   0  0.8575590E-02  0.5909918E+03  0.7818609E-02  0.9924273E-01
       -2   -1    0    0    0  501  0.00000000000E+00  0.00000000000E+00  0.11528111096E+03  0.11528111098E+03  0.25500000920E-02 0. -1.
        2   -1    0    0  501    0  0.00000000000E+00  0.00000000000E+00 -0.75743403172E+03  0.75743403173E+03  0.25500000920E-02 0.  1.
    10030    2    1    2    0    0  0.00000000000E+00  0.00000000000E+00 -0.64215292077E+03  0.87271514271E+03  0.59099183299E+03 0.  0.
        4    1    3    3  502    0 -0.30871151550E+02  0.26550520092E+03 -0.13504687678E+03  0.29947505997E+03  0.12699999809E+01 0. -1.
       -4    1    3    3    0  502  0.30871151550E+02 -0.26550520092E+03 -0.50710604399E+03  0.57324008274E+03  0.12699999809E+01 0.  1.
</event>
<event>
 5   0  0.4987389E-02  0.5994571E+03  0.7818609E-02  0.9906533E-01
        1   -1    0    0  501    0  0.00000000000E+00  0.00000000000E+00  0.69771389319E+03  0.69771389321E+03  0.50400001928E-02 0.  1.
       -1   -1    0    0    0  501  0.00000000000E+00  0.00000000000E+00 -0.12875939443E+03  0.12875939452E+03  0.50400001928E-02 0. -1.
    10030    2    1    2    0    0  0.00000000000E+00  0.00000000000E+00  0.56895449877E+03  0.82647328773E+03  0.59945714916E+03 0.  0.
        1    1    3    3  502    0  0.20569962278E+03 -0.49842611295E+01 -0.16004202046E+02  0.20638147247E+03  0.50400001928E-02 0. -1.
       -1    1    3    3    0  502 -0.20569962278E+03  0.49842611295E+01  0.58495870081E+03  0.62009181526E+03  0.50400001928E-02 0.  1.
</event>
<event>
 5   0  0.5166903E-02  0.6033284E+03  0.7818609E-02  0.9898525E-01
        1   -1    0    0  501    0  0.00000000000E+00  0.00000000000E+00  0.16557213132E+03  0.16557213140E+03  0.50400001928E-02 0. -1.
       -1   -1    0    0    0  501  0.00000000000E+00  0.00000000000E+00 -0.54961723220E+03  0.54961723222E+03  0.50400001928E-02 0.  1.
    10030    2    1    2    0    0  0.00000000000E+00  0.00000000000E+00 -0.38404510088E+03  0.71518936362E+03  0.60332842327E+03 0.  0.
        2    1    3    3  502    0 -0.21107369835E+03  0.21486226583E+03 -0.17206694026E+03  0.34687884246E+03  0.25500000920E-02 0.  1.
       -2    1    3    3    0  502  0.21107369835E+03 -0.21486226583E+03 -0.21197816061E+03  0.36831052116E+03  0.25500000920E-02 0. -1.
</event>
<event>
 5   0  0.5125031E-02  0.6101083E+03  0.7818609E-02  0.9884654E-01
       -1   -1    0    0    0  501  0.00000000000E+00  0.00000000000E+00  0.57898816073E+03  0.57898816075E+03  0.50400001928E-02 0. -1.
        1   -1    0    0  501    0  0.00000000000E+00  0.00000000000E+00 -0.16072526713E+03  0.16072526721E+03  0.50400001928E-02 0.  1.
    10030    2    1    2    0    0  0.00000000000E+00  0.00000000000E+00  0.41826289360E+03  0.73971342796E+03  0.61010827510E+03 0.  0.
        4    1    3    3  502    0  0.85336942351E+02  0.20589148552E+03 -0.43399704011E+02  0.22706572781E+03  0.12699999809E+01 0.  1.
       -4    1    3    3    0  502 -0.85336942351E+02 -0.20589148552E+03  0.46166259761E+03  0.51264770015E+03  0.12699999809E+01 0. -1.
</event>
<event>
 5   0  0.5125031E-02  0.6053094E+03  0.7818609E-02  0.9894452E-01
       -1   -1    0    0    0  501  0.00000000000E+00  0.00000000000E+00  0.13527997982E+03  0.13527997992E+03  0.50400001928E-02 0.  1.
        1   -1    0    0  501    0  0.00000000000E+00  0.00000000000E+00 -0.67711331285E+03  0.67711331287E+03  0.50400001928E-02 0. -1.
    10030    2    1    2    0    0  0.00000000000E+00  0.00000000000E+00 -0.54183333303E+03  0.81239329278E+03  0.60530942614E+03 0.  0.
        4    1    3    3  502    0  0.62051705239E+01 -0.27394530802E+03 -0.98447511272E+02  0.29116672424E+03  0.12699999809E+01 0.  1.
       -4    1    3    3    0  502 -0.62051705239E+01  0.27394530802E+03 -0.44338582175E+03  0.52122656855E+03  0.12699999809E+01 0. -1.
</event>
<event>
 5   0  0.4987389E-02  0.6034738E+03  0.7818609E-02  0.9898225E-01
        1   -1    0    0  501    0  0.00000000000E+00  0.00000000000E+00  0.43785512556E+03  0.43785512559E+03  0.50400001928E-02 0. -1.
       -1   -1    0    0    0  501  0.00000000000E+00  0.00000000000E+00 -0.20793444619E+03  0.20793444625E+03  0.50400001928E-02 0.  1.
    10030    2    1    2    0    0  0.00000000000E+00  0.00000000000E+00  0.22992067937E+03  0.64578957184E+03  0.60347382072E+03 0.  0.
        1    1    3    3  502    0 -0.25578220336E+03  0.66587429747E+02 -0.40802795103E+02  0.26743838444E+03  0.50400001928E-02 0.  1.
       -1    1    3    3    0  502  0.25578220336E+03 -0.66587429747E+02  0.27072347447E+03  0.37835118740E+03  0.50400001928E-02 0. -1.
</event>
<event>
 5   0  0.5190380E-02  0.5710879E+03  0.7818609E-02  0.9967274E-01
        1   -1    0    0  501    0  0.00000000000E+00  0.00000000000E+00  0.20264700606E+03  0.20264700613E+03  0.50400001928E-02 0.  1.
       -1   -1    0    0    0  501  0.00000000000E+00  0.00000000000E+00 -0.40235155007E+03  0.40235155010E+03  0.50400001928E-02 0. -1.
    10030    2    1    2    0    0  0.00000000000E+00  0.00000000000E+00 -0.19970454401E+03  0.60499855623E+03  0.57108786377E+03 0.  0.
        5    1    3    3  502    0 -0.78161749648E+02  0.31173378914E+02 -0.38887490922E+03  0.39790303302E+03  0.46999998093E+01 0. -1.
       -5    1    3    3    0  502  0.78161749648E+02 -0.31173378914E+02  0.18917036522E+03  0.20709552321E+03  0.46999998093E+01 0.  1.
</event>
<event>
 5   0  0.8575590E-02  0.5838652E+03  0.7818609E-02  0.9939458E-01
        2   -1    0    0  501    0  0.00000000000E+00  0.00000000000E+00  0.98980020775E+03  0.98980020775E+03  0.25500000920E-02 0.  1.
       -2   -1    0    0    0  501  0.00000000000E+00  0.00000000000E+00 -0.86102877485E+02  0.86102877523E+02  0.25500000920E-02 0. -1.
    10030    2    1    2    0    0  0.00000000000E+00  0.00000000000E+00  0.90369733027E+03  0.10759030853E+04  0.58386521063E+03 0.  0.
        4    1    3    3  502    0  0.27062330734E+02 -0.10249616803E+03 -0.49376626387E+02  0.11695083727E+03  0.12699999809E+01 0. -1.
       -4    1    3    3    0  502 -0.27062330734E+02  0.10249616803E+03  0.95307395665E+03  0.95895224801E+03  0.12699999809E+01 0.  1.
</event>
<event>
 5   0  0.5190380E-02  0.6004215E+03  0.7818609E-02  0.9904532E-01
       -1   -1    0    0    0  501  0.00000000000E+00  0.00000000000E+00  0.11201749096E+03  0.11201749107E+03  0.50400001928E-02 0.  1.
        1   -1    0    0  501    0  0.00000000000E+00  0.00000000000E+00 -0.80457507994E+03  0.80457507996E+03  0.50400001928E-02 0. -1.
    10030    2    1    2    0    0  0.00000000000E+00  0.00000000000E+00 -0.69255758898E+03  0.91659257103E+03  0.60042145798E+03 0.  0.
        5    1    3    3  502    0  0.44392132398E+02  0.14527290326E+03  0.48954173203E+02  0.15966677460E+03  0.46999998093E+01 0.  1.
       -5    1    3    3    0  502 -0.44392132398E+02 -0.14527290326E+03 -0.74151176219E+03  0.75692579643E+03  0.46999998093E+01 0. -1.
</event>
<event>
 5   0  0.8575590E-02  0.6036142E+03  0.7818609E-02  0.9897936E-01
       -2   -1    0    0    0  501  0.00000000000E+00  0.00000000000E+00  0.16283088893E+03  0.16283088895E+03  0.25500000920E-02 0. -1.
        2   -1    0    0  501    0  0.00000000000E+00  0.00000000000E+00 -0.55939950398E+03  0.55939950399E+03  0.25500000920E-02 0.  1.
    10030    2    1    2    0    0  0.00000000000E+00  0.00000000000E+00 -0.39656861505E+03  0.72223039293E+03  0.60361417647E+03 0.  0.
        4    1    3    3  502    0 -0.19005294689E+02 -0.30053403929E+02  0.16031254602E+03  0.16421368282E+03  0.12699999809E+01 0. -1.
       -4    1    3    3    0  502  0.19005294689E+02  0.30053403929E+02 -0.55688116107E+03  0.55801671012E+03  0.12699999809E+01 0.  1.
</event>
<event>
 5   0  0.4987389E-02  0.6019907E+03  0.7818609E-02  0.9901285E-01
        1   -1    0    0  501    0  0.00000000000E+00  0.00000000000E+00  0.14452660165E+03  0.14452660174E+03  0.50400001928E-02 0. -1.
       -1   -1    0    0    0  501  0.00000000000E+00  0.00000000000E+00 -0.62686176147E+03  0.62686176149E+03  0.50400001928E-02 0.  1.
    10030    2    1    2    0    0  0.00000000000E+00  0.00000000000E+00 -0.48233515982E+03  0.77138836324E+03  0.60199069805E+03 0.  0.
        1    1    3    3  502    0  0.17101028657E+03 -0.23583208021E+01 -0.55855077860E+03  0.58414814224E+03  0.50400001928E-02 0.  1.
       -1    1    3    3    0  502 -0.17101028657E+03  0.23583208021E+01  0.76215618775E+02  0.18724022100E+03  0.50400001928E-02 0. -1.
</event>
<event>
 5   0  0.3437375E-02  0.5989233E+03  0.7818609E-02  0.9907642E-01
       -3   -1    0    0    0  501  0.00000000000E+00  0.00000000000E+00  0.27383993883E+03  0.27383995746E+03  0.10100000352E+00 0. -1.
        3   -1    0    0  501    0  0.00000000000E+00  0.00000000000E+00 -0.32748056024E+03  0.32748057582E+03  0.10100000352E+00 0.  1.
    10030    2    1    2    0    0  0.00000000000E+00  0.00000000000E+00 -0.53640621407E+02  0.60132053328E+03  0.59892325675E+03 0.  0.
        2    1    3    3  502    0  0.23044944478E+02  0.18764420703E+03  0.20635019574E+03  0.27986036015E+03  0.25500000920E-02 0. -1.
       -2    1    3    3    0  502 -0.23044944478E+02 -0.18764420703E+03 -0.25999081714E+03  0.32146017312E+03  0.25500000920E-02 0.  1.
</event>
<event>
 5   0  0.8207443E-02  0.6008264E+03  0.7818609E-02  0.9903693E-01
        2   -1    0    0  501    0  0.00000000000E+00  0.00000000000E+00  0.78748831379E+03  0.78748831379E+03  0.25500000920E-02 0.  1.
       -2   -1    0    0    0  501  0.00000000000E+00  0.00000000000E+00 -0.11460246361E+03  0.11460246363E+03  0.25500000920E-02 0. -1.
    10030    2    1    2    0    0  0.00000000000E+00  0.00000000000E+00  0.67288585019E+03  0.90209077743E+03  0.60082643362E+03 0.  0.
        1    1    3    3  502    0  0.19134583322E+03 -0.66409372301E+02  0.66955671389E+03  0.69952099737E+03  0.50400001928E-02 0.  1.
       -1    1    3    3    0  502 -0.19134583322E+03  0.66409372301E+02  0.33291362919E+01  0.20256978006E+03  0.50400001928E-02 0. -1.
</event>
<event>
 5   0  0.4987389E-02  0.5975339E+03  0.7818609E-02  0.9910536E-01
       -1   -1    0    0    0  501  0.00000000000E+00  0.00000000000E+00  0.18216193917E+03  0.18216193924E+03  0.50400001928E-02 0.  1.
        1   -1    0    0  501    0  0.00000000000E+00  0.00000000000E+00 -0.49001289890E+03  0.49001289893E+03  0.50400001928E-02 0. -1.
    10030    2    1    2    0    0  0.00000000000E+00  0.00000000000E+00 -0.30785095973E+03  0.67217483817E+03  0.59753393181E+03 0.  0.
        1    1    3    3  502    0  0.47491425572E+02  0.23340318522E+03 -0.35681353881E+03  0.42900860583E+03  0.50400001928E-02 0. -1.
       -1    1    3    3    0  502 -0.47491425572E+02 -0.23340318522E+03  0.48962579081E+02  0.24316623234E+03  0.50400001928E-02 0.  1.
</event>
<event>
 5   0  0.8420604E-02  0.5987884E+03  0.7818609E-02  0.9907923E-01
       -2   -1    0    0    0  501  0.00000000000E+00  0.00000000000E+00  0.74053324165E+03  0.74053324166E+03  0.25500000920E-02 0. -1.
        2   -1    0    0  501    0  0.00000000000E+00  0.00000000000E+00 -0.12104371619E+03  0.12104371621E+03  0.25500000920E-02 0.  1.
    10030    2    1    2    0    0  0.00000000000E+00  0.00000000000E+00  0.61948952547E+03  0.86157695787E+03  0.59878842855E+03 0.  0.
        2    1    3    3  502    0  0.65635027773E+01  0.24197204446E+03  0.56326050765E+03  0.61307091706E+03  0.25500000920E-02 0. -1.
       -2    1    3    3    0  502 -0.65635027773E+01 -0.24197204446E+03  0.56229017820E+02  0.24850604081E+03  0.25500000920E-02 0.  1.
</event>
<event>
 5   0  0.4987389E-02  0.6012722E+03  0.7818609E-02  0.9902770E-01
        1   -1    0    0  501    0  0.00000000000E+00  0.00000000000E+00  0.16461769114E+03  0.16461769121E+03  0.50400001928E-02 0. -1.
       -1   -1    0    0    0  501  0.00000000000E+00  0.00000000000E+00 -0.54904219990E+03  0.54904219993E+03  0.50400001928E-02 0.  1.
    10030    2    1    2    0    0  0.00000000000E+00  0.00000000000E+00 -0.38442450877E+03  0.71365989114E+03  0.60127218236E+03 0.  0.
        1    1    3    3  502    0  0.10255974008E+03  0.24732773927E+03 -0.35448830683E+03  0.44424258080E+03  0.50400001928E-02 0.  1.
       -1    1    3    3    0  502 -0.10255974008E+03 -0.24732773927E+03 -0.29936201942E+02  0.26941731034E+03  0.50400001928E-02 0. -1.
</event>
<event>
 5   0  0.4881209E-02  0.6141204E+03  0.7818609E-02  0.9876536E-01
        1   -1    0    0  501    0  0.00000000000E+00  0.00000000000E+00  0.13513499242E+04  0.13513499243E+04  0.50400001928E-02 0. -1.
       -1   -1    0    0    0  501  0.00000000000E+00  0.00000000000E+00 -0.69771679219E+02  0.69771679401E+02  0.50400001928E-02 0.  1.
    10030    2    1    2    0    0  0.00000000000E+00  0.00000000000E+00  0.12815782450E+04  0.14211216037E+04  0.61412035812E+03 0.  0.
        3    1    3    3  502    0 -0.30891522598E+02  0.27029749793E+03  0.97025805962E+03  0.10076783892E+04  0.10100000352E+00 0. -1.
       -3    1    3    3    0  502  0.30891522598E+02 -0.27029749793E+03  0.31132018540E+03  0.41344321448E+03  0.10100000352E+00 0.  1.
</event>
<event>
 5   0  0.4987389E-02  0.6085706E+03  0.7818609E-02  0.9887783E-01
       -1   -1    0    0    0  501  0.00000000000E+00  0.00000000000E+00  0.52484962186E+02  0.52484962428E+02  0.50400001928E-02 0. -1.
        1   -1    0    0  501    0  0.00000000000E+00  0.00000000000E+00 -0.17641155171E+04  0.17641155171E+04  0.50400001928E-02 0.  1.
    10030    2    1    2    0    0  0.00000000000E+00  0.00000000000E+00 -0.17116305549E+04  0.18166004795E+04  0.60857057579E+03 0.  0.
        1    1    3    3  502    0  0.29622904431E+03  0.69543579058E+02 -0.85206276791E+03  0.90476456416E+03  0.50400001928E-02 0. -1.
       -1    1    3    3    0  502 -0.29622904431E+03 -0.69543579058E+02 -0.85956778696E+03  0.91183591533E+03  0.50400001928E-02 0.  1.
</event>
<event>
 5   0  0.8817544E-02  0.6056701E+03  0.7818609E-02  0.9893712E-01
       -2   -1    0    0    0  501  0.00000000000E+00  0.00000000000E+00  0.54167504382E+03  0.54167504383E+03  0.25500000920E-02 0.  1.
        2   -1    0    0  501    0  0.00000000000E+00  0.00000000000E+00 -0.16930642821E+03  0.16930642823E+03  0.25500000920E-02 0. -1.
    10030    2    1    2    0    0  0.00000000000E+00  0.00000000000E+00  0.37236861561E+03  0.71098147206E+03  0.60567009809E+03 0.  0.
        5    1    3    3  502    0  0.29881001786E+03 -0.24955380747E+02  0.23566535389E+03  0.38140588200E+03  0.46999998093E+01 0.  1.
       -5    1    3    3    0  502 -0.29881001786E+03  0.24955380747E+02  0.13670326171E+03  0.32957559006E+03  0.46999998093E+01 0. -1.
</event>
<event>
 5   0  0.8699746E-02  0.6014608E+03  0.7818609E-02  0.9902380E-01
       -2   -1    0    0    0  501  0.00000000000E+00  0.00000000000E+00  0.94093248544E+03  0.94093248544E+03  0.25500000920E-02 0.  1.
        2   -1    0    0  501    0  0.00000000000E+00  0.00000000000E+00 -0.96116125193E+02  0.96116125227E+02  0.25500000920E-02 0. -1.
    10030    2    1    2    0    0  0.00000000000E+00  0.00000000000E+00  0.84481636025E+03  0.10370486107E+04  0.60146083692E+03 0.  0.
        3    1    3    3  502    0  0.21937092811E+03 -0.14058119759E+02  0.68554875396E+02  0.23026292792E+03  0.10100000352E+00 0. -1.
       -3    1    3    3    0  502 -0.21937092811E+03  0.14058119759E+02  0.77626148485E+03  0.80678568275E+03  0.10100000352E+00 0.  1.
</event>
<event>
 5   0  0.8207443E-02  0.5956650E+03  0.7818609E-02  0.9914441E-01
        2   -1    0    0  501    0  0.00000000000E+00  0.00000000000E+00  0.10289389249E+03  0.10289389252E+03  0.25500000920E-02 0.  1.
       -2   -1    0    0    0  501  0.00000000000E+00  0.00000000000E+00 -0.86209383516E+03  0.86209383516E+03  0.25500000920E-02 0. -1.
    10030    2    1    2    0    0  0.00000000000E+00  0.00000000000E+00 -0.75919994267E+03  0.96498772768E+03  0.59566497432E+03 0.  0.
        1    1    3    3  502    0 -0.11639358795E+03  0.78463061927E+02  0.45944668440E+02  0.14769844951E+03  0.50400001928E-02 0.  1.
       -1    1    3    3    0  502  0.11639358795E+03 -0.78463061927E+02 -0.80514461111E+03  0.81728927818E+03  0.50400001928E-02 0. -1.
</event>
<event>
 5   0  0.5166903E-02  0.5928380E+03  0.7818609E-02  0.9920377E-01
       -1   -1    0    0    0  501  0.00000000000E+00  0.00000000000E+00  0.15615912974E+03  0.15615912982E+03  0.50400001928E-02 0.  1.
        1   -1    0    0  501    0  0.00000000000E+00  0.00000000000E+00 -0.56265819804E+03  0.56265819806E+03  0.50400001928E-02 0. -1.
    10030    2    1    2    0    0  0.00000000000E+00  0.00000000000E+00 -0.40649906830E+03  0.71881732789E+03  0.59283796972E+03 0.  0.
        2    1    3    3  502    0 -0.83287501077E+02  0.19530998050E+03 -0.45403947637E+03  0.50123312184E+03  0.25500000920E-02 0. -1.
       -2    1    3    3    0  502  0.83287501077E+02 -0.19530998050E+03  0.47540408073E+02  0.21758420605E+03  0.25500000920E-02 0.  1.
</event>
<event>
 5   0  0.4987389E-02  0.6016288E+03  0.7818609E-02  0.9902033E-01
        1   -1    0    0  501    0  0.00000000000E+00  0.00000000000E+00  0.32246984899E+03  0.32246984903E+03  0.50400001928E-02 0.  1.
       -1   -1    0    0    0  501  0.00000000000E+00  0.00000000000E+00 -0.28061318155E+03  0.28061318160E+03  0.50400001928E-02 0. -1.
    10030    2    1    2    0    0  0.00000000000E+00  0.00000000000E+00  0.41856667440E+02  0.60308303063E+03  0.60162875698E+03 0.  0.
        1    1    3    3  502    0  0.10606411809E+03 -0.12127790480E+03  0.27557262285E+03  0.31921497118E+03  0.50400001928E-02 0.  1.
       -1    1    3    3    0  502 -0.10606411809E+03  0.12127790480E+03 -0.23371595541E+03  0.28386805945E+03  0.50400001928E-02 0. -1.
</event>
<event>
 5   0  0.8817544E-02  0.5994695E+03  0.7818609E-02  0.9906507E-01
       -2   -1    0    0    0  501  0.00000000000E+00  0.00000000000E+00  0.85071474272E+02  0.85071474311E+02  0.25500000920E-02 0. -1.
        2   -1    0    0  501    0  0.00000000000E+00  0.00000000000E+00 -0.10560640836E+04  0.10560640836E+04  0.25500000920E-02 0.  1.
    10030    2    1    2    0    0  0.00000000000E+00  0.00000000000E+00 -0.97099260928E+03  0.11411355579E+04  0.59946952729E+03 0.  0.
        5    1    3    3  502    0  0.18281486358E+03 -0.63530146761E+02 -0.92108450095E+03  0.94120991378E+03  0.46999998093E+01 0.  1.
       -5    1    3    3    0  502 -0.18281486358E+03  0.63530146761E+02 -0.49908108330E+02  0.19992564410E+03  0.46999998093E+01 0. -1.
</event>
<event>
 5   0  0.4881209E-02  0.5945953E+03  0.7818609E-02  0.9916683E-01
       -1   -1    0    0    0  501  0.00000000000E+00  0.00000000000E+00  0.80055375454E+02  0.80055375613E+02  0.50400001928E-02 0. -1.
        1   -1    0    0  501    0  0.00000000000E+00  0.00000000000E+00 -0.11040594790E+04  0.11040594790E+04  0.50400001928E-02 0.  1.
    10030    2    1    2    0    0  0.00000000000E+00  0.00000000000E+00 -0.10240041035E+04  0.11841148546E+04  0.59459531183E+03 0.  0.
        3    1    3    3  502    0  0.26754744730E+03 -0.12476289305E+03 -0.58208543989E+03  0.65266445098E+03  0.10100000352E+00 0. -1.
       -3    1    3    3    0  502 -0.26754744730E+03  0.12476289305E+03 -0.44191866362E+03  0.53145040360E+03  0.10100000352E+00 0.  1.
</event>
<event>
 5   0  0.5125031E-02  0.5992570E+03  0.7818609E-02  0.9906949E-01
        1   -1    0    0  501    0  0.00000000000E+00  0.00000000000E+00  0.20583692912E+03  0.20583692918E+03  0.50400001928E-02 0. -1.
       -1   -1    0    0    0  501  0.00000000000E+00  0.00000000000E+00 -0.43615713318E+03  0.43615713320E+03  0.50400001928E-02 0.  1.
    10030    2    1    2    0    0  0.00000000000E+00  0.00000000000E+00 -0.23032020406E+03  0.64199406238E+03  0.59925702310E+03 0.  0.
        4    1    3    3  502    0 -0.23654224274E+03 -0.23712808441E+02  0.80222638494E+02  0.25090200181E+03  0.12699999809E+01 0. -1.
       -4    1    3    3    0  502  0.23654224274E+03  0.23712808441E+02 -0.31054284255E+03  0.39109206058E+03  0.12699999809E+01 0.  1.
</event>
<event>
 5   0  0.8817544E-02  0.6046746E+03  0.7818609E-02  0.9895755E-01
        2   -1    0    0  501    0  0.00000000000E+00  0.00000000000E+00  0.62735020895E+03  0.62735020895E+03  0.25500000920E-02 0. -1.
       -2   -1    0    0    0  501  0.00000000000E+00  0.00000000000E+00 -0.14570463423E+03  0.14570463426E+03  0.25500000920E-02 0.  1.
    10030    2    1    2    0    0  0.00000000000E+00  0.00000000000E+00  0.48164557472E+03  0.77305484321E+03  0.60467456616E+03 0.  0.
        5    1    3    3  502    0  0.86618627083E+02 -0.28400158241E+03  0.31343750400E+03  0.43176943417E+03  0.46999998093E+01 0.  1.
       -5    1    3    3    0  502 -0.86618627083E+02  0.28400158241E+03  0.16820807072E+03  0.34128540904E+03  0.46999998093E+01 0. -1.
</event>
<event>
 5   0  0.5190380E-02  0.6057070E+03  0.7818609E-02  0.9893636E-01
       -1   -1    0    0    0  501  0.00000000000E+00  0.00000000000E+00  0.11832865653E+03  0.11832865664E+03  0.50400001928E-02 0. -1.
        1   -1    0    0  501    0  0.00000000000E+00  0.00000000000E+00 -0.77513122474E+03  0.77513122475E+03  0.50400001928E-02 0.  1.
    10030    2    1    2    0    0  0.00000000000E+00  0.00000000000E+00 -0.65680256820E+03  0.89345988139E+03  0.60570698036E+03 0.  0.
        5    1    3    3  502    0  0.35235922175E+02  0.30998605443E+02  0.11287793099E+03  0.12233560828E+03  0.46999998093E+01 0. -1.
       -5    1    3    3    0  502 -0.35235922175E+02 -0.30998605443E+02 -0.76968049919E+03  0.77112427311E+03  0.46999998093E+01 0.  1.
</event>
<event>
 5   0  0.8817544E-02  0.6029392E+03  0.7818609E-02  0.9899327E-01
       -2   -1    0    0    0  501  0.00000000000E+00  0.00000000000E+00  0.39839691047E+03  0.39839691048E+03  0.25500000920E-02 0.  1.
        2   -1    0    0  501    0  0.00000000000E+00  0.00000000000E+00 -0.22812408382E+03  0.22812408384E+03  0.25500000920E-02 0. -1.
    10030    2    1    2    0    0  0.00000000000E+00  0.00000000000E+00  0.17027282664E+03  0.62652099431E+03  0.60293923477E+03 0.  0.
        5    1    3    3  502    0 -0.79201205217E+02 -0.15407706645E+03 -0.17118787380E+03  0.24359792990E+03  0.46999998093E+01 0. -1.
       -5    1    3    3    0  502  0.79201205217E+02  0.15407706645E+03  0.34146070045E+03  0.38292306442E+03  0.46999998093E+01 0.  1.
</event>
<event>
 5   0  0.8575590E-02  0.6474981E+03  0.7818609E-02  0.9811485E-01
        2   -1    0    0  501    0  0.00000000000E+00  0.00000000000E+00  0.16982305360E+04  0.16982305360E+04  0.25500000920E-02 0. -1.
       -2   -1    0    0    0  501  0.00000000000E+00  0.00000000000E+00 -0.61719205250E+02  0.61719205302E+02  0.25500000920E-02 0.  1.
    10030    2    1    2    0    0  0.00000000000E+00  0.00000000000E+00  0.16365113307E+04  0.17599497413E+04  0.64749807431E+03 0.  0.
        4    1    3    3  502    0  0.28013623375E+03  0.26607359678E+02  0.38312924139E+03  0.47536711030E+03  0.12699999809E+01 0.  1.
       -4    1    3    3    0  502 -0.28013623375E+03 -0.26607359678E+02  0.12533820893E+04  0.12845826310E+04  0.12699999809E+01 0. -1.
</event>
<event>
 5   0  0.8207443E-02  0.5924142E+03  0.7818609E-02  0.9921270E-01
       -2   -1    0    0    0  501  0.00000000000E+00  0.00000000000E+00  0.58768962293E+02  0.58768962348E+02  0.25500000920E-02 0. -1.
        2   -1    0    0  501    0  0.00000000000E+00  0.00000000000E+00 -0.14929416879E+04  0.14929416879E+04  0.25500000920E-02 0.  1.
    10030    2    1    2    0    0  0.00000000000E+00  0.00000000000E+00 -0.14341727256E+04  0.15517106502E+04  0.59241415853E+03 0.  0.
        1    1    3    3  502    0 -0.23081629688E+03 -0.61086813920E+02 -0.11762555677E+04  0.12002436929E+04  0.50400001928E-02 0.  1.
       -1    1    3    3    0  502  0.23081629688E+03  0.61086813920E+02 -0.25791715784E+03  0.35146695730E+03  0.50400001928E-02 0. -1.
</event>
<event>
 5   0  0.8207443E-02  0.6027786E+03  0.7818609E-02  0.9899658E-01
        2   -1    0    0  501    0  0.00000000000E+00  0.00000000000E+00  0.23477979031E+03  0.23477979032E+03  0.25500000920E-02 0.  1.
       -2   -1    0    0    0  501  0.00000000000E+00  0.00000000000E+00 -0.38689664139E+03  0.38689664140E+03  0.25500000920E-02 0. -1.
    10030    2    1    2    0    0  0.00000000000E+00  0.00000000000E+00 -0.15211685108E+03  0.62167643173E+03  0.60277860727E+03 0.  0.
        1    1    3    3  502    0  0.29239636209E+03  0.33071140093E+02 -0.14326406916E+03  0.32728263994E+03  0.50400001928E-02 0.  1.
       -1    1    3    3    0  502 -0.29239636209E+03 -0.33071140093E+02 -0.88527819263E+01  0.29439379179E+03  0.50400001928E-02 0. -1.
</event>
<event>
 5   0  0.3437375E-02  0.5228101E+03  0.7818609E-02  0.1007991E+00
        3   -1    0    0  501    0  0.00000000000E+00  0.00000000000E+00  0.91712697840E+02  0.91712753454E+02  0.10100000352E+00 0.  1.
       -3   -1    0    0    0  501  0.00000000000E+00  0.00000000000E+00 -0.74507204228E+03  0.74507204912E+03  0.10100000352E+00 0. -1.
    10030    2    1    2    0    0  0.00000000000E+00  0.00000000000E+00 -0.65335934444E+03  0.83678480258E+03  0.52281007341E+03 0.  0.
        1    1    3    3  502    0 -0.24496247641E+03  0.89836760996E+02 -0.30110413472E+03  0.39842308975E+03  0.50400001928E-02 0. -1.
       -1    1    3    3    0  502  0.24496247641E+03 -0.89836760996E+02 -0.35225520972E+03  0.43836171283E+03  0.50400001928E-02 0.  1.
</event>
<event>
 5   0  0.5166903E-02  0.5925701E+03  0.7818609E-02  0.9920942E-01
        1   -1    0    0  501    0  0.00000000000E+00  0.00000000000E+00  0.93973477959E+03  0.93973477961E+03  0.50400001928E-02 0. -1.
       -1   -1    0    0    0  501  0.00000000000E+00  0.00000000000E+00 -0.93414484991E+02  0.93414485127E+02  0.50400001928E-02 0.  1.
    10030    2    1    2    0    0  0.00000000000E+00  0.00000000000E+00  0.84632029460E+03  0.10331492647E+04  0.59257013270E+03 0.  0.
        2    1    3    3  502    0 -0.23664531232E+03 -0.17770830216E+03  0.44803771797E+03  0.53695348144E+03  0.25500000920E-02 0.  1.
       -2    1    3    3    0  502  0.23664531232E+03  0.17770830216E+03  0.39828257664E+03  0.49619578330E+03  0.25500000920E-02 0. -1.
</event>
<event>
 5   0  0.8207443E-02  0.5955556E+03  0.7818609E-02  0.9914670E-01
       -2   -1    0    0    0  501  0.00000000000E+00  0.00000000000E+00  0.32312316668E+03  0.32312316669E+03  0.25500000920E-02 0.  1.
        2   -1    0    0  501    0  0.00000000000E+00  0.00000000000E+00 -0.27442051943E+03  0.27442051944E+03  0.25500000920E-02 0. -1.
    10030    2    1    2    0    0  0.00000000000E+00  0.00000000000E+00  0.48702647253E+02  0.59754368613E+03  0.59555563047E+03 0.  0.
        1    1    3    3  502    0 -0.76128091841E+02  0.77065992306E+02 -0.25394974671E+03  0.27608898460E+03  0.50400001928E-02 0. -1.
       -1    1    3    3    0  502  0.76128091841E+02 -0.77065992306E+02  0.30265239396E+03  0.32145470153E+03  0.50400001928E-02 0.  1.
</event>
<event>
 5   0  0.5190380E-02  0.6020338E+03  0.7818609E-02  0.9901196E-01
       -1   -1    0    0    0  501  0.00000000000E+00  0.00000000000E+00  0.48321248156E+02  0.48321248418E+02  0.50400001928E-02 0.  1.
        1   -1    0    0  501    0  0.00000000000E+00  0.00000000000E+00 -0.18751825635E+04  0.18751825635E+04  0.50400001928E-02 0. -1.
    10030    2    1    2    0    0  0.00000000000E+00  0.00000000000E+00 -0.18268613153E+04  0.19235038119E+04  0.60203376067E+03 0.  0.
        5    1    3    3  502    0  0.67051848100E+02 -0.12540448137E+03 -0.17609628886E+04  0.17667016215E+04  0.46999998093E+01 0. -1.
       -5    1    3    3    0  502 -0.67051848100E+02  0.12540448137E+03 -0.65898426714E+02  0.15680219042E+03  0.46999998093E+01 0.  1.
</event>
<event>
 5   0  0.4881209E-02  0.5991479E+03  0.7818609E-02  0.9907175E-01
        1   -1    0    0  501    0  0.00000000000E+00  0.00000000000E+00  0.12498799021E+04  0.12498799021E+04  0.50400001928E-02 0. -1.
       -1   -1    0    0    0  501  0.00000000000E+00  0.00000000000E+00 -0.71802541924E+02  0.71802542101E+02  0.50400001928E-02 0.  1.
    10030    2    1    2    0    0  0.00000000000E+00  0.00000000000E+00  0.11780773602E+04  0.13216824442E+04  0.59914790893E+03 0.  0.
        3    1    3    3  502    0  0.24421872611E+03  0.17217086350E+03  0.63629680694E+03  0.70296460021E+03  0.10100000352E+00 0. -1.
       -3    1    3    3    0  502 -0.24421872611E+03 -0.17217086350E+03  0.54178055321E+03  0.61871784398E+03  0.10100000352E+00 0.  1.
</event>
<event>
 5   0  0.8575590E-02  0.5750964E+03  0.7818609E-02  0.9958464E-01
        2   -1    0    0  501    0  0.00000000000E+00  0.00000000000E+00  0.69998013769E+03  0.69998013769E+03  0.25500000920E-02 0.  1.
       -2   -1    0    0    0  501  0.00000000000E+00  0.00000000000E+00 -0.11812331536E+03  0.11812331538E+03  0.25500000920E-02 0. -1.
    10030    2    1    2    0    0  0.00000000000E+00  0.00000000000E+00  0.58185682233E+03  0.81810345307E+03  0.57509642516E+03 0.  0.
        4    1    3    3  502    0  0.17044065220E+03 -0.17118640588E+03  0.51280773591E+03  0.56685817308E+03  0.12699999809E+01 0.  1.
       -4    1    3    3    0  502 -0.17044065220E+03  0.17118640588E+03  0.69049086421E+02  0.25124527999E+03  0.12699999809E+01 0. -1.
</event>
<event>
 5   0  0.5125031E-02  0.5932257E+03  0.7818609E-02  0.9919561E-01
        1   -1    0    0  501    0  0.00000000000E+00  0.00000000000E+00  0.46728651708E+03  0.46728651711E+03  0.50400001928E-02 0.  1.
       -1   -1    0    0    0  501  0.00000000000E+00  0.00000000000E+00 -0.18827671311E+03  0.18827671318E+03  0.50400001928E-02 0. -1.
    10030    2    1    2    0    0  0.00000000000E+00  0.00000000000E+00  0.27900980397E+03  0.65556323029E+03  0.59322565538E+03 0.  0.
        4    1    3    3  502    0 -0.22588846097E+03  0.10356425250E+03 -0.39458426001E+02  0.25161425134E+03  0.12699999809E+01 0. -1.
       -4    1    3    3    0  502  0.22588846097E+03 -0.10356425250E+03  0.31846822997E+03  0.40394897895E+03  0.12699999809E+01 0.  1.
</event>
<event>
 5   0  0.8699746E-02  0.4607020E+03  0.7818609E-02  0.1024578E+00
       -2   -1    0    0    0  501  0.00000000000E+00  0.00000000000E+00  0.10605654354E+03  0.10605654357E+03  0.25500000920E-02 0. -1.
        2   -1    0    0  501    0  0.00000000000E+00  0.00000000000E+00 -0.50031414579E+03  0.50031414579E+03  0.25500000920E-02 0.  1.
    10030    2    1    2    0    0  0.00000000000E+00  0.00000000000E+00 -0.39425760224E+03  0.60637068937E+03  0.46070202517E+03 0.  0.
        3    1    3    3  502    0 -0.99144511584E+02 -0.19918983812E+03 -0.27560888222E+03  0.35421249547E+03  0.10100000352E+00 0.  1.
       -3    1    3    3    0  502  0.99144511584E+02  0.19918983812E+03 -0.11864872002E+03  0.25215819390E+03  0.10100000352E+00 0. -1.
</event>
<event>
 5   0  0.8699746E-02  0.5962994E+03  0.7818609E-02  0.9913114E-01
        2   -1    0    0  501    0  0.00000000000E+00  0.00000000000E+00  0.52107050084E+03  0.52107050084E+03  0.25500000920E-02 0.  1.
       -2   -1    0    0    0  501  0.00000000000E+00  0.00000000000E+00 -0.17059732431E+03  0.17059732433E+03  0.25500000920E-02 0. -1.
    10030    2    1    2    0    0  0.00000000000E+00  0.00000000000E+00  0.35047317653E+03  0.69166782517E+03  0.59629936517E+03 0.  0.
        3    1    3    3  502    0  0.20479615164E+03 -0.18804361994E+03  0.50354441871E+02  0.28255521008E+03  0.10100000352E+00 0. -1.
       -3    1    3    3    0  502 -0.20479615164E+03  0.18804361994E+03  0.30011873466E+03  0.40911261508E+03  0.10100000352E+00 0.  1.
</event>
<event>
 5   0  0.8699746E-02  0.5987546E+03  0.7818609E-02  0.9907993E-01
       -2   -1    0    0    0  501  0.00000000000E+00  0.00000000000E+00  0.22443269447E+03  0.22443269448E+03  0.25500000920E-02 0.  1.
        2   -1    0    0  501    0  0.00000000000E+00  0.00000000000E+00 -0.39934811792E+03  0.39934811793E+03  0.25500000920E-02 0. -1.
    10030    2    1    2    0    0  0.00000000000E+00  0.00000000000E+00 -0.17491542345E+03  0.62378081241E+03  0.59875462133E+03 0.  0.
        3    1    3    3  502    0  0.14354258036E+03 -0.93085269341E+02  0.16848836807E+03  0.24012013684E+03  0.10100000352E+00 0.  1.
       -3    1    3    3    0  502 -0.14354258036E+03  0.93085269341E+02 -0.34340379152E+03  0.38366067556E+03  0.10100000352E+00 0. -1.
</event>
<event>
 5   0  0.5166903E-02  0.6000500E+03  0.7818609E-02  0.9905302E-01
       -1   -1    0    0    0  501  0.00000000000E+00  0.00000000000E+00  0.14182077682E+03  0.14182077691E+03  0.50400001928E-02 0. -1.
        1   -1    0    0  501    0  0.00000000000E+00  0.00000000000E+00 -0.63470962914E+03  0.63470962916E+03  0.50400001928E-02 0.  1.
    10030    2    1    2    0    0  0.00000000000E+00  0.00000000000E+00 -0.49288885232E+03  0.77653040607E+03  0.60005004025E+03 0.  0.
        2    1    3    3  502    0  0.83542601807E+01 -0.22192977994E+03 -0.50749677508E+03  0.55396353455E+03  0.25500000920E-02 0.  1.
       -2    1    3    3    0  502 -0.83542601807E+01  0.22192977994E+03  0.14607922757E+02  0.22256687152E+03  0.25500000920E-02 0. -1.
</event>
<event>
 5   0  0.8817544E-02  0.5958057E+03  0.7818609E-02  0.9914146E-01
       -2   -1    0    0    0  501  0.00000000000E+00  0.00000000000E+00  0.58876305852E+02  0.58876305907E+02  0.25500000920E-02 0.  1.
        2   -1    0    0  501    0  0.00000000000E+00  0.00000000000E+00 -0.15073314749E+04  0.15073314749E+04  0.25500000920E-02 0. -1.
    10030    2    1    2    0    0  0.00000000000E+00  0.00000000000E+00 -0.14484551690E+04  0.15662077808E+04  0.59580570316E+03 0.  0.
        5    1    3    3  502    0 -0.48427953938E+02 -0.65129527962E+02 -0.14776072026E+04  0.14798419704E+04  0.46999998093E+01 0. -1.
       -5    1    3    3    0  502  0.48427953938E+02  0.65129527962E+02  0.29152033625E+02  0.86365810353E+02  0.46999998093E+01 0.  1.
</event>
<event>
 5   0  0.8817544E-02  0.6012097E+03  0.7818609E-02  0.9902900E-01
        2   -1    0    0  501    0  0.00000000000E+00  0.00000000000E+00  0.23451383836E+04  0.23451383836E+04  0.25500000920E-02 0.  1.
       -2   -1    0    0    0  501  0.00000000000E+00  0.00000000000E+00 -0.38532166733E+02  0.38532166817E+02  0.25500000920E-02 0. -1.
    10030    2    1    2    0    0  0.00000000000E+00  0.00000000000E+00  0.23066062168E+04  0.23836705504E+04  0.60120965830E+03 0.  0.
        5    1    3    3  502    0 -0.28368145127E+03  0.54934780084E+02  0.82520193407E+03  0.87434164824E+03  0.46999998093E+01 0. -1.
       -5    1    3    3    0  502  0.28368145127E+03 -0.54934780084E+02  0.14814042828E+04  0.15093289021E+04  0.46999998093E+01 0.  1.
</event>
<event>
 5   0  0.8575590E-02  0.5798950E+03  0.7818609E-02  0.9948018E-01
       -2   -1    0    0    0  501  0.00000000000E+00  0.00000000000E+00  0.10031307065E+03  0.10031307069E+03  0.25500000920E-02 0. -1.
        2   -1    0    0  501    0  0.00000000000E+00  0.00000000000E+00 -0.83807173170E+03  0.83807173170E+03  0.25500000920E-02 0.  1.
    10030    2    1    2    0    0  0.00000000000E+00  0.00000000000E+00 -0.73775866104E+03  0.93838480239E+03  0.57989498653E+03 0.  0.
        4    1    3    3  502    0 -0.19726389294E+03 -0.20746927475E+03 -0.29452331632E+03  0.41073366088E+03  0.12699999809E+01 0.  1.
       -4    1    3    3    0  502  0.19726389294E+03  0.20746927475E+03 -0.44323534472E+03  0.52765114151E+03  0.12699999809E+01 0. -1.
</event>
<event>
 5   0  0.8575590E-02  0.6030077E+03  0.7818609E-02  0.9899186E-01
       -2   -1    0    0    0  501  0.00000000000E+00  0.00000000000E+00  0.14839314124E+03  0.14839314126E+03  0.25500000920E-02 0. -1.
        2   -1    0    0  501    0  0.00000000000E+00  0.00000000000E+00 -0.61259279314E+03  0.61259279315E+03  0.25500000920E-02 0.  1.
    10030    2    1    2    0    0  0.00000000000E+00  0.00000000000E+00 -0.46419965190E+03  0.76098593441E+03  0.60300769111E+03 0.  0.
        4    1    3    3  502    0 -0.23661138165E+03  0.47242658021E+02 -0.39418763730E+01  0.24131714807E+03  0.12699999809E+01 0. -1.
       -4    1    3    3    0  502  0.23661138165E+03 -0.47242658021E+02 -0.46025777553E+03  0.51966878634E+03  0.12699999809E+01 0.  1.
</event>
<event>
 5   0  0.5166903E-02  0.6058864E+03  0.7818609E-02  0.9893268E-01
       -1   -1    0    0    0  501  0.00000000000E+00  0.00000000000E+00  0.13329910825E+03  0.13329910835E+03  0.50400001928E-02 0.  1.
        1   -1    0    0  501    0  0.00000000000E+00  0.00000000000E+00 -0.68848609514E+03  0.68848609515E+03  0.50400001928E-02 0. -1.
    10030    2    1    2    0    0  0.00000000000E+00  0.00000000000E+00 -0.55518698689E+03  0.82178520350E+03  0.60588640048E+03 0.  0.
        2    1    3    3  502    0  0.24885145512E+03 -0.15443117463E+03 -0.38264207373E+03  0.48186200412E+03  0.25500000920E-02 0. -1.
       -2    1    3    3    0  502 -0.24885145512E+03  0.15443117463E+03 -0.17254491316E+03  0.33992319938E+03  0.25500000920E-02 0.  1.
</event>
<event>
 5   0  0.8699746E-02  0.5881955E+03  0.7818609E-02  0.9930204E-01
        2   -1    0    0  501    0  0.00000000000E+00  0.00000000000E+00  0.56250148603E+03  0.56250148604E+03  0.25500000920E-02 0.  1.
       -2   -1    0    0    0  501  0.00000000000E+00  0.00000000000E+00 -0.15376577393E+03  0.15376577395E+03  0.25500000920E-02 0. -1.
    10030    2    1    2    0    0  0.00000000000E+00  0.00000000000E+00  0.40873571210E+03  0.71626725999E+03  0.58819546529E+03 0.  0.
        3    1    3    3  502    0 -0.23217856225E+02  0.20626789454E+03  0.45807814585E+03  0.50291262767E+03  0.10100000352E+00 0.  1.
       -3    1    3    3    0  502  0.23217856225E+02 -0.20626789454E+03 -0.49342433746E+02  0.21335463232E+03  0.10100000352E+00 0. -1.
</event>
<event>
 5   0  0.5125031E-02  0.6264135E+03  0.7818609E-02  0.9852073E-01
       -1   -1    0    0    0  501  0.00000000000E+00  0.00000000000E+00  0.96181486799E+03  0.96181486800E+03  0.50400001928E-02 0.  1.
        1   -1    0    0  501    0  0.00000000000E+00  0.00000000000E+00 -0.10199310149E+03  0.10199310161E+03  0.50400001928E-02 0. -1.
    10030    2    1    2    0    0  0.00000000000E+00  0.00000000000E+00  0.85982176650E+03  0.10638079696E+04  0.62641354238E+03 0.  0.
        4    1    3    3  502    0  0.10596336295E+03 -0.15530181940E+03  0.85532205877E+03  0.87574215755E+03  0.12699999809E+01 0.  1.
       -4    1    3    3    0  502 -0.10596336295E+03  0.15530181940E+03  0.44997077269E+01  0.18806581206E+03  0.12699999809E+01 0. -1.
</event>
<event>
 5   0  0.8207443E-02  0.6224633E+03  0.7818609E-02  0.9859867E-01
       -2   -1    0    0    0  501  0.00000000000E+00  0.00000000000E+00  0.51404954280E+02  0.51404954343E+02  0.25500000920E-02 0.  1.
        2   -1    0    0  501    0  0.00000000000E+00  0.00000000000E+00 -0.18843543871E+04  0.18843543871E+04  0.25500000920E-02 0. -1.
    10030    2    1    2    0    0  0.00000000000E+00  0.00000000000E+00 -0.18329494328E+04  0.19357593415E+04  0.62246333604E+03 0.  0.
        1    1    3    3  502    0 -0.18061570145E+03 -0.94216360422E+02 -0.18472810683E+03  0.27499677755E+03  0.50400001928E-02 0.  1.
       -1    1    3    3    0  502  0.18061570145E+03  0.94216360422E+02 -0.16482213260E+04  0.16607625639E+04  0.50400001928E-02 0. -1.
</event>
<event>
 5   0  0.8420604E-02  0.6253294E+03  0.7818609E-02  0.9854206E-01
       -2   -1    0    0    0  501  0.00000000000E+00  0.00000000000E+00  0.12159373935E+03  0.12159373937E+03  0.25500000920E-02 0.  1.
        2   -1    0    0  501    0  0.00000000000E+00  0.00000000000E+00 -0.80398228479E+03  0.80398228479E+03  0.25500000920E-02 0. -1.
    10030    2    1    2    0    0  0.00000000000E+00  0.00000000000E+00 -0.68238854544E+03  0.92557602416E+03  0.62532939285E+03 0.  0.
        2    1    3    3  502    0 -0.26255624951E+03  0.15427877193E+03 -0.23630779503E+03  0.38545959272E+03  0.25500000920E-02 0.  1.
       -2    1    3    3    0  502  0.26255624951E+03 -0.15427877193E+03 -0.44608075041E+03  0.54011643144E+03  0.25500000920E-02 0. -1.
</event>
<event>
 5   0  0.5125031E-02  0.5945863E+03  0.7818609E-02  0.9916702E-01
        1   -1    0    0  501    0  0.00000000000E+00  0.00000000000E+00  0.50824478052E+03  0.50824478055E+03  0.50400001928E-02 0. -1.
       -1   -1    0    0    0  501  0.00000000000E+00  0.00000000000E+00 -0.17389891484E+03  0.17389891491E+03  0.50400001928E-02 0.  1.
    10030    2    1    2    0    0  0.00000000000E+00  0.00000000000E+00  0.33434586568E+03  0.68214369546E+03  0.59458629597E+03 0.  0.
        4    1    3    3  502    0  0.86837197092E+02  0.15623236939E+03  0.43970966590E+03  0.47465298401E+03  0.12699999809E+01 0. -1.
       -4    1    3    3    0  502 -0.86837197092E+02 -0.15623236939E+03 -0.10536380021E+03  0.20749071145E+03  0.12699999809E+01 0.  1.
</event>
<event>
 5   0  0.5166903E-02  0.6151188E+03  0.7818609E-02  0.9874526E-01
       -1   -1    0    0    0  501  0.00000000000E+00  0.00000000000E+00  0.35262846059E+03  0.35262846062E+03  0.50400001928E-02 0.  1.
        1   -1    0    0  501    0  0.00000000000E+00  0.00000000000E+00 -0.26825059622E+03  0.26825059627E+03  0.50400001928E-02 0. -1.
    10030    2    1    2    0    0  0.00000000000E+00  0.00000000000E+00  0.84377864368E+02  0.62087905689E+03  0.61511883347E+03 0.  0.
        2    1    3    3  502    0 -0.91558702583E+02 -0.15700407108E+03 -0.20824640002E+03  0.27640520524E+03  0.25500000920E-02 0. -1.
       -2    1    3    3    0  502  0.91558702583E+02  0.15700407108E+03  0.29262426439E+03  0.34447385165E+03  0.25500000920E-02 0.  1.
</event>
<event>
 5   0  0.8575590E-02  0.5951212E+03  0.7818609E-02  0.9915580E-01
       -2   -1    0    0    0  501  0.00000000000E+00  0.00000000000E+00  0.17310286071E+03  0.17310286072E+03  0.25500000920E-02 0.  1.
        2   -1    0    0  501    0  0.00000000000E+00  0.00000000000E+00 -0.51150121866E+03  0.51150121867E+03  0.25500000920E-02 0. -1.
    10030    2    1    2    0    0  0.00000000000E+00  0.00000000000E+00 -0.33839835796E+03  0.68460407939E+03  0.59512124551E+03 0.  0.
        4    1    3    3  502    0 -0.15127282905E+03  0.10140255305E+03  0.10150189270E+03  0.20849506876E+03  0.12699999809E+01 0.  1.
       -4    1    3    3    0  502  0.15127282905E+03 -0.10140255305E+03 -0.43990025066E+03  0.47610901063E+03  0.12699999809E+01 0. -1.
</event>
<event>
 5   0  0.8575590E-02  0.6050419E+03  0.7818609E-02  0.9895001E-01
        2   -1    0    0  501    0  0.00000000000E+00  0.00000000000E+00  0.56338803714E+03  0.56338803715E+03  0.25500000920E-02 0. -1.
       -2   -1    0    0    0  501  0.00000000000E+00  0.00000000000E+00 -0.16244384893E+03  0.16244384895E+03  0.25500000920E-02 0.  1.
    10030    2    1    2    0    0  0.00000000000E+00  0.00000000000E+00  0.40094418821E+03  0.72583188610E+03  0.60504188683E+03 0.  0.
        4    1    3    3  502    0  0.12800197669E+03 -0.14124808997E+03  0.48227693642E+03  0.51858286248E+03  0.12699999809E+01 0. -1.
       -4    1    3    3    0  502 -0.12800197669E+03  0.14124808997E+03 -0.81332748210E+02  0.20724902361E+03  0.12699999809E+01 0.  1.
</event>
<event>
 5   0  0.5125031E-02  0.5956041E+03  0.7818609E-02  0.9914568E-01
        1   -1    0    0  501    0  0.00000000000E+00  0.00000000000E+00  0.85562273332E+03  0.85562273333E+03  0.50400001928E-02 0.  1.
       -1   -1    0    0    0  501  0.00000000000E+00  0.00000000000E+00 -0.10365089676E+03  0.10365089688E+03  0.50400001928E-02 0. -1.
    10030    2    1    2    0    0  0.00000000000E+00  0.00000000000E+00  0.75197183656E+03  0.95927363022E+03  0.59560410900E+03 0.  0.
        4    1    3    3  502    0 -0.27141783051E+03 -0.53578353879E+02  0.55348844316E+03  0.61878053326E+03  0.12699999809E+01 0.  1.
       -4    1    3    3    0  502  0.27141783051E+03  0.53578353879E+02  0.19848339339E+03  0.34049309696E+03  0.12699999809E+01 0. -1.
</event>
<event>
 5   0  0.5166903E-02  0.6036574E+03  0.7818609E-02  0.9897847E-01
        1   -1    0    0  501    0  0.00000000000E+00  0.00000000000E+00  0.72959109317E+03  0.72959109319E+03  0.50400001928E-02 0. -1.
       -1   -1    0    0    0  501  0.00000000000E+00  0.00000000000E+00 -0.12486521575E+03  0.12486521585E+03  0.50400001928E-02 0.  1.
    10030    2    1    2    0    0  0.00000000000E+00  0.00000000000E+00  0.60472587743E+03  0.85445630904E+03  0.60365735084E+03 0.  0.
        2    1    3    3  502    0  0.29847223537E+03 -0.20505825680E+02  0.24584374152E+03  0.38722772295E+03  0.25500000920E-02 0.  1.
       -2    1    3    3    0  502 -0.29847223537E+03  0.20505825680E+02  0.35888213591E+03  0.46722858609E+03  0.25500000920E-02 0. -1.
</event>
<event>
 5   0  0.8817544E-02  0.6015567E+03  0.7818609E-02  0.9902182E-01
        2   -1    0    0  501    0  0.00000000000E+00  0.00000000000E+00  0.22693952249E+03  0.22693952250E+03  0.25500000920E-02 0.  1.
       -2   -1    0    0    0  501  0.00000000000E+00  0.00000000000E+00 -0.39864201964E+03  0.39864201965E+03  0.25500000920E-02 0. -1.
    10030    2    1    2    0    0  0.00000000000E+00  0.00000000000E+00 -0.17170249715E+03  0.62558154215E+03  0.60155674574E+03 0.  0.
        5    1    3    3  502    0 -0.38421752761E+02  0.20760182127E+03  0.13687707379E+03  0.25165883773E+03  0.46999998093E+01 0.  1.
       -5    1    3    3    0  502  0.38421752761E+02 -0.20760182127E+03 -0.30857957095E+03  0.37392270442E+03  0.46999998093E+01 0. -1.
</event>
<event>
 5   0  0.8817544E-02  0.5969630E+03  0.7818609E-02  0.9911727E-01
        2   -1    0    0  501    0  0.00000000000E+00  0.00000000000E+00  0.59830339031E+03  0.59830339031E+03  0.25500000920E-02 0.  1.
       -2   -1    0    0    0  501  0.00000000000E+00  0.00000000000E+00 -0.14890638838E+03  0.14890638840E+03  0.25500000920E-02 0. -1.
    10030    2    1    2    0    0  0.00000000000E+00  0.00000000000E+00  0.44939700193E+03  0.74720977871E+03  0.59696297043E+03 0.  0.
        5    1    3    3  502    0 -0.25438400371E+03  0.23717705384E+00  0.29348037218E+02  0.25611457374E+03  0.46999998093E+01 0. -1.
       -5    1    3    3    0  502  0.25438400371E+03 -0.23717705384E+00  0.42004896471E+03  0.49109520497E+03  0.46999998093E+01 0.  1.
</event>
<event>
 5   0  0.4881209E-02  0.5953076E+03  0.7818609E-02  0.9915189E-01
       -1   -1    0    0    0  501  0.00000000000E+00  0.00000000000E+00  0.20568325982E+03  0.20568325988E+03  0.50400001928E-02 0. -1.
        1   -1    0    0  501    0  0.00000000000E+00  0.00000000000E+00 -0.43074858610E+03  0.43074858613E+03  0.50400001928E-02 0.  1.
    10030    2    1    2    0    0  0.00000000000E+00  0.00000000000E+00 -0.22506532628E+03  0.63643184601E+03  0.59530756213E+03 0.  0.
        3    1    3    3  502    0  0.78713811357E+02 -0.20875013372E+01 -0.41941198814E+03  0.42673955494E+03  0.10100000352E+00 0.  1.
       -3    1    3    3    0  502 -0.78713811357E+02  0.20875013372E+01  0.19434666185E+03  0.20969229107E+03  0.10100000352E+00 0. -1.
</event>
<event>
 5   0  0.8420604E-02  0.6391982E+03  0.7818609E-02  0.9827262E-01
       -2   -1    0    0    0  501  0.00000000000E+00  0.00000000000E+00  0.48586783018E+03  0.48586783019E+03  0.25500000920E-02 0. -1.
        2   -1    0    0  501    0  0.00000000000E+00  0.00000000000E+00 -0.21022918056E+03  0.21022918057E+03  0.25500000920E-02 0.  1.
    10030    2    1    2    0    0  0.00000000000E+00  0.00000000000E+00  0.27563864963E+03  0.69609701076E+03  0.63919823468E+03 0.  0.
        2    1    3    3  502    0  0.11637126208E+03 -0.21204589542E+03  0.36531122648E+03  0.43813014574E+03  0.25500000920E-02 0.  1.
       -2    1    3    3    0  502 -0.11637126208E+03  0.21204589542E+03 -0.89672576852E+02  0.25796686503E+03  0.25500000920E-02 0. -1.
</event>
<event>
 5   0  0.5125031E-02  0.5951735E+03  0.7818609E-02  0.9915470E-01
        1   -1    0    0  501    0  0.00000000000E+00  0.00000000000E+00  0.62811650041E+03  0.62811650043E+03  0.50400001928E-02 0. -1.
       -1   -1    0    0    0  501  0.00000000000E+00  0.00000000000E+00 -0.14098955328E+03  0.14098955337E+03  0.50400001928E-02 0.  1.
    10030    2    1    2    0    0  0.00000000000E+00  0.00000000000E+00  0.48712694713E+03  0.76910605380E+03  0.59517346999E+03 0.  0.
        4    1    3    3  502    0 -0.10997999898E+03 -0.22202742433E+03  0.30581267799E+02  0.24965697300E+03  0.12699999809E+01 0.  1.
       -4    1    3    3    0  502  0.10997999898E+03  0.22202742433E+03  0.45654567933E+03  0.51944908080E+03  0.12699999809E+01 0. -1.
</event>
<event>
 5   0  0.8699746E-02  0.5964811E+03  0.7818609E-02  0.9912734E-01
        2   -1    0    0  501    0  0.00000000000E+00  0.00000000000E+00  0.73231245333E+03  0.73231245334E+03  0.25500000920E-02 0. -1.
       -2   -1    0    0    0  501  0.00000000000E+00  0.00000000000E+00 -0.12146102877E+03  0.12146102880E+03  0.25500000920E-02 0.  1.
    10030    2    1    2    0    0  0.00000000000E+00  0.00000000000E+00  0.61085142456E+03  0.85377348214E+03  0.59648109434E+03 0.  0.
        3    1    3    3  502    0 -0.95948063037E+01  0.10998204591E+03 -0.91136647251E+02  0.14315728903E+03  0.10100000352E+00 0.  1.
       -3    1    3    3    0  502  0.95948063037E+01 -0.10998204591E+03  0.70198807181E+03  0.71061619310E+03  0.10100000352E+00 0. -1.
</event>
<event>
 5   0  0.3437375E-02  0.6012340E+03  0.7818609E-02  0.9902849E-01
        4   -1    0    0  501    0  0.00000000000E+00  0.00000000000E+00  0.19729517194E+03  0.19729925943E+03  0.12699999809E+01 0.  1.
       -4   -1    0    0    0  501  0.00000000000E+00  0.00000000000E+00 -0.45803790885E+03  0.45803966951E+03  0.12699999809E+01 0. -1.
    10030    2    1    2    0    0  0.00000000000E+00  0.00000000000E+00 -0.26074273691E+03  0.65533892894E+03  0.60123401179E+03 0.  0.
        2    1    3    3  502    0  0.29737522614E+03  0.24384596262E+02 -0.90412417816E+02  0.31177081159E+03  0.25500000920E-02 0. -1.
       -2    1    3    3    0  502 -0.29737522614E+03 -0.24384596262E+02 -0.17033031909E+03  0.34356811736E+03  0.25500000920E-02 0.  1.
</event>
<event>
 5   0  0.8420604E-02  0.6065450E+03  0.7818609E-02  0.9891920E-01
       -2   -1    0    0    0  501  0.00000000000E+00  0.00000000000E+00  0.77232400671E+02  0.77232400713E+02  0.25500000920E-02 0. -1.
        2   -1    0    0  501    0  0.00000000000E+00  0.00000000000E+00 -0.11908758334E+04  0.11908758334E+04  0.25500000920E-02 0.  1.
    10030    2    1    2    0    0  0.00000000000E+00  0.00000000000E+00 -0.11136434327E+04  0.12681082341E+04  0.60654496797E+03 0.  0.
        2    1    3    3  502    0  0.17628069346E+03  0.13376725803E+03 -0.99038850983E+03  0.10148093233E+04  0.25500000920E-02 0.  1.
       -2    1    3    3    0  502 -0.17628069346E+03 -0.13376725803E+03 -0.12325492291E+03  0.25329891084E+03  0.25500000920E-02 0. -1.
</event>
<event>
 5   0  0.4987389E-02  0.6067918E+03  0.7818609E-02  0.9891415E-01
       -1   -1    0    0    0  501  0.00000000000E+00  0.00000000000E+00  0.16717703001E+03  0.16717703008E+03  0.50400001928E-02 0.  1.
        1   -1    0    0  501    0  0.00000000000E+00  0.00000000000E+00 -0.55060833198E+03  0.55060833201E+03  0.50400001928E-02 0. -1.
    10030    2    1    2    0    0  0.00000000000E+00  0.00000000000E+00 -0.38343130198E+03  0.71778536209E+03  0.60679177870E+03 0.  0.
        1    1    3    3  502    0  0.40140429431E+02  0.20056849590E+03 -0.45677944470E+03  0.50048620036E+03  0.50400001928E-02 0. -1.
       -1    1    3    3    0  502 -0.40140429431E+02 -0.20056849590E+03  0.73348142723E+02  0.21729916173E+03  0.50400001928E-02 0.  1.
</event>
<event>
 5   0  0.8420604E-02  0.6832509E+03  0.7818609E-02  0.9746312E-01
       -2   -1    0    0    0  501  0.00000000000E+00  0.00000000000E+00  0.18815914302E+03  0.18815914304E+03  0.25500000920E-02 0. -1.
        2   -1    0    0  501    0  0.00000000000E+00  0.00000000000E+00 -0.62026194841E+03  0.62026194841E+03  0.25500000920E-02 0.  1.
    10030    2    1    2    0    0  0.00000000000E+00  0.00000000000E+00 -0.43210280538E+03  0.80842109146E+03  0.68325092513E+03 0.  0.
        2    1    3    3  502    0  0.59757706446E+02  0.24725936333E+03 -0.48586147735E+03  0.54842460869E+03  0.25500000920E-02 0.  1.
       -2    1    3    3    0  502 -0.59757706446E+02 -0.24725936333E+03  0.53758671968E+02  0.25999648277E+03  0.25500000920E-02 0. -1.
</event>
<event>
 5   0  0.4881209E-02  0.6083609E+03  0.7818609E-02  0.9888210E-01
        1   -1    0    0  501    0  0.00000000000E+00  0.00000000000E+00  0.96442015187E+03  0.96442015188E+03  0.50400001928E-02 0.  1.
       -1   -1    0    0    0  501  0.00000000000E+00  0.00000000000E+00 -0.95939245339E+02  0.95939245471E+02  0.50400001928E-02 0. -1.
    10030    2    1    2    0    0  0.00000000000E+00  0.00000000000E+00  0.86848090653E+03  0.10603593974E+04  0.60836088512E+03 0.  0.
        3    1    3    3  502    0 -0.27745737843E+03 -0.76658374018E+02  0.26287261596E+03  0.38982191521E+03  0.10100000352E+00 0. -1.
       -3    1    3    3    0  502  0.27745737843E+03  0.76658374018E+02  0.60560829056E+03  0.67053748214E+03  0.10100000352E+00 0.  1.
</event>
<event>
 5   0  0.5125031E-02  0.5994939E+03  0.7818609E-02  0.9906457E-01
        1   -1    0    0  501    0  0.00000000000E+00  0.00000000000E+00  0.22146678114E+03  0.22146678120E+03  0.50400001928E-02 0.  1.
       -1   -1    0    0    0  501  0.00000000000E+00  0.00000000000E+00 -0.40569619339E+03  0.40569619342E+03  0.50400001928E-02 0. -1.
    10030    2    1    2    0    0  0.00000000000E+00  0.00000000000E+00 -0.18422941225E+03  0.62716297461E+03  0.59949388686E+03 0.  0.
        4    1    3    3  502    0  0.88994380859E+02  0.12307590682E+03 -0.36245788000E+03  0.39299491897E+03  0.12699999809E+01 0. -1.
       -4    1    3    3    0  502 -0.88994380859E+02 -0.12307590682E+03  0.17822846776E+03  0.23416805564E+03  0.12699999809E+01 0.  1.
</event>
<event>
 5   0  0.8699746E-02  0.5910527E+03  0.7818609E-02  0.9924145E-01
       -2   -1    0    0    0  501  0.00000000000E+00  0.00000000000E+00  0.31684834738E+03  0.31684834739E+03  0.25500000920E-02 0.  1.
        2   -1    0    0  501    0  0.00000000000E+00  0.00000000000E+00 -0.27563919513E+03  0.27563919514E+03  0.25500000920E-02 0. -1.
    10030    2    1    2    0    0  0.00000000000E+00  0.00000000000E+00  0.41209152246E+02  0.59248754253E+03  0.59105269970E+03 0.  0.
        3    1    3    3  502    0  0.61454128385E+02  0.49909565358E+00  0.31037197088E+03  0.31639789744E+03  0.10100000352E+00 0.  1.
       -3    1    3    3    0  502 -0.61454128385E+02 -0.49909565358E+00 -0.26916281863E+03  0.27608964509E+03  0.10100000352E+00 0. -1.
</event>
<event>
 5   0  0.4987389E-02  0.6011231E+03  0.7818609E-02  0.9903079E-01
       -1   -1    0    0    0  501  0.00000000000E+00  0.00000000000E+00  0.14564927077E+03  0.14564927086E+03  0.50400001928E-02 0.  1.
        1   -1    0    0  501    0  0.00000000000E+00  0.00000000000E+00 -0.62023816640E+03  0.62023816642E+03  0.50400001928E-02 0. -1.
    10030    2    1    2    0    0  0.00000000000E+00  0.00000000000E+00 -0.47458889562E+03  0.76588743728E+03  0.60112307120E+03 0.  0.
        1    1    3    3  502    0 -0.13698519286E+03  0.71674285332E+02 -0.56569230491E+03  0.58643834296E+03  0.50400001928E-02 0. -1.
       -1    1    3    3    0  502  0.13698519286E+03 -0.71674285332E+02  0.91103409285E+02  0.17944909431E+03  0.50400001928E-02 0.  1.
</event>
<event>
 5   0  0.5166903E-02  0.6044525E+03  0.7818609E-02  0.9896211E-01
       -1   -1    0    0    0  501  0.00000000000E+00  0.00000000000E+00  0.63133610860E+03  0.63133610862E+03  0.50400001928E-02 0.  1.
        1   -1    0    0  501    0  0.00000000000E+00  0.00000000000E+00 -0.14467839958E+03  0.14467839966E+03  0.50400001928E-02 0. -1.
    10030    2    1    2    0    0  0.00000000000E+00  0.00000000000E+00  0.48665770903E+03  0.77601450829E+03  0.60445247234E+03 0.  0.
        2    1    3    3  502    0 -0.16755702091E+03  0.18144603360E+03  0.19696494396E+02  0.24776192255E+03  0.25500000920E-02 0. -1.
       -2    1    3    3    0  502  0.16755702091E+03 -0.18144603360E+03  0.46696121463E+03  0.52825258574E+03  0.25500000920E-02 0.  1.
</event>
<event>
 5   0  0.5166903E-02  0.6090937E+03  0.7818609E-02  0.9886717E-01
       -1   -1    0    0    0  501  0.00000000000E+00  0.00000000000E+00  0.34123486770E+03  0.34123486774E+03  0.50400001928E-02 0. -1.
        1   -1    0    0  501    0  0.00000000000E+00  0.00000000000E+00 -0.27180336116E+03  0.27180336121E+03  0.50400001928E-02 0.  1.
    10030    2    1    2    0    0  0.00000000000E+00  0.00000000000E+00  0.69431506539E+02  0.61303822894E+03  0.60909370054E+03 0.  0.
        2    1    3    3  502    0  0.27546869798E+03  0.12643121578E+03  0.48431078088E+01  0.30313579728E+03  0.25500000920E-02 0. -1.
       -2    1    3    3    0  502 -0.27546869798E+03 -0.12643121578E+03  0.64588398730E+02  0.30990243166E+03  0.25500000920E-02 0.  1.
</event>
<event>
 5   0  0.8575590E-02  0.5999721E+03  0.7818609E-02  0.9905464E-01
       -2   -1    0    0    0  501  0.00000000000E+00  0.00000000000E+00  0.10726962373E+03  0.10726962376E+03  0.25500000920E-02 0. -1.
        2   -1    0    0  501    0  0.00000000000E+00  0.00000000000E+00 -0.83892931567E+03  0.83892931568E+03  0.25500000920E-02 0.  1.
    10030    2    1    2    0    0  0.00000000000E+00  0.00000000000E+00 -0.73165969194E+03  0.94619893944E+03  0.59997210617E+03 0.  0.
        4    1    3    3  502    0 -0.10258731864E+03  0.26060809444E+03 -0.19634577156E+03  0.34204387400E+03  0.12699999809E+01 0. -1.
       -4    1    3    3    0  502  0.10258731864E+03 -0.26060809444E+03 -0.53531392038E+03  0.60415506543E+03  0.12699999809E+01 0.  1.
</event>
<event>
 5   0  0.5125031E-02  0.5973201E+03  0.7818609E-02  0.9910982E-01
        1   -1    0    0  501    0  0.00000000000E+00  0.00000000000E+00  0.14208575260E+04  0.14208575260E+04  0.50400001928E-02 0. -1.
       -1   -1    0    0    0  501  0.00000000000E+00  0.00000000000E+00 -0.62777468445E+02  0.62777468647E+02  0.50400001928E-02 0.  1.
    10030    2    1    2    0    0  0.00000000000E+00  0.00000000000E+00  0.13580800575E+04  0.14836349946E+04  0.59732014417E+03 0.  0.
        4    1    3    3  502    0  0.17134949544E+02 -0.87348614115E+02  0.13871368133E+04  0.13899904815E+04  0.12699999809E+01 0. -1.
       -4    1    3    3    0  502 -0.17134949544E+02  0.87348614115E+02 -0.29056755788E+02  0.93644513136E+02  0.12699999809E+01 0.  1.
</event>
<event>
 5   0  0.5125031E-02  0.6161065E+03  0.7818609E-02  0.9872542E-01
       -1   -1    0    0    0  501  0.00000000000E+00  0.00000000000E+00  0.92692698139E+03  0.92692698140E+03  0.50400001928E-02 0. -1.
        1   -1    0    0  501    0  0.00000000000E+00  0.00000000000E+00 -0.10237785047E+03  0.10237785059E+03  0.50400001928E-02 0.  1.
    10030    2    1    2    0    0  0.00000000000E+00  0.00000000000E+00  0.82454913092E+03  0.10293048320E+04  0.61610645822E+03 0.  0.
        4    1    3    3  502    0 -0.54164022518E+02  0.36999076311E+02  0.91511985621E+03  0.91746860279E+03  0.12699999809E+01 0. -1.
       -4    1    3    3    0  502  0.54164022518E+02 -0.36999076311E+02 -0.90570725286E+02  0.11183622920E+03  0.12699999809E+01 0.  1.
</event>
<event>
 5   0  0.8817544E-02  0.6023397E+03  0.7818609E-02  0.9900564E-01
       -2   -1    0    0    0  501  0.00000000000E+00  0.00000000000E+00  0.75279053834E+02  0.75279053877E+02  0.25500000920E-02 0. -1.
        2   -1    0    0  501    0  0.00000000000E+00  0.00000000000E+00 -0.12048940435E+04  0.12048940435E+04  0.25500000920E-02 0.  1.
    10030    2    1    2    0    0  0.00000000000E+00  0.00000000000E+00 -0.11296149897E+04  0.12801730974E+04  0.60233971676E+03 0.  0.
        5    1    3    3  502    0  0.96543125633E+02  0.20033912544E+03 -0.13328170571E+03  0.25931147943E+03  0.46999998093E+01 0. -1.
       -5    1    3    3    0  502 -0.96543125633E+02 -0.20033912544E+03 -0.99633328398E+03  0.10208616180E+04  0.46999998093E+01 0.  1.
</event>
<event>
 5   0  0.8207443E-02  0.6271745E+03  0.7818609E-02  0.9850578E-01
        2   -1    0    0  501    0  0.00000000000E+00  0.00000000000E+00  0.10525681327E+04  0.10525681327E+04  0.25500000920E-02 0.  1.
       -2   -1    0    0    0  501  0.00000000000E+00  0.00000000000E+00 -0.93425735526E+02  0.93425735561E+02  0.25500000920E-02 0. -1.
    10030    2    1    2    0    0  0.00000000000E+00  0.00000000000E+00  0.95914239716E+03  0.11459938682E+04  0.62717446379E+03 0.  0.
        1    1    3    3  502    0  0.18150355897E+03 -0.13616651010E+03  0.84060333475E+02  0.24197313917E+03  0.50400001928E-02 0. -1.
       -1    1    3    3    0  502 -0.18150355897E+03  0.13616651010E+03  0.87508206368E+03  0.90402072907E+03  0.50400001928E-02 0.  1.
</event>
<event>
 5   0  0.8207443E-02  0.5934846E+03  0.7818609E-02  0.9919016E-01
       -2   -1    0    0    0  501  0.00000000000E+00  0.00000000000E+00  0.17625449427E+03  0.17625449429E+03  0.25500000920E-02 0.  1.
        2   -1    0    0  501    0  0.00000000000E+00  0.00000000000E+00 -0.49959566992E+03  0.49959566992E+03  0.25500000920E-02 0. -1.
    10030    2    1    2    0    0  0.00000000000E+00  0.00000000000E+00 -0.32334117565E+03  0.67585016421E+03  0.59348456475E+03 0.  0.
        1    1    3    3  502    0  0.60203247439E+02  0.17840891537E+03 -0.42285144301E+03  0.46287959014E+03  0.50400001928E-02 0. -1.
       -1    1    3    3    0  502 -0.60203247439E+02 -0.17840891537E+03  0.99510267361E+02  0.21297057407E+03  0.50400001928E-02 0.  1.
</event>
<event>
 5   0  0.3437375E-02  0.5920011E+03  0.7818609E-02  0.9922142E-01
       -3   -1    0    0    0  501  0.00000000000E+00  0.00000000000E+00  0.11907421204E+04  0.11907421247E+04  0.10100000352E+00 0. -1.
        3   -1    0    0  501    0  0.00000000000E+00  0.00000000000E+00 -0.73581236370E+02  0.73581305688E+02  0.10100000352E+00 0.  1.
    10030    2    1    2    0    0  0.00000000000E+00  0.00000000000E+00  0.11171608840E+04  0.12643234303E+04  0.59200109440E+03 0.  0.
        4    1    3    3  502    0  0.18102103908E+03  0.15963061160E+03  0.92454959811E+03  0.95553342224E+03  0.12699999809E+01 0. -1.
       -4    1    3    3    0  502 -0.18102103908E+03 -0.15963061160E+03  0.19261128588E+03  0.30879000810E+03  0.12699999809E+01 0.  1.
</event>
<event>
 5   0  0.4987389E-02  0.5941313E+03  0.7818609E-02  0.9917657E-01
       -1   -1    0    0    0  501  0.00000000000E+00  0.00000000000E+00  0.95822921830E+02  0.95822921962E+02  0.50400001928E-02 0.  1.
        1   -1    0    0  501    0  0.00000000000E+00  0.00000000000E+00 -0.92094883051E+03  0.92094883052E+03  0.50400001928E-02 0. -1.
    10030    2    1    2    0    0  0.00000000000E+00  0.00000000000E+00 -0.82512590868E+03  0.10167717525E+04  0.59413132511E+03 0.  0.
        1    1    3    3  502    0  0.11361901548E+03 -0.27440368354E+03 -0.42356708651E+03  0.51731589868E+03  0.50400001928E-02 0.  1.
       -1    1    3    3    0  502 -0.11361901548E+03  0.27440368354E+03 -0.40155882216E+03  0.49945585381E+03  0.50400001928E-02 0. -1.
</event>
<event>
 5   0  0.8817544E-02  0.5962577E+03  0.7818609E-02  0.9913201E-01
        2   -1    0    0  501    0  0.00000000000E+00  0.00000000000E+00  0.87807836448E+03  0.87807836449E+03  0.25500000920E-02 0.  1.
       -2   -1    0    0    0  501  0.00000000000E+00  0.00000000000E+00 -0.10122195153E+03  0.10122195156E+03  0.25500000920E-02 0. -1.
    10030    2    1    2    0    0  0.00000000000E+00  0.00000000000E+00  0.77685641295E+03  0.97930031605E+03  0.59625768143E+03 0.  0.
        5    1    3    3  502    0 -0.39487809877E+01  0.16567996388E+03 -0.18522961244E+02  0.16682515815E+03  0.46999998093E+01 0. -1.
       -5    1    3    3    0  502  0.39487809877E+01 -0.16567996388E+03  0.79537937420E+03  0.81247515789E+03  0.46999998093E+01 0.  1.
</event>
<event>
 5   0  0.8420604E-02  0.6029722E+03  0.7818609E-02  0.9899259E-01
        2   -1    0    0  501    0  0.00000000000E+00  0.00000000000E+00  0.42075951730E+03  0.42075951731E+03  0.25500000920E-02 0. -1.
       -2   -1    0    0    0  501  0.00000000000E+00  0.00000000000E+00 -0.21602330739E+03  0.21602330741E+03  0.25500000920E-02 0.  1.
    10030    2    1    2    0    0  0.00000000000E+00  0.00000000000E+00  0.20473620990E+03  0.63678282471E+03  0.60297218029E+03 0.  0.
        2    1    3    3  502    0  0.13778992888E+02 -0.29290485477E+03  0.28361941933E+02  0.29459720696E+03  0.25500000920E-02 0. -1.
       -2    1    3    3    0  502 -0.13778992888E+02  0.29290485477E+03  0.17637426797E+03  0.34218561776E+03  0.25500000920E-02 0.  1.
</event>
<event>
 5   0  0.5190380E-02  0.6038174E+03  0.7818609E-02  0.9897518E-01
       -1   -1    0    0    0  501  0.00000000000E+00  0.00000000000E+00  0.73080020871E+02  0.73080021045E+02  0.50400001928E-02 0. -1.
        1   -1    0    0  501    0  0.00000000000E+00  0.00000000000E+00 -0.12472471788E+04  0.12472471789E+04  0.50400001928E-02 0.  1.
    10030    2    1    2    0    0  0.00000000000E+00  0.00000000000E+00 -0.11741671580E+04  0.13203271999E+04  0.60381735643E+03 0.  0.
        5    1    3    3  502    0 -0.12158831217E+03 -0.79167882311E+02 -0.82428984016E+01  0.14540050419E+03  0.46999998093E+01 0. -1.
       -5    1    3    3    0  502  0.12158831217E+03  0.79167882311E+02 -0.11659242596E+04  0.11749266957E+04  0.46999998093E+01 0.  1.
</event>
<event>
 5   0  0.8207443E-02  0.6072723E+03  0.7818609E-02  0.9890432E-01
        2   -1    0    0  501    0  0.00000000000E+00  0.00000000000E+00  0.37599264939E+03  0.37599264940E+03  0.25500000920E-02 0. -1.
       -2   -1    0    0    0  501  0.00000000000E+00  0.00000000000E+00 -0.24520404192E+03  0.24520404193E+03  0.25500000920E-02 0.  1.
    10030    2    1    2    0    0  0.00000000000E+00  0.00000000000E+00  0.13078860747E+03  0.62119669133E+03  0.60727231904E+03 0.  0.
        1    1    3    3  502    0 -0.27991253663E+03  0.87710120297E+02  0.14561977887E+03  0.32748925691E+03  0.50400001928E-02 0.  1.
       -1    1    3    3    0  502  0.27991253663E+03 -0.87710120297E+02 -0.14831171402E+02  0.29370743442E+03  0.50400001928E-02 0. -1.
</event>
<event>
 5   0  0.8575590E-02  0.5984641E+03  0.7818609E-02  0.9908598E-01
       -2   -1    0    0    0  501  0.00000000000E+00  0.00000000000E+00  0.96044827422E+02  0.96044827456E+02  0.25500000920E-02 0. -1.
        2   -1    0    0  501    0  0.00000000000E+00  0.00000000000E+00 -0.93227114070E+03  0.93227114070E+03  0.25500000920E-02 0.  1.
    10030    2    1    2    0    0  0.00000000000E+00  0.00000000000E+00 -0.83622631328E+03  0.10283159682E+04  0.59846410365E+03 0.  0.
        4    1    3    3  502    0 -0.28872192866E+03 -0.12652994680E+02 -0.28482062466E+03  0.40576452715E+03  0.12699999809E+01 0. -1.
       -4    1    3    3    0  502  0.28872192866E+03  0.12652994680E+02 -0.55140568861E+03  0.62255144101E+03  0.12699999809E+01 0.  1.
</event>
<event>
 5   0  0.8207443E-02  0.5896753E+03  0.7818609E-02  0.9927061E-01
        2   -1    0    0  501    0  0.00000000000E+00  0.00000000000E+00  0.96354823382E+03  0.96354823382E+03  0.25500000920E-02 0.  1.
       -2   -1    0    0    0  501  0.00000000000E+00  0.00000000000E+00 -0.90217849790E+02  0.90217849826E+02  0.25500000920E-02 0. -1.
    10030    2    1    2    0    0  0.00000000000E+00  0.00000000000E+00  0.87333038403E+03  0.10537660836E+04  0.58967533387E+03 0.  0.
        1    1    3    3  502    0  0.68267174661E+02 -0.13514329781E+03 -0.15439123559E+02  0.15219226209E+03  0.50400001928E-02 0. -1.
       -1    1    3    3    0  502 -0.68267174661E+02  0.13514329781E+03  0.88876950759E+03  0.90157382156E+03  0.50400001928E-02 0.  1.
</event>
<event>
 5   0  0.8420604E-02  0.6184230E+03  0.7818609E-02  0.9867904E-01
       -2   -1    0    0    0  501  0.00000000000E+00  0.00000000000E+00  0.20170146257E+03  0.20170146259E+03  0.25500000920E-02 0.  1.
        2   -1    0    0  501    0  0.00000000000E+00  0.00000000000E+00 -0.47402609852E+03  0.47402609853E+03  0.25500000920E-02 0. -1.
    10030    2    1    2    0    0  0.00000000000E+00  0.00000000000E+00 -0.27232463595E+03  0.67572756112E+03  0.61842301826E+03 0.  0.
        2    1    3    3  502    0  0.11142862774E+03 -0.24208669287E+03  0.35178330783E+02  0.26881186899E+03  0.25500000920E-02 0.  1.
       -2    1    3    3    0  502 -0.11142862774E+03  0.24208669287E+03 -0.30750296673E+03  0.40691569213E+03  0.25500000920E-02 0. -1.
</event>
<event>
 5   0  0.5166903E-02  0.5948224E+03  0.7818609E-02  0.9916207E-01
       -1   -1    0    0    0  501  0.00000000000E+00  0.00000000000E+00  0.76396051303E+02  0.76396051469E+02  0.50400001928E-02 0. -1.
        1   -1    0    0  501    0  0.00000000000E+00  0.00000000000E+00 -0.11578269971E+04  0.11578269971E+04  0.50400001928E-02 0.  1.
    10030    2    1    2    0    0  0.00000000000E+00  0.00000000000E+00 -0.10814309458E+04  0.12342230486E+04  0.59482236267E+03 0.  0.
        2    1    3    3  502    0  0.17347753625E+03  0.40971149615E+02 -0.46720519988E+02  0.18427126113E+03  0.25500000920E-02 0. -1.
       -2    1    3    3    0  502 -0.17347753625E+03 -0.40971149615E+02 -0.10347104258E+04  0.10499517875E+04  0.25500000920E-02 0.  1.
</event>
<event>
 5   0  0.5166903E-02  0.6023342E+03  0.7818609E-02  0.9900575E-01
        1   -1    0    0  501    0  0.00000000000E+00  0.00000000000E+00  0.15224545012E+04  0.15224545012E+04  0.50400001928E-02 0.  1.
       -1   -1    0    0    0  501  0.00000000000E+00  0.00000000000E+00 -0.59575917439E+02  0.59575917652E+02  0.50400001928E-02 0. -1.
    10030    2    1    2    0    0  0.00000000000E+00  0.00000000000E+00  0.14628785837E+04  0.15820304188E+04  0.60233420571E+03 0.  0.
        2    1    3    3  502    0 -0.91469121792E+02 -0.10693236629E+03  0.14308011279E+04  0.14377040720E+04  0.25500000920E-02 0.  1.
       -2    1    3    3    0  502  0.91469121792E+02  0.10693236629E+03  0.32077455871E+02  0.14432634681E+03  0.25500000920E-02 0. -1.
</event>
<event>
 5   0  0.8207443E-02  0.6084500E+03  0.7818609E-02  0.9888028E-01
        2   -1    0    0  501    0  0.00000000000E+00  0.00000000000E+00  0.65037630544E+03  0.65037630545E+03  0.25500000920E-02 0. -1.
       -2   -1    0    0    0  501  0.00000000000E+00  0.00000000000E+00 -0.14230662411E+03  0.14230662413E+03  0.25500000920E-02 0.  1.
    10030    2    1    2    0    0  0.00000000000E+00  0.00000000000E+00  0.50806968133E+03  0.79268292957E+03  0.60845001910E+03 0.  0.
        1    1    3    3  502    0  0.18455388355E+03  0.13205725535E+02 -0.60578499529E+02  0.19469021997E+03  0.50400001928E-02 0.  1.
       -1    1    3    3    0  502 -0.18455388355E+03 -0.13205725535E+02  0.56864818086E+03  0.59799270961E+03  0.50400001928E-02 0. -1.
</event>
<event>
 5   0  0.4987389E-02  0.5979356E+03  0.7818609E-02  0.9909698E-01
        1   -1    0    0  501    0  0.00000000000E+00  0.00000000000E+00  0.11636015340E+04  0.11636015340E+04  0.50400001928E-02 0.  1.
       -1   -1    0    0    0  501  0.00000000000E+00  0.00000000000E+00 -0.76814723877E+02  0.76814724043E+02  0.50400001928E-02 0. -1.
    10030    2    1    2    0    0  0.00000000000E+00  0.00000000000E+00  0.10867868101E+04  0.12404162581E+04  0.59793555053E+03 0.  0.
        1    1    3    3  502    0 -0.36977834729E+01  0.22942139501E+03  0.94099349970E+03  0.96856420365E+03  0.50400001928E-02 0.  1.
       -1    1    3    3    0  502  0.36977834729E+01 -0.22942139501E+03  0.14579331042E+03  0.27185205440E+03  0.50400001928E-02 0. -1.
</event>
<event>
 5   0  0.5190380E-02  0.5874678E+03  0.7818609E-02  0.9931753E-01
        1   -1    0    0  501    0  0.00000000000E+00  0.00000000000E+00  0.12291631433E+03  0.12291631443E+03  0.50400001928E-02 0.  1.
       -1   -1    0    0    0  501  0.00000000000E+00  0.00000000000E+00 -0.70193772253E+03  0.70193772255E+03  0.50400001928E-02 0. -1.
    10030    2    1    2    0    0  0.00000000000E+00  0.00000000000E+00 -0.57902140820E+03  0.82485403698E+03  0.58746777882E+03 0.  0.
        5    1    3    3  502    0  0.15404728843E+03 -0.20683514971E+02  0.60382752524E+02  0.16681289418E+03  0.46999998093E+01 0.  1.
       -5    1    3    3    0  502 -0.15404728843E+03  0.20683514971E+02 -0.63940416073E+03  0.65804114280E+03  0.46999998093E+01 0. -1.
</event>
<event>
 5   0  0.8207443E-02  0.5879323E+03  0.7818609E-02  0.9930764E-01
        2   -1    0    0  501    0  0.00000000000E+00  0.00000000000E+00  0.21672865771E+04  0.21672865771E+04  0.25500000920E-02 0. -1.
       -2   -1    0    0    0  501  0.00000000000E+00  0.00000000000E+00 -0.39872950388E+02  0.39872950469E+02  0.25500000920E-02 0.  1.
    10030    2    1    2    0    0  0.00000000000E+00  0.00000000000E+00  0.21274136267E+04  0.22071595275E+04  0.58793234391E+03 0.  0.
        1    1    3    3  502    0  0.12829586516E+03 -0.20693733257E+03  0.16820891160E+04  0.16996195701E+04  0.50400001928E-02 0. -1.
       -1    1    3    3    0  502 -0.12829586516E+03  0.20693733257E+03  0.44532451062E+03  0.50753995746E+03  0.50400001928E-02 0.  1.
</event>
<event>
 5   0  0.5125031E-02  0.5947389E+03  0.7818609E-02  0.9916382E-01
        1   -1    0    0  501    0  0.00000000000E+00  0.00000000000E+00  0.17832230376E+03  0.17832230383E+03  0.50400001928E-02 0.  1.
       -1   -1    0    0    0  501  0.00000000000E+00  0.00000000000E+00 -0.49589189582E+03  0.49589189585E+03  0.50400001928E-02 0. -1.
    10030    2    1    2    0    0  0.00000000000E+00  0.00000000000E+00 -0.31756959206E+03  0.67421419968E+03  0.59473888493E+03 0.  0.
        4    1    3    3  502    0 -0.12839511529E+03 -0.90801748068E+02  0.12732324188E+03  0.20234397422E+03  0.12699999809E+01 0.  1.
       -4    1    3    3    0  502  0.12839511529E+03  0.90801748068E+02 -0.44489283394E+03  0.47187022546E+03  0.12699999809E+01 0. -1.
</event>
<event>
 5   0  0.8420604E-02  0.6061172E+03  0.7818609E-02  0.9892795E-01
       -2   -1    0    0    0  501  0.00000000000E+00  0.00000000000E+00  0.17786341468E+03  0.17786341470E+03  0.25500000920E-02 0. -1.
        2   -1    0    0  501    0  0.00000000000E+00  0.00000000000E+00 -0.51637671317E+03  0.51637671317E+03  0.25500000920E-02 0.  1.
    10030    2    1    2    0    0  0.00000000000E+00  0.00000000000E+00 -0.33851329849E+03  0.69424012787E+03  0.60611723445E+03 0.  0.
        2    1    3    3  502    0 -0.21520731718E+02 -0.15629415924E+03  0.12711713464E+03  0.20260743331E+03  0.25500000920E-02 0. -1.
       -2    1    3    3    0  502  0.21520731718E+02  0.15629415924E+03 -0.46563043313E+03  0.49163269457E+03  0.25500000920E-02 0.  1.
</event>
<event>
 5   0  0.5125031E-02  0.5626610E+03  0.7818609E-02  0.9986052E-01
       -1   -1    0    0    0  501  0.00000000000E+00  0.00000000000E+00  0.62002132376E+03  0.62002132378E+03  0.50400001928E-02 0.  1.
        1   -1    0    0  501    0  0.00000000000E+00  0.00000000000E+00 -0.12765183231E+03  0.12765183241E+03  0.50400001928E-02 0. -1.
    10030    2    1    2    0    0  0.00000000000E+00  0.00000000000E+00  0.49236949145E+03  0.74767315620E+03  0.56266102796E+03 0.  0.
        4    1    3    3  502    0  0.24252548272E+03 -0.14257142491E+03  0.24639156913E+03  0.37397277870E+03  0.12699999809E+01 0.  1.
       -4    1    3    3    0  502 -0.24252548272E+03  0.14257142491E+03  0.24597792232E+03  0.37370037750E+03  0.12699999809E+01 0. -1.
</event>
<event>
 5   0  0.4987389E-02  0.6000109E+03  0.7818609E-02  0.9905383E-01
        1   -1    0    0  501    0  0.00000000000E+00  0.00000000000E+00  0.75259499976E+03  0.75259499977E+03  0.50400001928E-02 0.  1.
       -1   -1    0    0    0  501  0.00000000000E+00  0.00000000000E+00 -0.11959057178E+03  0.11959057189E+03  0.50400001928E-02 0. -1.
    10030    2    1    2    0    0  0.00000000000E+00  0.00000000000E+00  0.63300442797E+03  0.87218557166E+03  0.60001088789E+03 0.  0.
        1    1    3    3  502    0 -0.17284326266E+03  0.13154598392E+02 -0.39427319894E+02  0.17777049948E+03  0.50400001928E-02 0. -1.
       -1    1    3    3    0  502  0.17284326266E+03 -0.13154598392E+02  0.67243174787E+03  0.69441507218E+03  0.50400001928E-02 0.  1.
</event>
<event>
 5   0  0.8817544E-02  0.6092602E+03  0.7818609E-02  0.9886378E-01
       -2   -1    0    0    0  501  0.00000000000E+00  0.00000000000E+00  0.18170008441E+03  0.18170008442E+03  0.25500000920E-02 0. -1.
        2   -1    0    0  501    0  0.00000000000E+00  0.00000000000E+00 -0.51072898855E+03  0.51072898856E+03  0.25500000920E-02 0.  1.
    10030    2    1    2    0    0  0.00000000000E+00  0.00000000000E+00 -0.32902890415E+03  0.69242907298E+03  0.60926020824E+03 0.  0.
        5    1    3    3  502    0  0.21376475041E+03  0.12696209345E+03  0.35467900120E+02  0.25118679032E+03  0.46999998093E+01 0. -1.
       -5    1    3    3    0  502 -0.21376475041E+03 -0.12696209345E+03 -0.36449680427E+03  0.44124228266E+03  0.46999998093E+01 0.  1.
</event>
<event>
 5   0  0.4881209E-02  0.5959268E+03  0.7818609E-02  0.9913893E-01
       -1   -1    0    0    0  501  0.00000000000E+00  0.00000000000E+00  0.14525813142E+04  0.14525813142E+04  0.50400001928E-02 0.  1.
        1   -1    0    0  501    0  0.00000000000E+00  0.00000000000E+00 -0.61120286131E+02  0.61120286339E+02  0.50400001928E-02 0. -1.
    10030    2    1    2    0    0  0.00000000000E+00  0.00000000000E+00  0.13914610281E+04  0.15137016006E+04  0.59592679322E+03 0.  0.
        3    1    3    3  502    0 -0.11481927011E+03  0.10472842400E+03  0.49977145608E+02  0.16324592757E+03  0.10100000352E+00 0. -1.
       -3    1    3    3    0  502  0.11481927011E+03 -0.10472842400E+03  0.13414838825E+04  0.13504556730E+04  0.10100000352E+00 0.  1.
</event>
<event>
 5   0  0.3437375E-02  0.5985780E+03  0.7818609E-02  0.9908361E-01
       -3   -1    0    0    0  501  0.00000000000E+00  0.00000000000E+00  0.78885239653E+03  0.78885240299E+03  0.10100000352E+00 0.  1.
        3   -1    0    0  501    0  0.00000000000E+00  0.00000000000E+00 -0.11354959757E+03  0.11354964248E+03  0.10100000352E+00 0. -1.
    10030    2    1    2    0    0  0.00000000000E+00  0.00000000000E+00  0.67530279896E+03  0.90240204548E+03  0.59857796601E+03 0.  0.
        1    1    3    3  502    0  0.18254030484E+03 -0.16346147508E+03  0.59673216762E+03  0.64508131009E+03  0.50400001928E-02 0.  1.
       -1    1    3    3    0  502 -0.18254030484E+03  0.16346147508E+03  0.78570631345E+02  0.25732073539E+03  0.50400001928E-02 0. -1.
</event>
<event>
 5   0  0.4881209E-02  0.5981251E+03  0.7818609E-02  0.9909304E-01
        1   -1    0    0  501    0  0.00000000000E+00  0.00000000000E+00  0.22588241434E+03  0.22588241440E+03  0.50400001928E-02 0. -1.
       -1   -1    0    0    0  501  0.00000000000E+00  0.00000000000E+00 -0.39595114608E+03  0.39595114611E+03  0.50400001928E-02 0.  1.
    10030    2    1    2    0    0  0.00000000000E+00  0.00000000000E+00 -0.17006873173E+03  0.62183356050E+03  0.59812507342E+03 0.  0.
        3    1    3    3  502    0  0.29687140817E+03 -0.85683719113E+01 -0.12153055688E+03  0.32089832727E+03  0.10100000352E+00 0. -1.
       -3    1    3    3    0  502 -0.29687140817E+03  0.85683719113E+01 -0.48538174855E+02  0.30093523324E+03  0.10100000352E+00 0.  1.
</event>
<event>
 5   0  0.8420604E-02  0.6051130E+03  0.7818609E-02  0.9894855E-01
        2   -1    0    0  501    0  0.00000000000E+00  0.00000000000E+00  0.60307232578E+03  0.60307232579E+03  0.25500000920E-02 0.  1.
       -2   -1    0    0    0  501  0.00000000000E+00  0.00000000000E+00 -0.15179016785E+03  0.15179016787E+03  0.25500000920E-02 0. -1.
    10030    2    1    2    0    0  0.00000000000E+00  0.00000000000E+00  0.45128215794E+03  0.75486249366E+03  0.60511304585E+03 0.  0.
        2    1    3    3  502    0  0.56263224395E+02  0.85012739079E+02 -0.12971972843E+03  0.16498461800E+03  0.25500000920E-02 0. -1.
       -2    1    3    3    0  502 -0.56263224395E+02 -0.85012739079E+02  0.58100188637E+03  0.58987787566E+03  0.25500000920E-02 0.  1.
</event>
<event>
 5   0  0.8575590E-02  0.6023008E+03  0.7818609E-02  0.9900644E-01
        2   -1    0    0  501    0  0.00000000000E+00  0.00000000000E+00  0.93601853626E+03  0.93601853626E+03  0.25500000920E-02 0.  1.
       -2   -1    0    0    0  501  0.00000000000E+00  0.00000000000E+00 -0.96890770197E+02  0.96890770230E+02  0.25500000920E-02 0. -1.
    10030    2    1    2    0    0  0.00000000000E+00  0.00000000000E+00  0.83912776606E+03  0.10329093065E+04  0.60230077840E+03 0.  0.
        4    1    3    3  502    0  0.66981234073E+02 -0.26520325826E+03  0.20351766324E+03  0.34094032624E+03  0.12699999809E+01 0.  1.
       -4    1    3    3    0  502 -0.66981234073E+02  0.26520325826E+03  0.63561010283E+03  0.69196898025E+03  0.12699999809E+01 0. -1.
</event>
<event>
 5   0  0.4881209E-02  0.6092060E+03  0.7818609E-02  0.9886489E-01
       -1   -1    0    0    0  501  0.00000000000E+00  0.00000000000E+00  0.53043031707E+03  0.53043031709E+03  0.50400001928E-02 0. -1.
        1   -1    0    0  501    0  0.00000000000E+00  0.00000000000E+00 -0.17492020221E+03  0.17492020228E+03  0.50400001928E-02 0.  1.
    10030    2    1    2    0    0  0.00000000000E+00  0.00000000000E+00  0.35551011486E+03  0.70535051938E+03  0.60920596962E+03 0.  0.
        3    1    3    3  502    0  0.28251683282E+03  0.52717009569E+02  0.60889117590E+02  0.29377259704E+03  0.10100000352E+00 0.  1.
       -3    1    3    3    0  502 -0.28251683282E+03 -0.52717009569E+02  0.29462099727E+03  0.41157792234E+03  0.10100000352E+00 0. -1.
</event>
<event>
 5   0  0.8420604E-02  0.5899743E+03  0.7818609E-02  0.9926427E-01
       -2   -1    0    0    0  501  0.00000000000E+00  0.00000000000E+00  0.92494047255E+02  0.92494047290E+02  0.25500000920E-02 0. -1.
        2   -1    0    0  501    0  0.00000000000E+00  0.00000000000E+00 -0.94078952956E+03  0.94078952956E+03  0.25500000920E-02 0.  1.
    10030    2    1    2    0    0  0.00000000000E+00  0.00000000000E+00 -0.84829548230E+03  0.10332835769E+04  0.58997434257E+03 0.  0.
        2    1    3    3  502    0 -0.21282279337E+03  0.20231670473E+03 -0.47343167285E+03  0.55710244952E+03  0.25500000920E-02 0.  1.
       -2    1    3    3    0  502  0.21282279337E+03 -0.20231670473E+03 -0.37486380945E+03  0.47618112733E+03  0.25500000920E-02 0. -1.
</event>
<event>
 5   0  0.8575590E-02  0.6013851E+03  0.7818609E-02  0.9902537E-01
       -2   -1    0    0    0  501  0.00000000000E+00  0.00000000000E+00  0.17809543928E+03  0.17809543930E+03  0.25500000920E-02 0.  1.
        2   -1    0    0  501    0  0.00000000000E+00  0.00000000000E+00 -0.50768291731E+03  0.50768291732E+03  0.25500000920E-02 0. -1.
    10030    2    1    2    0    0  0.00000000000E+00  0.00000000000E+00 -0.32958747803E+03  0.68577835662E+03  0.60138510850E+03 0.  0.
        4    1    3    3  502    0  0.46851742241E+02 -0.88954784959E+02  0.15835768545E+03  0.18758147286E+03  0.12699999809E+01 0.  1.
       -4    1    3    3    0  502 -0.46851742241E+02  0.88954784959E+02 -0.48794516348E+03  0.49819688376E+03  0.12699999809E+01 0. -1.
</event>
<event>
 5   0  0.8699746E-02  0.5893264E+03  0.7818609E-02  0.9927801E-01
        2   -1    0    0  501    0  0.00000000000E+00  0.00000000000E+00  0.27459305096E+04  0.27459305096E+04  0.25500000920E-02 0. -1.
       -2   -1    0    0    0  501  0.00000000000E+00  0.00000000000E+00 -0.31620026234E+02  0.31620026336E+02  0.25500000920E-02 0.  1.
    10030    2    1    2    0    0  0.00000000000E+00  0.00000000000E+00  0.27143104834E+04  0.27775505360E+04  0.58932637781E+03 0.  0.
        3    1    3    3  502    0  0.24246703114E+03  0.60411536621E+02  0.20931613984E+04  0.21080238293E+04  0.10100000352E+00 0. -1.
       -3    1    3    3    0  502 -0.24246703114E+03 -0.60411536621E+02  0.62114908496E+03  0.66952670664E+03  0.10100000352E+00 0.  1.
</event>
<event>
 5   0  0.4881209E-02  0.5803625E+03  0.7818609E-02  0.9947007E-01
       -1   -1    0    0    0  501  0.00000000000E+00  0.00000000000E+00  0.10028148678E+03  0.10028148690E+03  0.50400001928E-02 0.  1.
        1   -1    0    0  501    0  0.00000000000E+00  0.00000000000E+00 -0.83968783830E+03  0.83968783832E+03  0.50400001928E-02 0. -1.
    10030    2    1    2    0    0  0.00000000000E+00  0.00000000000E+00 -0.73940635152E+03  0.93996932522E+03  0.58036245544E+03 0.  0.
        3    1    3    3  502    0  0.32589771966E+02 -0.28637970007E+03 -0.31526574232E+03  0.42716264388E+03  0.10100000352E+00 0. -1.
       -3    1    3    3    0  502 -0.32589771966E+02  0.28637970007E+03 -0.42414060921E+03  0.51280668134E+03  0.10100000352E+00 0.  1.
</event>
<event>
 5   0  0.8420604E-02  0.5894110E+03  0.7818609E-02  0.9927622E-01
        2   -1    0    0  501    0  0.00000000000E+00  0.00000000000E+00  0.13701878178E+04  0.13701878178E+04  0.25500000920E-02 0. -1.
       -2   -1    0    0    0  501  0.00000000000E+00  0.00000000000E+00 -0.63386448693E+02  0.63386448744E+02  0.25500000920E-02 0.  1.
    10030    2    1    2    0    0  0.00000000000E+00  0.00000000000E+00  0.13068013691E+04  0.14335742665E+04  0.58941102755E+03 0.  0.
        2    1    3    3  502    0  0.18165674541E+03 -0.14895958985E+03  0.10861928511E+04  0.11113069074E+04  0.25500000920E-02 0. -1.
       -2    1    3    3    0  502 -0.18165674541E+03  0.14895958985E+03  0.22060851795E+03  0.32226735912E+03  0.25500000920E-02 0.  1.
</event>
<event>
 5   0  0.5190380E-02  0.6192779E+03  0.7818609E-02  0.9866199E-01
       -1   -1    0    0    0  501  0.00000000000E+00  0.00000000000E+00  0.41055792948E+03  0.41055792951E+03  0.50400001928E-02 0.  1.
        1   -1    0    0  501    0  0.00000000000E+00  0.00000000000E+00 -0.23352677546E+03  0.23352677552E+03  0.50400001928E-02 0. -1.
    10030    2    1    2    0    0  0.00000000000E+00  0.00000000000E+00  0.17703115402E+03  0.64408470503E+03  0.61927786797E+03 0.  0.
        5    1    3    3  502    0  0.21829599433E+03 -0.17569764235E+03  0.22543780543E+03  0.35967637785E+03  0.46999998093E+01 0.  1.
       -5    1    3    3    0  502 -0.21829599433E+03  0.17569764235E+03 -0.48406651417E+02  0.28440832718E+03  0.46999998093E+01 0. -1.
</event>
<event>
 5   0  0.5166903E-02  0.5985553E+03  0.7818609E-02  0.9908408E-01
        1   -1    0    0  501    0  0.00000000000E+00  0.00000000000E+00  0.12382452274E+03  0.12382452285E+03  0.50400001928E-02 0. -1.
       -1   -1    0    0    0  501  0.00000000000E+00  0.00000000000E+00 -0.72333902395E+03  0.72333902397E+03  0.50400001928E-02 0.  1.
    10030    2    1    2    0    0  0.00000000000E+00  0.00000000000E+00 -0.59951450121E+03  0.84716354681E+03  0.59855529226E+03 0.  0.
        2    1    3    3  502    0  0.49136196169E+02  0.35721380721E+02 -0.71452093714E+03  0.71709870481E+03  0.25500000920E-02 0.  1.
       -2    1    3    3    0  502 -0.49136196169E+02 -0.35721380721E+02  0.11500643593E+03  0.13006484201E+03  0.25500000920E-02 0. -1.
</event>
<event>
 5   0  0.8420604E-02  0.6003730E+03  0.7818609E-02  0.9904632E-01
        2   -1    0    0  501    0  0.00000000000E+00  0.00000000000E+00  0.43468517705E+03  0.43468517706E+03  0.25500000920E-02 0. -1.
       -2   -1    0    0    0  501  0.00000000000E+00  0.00000000000E+00 -0.20730393317E+03  0.20730393318E+03  0.25500000920E-02 0.  1.
    10030    2    1    2    0    0  0.00000000000E+00  0.00000000000E+00  0.22738124388E+03  0.64198911024E+03  0.60037304037E+03 0.  0.
        2    1    3    3  502    0 -0.85236757539E+02 -0.10293573300E+03 -0.17373669482E+03  0.21919285823E+03  0.25500000920E-02 0.  1.
       -2    1    3    3    0  502  0.85236757539E+02  0.10293573300E+03  0.40111793870E+03  0.42279625202E+03  0.25500000920E-02 0. -1.
</event>
<event>
 5   0  0.4881209E-02  0.5982335E+03  0.7818609E-02  0.9909078E-01
       -1   -1    0    0    0  501  0.00000000000E+00  0.00000000000E+00  0.73636170645E+02  0.73636170817E+02  0.50400001928E-02 0.  1.
        1   -1    0    0  501    0  0.00000000000E+00  0.00000000000E+00 -0.12150392291E+04  0.12150392291E+04  0.50400001928E-02 0. -1.
    10030    2    1    2    0    0  0.00000000000E+00  0.00000000000E+00 -0.11414030584E+04  0.12886753999E+04  0.59823352006E+03 0.  0.
        3    1    3    3  502    0 -0.31040129455E+02 -0.18019590356E+03 -0.60772951245E+02  0.19268475576E+03  0.10100000352E+00 0.  1.
       -3    1    3    3    0  502  0.31040129455E+02  0.18019590356E+03 -0.10806301072E+04  0.10959906441E+04  0.10100000352E+00 0. -1.
</event>
<event>
 5   0  0.4881209E-02  0.6059857E+03  0.7818609E-02  0.9893065E-01
        1   -1    0    0  501    0  0.00000000000E+00  0.00000000000E+00  0.14962324675E+04  0.14962324675E+04  0.50400001928E-02 0.  1.
       -1   -1    0    0    0  501  0.00000000000E+00  0.00000000000E+00 -0.61357217343E+02  0.61357217550E+02  0.50400001928E-02 0. -1.
    10030    2    1    2    0    0  0.00000000000E+00  0.00000000000E+00  0.14348752502E+04  0.15575896851E+04  0.60598567928E+03 0.  0.
        3    1    3    3  502    0 -0.60456119097E+02 -0.10298058446E+03  0.14331965677E+04  0.14381628402E+04  0.10100000352E+00 0.  1.
       -3    1    3    3    0  502  0.60456119097E+02  0.10298058446E+03  0.16786825404E+01  0.11942684492E+03  0.10100000352E+00 0. -1.
</event>
<event>
 5   0  0.4881209E-02  0.5991982E+03  0.7818609E-02  0.9907071E-01
       -1   -1    0    0    0  501  0.00000000000E+00  0.00000000000E+00  0.55268731590E+03  0.55268731592E+03  0.50400001928E-02 0.  1.
        1   -1    0    0  501    0  0.00000000000E+00  0.00000000000E+00 -0.16240580920E+03  0.16240580928E+03  0.50400001928E-02 0. -1.
    10030    2    1    2    0    0  0.00000000000E+00  0.00000000000E+00  0.39028150670E+03  0.71509312520E+03  0.59919823367E+03 0.  0.
        3    1    3    3  502    0 -0.20137489419E+03  0.22101189891E+03  0.21783177865E+03  0.36993080632E+03  0.10100000352E+00 0. -1.
       -3    1    3    3    0  502  0.20137489419E+03 -0.22101189891E+03  0.17244972805E+03  0.34516231888E+03  0.10100000352E+00 0.  1.
</event>
<event>
 5   0  0.3437375E-02  0.5974484E+03  0.7818609E-02  0.9910714E-01
        4   -1    0    0  501    0  0.00000000000E+00  0.00000000000E+00  0.23842262504E+03  0.23842600745E+03  0.12699999809E+01 0. -1.
       -4   -1    0    0    0  501  0.00000000000E+00  0.00000000000E+00 -0.37427003518E+03  0.37427218990E+03  0.12699999809E+01 0.  1.
    10030    2    1    2    0    0  0.00000000000E+00  0.00000000000E+00 -0.13584741014E+03  0.61269819735E+03  0.59744837618E+03 0.  0.
        5    1    3    3  502    0 -0.42496554927E+02  0.28243046790E+03  0.21721041989E+02  0.28647307036E+03  0.46999998093E+01 0. -1.
       -5    1    3    3    0  502  0.42496554927E+02 -0.28243046790E+03 -0.15756845213E+03  0.32622512699E+03  0.46999998093E+01 0.  1.
</event>
<event>
 5   0  0.8817544E-02  0.5977592E+03  0.7818609E-02  0.9910066E-01
        2   -1    0    0  501    0  0.00000000000E+00  0.00000000000E+00  0.22013586918E+04  0.22013586918E+04  0.25500000920E-02 0. -1.
       -2   -1    0    0    0  501  0.00000000000E+00  0.00000000000E+00 -0.40579037291E+02  0.40579037371E+02  0.25500000920E-02 0.  1.
    10030    2    1    2    0    0  0.00000000000E+00  0.00000000000E+00  0.21607796545E+04  0.22419377292E+04  0.59775920415E+03 0.  0.
        5    1    3    3  502    0 -0.52097475443E+02 -0.27462359766E+03  0.68391609669E+03  0.73884747049E+03  0.46999998093E+01 0. -1.
       -5    1    3    3    0  502  0.52097475443E+02  0.27462359766E+03  0.14768635578E+04  0.15030902587E+04  0.46999998093E+01 0.  1.
</event>
<event>
 5   0  0.5125031E-02  0.5989608E+03  0.7818609E-02  0.9907564E-01
       -1   -1    0    0    0  501  0.00000000000E+00  0.00000000000E+00  0.29016676095E+03  0.29016676099E+03  0.50400001928E-02 0. -1.
        1   -1    0    0  501    0  0.00000000000E+00  0.00000000000E+00 -0.30909295130E+03  0.30909295134E+03  0.50400001928E-02 0.  1.
    10030    2    1    2    0    0  0.00000000000E+00  0.00000000000E+00 -0.18926190350E+02  0.59925971233E+03  0.59896076845E+03 0.  0.
        4    1    3    3  502    0 -0.10817378190E+03 -0.10814421942E+03 -0.26706033169E+03  0.30776545119E+03  0.12699999809E+01 0.  1.
       -4    1    3    3    0  502  0.10817378190E+03  0.10814421942E+03  0.24813414134E+03  0.29149426115E+03  0.12699999809E+01 0. -1.
</event>
<event>
 5   0  0.4881209E-02  0.6002679E+03  0.7818609E-02  0.9904850E-01
        1   -1    0    0  501    0  0.00000000000E+00  0.00000000000E+00  0.56715610991E+03  0.56715610994E+03  0.50400001928E-02 0.  1.
       -1   -1    0    0    0  501  0.00000000000E+00  0.00000000000E+00 -0.15882820495E+03  0.15882820503E+03  0.50400001928E-02 0. -1.
    10030    2    1    2    0    0  0.00000000000E+00  0.00000000000E+00  0.40832790496E+03  0.72598431497E+03  0.60026789654E+03 0.  0.
        3    1    3    3  502    0  0.28904459625E+03 -0.60140215583E+02  0.26948180742E+03  0.39973000748E+03  0.10100000352E+00 0.  1.
       -3    1    3    3    0  502 -0.28904459625E+03  0.60140215583E+02  0.13884609754E+03  0.32625430749E+03  0.10100000352E+00 0. -1.
</event>
<event>
 5   0  0.3437375E-02  0.5964895E+03  0.7818609E-02  0.9912716E-01
       -3   -1    0    0    0  501  0.00000000000E+00  0.00000000000E+00  0.26302842343E+03  0.26302844282E+03  0.10100000352E+00 0.  1.
        3   -1    0    0  501    0  0.00000000000E+00  0.00000000000E+00 -0.33817610996E+03  0.33817612504E+03  0.10100000352E+00 0. -1.
    10030    2    1    2    0    0  0.00000000000E+00  0.00000000000E+00 -0.75147686524E+02  0.60120456786E+03  0.59648952851E+03 0.  0.
        3    1    3    3  502    0 -0.79878725114E+02  0.28028738957E+03 -0.10138541385E+03  0.30857842410E+03  0.10100000352E+00 0. -1.
       -3    1    3    3    0  502  0.79878725114E+02 -0.28028738957E+03  0.26237727327E+02  0.29262614376E+03  0.10100000352E+00 0.  1.
</event>
<event>
 5   0  0.8420604E-02  0.5986737E+03  0.7818609E-02  0.9908161E-01
        2   -1    0    0  501    0  0.00000000000E+00  0.00000000000E+00  0.14762893350E+04  0.14762893351E+04  0.25500000920E-02 0.  1.
       -2   -1    0    0    0  501  0.00000000000E+00  0.00000000000E+00 -0.60694440623E+02  0.60694440677E+02  0.25500000920E-02 0. -1.
    10030    2    1    2    0    0  0.00000000000E+00  0.00000000000E+00  0.14155948944E+04  0.15369837757E+04  0.59867371892E+03 0.  0.
        2    1    3    3  502    0 -0.64032805402E+02  0.13869269954E+03  0.13686837179E+04  0.13771822627E+04  0.25500000920E-02 0.  1.
       -2    1    3    3    0  502  0.64032805402E+02 -0.13869269954E+03  0.46911176529E+02  0.15980151302E+03  0.25500000920E-02 0. -1.
</event>
<event>
 5   0  0.3437375E-02  0.5967599E+03  0.7818609E-02  0.9912151E-01
        3   -1    0    0  501    0  0.00000000000E+00  0.00000000000E+00  0.11475486617E+03  0.11475491062E+03  0.10100000352E+00 0. -1.
       -3   -1    0    0    0  501  0.00000000000E+00  0.00000000000E+00 -0.77583270830E+03  0.77583271488E+03  0.10100000352E+00 0.  1.
    10030    2    1    2    0    0  0.00000000000E+00  0.00000000000E+00 -0.66107784213E+03  0.89058762549E+03  0.59675992269E+03 0.  0.
        5    1    3    3  502    0  0.88591809129E+01  0.15267802196E+03 -0.71282923397E+03  0.72906561452E+03  0.46999998093E+01 0.  1.
       -5    1    3    3    0  502 -0.88591809129E+01 -0.15267802196E+03  0.51751391833E+02  0.16152201098E+03  0.46999998093E+01 0. -1.
</event>
<event>
 5   0  0.3437375E-02  0.5969184E+03  0.7818609E-02  0.9911820E-01
       -4   -1    0    0    0  501  0.00000000000E+00  0.00000000000E+00  0.13318406960E+03  0.13319012461E+03  0.12699999809E+01 0. -1.
        4   -1    0    0  501    0  0.00000000000E+00  0.00000000000E+00 -0.66881105573E+03  0.66881226153E+03  0.12699999809E+01 0.  1.
    10030    2    1    2    0    0  0.00000000000E+00  0.00000000000E+00 -0.53562698614E+03  0.80200238614E+03  0.59691838563E+03 0.  0.
        1    1    3    3  502    0 -0.10366103953E+03  0.49024976630E+02  0.10241007275E+03  0.15374291033E+03  0.50400001928E-02 0. -1.
       -1    1    3    3    0  502  0.10366103953E+03 -0.49024976630E+02 -0.63803705888E+03  0.64825947582E+03  0.50400001928E-02 0.  1.
</event>
<event>
 5   0  0.8817544E-02  0.5897525E+03  0.7818609E-02  0.9926897E-01
       -2   -1    0    0    0  501  0.00000000000E+00  0.00000000000E+00  0.40043090710E+03  0.40043090711E+03  0.25500000920E-02 0.  1.
        2   -1    0    0  501    0  0.00000000000E+00  0.00000000000E+00 -0.21714609334E+03  0.21714609335E+03  0.25500000920E-02 0. -1.
    10030    2    1    2    0    0  0.00000000000E+00  0.00000000000E+00  0.18328481376E+03  0.61757700046E+03  0.58975251466E+03 0.  0.
        5    1    3    3  502    0 -0.97054991253E+02 -0.56800667714E+02 -0.19376730581E+03  0.22408446171E+03  0.46999998093E+01 0. -1.
       -5    1    3    3    0  502  0.97054991253E+02  0.56800667714E+02  0.37705211958E+03  0.39349253875E+03  0.46999998093E+01 0.  1.
</event>
<event>
 5   0  0.4987389E-02  0.6000702E+03  0.7818609E-02  0.9905260E-01
       -1   -1    0    0    0  501  0.00000000000E+00  0.00000000000E+00  0.10245249213E+03  0.10245249225E+03  0.50400001928E-02 0.  1.
        1   -1    0    0  501    0  0.00000000000E+00  0.00000000000E+00 -0.87866154212E+03  0.87866154213E+03  0.50400001928E-02 0. -1.
    10030    2    1    2    0    0  0.00000000000E+00  0.00000000000E+00 -0.77620904999E+03  0.98111403439E+03  0.60007021188E+03 0.  0.
        1    1    3    3  502    0 -0.22125021990E+03  0.14428034142E+03 -0.62078379044E+03  0.67464137972E+03  0.50400001928E-02 0. -1.
       -1    1    3    3    0  502  0.22125021990E+03 -0.14428034142E+03 -0.15542525954E+03  0.30647265467E+03  0.50400001928E-02 0.  1.
</event>
<event>
 5   0  0.8699746E-02  0.6095061E+03  0.7818609E-02  0.9885878E-01
       -2   -1    0    0    0  501  0.00000000000E+00  0.00000000000E+00  0.82267680311E+02  0.82267680351E+02  0.25500000920E-02 0. -1.
        2   -1    0    0  501    0  0.00000000000E+00  0.00000000000E+00 -0.11289296347E+04  0.11289296347E+04  0.25500000920E-02 0.  1.
    10030    2    1    2    0    0  0.00000000000E+00  0.00000000000E+00 -0.10466619544E+04  0.12111973151E+04  0.60950610271E+03 0.  0.
        3    1    3    3  502    0  0.43952133360E+02 -0.17184076331E+03 -0.30873971068E+02  0.18003957968E+03  0.10100000352E+00 0. -1.
       -3    1    3    3    0  502 -0.43952133360E+02  0.17184076331E+03 -0.10157879833E+04  0.10311577354E+04  0.10100000352E+00 0.  1.
</event>
<event>
 5   0  0.8817544E-02  0.5845324E+03  0.7818609E-02  0.9938026E-01
       -2   -1    0    0    0  501  0.00000000000E+00  0.00000000000E+00  0.56092226330E+02  0.56092226388E+02  0.25500000920E-02 0. -1.
        2   -1    0    0  501    0  0.00000000000E+00  0.00000000000E+00 -0.15228409238E+04  0.15228409238E+04  0.25500000920E-02 0.  1.
    10030    2    1    2    0    0  0.00000000000E+00  0.00000000000E+00 -0.14667486974E+04  0.15789331502E+04  0.58453242103E+03 0.  0.
        5    1    3    3  502    0  0.42378313950E+02  0.74319220863E+02 -0.14881536446E+04  0.14906182033E+04  0.46999998093E+01 0.  1.
       -5    1    3    3    0  502 -0.42378313950E+02 -0.74319220863E+02  0.21404947134E+02  0.88314946883E+02  0.46999998093E+01 0. -1.
</event>
<event>
 5   0  0.4987389E-02  0.5921910E+03  0.7818609E-02  0.9921741E-01
        1   -1    0    0  501    0  0.00000000000E+00  0.00000000000E+00  0.78090772349E+03  0.78090772351E+03  0.50400001928E-02 0. -1.
       -1   -1    0    0    0  501  0.00000000000E+00  0.00000000000E+00 -0.11227004330E+03  0.11227004341E+03  0.50400001928E-02 0.  1.
    10030    2    1    2    0    0  0.00000000000E+00  0.00000000000E+00  0.66863768020E+03  0.89317776692E+03  0.59219099617E+03 0.  0.
        1    1    3    3  502    0 -0.17018328978E+03  0.78825878362E+02  0.67989358278E+03  0.70528799447E+03  0.50400001928E-02 0. -1.
       -1    1    3    3    0  502  0.17018328978E+03 -0.78825878362E+02 -0.11255902582E+02  0.18788977244E+03  0.50400001928E-02 0.  1.
</event>
<event>
 5   0  0.8420604E-02  0.5904762E+03  0.7818609E-02  0.9925364E-01
        2   -1    0    0  501    0  0.00000000000E+00  0.00000000000E+00  0.78835991142E+03  0.78835991142E+03  0.25500000920E-02 0.  1.
       -2   -1    0    0    0  501  0.00000000000E+00  0.00000000000E+00 -0.11056566080E+03  0.11056566083E+03  0.25500000920E-02 0. -1.
    10030    2    1    2    0    0  0.00000000000E+00  0.00000000000E+00  0.67779425062E+03  0.89892557226E+03  0.59047619621E+03 0.  0.
        2    1    3    3  502    0 -0.26864903991E+03  0.16751726959E+02  0.15423995928E+03  0.31023038544E+03  0.25500000920E-02 0.  1.
       -2    1    3    3    0  502  0.26864903991E+03 -0.16751726959E+02  0.52355429133E+03  0.58869518682E+03  0.25500000920E-02 0. -1.
</event>
<event>
 5   0  0.8817544E-02  0.5998245E+03  0.7818609E-02  0.9905770E-01
       -2   -1    0    0    0  501  0.00000000000E+00  0.00000000000E+00  0.83185297666E+02  0.83185297705E+02  0.25500000920E-02 0.  1.
        2   -1    0    0  501    0  0.00000000000E+00  0.00000000000E+00 -0.10812892782E+04  0.10812892782E+04  0.25500000920E-02 0. -1.
    10030    2    1    2    0    0  0.00000000000E+00  0.00000000000E+00 -0.99810398050E+03  0.11644745759E+04  0.59982454265E+03 0.  0.
        5    1    3    3  502    0  0.19082023236E+02 -0.10859342084E+03 -0.10404392007E+04  0.10462755254E+04  0.46999998093E+01 0. -1.
       -5    1    3    3    0  502 -0.19082023236E+02  0.10859342084E+03  0.42335220229E+02  0.11819905046E+03  0.46999998093E+01 0.  1.
</event>
<event>
 5   0  0.5166903E-02  0.5970812E+03  0.7818609E-02  0.9911480E-01
        1   -1    0    0  501    0  0.00000000000E+00  0.00000000000E+00  0.65404995195E+03  0.65404995197E+03  0.50400001928E-02 0. -1.
       -1   -1    0    0    0  501  0.00000000000E+00  0.00000000000E+00 -0.13626864724E+03  0.13626864733E+03  0.50400001928E-02 0.  1.
    10030    2    1    2    0    0  0.00000000000E+00  0.00000000000E+00  0.51778130472E+03  0.79031859930E+03  0.59708124145E+03 0.  0.
        2    1    3    3  502    0 -0.21594148517E+03 -0.71870146055E+02  0.31496033294E+01  0.22760923294E+03  0.25500000920E-02 0.  1.
       -2    1    3    3    0  502  0.21594148517E+03  0.71870146055E+02  0.51463170139E+03  0.56270936636E+03  0.25500000920E-02 0. -1.
</event>
<event>
 5   0  0.8817544E-02  0.6099965E+03  0.7818609E-02  0.9884881E-01
       -2   -1    0    0    0  501  0.00000000000E+00  0.00000000000E+00  0.95714758279E+02  0.95714758313E+02  0.25500000920E-02 0.  1.
        2   -1    0    0  501    0  0.00000000000E+00  0.00000000000E+00 -0.97188696150E+03  0.97188696150E+03  0.25500000920E-02 0. -1.
    10030    2    1    2    0    0  0.00000000000E+00  0.00000000000E+00 -0.87617220322E+03  0.10676017198E+04  0.60999647741E+03 0.  0.
        5    1    3    3  502    0 -0.19327634803E+03  0.11726376139E+03 -0.79631827314E+03  0.82779914145E+03  0.46999998093E+01 0.  1.
       -5    1    3    3    0  502  0.19327634803E+03 -0.11726376139E+03 -0.79853930081E+02  0.23980257837E+03  0.46999998093E+01 0. -1.
</event>
<event>
 5   0  0.5125031E-02  0.6027216E+03  0.7818609E-02  0.9899776E-01
        1   -1    0    0  501    0  0.00000000000E+00  0.00000000000E+00  0.17380579265E+03  0.17380579272E+03  0.50400001928E-02 0. -1.
       -1   -1    0    0    0  501  0.00000000000E+00  0.00000000000E+00 -0.52252758061E+03  0.52252758063E+03  0.50400001928E-02 0.  1.
    10030    2    1    2    0    0  0.00000000000E+00  0.00000000000E+00 -0.34872178796E+03  0.69633337335E+03  0.60272156212E+03 0.  0.
        4    1    3    3  502    0  0.16325084464E+03 -0.85155081171E+02 -0.44998162040E+03  0.48619676852E+03  0.12699999809E+01 0.  1.
       -4    1    3    3    0  502 -0.16325084464E+03  0.85155081171E+02  0.10125983244E+03  0.21013660483E+03  0.12699999809E+01 0. -1.
</event>
<event>
 5   0  0.5190380E-02  0.5732822E+03  0.7818609E-02  0.9962442E-01
        1   -1    0    0  501    0  0.00000000000E+00  0.00000000000E+00  0.52301230913E+03  0.52301230915E+03  0.50400001928E-02 0.  1.
       -1   -1    0    0    0  501  0.00000000000E+00  0.00000000000E+00 -0.15709598093E+03  0.15709598101E+03  0.50400001928E-02 0. -1.
    10030    2    1    2    0    0  0.00000000000E+00  0.00000000000E+00  0.36591632819E+03  0.68010829016E+03  0.57328224036E+03 0.  0.
        5    1    3    3  502    0 -0.26089111781E+03 -0.73246714968E+02  0.72228709836E+02  0.28047875700E+03  0.46999998093E+01 0. -1.
       -5    1    3    3    0  502  0.26089111781E+03  0.73246714968E+02  0.29368761836E+03  0.39962953317E+03  0.46999998093E+01 0.  1.
</event>
<event>
 5   0  0.4881209E-02  0.5945573E+03  0.7818609E-02  0.9916763E-01
        1   -1    0    0  501    0  0.00000000000E+00  0.00000000000E+00  0.15362298984E+04  0.15362298984E+04  0.50400001928E-02 0. -1.
       -1   -1    0    0    0  501  0.00000000000E+00  0.00000000000E+00 -0.57526929942E+02  0.57526930163E+02  0.50400001928E-02 0.  1.
    10030    2    1    2    0    0  0.00000000000E+00  0.00000000000E+00  0.14787029684E+04  0.15937568285E+04  0.59455728040E+03 0.  0.
        3    1    3    3  502    0 -0.17506564750E+03 -0.21525713628E+03  0.45325758418E+03  0.53143773245E+03  0.10100000352E+00 0.  1.
       -3    1    3    3    0  502  0.17506564750E+03  0.21525713628E+03  0.10254453842E+04  0.10623190961E+04  0.10100000352E+00 0. -1.
</event>
<event>
 5   0  0.5190380E-02  0.6001515E+03  0.7818609E-02  0.9905092E-01
        1   -1    0    0  501    0  0.00000000000E+00  0.00000000000E+00  0.13912807113E+03  0.13912807122E+03  0.50400001928E-02 0.  1.
       -1   -1    0    0    0  501  0.00000000000E+00  0.00000000000E+00 -0.64721270860E+03  0.64721270862E+03  0.50400001928E-02 0. -1.
    10030    2    1    2    0    0  0.00000000000E+00  0.00000000000E+00 -0.50808463747E+03  0.78634077984E+03  0.60015150021E+03 0.  0.
        5    1    3    3  502    0 -0.22100208025E+03  0.18873848875E+03 -0.15635072551E+03  0.33004814191E+03  0.46999998093E+01 0.  1.
       -5    1    3    3    0  502  0.22100208025E+03 -0.18873848875E+03 -0.35173391196E+03  0.45629263794E+03  0.46999998093E+01 0. -1.
</event>
<event>
 5   0  0.8699746E-02  0.5894815E+03  0.7818609E-02  0.9927472E-01
       -2   -1    0    0    0  501  0.00000000000E+00  0.00000000000E+00  0.28800900391E+03  0.28800900392E+03  0.25500000920E-02 0. -1.
        2   -1    0    0  501    0  0.00000000000E+00  0.00000000000E+00 -0.30162979656E+03  0.30162979657E+03  0.25500000920E-02 0.  1.
    10030    2    1    2    0    0  0.00000000000E+00  0.00000000000E+00 -0.13620792653E+02  0.58963880049E+03  0.58948145776E+03 0.  0.
        3    1    3    3  502    0  0.26776240964E+03 -0.97670144829E+02 -0.81903211602E+02  0.29655406164E+03  0.10100000352E+00 0.  1.
       -3    1    3    3    0  502 -0.26776240964E+03  0.97670144829E+02  0.68282418949E+02  0.29308473884E+03  0.10100000352E+00 0. -1.
</event>
<event>
 5   0  0.4881209E-02  0.5763939E+03  0.7818609E-02  0.9955629E-01
        1   -1    0    0  501    0  0.00000000000E+00  0.00000000000E+00  0.52467391417E+03  0.52467391420E+03  0.50400001928E-02 0. -1.
       -1   -1    0    0    0  501  0.00000000000E+00  0.00000000000E+00 -0.15830305179E+03  0.15830305187E+03  0.50400001928E-02 0.  1.
    10030    2    1    2    0    0  0.00000000000E+00  0.00000000000E+00  0.36637086238E+03  0.68297696607E+03  0.57639389950E+03 0.  0.
        3    1    3    3  502    0 -0.56965796373E+02  0.12933124642E+03 -0.11442797008E+03  0.18183906014E+03  0.10100000352E+00 0.  1.
       -3    1    3    3    0  502  0.56965796373E+02 -0.12933124642E+03  0.48079883246E+03  0.50113790592E+03  0.10100000352E+00 0. -1.
</event>
<event>
 5   0  0.5190380E-02  0.6069747E+03  0.7818609E-02  0.9891040E-01
        1   -1    0    0  501    0  0.00000000000E+00  0.00000000000E+00  0.48772549006E+03  0.48772549009E+03  0.50400001928E-02 0. -1.
       -1   -1    0    0    0  501  0.00000000000E+00  0.00000000000E+00 -0.18884513372E+03  0.18884513379E+03  0.50400001928E-02 0.  1.
    10030    2    1    2    0    0  0.00000000000E+00  0.00000000000E+00  0.29888035634E+03  0.67657062388E+03  0.60697474551E+03 0.  0.
        5    1    3    3  502    0 -0.43664888406E+02 -0.29748421005E+03  0.10376606171E+03  0.31810841433E+03  0.46999998093E+01 0. -1.
       -5    1    3    3    0  502  0.43664888406E+02  0.29748421005E+03  0.19511429463E+03  0.35846220955E+03  0.46999998093E+01 0.  1.
</event>
<event>
 5   0  0.8699746E-02  0.5763923E+03  0.7818609E-02  0.9955632E-01
        2   -1    0    0  501    0  0.00000000000E+00  0.00000000000E+00  0.50592022142E+03  0.50592022142E+03  0.25500000920E-02 0.  1.
       -2   -1    0    0    0  501  0.00000000000E+00  0.00000000000E+00 -0.16417020888E+03  0.16417020890E+03  0.25500000920E-02 0. -1.
    10030    2    1    2    0    0  0.00000000000E+00  0.00000000000E+00  0.34175001253E+03  0.67009043033E+03  0.57639232624E+03 0.  0.
        3    1    3    3  502    0 -0.97599741149E+01  0.12722430248E+03  0.47129205391E+03  0.48825965482E+03  0.10100000352E+00 0.  1.
       -3    1    3    3    0  502  0.97599741149E+01 -0.12722430248E+03 -0.12954204138E+03  0.18183077551E+03  0.10100000352E+00 0. -1.
</event>
<event>
 5   0  0.3437375E-02  0.6015163E+03  0.7818609E-02  0.9902265E-01
        3   -1    0    0  501    0  0.00000000000E+00  0.00000000000E+00  0.44743703431E+03  0.44743704571E+03  0.10100000352E+00 0.  1.
       -3   -1    0    0    0  501  0.00000000000E+00  0.00000000000E+00 -0.20216355309E+03  0.20216357831E+03  0.10100000352E+00 0. -1.
    10030    2    1    2    0    0  0.00000000000E+00  0.00000000000E+00  0.24527348123E+03  0.64960062403E+03  0.60151632575E+03 0.  0.
        3    1    3    3  502    0 -0.15861692325E+03  0.11845625409E+03 -0.12187871618E+03  0.23247719057E+03  0.10100000352E+00 0. -1.
       -3    1    3    3    0  502  0.15861692325E+03 -0.11845625409E+03  0.36715219741E+03  0.41712343346E+03  0.10100000352E+00 0.  1.
</event>
<event>
 5   0  0.8207443E-02  0.5987263E+03  0.7818609E-02  0.9908052E-01
        2   -1    0    0  501    0  0.00000000000E+00  0.00000000000E+00  0.16108462396E+04  0.16108462396E+04  0.25500000920E-02 0.  1.
       -2   -1    0    0    0  501  0.00000000000E+00  0.00000000000E+00 -0.55634288173E+02  0.55634288231E+02  0.25500000920E-02 0. -1.
    10030    2    1    2    0    0  0.00000000000E+00  0.00000000000E+00  0.15552119514E+04  0.16664805278E+04  0.59872626114E+03 0.  0.
        1    1    3    3  502    0 -0.19314435289E+02 -0.27630067775E+03  0.10937756260E+04  0.11282997085E+04  0.50400001928E-02 0.  1.
       -1    1    3    3    0  502  0.19314435289E+02  0.27630067775E+03  0.46143632534E+03  0.53818081934E+03  0.50400001928E-02 0. -1.
</event>
<event>
 5   0  0.8575590E-02  0.5920342E+03  0.7818609E-02  0.9922072E-01
        2   -1    0    0  501    0  0.00000000000E+00  0.00000000000E+00  0.13907005537E+04  0.13907005537E+04  0.25500000920E-02 0. -1.
       -2   -1    0    0    0  501  0.00000000000E+00  0.00000000000E+00 -0.63008627867E+02  0.63008627919E+02  0.25500000920E-02 0.  1.
    10030    2    1    2    0    0  0.00000000000E+00  0.00000000000E+00  0.13276919258E+04  0.14537091816E+04  0.59203423449E+03 0.  0.
        4    1    3    3  502    0  0.17190618517E+03 -0.18462175337E+03  0.10441439651E+04  0.10741858131E+04  0.12699999809E+01 0. -1.
       -4    1    3    3    0  502 -0.17190618517E+03  0.18462175337E+03  0.28354796074E+03  0.37952336852E+03  0.12699999809E+01 0.  1.
</event>
<event>
 5   0  0.3437375E-02  0.5863225E+03  0.7818609E-02  0.9934196E-01
       -3   -1    0    0    0  501  0.00000000000E+00  0.00000000000E+00  0.37370354054E+03  0.37370355419E+03  0.10100000352E+00 0.  1.
        3   -1    0    0  501    0  0.00000000000E+00  0.00000000000E+00 -0.22997774325E+03  0.22997776543E+03  0.10100000352E+00 0. -1.
    10030    2    1    2    0    0  0.00000000000E+00  0.00000000000E+00  0.14372579729E+03  0.60368131962E+03  0.58632246320E+03 0.  0.
        3    1    3    3  502    0  0.19378998843E+03  0.96599101132E+02  0.27534382746E+03  0.35028585395E+03  0.10100000352E+00 0.  1.
       -3    1    3    3    0  502 -0.19378998843E+03 -0.96599101132E+02 -0.13161803017E+03  0.25339546567E+03  0.10100000352E+00 0. -1.
</event>
<event>
 5   0  0.5166903E-02  0.6067006E+03  0.7818609E-02  0.9891601E-01
        1   -1    0    0  501    0  0.00000000000E+00  0.00000000000E+00  0.63960632216E+03  0.63960632218E+03  0.50400001928E-02 0. -1.
       -1   -1    0    0    0  501  0.00000000000E+00  0.00000000000E+00 -0.14387192786E+03  0.14387192795E+03  0.50400001928E-02 0.  1.
    10030    2    1    2    0    0  0.00000000000E+00  0.00000000000E+00  0.49573439430E+03  0.78347825014E+03  0.60670056761E+03 0.  0.
        2    1    3    3  502    0 -0.27652144657E+03 -0.83532119965E+02  0.36748279496E+03  0.46742414366E+03  0.25500000920E-02 0. -1.
       -2    1    3    3    0  502  0.27652144657E+03  0.83532119965E+02  0.12825159934E+03  0.31605410647E+03  0.25500000920E-02 0.  1.
</event>
<event>
 5   0  0.8817544E-02  0.6011273E+03  0.7818609E-02  0.9903070E-01
       -2   -1    0    0    0  501  0.00000000000E+00  0.00000000000E+00  0.31343666632E+03  0.31343666633E+03  0.25500000920E-02 0. -1.
        2   -1    0    0  501    0  0.00000000000E+00  0.00000000000E+00 -0.28821933853E+03  0.28821933855E+03  0.25500000920E-02 0.  1.
    10030    2    1    2    0    0  0.00000000000E+00  0.00000000000E+00  0.25217327786E+02  0.60165600488E+03  0.60112730314E+03 0.  0.
        5    1    3    3  502    0 -0.37463427719E+01 -0.29998126123E+03  0.30333742076E+02  0.30157091717E+03  0.46999998093E+01 0. -1.
       -5    1    3    3    0  502  0.37463427719E+01  0.29998126123E+03 -0.51164142902E+01  0.30008508771E+03  0.46999998093E+01 0.  1.
</event>
<event>
 5   0  0.5125031E-02  0.4781914E+03  0.7818609E-02  0.1019633E+00
       -1   -1    0    0    0  501  0.00000000000E+00  0.00000000000E+00  0.21117883252E+03  0.21117883258E+03  0.50400001928E-02 0. -1.
        1   -1    0    0  501    0  0.00000000000E+00  0.00000000000E+00 -0.27070304914E+03  0.27070304918E+03  0.50400001928E-02 0.  1.
    10030    2    1    2    0    0  0.00000000000E+00  0.00000000000E+00 -0.59524216612E+02  0.48188188177E+03  0.47819140061E+03 0.  0.
        4    1    3    3  502    0 -0.17000396219E+03 -0.16341461453E+03  0.10032627117E+02  0.23602531624E+03  0.12699999809E+01 0. -1.
       -4    1    3    3    0  502  0.17000396219E+03  0.16341461453E+03 -0.69556843729E+02  0.24585656552E+03  0.12699999809E+01 0.  1.
</event>
<event>
 5   0  0.8207443E-02  0.5906480E+03  0.7818609E-02  0.9925001E-01
        2   -1    0    0  501    0  0.00000000000E+00  0.00000000000E+00  0.89942961944E+03  0.89942961944E+03  0.25500000920E-02 0.  1.
       -2   -1    0    0    0  501  0.00000000000E+00  0.00000000000E+00 -0.96968418380E+02  0.96968418413E+02  0.25500000920E-02 0. -1.
    10030    2    1    2    0    0  0.00000000000E+00  0.00000000000E+00  0.80246120106E+03  0.99639803785E+03  0.59064800909E+03 0.  0.
        1    1    3    3  502    0  0.15963164226E+03  0.36574842399E+02 -0.13350252212E+02  0.16431131905E+03  0.50400001928E-02 0. -1.
       -1    1    3    3    0  502 -0.15963164226E+03 -0.36574842399E+02  0.81581145327E+03  0.83208671881E+03  0.50400001928E-02 0.  1.
</event>
<event>
 5   0  0.8817544E-02  0.6013679E+03  0.7818609E-02  0.9902572E-01
       -2   -1    0    0    0  501  0.00000000000E+00  0.00000000000E+00  0.11267666696E+03  0.11267666699E+03  0.25500000920E-02 0. -1.
        2   -1    0    0  501    0  0.00000000000E+00  0.00000000000E+00 -0.80239196307E+03  0.80239196307E+03  0.25500000920E-02 0.  1.
    10030    2    1    2    0    0  0.00000000000E+00  0.00000000000E+00 -0.68971529611E+03  0.91506863006E+03  0.60136794730E+03 0.  0.
        5    1    3    3  502    0 -0.19268315304E+03  0.15983369708E+03 -0.91536155992E+02  0.26659813585E+03  0.46999998093E+01 0. -1.
       -5    1    3    3    0  502  0.19268315304E+03 -0.15983369708E+03 -0.59817914012E+03  0.64847049421E+03  0.46999998093E+01 0.  1.
</event>
<event>
 5   0  0.8420604E-02  0.5987781E+03  0.7818609E-02  0.9907944E-01
        2   -1    0    0  501    0  0.00000000000E+00  0.00000000000E+00  0.15415874959E+04  0.15415874959E+04  0.25500000920E-02 0. -1.
       -2   -1    0    0    0  501  0.00000000000E+00  0.00000000000E+00 -0.58143830949E+02  0.58143831005E+02  0.25500000920E-02 0.  1.
    10030    2    1    2    0    0  0.00000000000E+00  0.00000000000E+00  0.14834436649E+04  0.15997313269E+04  0.59877809846E+03 0.  0.
        2    1    3    3  502    0  0.61962598087E+02 -0.29340778093E+02  0.15203333103E+04  0.15218783195E+04  0.25500000920E-02 0. -1.
       -2    1    3    3    0  502 -0.61962598087E+02  0.29340778093E+02 -0.36889645382E+02  0.77853007416E+02  0.25500000920E-02 0.  1.
</event>
<event>
 5   0  0.4987389E-02  0.5849052E+03  0.7818609E-02  0.9937227E-01
        1   -1    0    0  501    0  0.00000000000E+00  0.00000000000E+00  0.44530703602E+03  0.44530703605E+03  0.50400001928E-02 0. -1.
       -1   -1    0    0    0  501  0.00000000000E+00  0.00000000000E+00 -0.19206643880E+03  0.19206643887E+03  0.50400001928E-02 0.  1.
    10030    2    1    2    0    0  0.00000000000E+00  0.00000000000E+00  0.25324059722E+03  0.63737347491E+03  0.58490524570E+03 0.  0.
        1    1    3    3  502    0 -0.25688300105E+03  0.13971353829E+03  0.13146765285E+03  0.32061268344E+03  0.50400001928E-02 0.  1.
       -1    1    3    3    0  502  0.25688300105E+03 -0.13971353829E+03  0.12177294437E+03  0.31676079148E+03  0.50400001928E-02 0. -1.
</event>
<event>
 5   0  0.5125031E-02  0.5987900E+03  0.7818609E-02  0.9907920E-01
        1   -1    0    0  501    0  0.00000000000E+00  0.00000000000E+00  0.18596658039E+04  0.18596658039E+04  0.50400001928E-02 0. -1.
       -1   -1    0    0    0  501  0.00000000000E+00  0.00000000000E+00 -0.48200797718E+02  0.48200797982E+02  0.50400001928E-02 0.  1.
    10030    2    1    2    0    0  0.00000000000E+00  0.00000000000E+00  0.18114650062E+04  0.19078666019E+04  0.59879003164E+03 0.  0.
        4    1    3    3  502    0  0.10496026622E+03 -0.24403436887E+03  0.13456862476E+04  0.13716568523E+04  0.12699999809E+01 0. -1.
       -4    1    3    3    0  502 -0.10496026622E+03  0.24403436887E+03  0.46577875862E+03  0.53620974959E+03  0.12699999809E+01 0.  1.
</event>
<event>
 5   0  0.8420604E-02  0.6002558E+03  0.7818609E-02  0.9904876E-01
        2   -1    0    0  501    0  0.00000000000E+00  0.00000000000E+00  0.32954382415E+03  0.32954382416E+03  0.25500000920E-02 0. -1.
       -2   -1    0    0    0  501  0.00000000000E+00  0.00000000000E+00 -0.27333770843E+03  0.27333770844E+03  0.25500000920E-02 0.  1.
    10030    2    1    2    0    0  0.00000000000E+00  0.00000000000E+00  0.56206115723E+02  0.60288153261E+03  0.60025579124E+03 0.  0.
        2    1    3    3  502    0  0.24605387880E+03  0.82524760121E+01  0.20051098854E+03  0.31751420624E+03  0.25500000920E-02 0. -1.
       -2    1    3    3    0  502 -0.24605387880E+03 -0.82524760121E+01 -0.14430487281E+03  0.28536732637E+03  0.25500000920E-02 0.  1.
</event>
<event>
 5   0  0.8817544E-02  0.6016846E+03  0.7818609E-02  0.9901917E-01
        2   -1    0    0  501    0  0.00000000000E+00  0.00000000000E+00  0.39770595317E+03  0.39770595318E+03  0.25500000920E-02 0.  1.
       -2   -1    0    0    0  501  0.00000000000E+00  0.00000000000E+00 -0.22757036033E+03  0.22757036035E+03  0.25500000920E-02 0. -1.
    10030    2    1    2    0    0  0.00000000000E+00  0.00000000000E+00  0.17013559283E+03  0.62527631353E+03  0.60168459205E+03 0.  0.
        5    1    3    3  502    0 -0.19979292727E+03 -0.22468251334E+03  0.75512069567E+02  0.31003807546E+03  0.46999998093E+01 0. -1.
       -5    1    3    3    0  502  0.19979292727E+03  0.22468251334E+03  0.94623523268E+02  0.31523823807E+03  0.46999998093E+01 0.  1.
</event>
<event>
 5   0  0.5125031E-02  0.5909319E+03  0.7818609E-02  0.9924400E-01
        1   -1    0    0  501    0  0.00000000000E+00  0.00000000000E+00  0.14094976352E+03  0.14094976361E+03  0.50400001928E-02 0.  1.
       -1   -1    0    0    0  501  0.00000000000E+00  0.00000000000E+00 -0.61937059316E+03  0.61937059318E+03  0.50400001928E-02 0. -1.
    10030    2    1    2    0    0  0.00000000000E+00  0.00000000000E+00 -0.47842082964E+03  0.76032035679E+03  0.59093193747E+03 0.  0.
        4    1    3    3  502    0  0.27760291986E+03  0.12900340348E+02 -0.11010441813E+03  0.29892205620E+03  0.12699999809E+01 0.  1.
       -4    1    3    3    0  502 -0.27760291986E+03 -0.12900340348E+02 -0.36831641151E+03  0.46139830059E+03  0.12699999809E+01 0. -1.
</event>
<event>
 5   0  0.5166903E-02  0.5978651E+03  0.7818609E-02  0.9909845E-01
        1   -1    0    0  501    0  0.00000000000E+00  0.00000000000E+00  0.72426514261E+03  0.72426514263E+03  0.50400001928E-02 0.  1.
       -1   -1    0    0    0  501  0.00000000000E+00  0.00000000000E+00 -0.12338114699E+03  0.12338114709E+03  0.50400001928E-02 0. -1.
    10030    2    1    2    0    0  0.00000000000E+00  0.00000000000E+00  0.60088399562E+03  0.84764628972E+03  0.59786508200E+03 0.  0.
        2    1    3    3  502    0 -0.21722395021E+03 -0.50476909398E+02  0.18211241394E+02  0.22375391001E+03  0.25500000920E-02 0. -1.
       -2    1    3    3    0  502  0.21722395021E+03  0.50476909398E+02  0.58267275423E+03  0.62389237970E+03  0.25500000920E-02 0.  1.
</event>
<event>
 5   0  0.3437375E-02  0.5993602E+03  0.7818609E-02  0.9906734E-01
        3   -1    0    0  501    0  0.00000000000E+00  0.00000000000E+00  0.64738900843E+03  0.64738901631E+03  0.10100000352E+00 0.  1.
       -3   -1    0    0    0  501  0.00000000000E+00  0.00000000000E+00 -0.13872362273E+03  0.13872365950E+03  0.10100000352E+00 0. -1.
    10030    2    1    2    0    0  0.00000000000E+00  0.00000000000E+00  0.50866538570E+03  0.78611267581E+03  0.59936021261E+03 0.  0.
        2    1    3    3  502    0  0.27353344660E+03  0.12175065391E+03  0.27114956088E+03  0.40393793151E+03  0.25500000920E-02 0.  1.
       -2    1    3    3    0  502 -0.27353344660E+03 -0.12175065391E+03  0.23751582482E+03  0.38217474430E+03  0.25500000920E-02 0. -1.
</event>
<event>
 5   0  0.8575590E-02  0.6030114E+03  0.7818609E-02  0.9899178E-01
        2   -1    0    0  501    0  0.00000000000E+00  0.00000000000E+00  0.20726120985E+04  0.20726120985E+04  0.25500000920E-02 0. -1.
       -2   -1    0    0    0  501  0.00000000000E+00  0.00000000000E+00 -0.43860443727E+02  0.43860443801E+02  0.25500000920E-02 0.  1.
    10030    2    1    2    0    0  0.00000000000E+00  0.00000000000E+00  0.20287516547E+04  0.21164725423E+04  0.60301139755E+03 0.  0.
        4    1    3    3  502    0  0.10036229154E+03  0.15274401502E+03  0.17274066445E+03  0.25148414213E+03  0.12699999809E+01 0.  1.
       -4    1    3    3    0  502 -0.10036229154E+03 -0.15274401502E+03  0.18560109903E+04  0.18649884001E+04  0.12699999809E+01 0. -1.
</event>
<event>
 5   0  0.5190380E-02  0.6062583E+03  0.7818609E-02  0.9892507E-01
        1   -1    0    0  501    0  0.00000000000E+00  0.00000000000E+00  0.42268612478E+03  0.42268612481E+03  0.50400001928E-02 0.  1.
       -1   -1    0    0    0  501  0.00000000000E+00  0.00000000000E+00 -0.21738891367E+03  0.21738891372E+03  0.50400001928E-02 0. -1.
    10030    2    1    2    0    0  0.00000000000E+00  0.00000000000E+00  0.20529721111E+03  0.64007503853E+03  0.60625828659E+03 0.  0.
        5    1    3    3  502    0 -0.48037317365E+02 -0.22841614954E+03 -0.10148483192E+03  0.25456390619E+03  0.46999998093E+01 0. -1.
       -5    1    3    3    0  502  0.48037317365E+02  0.22841614954E+03  0.30678204303E+03  0.38551113234E+03  0.46999998093E+01 0.  1.
</event>
<event>
 5   0  0.8575590E-02  0.6005661E+03  0.7818609E-02  0.9904232E-01
        2   -1    0    0  501    0  0.00000000000E+00  0.00000000000E+00  0.86119318269E+03  0.86119318270E+03  0.25500000920E-02 0. -1.
       -2   -1    0    0    0  501  0.00000000000E+00  0.00000000000E+00 -0.10470346685E+03  0.10470346688E+03  0.25500000920E-02 0.  1.
    10030    2    1    2    0    0  0.00000000000E+00  0.00000000000E+00  0.75648971584E+03  0.96589664958E+03  0.60056610584E+03 0.  0.
        4    1    3    3  502    0  0.14457668583E+03  0.15577980405E+02 -0.44294735021E+02  0.15201555187E+03  0.12699999809E+01 0.  1.
       -4    1    3    3    0  502 -0.14457668583E+03 -0.15577980405E+02  0.80078445086E+03  0.81388109771E+03  0.12699999809E+01 0. -1.
</event>
<event>
 5   0  0.8575590E-02  0.6084909E+03  0.7818609E-02  0.9887945E-01
       -2   -1    0    0    0  501  0.00000000000E+00  0.00000000000E+00  0.17974869054E+03  0.17974869056E+03  0.25500000920E-02 0. -1.
        2   -1    0    0  501    0  0.00000000000E+00  0.00000000000E+00 -0.51497059952E+03  0.51497059953E+03  0.25500000920E-02 0.  1.
    10030    2    1    2    0    0  0.00000000000E+00  0.00000000000E+00 -0.33522190899E+03  0.69471929008E+03  0.60849089044E+03 0.  0.
        4    1    3    3  502    0  0.17984644228E+03 -0.15907323266E+03  0.45722552624E+02  0.24442013188E+03  0.12699999809E+01 0. -1.
       -4    1    3    3    0  502 -0.17984644228E+03  0.15907323266E+03 -0.38094446161E+03  0.45029915821E+03  0.12699999809E+01 0.  1.
</event>
<event>
 5   0  0.8699746E-02  0.4963610E+03  0.7818609E-02  0.1014733E+00
       -2   -1    0    0    0  501  0.00000000000E+00  0.00000000000E+00  0.29740809302E+03  0.29740809303E+03  0.25500000920E-02 0. -1.
        2   -1    0    0  501    0  0.00000000000E+00  0.00000000000E+00 -0.20710113611E+03  0.20710113613E+03  0.25500000920E-02 0.  1.
    10030    2    1    2    0    0  0.00000000000E+00  0.00000000000E+00  0.90306956912E+02  0.50450922916E+03  0.49636097333E+03 0.  0.
        3    1    3    3  502    0  0.20020347560E+03  0.56572003308E+02 -0.92388752371E+02  0.22763460845E+03  0.10100000352E+00 0.  1.
       -3    1    3    3    0  502 -0.20020347560E+03 -0.56572003308E+02  0.18269570928E+03  0.27687462071E+03  0.10100000352E+00 0. -1.
</event>
<event>
 5   0  0.5166903E-02  0.6048447E+03  0.7818609E-02  0.9895405E-01
       -1   -1    0    0    0  501  0.00000000000E+00  0.00000000000E+00  0.67222747490E+02  0.67222747679E+02  0.50400001928E-02 0.  1.
        1   -1    0    0  501    0  0.00000000000E+00  0.00000000000E+00 -0.13605407417E+04  0.13605407418E+04  0.50400001928E-02 0. -1.
    10030    2    1    2    0    0  0.00000000000E+00  0.00000000000E+00 -0.12933179943E+04  0.14277634894E+04  0.60484473007E+03 0.  0.
        2    1    3    3  502    0  0.26645006373E+03  0.44087707323E+02 -0.32541725196E+03  0.42288976138E+03  0.25500000920E-02 0.  1.
       -2    1    3    3    0  502 -0.26645006373E+03 -0.44087707323E+02 -0.96790074230E+03  0.10048737281E+04  0.25500000920E-02 0. -1.
</event>
<event>
 5   0  0.5125031E-02  0.5974843E+03  0.7818609E-02  0.9910639E-01
        1   -1    0    0  501    0  0.00000000000E+00  0.00000000000E+00  0.18898616690E+03  0.18898616697E+03  0.50400001928E-02 0.  1.
       -1   -1    0    0    0  501  0.00000000000E+00  0.00000000000E+00 -0.47224019775E+03  0.47224019778E+03  0.50400001928E-02 0. -1.
    10030    2    1    2    0    0  0.00000000000E+00  0.00000000000E+00 -0.28325403084E+03  0.66122636475E+03  0.59748427548E+03 0.  0.
        4    1    3    3  502    0  0.50312568479E+02  0.16539774801E+03 -0.41125279740E+03  0.44611461069E+03  0.12699999809E+01 0. -1.
       -4    1    3    3    0  502 -0.50312568479E+02 -0.16539774801E+03  0.12799876656E+03  0.21511175406E+03  0.12699999809E+01 0.  1.
</event>
<event>
 5   0  0.5190380E-02  0.6111248E+03  0.7818609E-02  0.9882591E-01
       -1   -1    0    0    0  501  0.00000000000E+00  0.00000000000E+00  0.45533216558E+02  0.45533216837E+02  0.50400001928E-02 0. -1.
        1   -1    0    0  501    0  0.00000000000E+00  0.00000000000E+00 -0.20505555458E+04  0.20505555458E+04  0.50400001928E-02 0.  1.
    10030    2    1    2    0    0  0.00000000000E+00  0.00000000000E+00 -0.20050223293E+04  0.20960887627E+04  0.61112483186E+03 0.  0.
        5    1    3    3  502    0  0.95450994051E+02  0.50974919237E+02 -0.22517732158E+02  0.11062763179E+03  0.46999998093E+01 0. -1.
       -5    1    3    3    0  502 -0.95450994051E+02 -0.50974919237E+02 -0.19825045971E+04  0.19854611309E+04  0.46999998093E+01 0.  1.
</event>
<event>
 5   0  0.8207443E-02  0.5996333E+03  0.7818609E-02  0.9906167E-01
       -2   -1    0    0    0  501  0.00000000000E+00  0.00000000000E+00  0.43120049650E+03  0.43120049650E+03  0.25500000920E-02 0.  1.
        2   -1    0    0  501    0  0.00000000000E+00  0.00000000000E+00 -0.20846453769E+03  0.20846453770E+03  0.25500000920E-02 0. -1.
    10030    2    1    2    0    0  0.00000000000E+00  0.00000000000E+00  0.22273595881E+03  0.63966503420E+03  0.59963326178E+03 0.  0.
        1    1    3    3  502    0  0.11512987930E+02 -0.12507933928E+03 -0.17904296955E+03  0.21870933903E+03  0.50400001928E-02 0. -1.
       -1    1    3    3    0  502 -0.11512987930E+02  0.12507933928E+03  0.40177892836E+03  0.42095569518E+03  0.50400001928E-02 0.  1.
</event>
<event>
 5   0  0.8817544E-02  0.5455073E+03  0.7818609E-02  0.1002539E+00
        2   -1    0    0  501    0  0.00000000000E+00  0.00000000000E+00  0.39224252390E+03  0.39224252390E+03  0.25500000920E-02 0.  1.
       -2   -1    0    0    0  501  0.00000000000E+00  0.00000000000E+00 -0.18966468833E+03  0.18966468834E+03  0.25500000920E-02 0. -1.
    10030    2    1    2    0    0  0.00000000000E+00  0.00000000000E+00  0.20257783557E+03  0.58190721225E+03  0.54550730903E+03 0.  0.
        5    1    3    3  502    0 -0.19338671018E+03 -0.92496806777E+02  0.28111508131E+03  0.35355601802E+03  0.46999998093E+01 0.  1.
       -5    1    3    3    0  502  0.19338671018E+03  0.92496806777E+02 -0.78537245741E+02  0.22835119423E+03  0.46999998093E+01 0. -1.
</event>
<event>
 5   0  0.8575590E-02  0.6342947E+03  0.7818609E-02  0.9836704E-01
        2   -1    0    0  501    0  0.00000000000E+00  0.00000000000E+00  0.48766256453E+03  0.48766256453E+03  0.25500000920E-02 0.  1.
       -2   -1    0    0    0  501  0.00000000000E+00  0.00000000000E+00 -0.20625420976E+03  0.20625420977E+03  0.25500000920E-02 0. -1.
    10030    2    1    2    0    0  0.00000000000E+00  0.00000000000E+00  0.28140835477E+03  0.69391677431E+03  0.63429474815E+03 0.  0.
        4    1    3    3  502    0  0.31489590041E+03  0.23801691157E+02  0.17269112185E+03  0.35993025028E+03  0.12699999809E+01 0. -1.
       -4    1    3    3    0  502 -0.31489590041E+03 -0.23801691157E+02  0.10871723292E+03  0.33398652403E+03  0.12699999809E+01 0.  1.
</event>
<event>
 5   0  0.5190380E-02  0.6173491E+03  0.7818609E-02  0.9870052E-01
        1   -1    0    0  501    0  0.00000000000E+00  0.00000000000E+00  0.13584826036E+03  0.13584826045E+03  0.50400001928E-02 0.  1.
       -1   -1    0    0    0  501  0.00000000000E+00  0.00000000000E+00 -0.70137070858E+03  0.70137070860E+03  0.50400001928E-02 0. -1.
    10030    2    1    2    0    0  0.00000000000E+00  0.00000000000E+00 -0.56552244822E+03  0.83721896905E+03  0.61734914165E+03 0.  0.
        5    1    3    3  502    0  0.12669755940E+03  0.23382203732E+03 -0.70347529191E+02  0.27512884537E+03  0.46999998093E+01 0.  1.
       -5    1    3    3    0  502 -0.12669755940E+03 -0.23382203732E+03 -0.49517491903E+03  0.56209012367E+03  0.46999998093E+01 0. -1.
</event>
<event>
 5   0  0.4987389E-02  0.5929237E+03  0.7818609E-02  0.9920197E-01
        1   -1    0    0  501    0  0.00000000000E+00  0.00000000000E+00  0.99894367152E+03  0.99894367153E+03  0.50400001928E-02 0.  1.
       -1   -1    0    0    0  501  0.00000000000E+00  0.00000000000E+00 -0.87982556140E+02  0.87982556284E+02  0.50400001928E-02 0. -1.
    10030    2    1    2    0    0  0.00000000000E+00  0.00000000000E+00  0.91096111538E+03  0.10869262278E+04  0.59292366370E+03 0.  0.
        1    1    3    3  502    0 -0.26777789431E+02 -0.39032905620E+02  0.99197154855E+03  0.99310028239E+03  0.50400001928E-02 0.  1.
       -1    1    3    3    0  502  0.26777789431E+02  0.39032905620E+02 -0.81010433168E+02  0.93825945428E+02  0.50400001928E-02 0. -1.
</event>
<event>
 5   0  0.3437375E-02  0.7377366E+03  0.7818609E-02  0.9654789E-01
        4   -1    0    0  501    0  0.00000000000E+00  0.00000000000E+00  0.10611749845E+04  0.10611757445E+04  0.12699999809E+01 0. -1.
       -4   -1    0    0    0  501  0.00000000000E+00  0.00000000000E+00 -0.12821601243E+03  0.12822230205E+03  0.12699999809E+01 0.  1.
    10030    2    1    2    0    0  0.00000000000E+00  0.00000000000E+00  0.93295897208E+03  0.11893980465E+04  0.73773658543E+03 0.  0.
        3    1    3    3  502    0  0.21282664073E+03  0.27666444479E+03  0.27418875793E+03  0.44386696114E+03  0.10100000352E+00 0.  1.
       -3    1    3    3    0  502 -0.21282664073E+03 -0.27666444479E+03  0.65877021415E+03  0.74553108538E+03  0.10100000352E+00 0. -1.
</event>
<event>
 5   0  0.5166903E-02  0.5879012E+03  0.7818609E-02  0.9930830E-01
        1   -1    0    0  501    0  0.00000000000E+00  0.00000000000E+00  0.21431269234E+04  0.21431269234E+04  0.50400001928E-02 0.  1.
       -1   -1    0    0    0  501  0.00000000000E+00  0.00000000000E+00 -0.40318165753E+02  0.40318166068E+02  0.50400001928E-02 0. -1.
    10030    2    1    2    0    0  0.00000000000E+00  0.00000000000E+00  0.21028087576E+04  0.21834450894E+04  0.58790117155E+03 0.  0.
        2    1    3    3  502    0  0.24494260635E+03  0.16232620248E+03  0.10802374016E+04  0.11194907415E+04  0.25500000920E-02 0.  1.
       -2    1    3    3    0  502 -0.24494260635E+03 -0.16232620248E+03  0.10225713560E+04  0.10639543480E+04  0.25500000920E-02 0. -1.
</event>
<event>
 5   0  0.4881209E-02  0.6015393E+03  0.7818609E-02  0.9902218E-01
        1   -1    0    0  501    0  0.00000000000E+00  0.00000000000E+00  0.48444230612E+03  0.48444230615E+03  0.50400001928E-02 0. -1.
       -1   -1    0    0    0  501  0.00000000000E+00  0.00000000000E+00 -0.18673507063E+03  0.18673507070E+03  0.50400001928E-02 0.  1.
    10030    2    1    2    0    0  0.00000000000E+00  0.00000000000E+00  0.29770723549E+03  0.67117737685E+03  0.60153925319E+03 0.  0.
        3    1    3    3  502    0 -0.44855893387E+00 -0.27921455379E+03  0.27360704516E+03  0.39092428118E+03  0.10100000352E+00 0. -1.
       -3    1    3    3    0  502  0.44855893387E+00  0.27921455379E+03  0.24100190335E+02  0.28025309567E+03  0.10100000352E+00 0.  1.
</event>
<event>
 5   0  0.8207443E-02  0.6004375E+03  0.7818609E-02  0.9904499E-01
        2   -1    0    0  501    0  0.00000000000E+00  0.00000000000E+00  0.72472264012E+03  0.72472264012E+03  0.25500000920E-02 0. -1.
       -2   -1    0    0    0  501  0.00000000000E+00  0.00000000000E+00 -0.12436662714E+03  0.12436662717E+03  0.25500000920E-02 0.  1.
    10030    2    1    2    0    0  0.00000000000E+00  0.00000000000E+00  0.60035601297E+03  0.84908926729E+03  0.60043754172E+03 0.  0.
        1    1    3    3  502    0  0.12552652105E+03  0.14722800791E+03 -0.24448429722E+02  0.19501466494E+03  0.50400001928E-02 0.  1.
       -1    1    3    3    0  502 -0.12552652105E+03 -0.14722800791E+03  0.62480444270E+03  0.65407460235E+03  0.50400001928E-02 0. -1.
</event>
<event>
 5   0  0.5166903E-02  0.6050135E+03  0.7818609E-02  0.9895059E-01
        1   -1    0    0  501    0  0.00000000000E+00  0.00000000000E+00  0.73862348500E+03  0.73862348501E+03  0.50400001928E-02 0.  1.
       -1   -1    0    0    0  501  0.00000000000E+00  0.00000000000E+00 -0.12389306175E+03  0.12389306185E+03  0.50400001928E-02 0. -1.
    10030    2    1    2    0    0  0.00000000000E+00  0.00000000000E+00  0.61473042325E+03  0.86251654687E+03  0.60501347121E+03 0.  0.
        2    1    3    3  502    0  0.22734909109E+03  0.10333082186E+03  0.63983564282E+02  0.25779597451E+03  0.25500000920E-02 0. -1.
       -2    1    3    3    0  502 -0.22734909109E+03 -0.10333082186E+03  0.55074685897E+03  0.60472057236E+03  0.25500000920E-02 0.  1.
</event>
<event>
 5   0  0.5125031E-02  0.6325941E+03  0.7818609E-02  0.9840000E-01
       -1   -1    0    0    0  501  0.00000000000E+00  0.00000000000E+00  0.10681693671E+03  0.10681693683E+03  0.50400001928E-02 0. -1.
        1   -1    0    0  501    0  0.00000000000E+00  0.00000000000E+00 -0.93659136020E+03  0.93659136021E+03  0.50400001928E-02 0.  1.
    10030    2    1    2    0    0  0.00000000000E+00  0.00000000000E+00 -0.82977442349E+03  0.10434082970E+04  0.63259408823E+03 0.  0.
        4    1    3    3  502    0 -0.15638757627E+03 -0.21828561341E+02  0.37149936616E+02  0.16221988408E+03  0.12699999809E+01 0. -1.
       -4    1    3    3    0  502  0.15638757627E+03  0.21828561341E+02 -0.86692436010E+03  0.88118841296E+03  0.12699999809E+01 0.  1.
</event>
<event>
 5   0  0.8575590E-02  0.6105255E+03  0.7818609E-02  0.9883807E-01
       -2   -1    0    0    0  501  0.00000000000E+00  0.00000000000E+00  0.36589056359E+03  0.36589056360E+03  0.25500000920E-02 0.  1.
        2   -1    0    0  501    0  0.00000000000E+00  0.00000000000E+00 -0.25468088255E+03  0.25468088256E+03  0.25500000920E-02 0. -1.
    10030    2    1    2    0    0  0.00000000000E+00  0.00000000000E+00  0.11120968104E+03  0.62057144615E+03  0.61052545125E+03 0.  0.
        4    1    3    3  502    0  0.17910921475E+03  0.21971717673E+03  0.17072913634E+03  0.33091660498E+03  0.12699999809E+01 0.  1.
       -4    1    3    3    0  502 -0.17910921475E+03 -0.21971717673E+03 -0.59519455299E+02  0.28965484117E+03  0.12699999809E+01 0. -1.
</event>
<event>
 5   0  0.5190380E-02  0.6026614E+03  0.7818609E-02  0.9899900E-01
       -1   -1    0    0    0  501  0.00000000000E+00  0.00000000000E+00  0.96878498288E+02  0.96878498419E+02  0.50400001928E-02 0. -1.
        1   -1    0    0  501    0  0.00000000000E+00  0.00000000000E+00 -0.93725835207E+03  0.93725835208E+03  0.50400001928E-02 0.  1.
    10030    2    1    2    0    0  0.00000000000E+00  0.00000000000E+00 -0.84037985378E+03  0.10341368505E+04  0.60266137003E+03 0.  0.
        5    1    3    3  502    0  0.12115809325E+03 -0.22195084155E+03 -0.70129498867E+03  0.74550533919E+03  0.46999998093E+01 0.  1.
       -5    1    3    3    0  502 -0.12115809325E+03  0.22195084155E+03 -0.13908486511E+03  0.28863151131E+03  0.46999998093E+01 0. -1.
</event>
<event>
 5   0  0.5190380E-02  0.5985813E+03  0.7818609E-02  0.9908354E-01
       -1   -1    0    0    0  501  0.00000000000E+00  0.00000000000E+00  0.81789908689E+02  0.81789908844E+02  0.50400001928E-02 0.  1.
        1   -1    0    0  501    0  0.00000000000E+00  0.00000000000E+00 -0.10951825971E+04  0.10951825971E+04  0.50400001928E-02 0. -1.
    10030    2    1    2    0    0  0.00000000000E+00  0.00000000000E+00 -0.10133926884E+04  0.11769725060E+04  0.59858127172E+03 0.  0.
        5    1    3    3  502    0  0.10191725379E+03  0.98762291668E+02 -0.10247317754E+04  0.10345232807E+04  0.46999998093E+01 0. -1.
       -5    1    3    3    0  502 -0.10191725379E+03 -0.98762291668E+02  0.11339086981E+02  0.14244922523E+03  0.46999998093E+01 0.  1.
</event>
<event>
 5   0  0.3437375E-02  0.6002893E+03  0.7818609E-02  0.9904806E-01
       -3   -1    0    0    0  501  0.00000000000E+00  0.00000000000E+00  0.90454798069E+03  0.90454798633E+03  0.10100000352E+00 0. -1.
        3   -1    0    0  501    0  0.00000000000E+00  0.00000000000E+00 -0.99593156203E+02  0.99593207416E+02  0.10100000352E+00 0.  1.
    10030    2    1    2    0    0  0.00000000000E+00  0.00000000000E+00  0.80495482449E+03  0.10041411937E+04  0.60028931984E+03 0.  0.
        4    1    3    3  502    0  0.11664865338E+03  0.26989541655E+03  0.30162831305E+03  0.42122641933E+03  0.12699999809E+01 0. -1.
       -4    1    3    3    0  502 -0.11664865338E+03 -0.26989541655E+03  0.50332651144E+03  0.58291477441E+03  0.12699999809E+01 0.  1.
</event>
<event>
 5   0  0.5166903E-02  0.7023063E+03  0.7818609E-02  0.9713296E-01
       -1   -1    0    0    0  501  0.00000000000E+00  0.00000000000E+00  0.24398056722E+03  0.24398056727E+03  0.50400001928E-02 0. -1.
        1   -1    0    0  501    0  0.00000000000E+00  0.00000000000E+00 -0.50540307275E+03  0.50540307278E+03  0.50400001928E-02 0.  1.
    10030    2    1    2    0    0  0.00000000000E+00  0.00000000000E+00 -0.26142250554E+03  0.74938364005E+03  0.70230628189E+03 0.  0.
        2    1    3    3  502    0  0.32259452358E+03 -0.12648665721E+03 -0.69951950518E+02  0.35349593559E+03  0.25500000920E-02 0.  1.
       -2    1    3    3    0  502 -0.32259452358E+03  0.12648665721E+03 -0.19147055502E+03  0.39588770446E+03  0.25500000920E-02 0. -1.
</event>
<event>
 5   0  0.8207443E-02  0.6281556E+03  0.7818609E-02  0.9848655E-01
       -2   -1    0    0    0  501  0.00000000000E+00  0.00000000000E+00  0.13914069944E+03  0.13914069946E+03  0.25500000920E-02 0. -1.
        2   -1    0    0  501    0  0.00000000000E+00  0.00000000000E+00 -0.70895758745E+03  0.70895758745E+03  0.25500000920E-02 0.  1.
    10030    2    1    2    0    0  0.00000000000E+00  0.00000000000E+00 -0.56981688801E+03  0.84809828691E+03  0.62815556863E+03 0.  0.
        1    1    3    3  502    0  0.14714753655E+03  0.26115823849E+03 -0.41148245469E+03  0.50909118397E+03  0.50400001928E-02 0.  1.
       -1    1    3    3    0  502 -0.14714753655E+03 -0.26115823849E+03 -0.15833443332E+03  0.33900710294E+03  0.50400001928E-02 0. -1.
</event>
<event>
 5   0  0.5166903E-02  0.5862484E+03  0.7818609E-02  0.9934354E-01
        1   -1    0    0  501    0  0.00000000000E+00  0.00000000000E+00  0.62891507380E+03  0.62891507382E+03  0.50400001928E-02 0. -1.
       -1   -1    0    0    0  501  0.00000000000E+00  0.00000000000E+00 -0.13661908117E+03  0.13661908126E+03  0.50400001928E-02 0.  1.
    10030    2    1    2    0    0  0.00000000000E+00  0.00000000000E+00  0.49229599263E+03  0.76553415508E+03  0.58624841001E+03 0.  0.
        2    1    3    3  502    0 -0.12740943564E+03 -0.67455832388E+02 -0.87125868069E+02  0.16844693677E+03  0.25500000920E-02 0.  1.
       -2    1    3    3    0  502  0.12740943564E+03  0.67455832388E+02  0.57942186070E+03  0.59708721831E+03  0.25500000920E-02 0. -1.
</event>
<event>
 5   0  0.8207443E-02  0.5995310E+03  0.7818609E-02  0.9906379E-01
       -2   -1    0    0    0  501  0.00000000000E+00  0.00000000000E+00  0.13786217939E+03  0.13786217941E+03  0.25500000920E-02 0.  1.
        2   -1    0    0  501    0  0.00000000000E+00  0.00000000000E+00 -0.65180580624E+03  0.65180580625E+03  0.25500000920E-02 0. -1.
    10030    2    1    2    0    0  0.00000000000E+00  0.00000000000E+00 -0.51394362685E+03  0.78966798566E+03  0.59953104673E+03 0.  0.
        1    1    3    3  502    0 -0.28919628056E+03  0.70833913056E+02 -0.21120347968E+03  0.36504635566E+03  0.50400001928E-02 0.  1.
       -1    1    3    3    0  502  0.28919628056E+03 -0.70833913056E+02 -0.30274014718E+03  0.42462163000E+03  0.50400001928E-02 0. -1.
</event>
<event>
 5   0  0.8699746E-02  0.6028602E+03  0.7818609E-02  0.9899490E-01
        2   -1    0    0  501    0  0.00000000000E+00  0.00000000000E+00  0.51216452715E+03  0.51216452716E+03  0.25500000920E-02 0. -1.
       -2   -1    0    0    0  501  0.00000000000E+00  0.00000000000E+00 -0.17740411130E+03  0.17740411132E+03  0.25500000920E-02 0.  1.
    10030    2    1    2    0    0  0.00000000000E+00  0.00000000000E+00  0.33476041585E+03  0.68956863848E+03  0.60286015887E+03 0.  0.
        3    1    3    3  502    0  0.69421056217E+02  0.17083484906E+03  0.44012096320E+03  0.47719000529E+03  0.10100000352E+00 0. -1.
       -3    1    3    3    0  502 -0.69421056217E+02 -0.17083484906E+03 -0.10536054734E+03  0.21237863319E+03  0.10100000352E+00 0.  1.
</event>
<event>
 5   0  0.8699746E-02  0.6055459E+03  0.7818609E-02  0.9893966E-01
       -2   -1    0    0    0  501  0.00000000000E+00  0.00000000000E+00  0.20821329246E+04  0.20821329246E+04  0.25500000920E-02 0. -1.
        2   -1    0    0  501    0  0.00000000000E+00  0.00000000000E+00 -0.44027675523E+02  0.44027675597E+02  0.25500000920E-02 0.  1.
    10030    2    1    2    0    0  0.00000000000E+00  0.00000000000E+00  0.20381052491E+04  0.21261606002E+04  0.60554594501E+03 0.  0.
        3    1    3    3  502    0 -0.14728655817E+03 -0.26413060087E+03  0.96779010688E+03  0.10139408295E+04  0.10100000352E+00 0.  1.
       -3    1    3    3    0  502  0.14728655817E+03  0.26413060087E+03  0.10703151422E+04  0.11122197707E+04  0.10100000352E+00 0. -1.
</event>
<event>
 5   0  0.4987389E-02  0.5991352E+03  0.7818609E-02  0.9907202E-01
       -1   -1    0    0    0  501  0.00000000000E+00  0.00000000000E+00  0.90124382477E+02  0.90124382618E+02  0.50400001928E-02 0.  1.
        1   -1    0    0  501    0  0.00000000000E+00  0.00000000000E+00 -0.99574313565E+03  0.99574313566E+03  0.50400001928E-02 0. -1.
    10030    2    1    2    0    0  0.00000000000E+00  0.00000000000E+00 -0.90561875317E+03  0.10858675183E+04  0.59913516101E+03 0.  0.
        1    1    3    3  502    0  0.21279161315E+03 -0.48371229287E+02 -0.80846354884E+02  0.23271480308E+03  0.50400001928E-02 0.  1.
       -1    1    3    3    0  502 -0.21279161315E+03  0.48371229287E+02 -0.82477239829E+03  0.85315271520E+03  0.50400001928E-02 0. -1.
</event>
<event>
 5   0  0.4881209E-02  0.5977432E+03  0.7818609E-02  0.9910099E-01
       -1   -1    0    0    0  501  0.00000000000E+00  0.00000000000E+00  0.13091760043E+03  0.13091760053E+03  0.50400001928E-02 0. -1.
        1   -1    0    0  501    0  0.00000000000E+00  0.00000000000E+00 -0.68229359532E+03  0.68229359534E+03  0.50400001928E-02 0.  1.
    10030    2    1    2    0    0  0.00000000000E+00  0.00000000000E+00 -0.55137599489E+03  0.81321119587E+03  0.59774322358E+03 0.  0.
        3    1    3    3  502    0 -0.11847350561E+03 -0.15385453942E+03  0.33402200661E+02  0.19703529644E+03  0.10100000352E+00 0. -1.
       -3    1    3    3    0  502  0.11847350561E+03  0.15385453942E+03 -0.58477819555E+03  0.61617589942E+03  0.10100000352E+00 0.  1.
</event>
<event>
 5   0  0.8699746E-02  0.6018654E+03  0.7818609E-02  0.9901543E-01
       -2   -1    0    0    0  501  0.00000000000E+00  0.00000000000E+00  0.14794048717E+03  0.14794048719E+03  0.25500000920E-02 0. -1.
        2   -1    0    0  501    0  0.00000000000E+00  0.00000000000E+00 -0.61214139700E+03  0.61214139700E+03  0.25500000920E-02 0.  1.
    10030    2    1    2    0    0  0.00000000000E+00  0.00000000000E+00 -0.46420090983E+03  0.76008188419E+03  0.60186542183E+03 0.  0.
        3    1    3    3  502    0  0.15128551081E+03 -0.25168265877E+03 -0.31519179710E+03  0.43078689124E+03  0.10100000352E+00 0.  1.
       -3    1    3    3    0  502 -0.15128551081E+03  0.25168265877E+03 -0.14900911273E+03  0.32929499295E+03  0.10100000352E+00 0. -1.
</event>
<event>
 5   0  0.3437375E-02  0.5913677E+03  0.7818609E-02  0.9923479E-01
       -3   -1    0    0    0  501  0.00000000000E+00  0.00000000000E+00  0.27505945047E+03  0.27505946902E+03  0.10100000352E+00 0.  1.
        3   -1    0    0  501    0  0.00000000000E+00  0.00000000000E+00 -0.31785470859E+03  0.31785472463E+03  0.10100000352E+00 0. -1.
    10030    2    1    2    0    0  0.00000000000E+00  0.00000000000E+00 -0.42795258112E+02  0.59291419365E+03  0.59136774254E+03 0.  0.
        3    1    3    3  502    0  0.27940640061E+02  0.22374886062E+03  0.17037385155E+03  0.28261544807E+03  0.10100000352E+00 0.  1.
       -3    1    3    3    0  502 -0.27940640061E+02 -0.22374886062E+03 -0.21316910966E+03  0.31029874558E+03  0.10100000352E+00 0. -1.
</event>
<event>
 5   0  0.4881209E-02  0.5921722E+03  0.7818609E-02  0.9921781E-01
        1   -1    0    0  501    0  0.00000000000E+00  0.00000000000E+00  0.14981851060E+04  0.14981851060E+04  0.50400001928E-02 0. -1.
       -1   -1    0    0    0  501  0.00000000000E+00  0.00000000000E+00 -0.58515452263E+02  0.58515452480E+02  0.50400001928E-02 0.  1.
    10030    2    1    2    0    0  0.00000000000E+00  0.00000000000E+00  0.14396696537E+04  0.15567005585E+04  0.59217220206E+03 0.  0.
        3    1    3    3  502    0  0.64959926435E+02  0.13566650823E+03  0.13902645474E+04  0.13983778872E+04  0.10100000352E+00 0. -1.
       -3    1    3    3    0  502 -0.64959926435E+02 -0.13566650823E+03  0.49405106296E+02  0.15832267123E+03  0.10100000352E+00 0.  1.
</event>
<event>
 5   0  0.8420604E-02  0.5873878E+03  0.7818609E-02  0.9931923E-01
       -2   -1    0    0    0  501  0.00000000000E+00  0.00000000000E+00  0.45820161854E+03  0.45820161855E+03  0.25500000920E-02 0.  1.
        2   -1    0    0  501    0  0.00000000000E+00  0.00000000000E+00 -0.18824926921E+03  0.18824926923E+03  0.25500000920E-02 0. -1.
    10030    2    1    2    0    0  0.00000000000E+00  0.00000000000E+00  0.26995234933E+03  0.64645088778E+03  0.58738784410E+03 0.  0.
        2    1    3    3  502    0 -0.23817652134E+03  0.98766953530E+02 -0.19780200793E+02  0.25860050808E+03  0.25500000920E-02 0. -1.
       -2    1    3    3    0  502  0.23817652134E+03 -0.98766953530E+02  0.28973255012E+03  0.38785037970E+03  0.25500000920E-02 0.  1.
</event>
<event>
 5   0  0.4987389E-02  0.7092693E+03  0.7818609E-02  0.9701510E-01
       -1   -1    0    0    0  501  0.00000000000E+00  0.00000000000E+00  0.34337822316E+03  0.34337822319E+03  0.50400001928E-02 0. -1.
        1   -1    0    0  501    0  0.00000000000E+00  0.00000000000E+00 -0.36626007589E+03  0.36626007592E+03  0.50400001928E-02 0.  1.
    10030    2    1    2    0    0  0.00000000000E+00  0.00000000000E+00 -0.22881852733E+02  0.70963829912E+03  0.70926929751E+03 0.  0.
        1    1    3    3  502    0 -0.33712971323E+03  0.85500705640E+02 -0.80751203375E+02  0.35705401703E+03  0.50400001928E-02 0.  1.
       -1    1    3    3    0  502  0.33712971323E+03 -0.85500705640E+02  0.57869350642E+02  0.35258428209E+03  0.50400001928E-02 0. -1.
</event>
<event>
 5   0  0.4987389E-02  0.6020367E+03  0.7818609E-02  0.9901189E-01
       -1   -1    0    0    0  501  0.00000000000E+00  0.00000000000E+00  0.40175776816E+03  0.40175776819E+03  0.50400001928E-02 0. -1.
        1   -1    0    0  501    0  0.00000000000E+00  0.00000000000E+00 -0.22553902546E+03  0.22553902552E+03  0.50400001928E-02 0.  1.
    10030    2    1    2    0    0  0.00000000000E+00  0.00000000000E+00  0.17621874269E+03  0.62729679371E+03  0.60203672822E+03 0.  0.
        1    1    3    3  502    0  0.39267022627E+02  0.18609375334E+03 -0.15500253728E+03  0.24535397019E+03  0.50400001928E-02 0.  1.
       -1    1    3    3    0  502 -0.39267022627E+02 -0.18609375334E+03  0.33122127998E+03  0.38194282351E+03  0.50400001928E-02 0. -1.
</event>
<event>
 5   0  0.5166903E-02  0.5944274E+03  0.7818609E-02  0.9917035E-01
        1   -1    0    0  501    0  0.00000000000E+00  0.00000000000E+00  0.40461939594E+03  0.40461939597E+03  0.50400001928E-02 0. -1.
       -1   -1    0    0    0  501  0.00000000000E+00  0.00000000000E+00 -0.21831867645E+03  0.21831867651E+03  0.50400001928E-02 0.  1.
    10030    2    1    2    0    0  0.00000000000E+00  0.00000000000E+00  0.18630071949E+03  0.62293807248E+03  0.59442735810E+03 0.  0.
        2    1    3    3  502    0 -0.27624416942E+02  0.14267599490E+03  0.36484669736E+03  0.39272466247E+03  0.25500000920E-02 0. -1.
       -2    1    3    3    0  502  0.27624416942E+02 -0.14267599490E+03 -0.17854597786E+03  0.23021341001E+03  0.25500000920E-02 0.  1.
</event>
<event>
 5   0  0.8575590E-02  0.6002193E+03  0.7818609E-02  0.9904951E-01
       -2   -1    0    0    0  501  0.00000000000E+00  0.00000000000E+00  0.55748720659E+02  0.55748720717E+02  0.25500000920E-02 0. -1.
        2   -1    0    0  501    0  0.00000000000E+00  0.00000000000E+00 -0.16155671354E+04  0.16155671354E+04  0.25500000920E-02 0.  1.
    10030    2    1    2    0    0  0.00000000000E+00  0.00000000000E+00 -0.15598184147E+04  0.16713158561E+04  0.60021929654E+03 0.  0.
        4    1    3    3  502    0  0.45071095912E+02  0.18182882007E+03 -0.12705583204E+03  0.22635794850E+03  0.12699999809E+01 0. -1.
       -4    1    3    3    0  502 -0.45071095912E+02 -0.18182882007E+03 -0.14327625827E+04  0.14449579076E+04  0.12699999809E+01 0.  1.
</event>
<event>
 5   0  0.4881209E-02  0.5997143E+03  0.7818609E-02  0.9905999E-01
        1   -1    0    0  501    0  0.00000000000E+00  0.00000000000E+00  0.34676750952E+03  0.34676750956E+03  0.50400001928E-02 0. -1.
       -1   -1    0    0    0  501  0.00000000000E+00  0.00000000000E+00 -0.25929274823E+03  0.25929274828E+03  0.50400001928E-02 0.  1.
    10030    2    1    2    0    0  0.00000000000E+00  0.00000000000E+00  0.87474761292E+02  0.60606025783E+03  0.59971426718E+03 0.  0.
        3    1    3    3  502    0  0.22030885845E+03  0.17890869006E+03  0.14156031999E+03  0.31714925017E+03  0.10100000352E+00 0. -1.
       -3    1    3    3    0  502 -0.22030885845E+03 -0.17890869006E+03 -0.54085558694E+02  0.28891100766E+03  0.10100000352E+00 0.  1.
</event>
<event>
 5   0  0.5190380E-02  0.6033706E+03  0.7818609E-02  0.9898438E-01
       -1   -1    0    0    0  501  0.00000000000E+00  0.00000000000E+00  0.93843181490E+02  0.93843181625E+02  0.50400001928E-02 0. -1.
        1   -1    0    0  501    0  0.00000000000E+00  0.00000000000E+00 -0.96985224202E+03  0.96985224204E+03  0.50400001928E-02 0.  1.
    10030    2    1    2    0    0  0.00000000000E+00  0.00000000000E+00 -0.87600906053E+03  0.10636954237E+04  0.60337059937E+03 0.  0.
        5    1    3    3  502    0  0.16286684172E+03  0.41187933435E+02  0.36765353991E+01  0.16810015141E+03  0.46999998093E+01 0. -1.
       -5    1    3    3    0  502 -0.16286684172E+03 -0.41187933435E+02 -0.87968559593E+03  0.89559527225E+03  0.46999998093E+01 0.  1.
</event>
<event>
 5   0  0.5166903E-02  0.5969886E+03  0.7818609E-02  0.9911674E-01
        1   -1    0    0  501    0  0.00000000000E+00  0.00000000000E+00  0.16040375282E+04  0.16040375282E+04  0.50400001928E-02 0. -1.
       -1   -1    0    0    0  501  0.00000000000E+00  0.00000000000E+00 -0.55546604552E+02  0.55546604781E+02  0.50400001928E-02 0.  1.
    10030    2    1    2    0    0  0.00000000000E+00  0.00000000000E+00  0.15484909236E+04  0.16595841330E+04  0.59698857095E+03 0.  0.
        2    1    3    3  502    0  0.25402545848E+03  0.40200003450E+02  0.11954190852E+04  0.12227721632E+04  0.25500000920E-02 0. -1.
       -2    1    3    3    0  502 -0.25402545848E+03 -0.40200003450E+02  0.35307183843E+03  0.43681196977E+03  0.25500000920E-02 0.  1.
</event>
<event>
 5   0  0.8420604E-02  0.5956297E+03  0.7818609E-02  0.9914515E-01
        2   -1    0    0  501    0  0.00000000000E+00  0.00000000000E+00  0.57716014671E+03  0.57716014671E+03  0.25500000920E-02 0. -1.
       -2   -1    0    0    0  501  0.00000000000E+00  0.00000000000E+00 -0.15367259116E+03  0.15367259118E+03  0.25500000920E-02 0.  1.
    10030    2    1    2    0    0  0.00000000000E+00  0.00000000000E+00  0.42348755554E+03  0.73083273789E+03  0.59562973488E+03 0.  0.
        2    1    3    3  502    0 -0.27142069919E+02 -0.28006317274E+03  0.33147215728E+03  0.43479404750E+03  0.25500000920E-02 0.  1.
       -2    1    3    3    0  502  0.27142069919E+02  0.28006317274E+03  0.92015398261E+02  0.29603869039E+03  0.25500000920E-02 0. -1.
</event>
<event>
 5   0  0.5190380E-02  0.6525378E+03  0.7818609E-02  0.9802029E-01
        1   -1    0    0  501    0  0.00000000000E+00  0.00000000000E+00  0.19987394336E+03  0.19987394342E+03  0.50400001928E-02 0.  1.
       -1   -1    0    0    0  501  0.00000000000E+00  0.00000000000E+00 -0.53259264987E+03  0.53259264989E+03  0.50400001928E-02 0. -1.
    10030    2    1    2    0    0  0.00000000000E+00  0.00000000000E+00 -0.33271870651E+03  0.73246659332E+03  0.65253779405E+03 0.  0.
        5    1    3    3  502    0  0.32445979657E+03 -0.18285092702E+02 -0.13420050028E+03  0.35162532401E+03  0.46999998093E+01 0.  1.
       -5    1    3    3    0  502 -0.32445979657E+03  0.18285092702E+02 -0.19851820623E+03  0.38084126931E+03  0.46999998093E+01 0. -1.
</event>
<event>
 5   0  0.8575590E-02  0.6056038E+03  0.7818609E-02  0.9893848E-01
        2   -1    0    0  501    0  0.00000000000E+00  0.00000000000E+00  0.91631236728E+03  0.91631236729E+03  0.25500000920E-02 0.  1.
       -2   -1    0    0    0  501  0.00000000000E+00  0.00000000000E+00 -0.10006302754E+03  0.10006302757E+03  0.25500000920E-02 0. -1.
    10030    2    1    2    0    0  0.00000000000E+00  0.00000000000E+00  0.81624933975E+03  0.10163753949E+04  0.60560379674E+03 0.  0.
        4    1    3    3  502    0 -0.11847739174E+03  0.24038798081E+02  0.87404924356E+03  0.88237092497E+03  0.12699999809E+01 0.  1.
       -4    1    3    3    0  502  0.11847739174E+03 -0.24038798081E+02 -0.57799903816E+02  0.13400446988E+03  0.12699999809E+01 0. -1.
</event>
<event>
 5   0  0.8575590E-02  0.5997550E+03  0.7818609E-02  0.9905915E-01
        2   -1    0    0  501    0  0.00000000000E+00  0.00000000000E+00  0.39210014196E+03  0.39210014197E+03  0.25500000920E-02 0.  1.
       -2   -1    0    0    0  501  0.00000000000E+00  0.00000000000E+00 -0.22934576071E+03  0.22934576072E+03  0.25500000920E-02 0. -1.
    10030    2    1    2    0    0  0.00000000000E+00  0.00000000000E+00  0.16275438125E+03  0.62144590269E+03  0.59975496776E+03 0.  0.
        4    1    3    3  502    0 -0.68895265349E+02 -0.25009310887E+03 -0.74502218987E+02  0.26989871105E+03  0.12699999809E+01 0. -1.
       -4    1    3    3    0  502  0.68895265349E+02  0.25009310887E+03  0.23725660024E+03  0.35154719164E+03  0.12699999809E+01 0.  1.
</event>
<event>
 5   0  0.5125031E-02  0.5998467E+03  0.7818609E-02  0.9905724E-01
       -1   -1    0    0    0  501  0.00000000000E+00  0.00000000000E+00  0.13445269802E+03  0.13445269811E+03  0.50400001928E-02 0.  1.
        1   -1    0    0  501    0  0.00000000000E+00  0.00000000000E+00 -0.66903838504E+03  0.66903838506E+03  0.50400001928E-02 0. -1.
    10030    2    1    2    0    0  0.00000000000E+00  0.00000000000E+00 -0.53458568702E+03  0.80349108317E+03  0.59984670039E+03 0.  0.
        4    1    3    3  502    0  0.12971557001E+03  0.59386089525E+02 -0.62067454226E+03  0.63686053186E+03  0.12699999809E+01 0. -1.
       -4    1    3    3    0  502 -0.12971557001E+03 -0.59386089525E+02  0.86088855244E+02  0.16663055131E+03  0.12699999809E+01 0.  1.
</event>
<event>
 5   0  0.8420604E-02  0.5910705E+03  0.7818609E-02  0.9924107E-01
       -2   -1    0    0    0  501  0.00000000000E+00  0.00000000000E+00  0.20689817197E+03  0.20689817198E+03  0.25500000920E-02 0.  1.
        2   -1    0    0  501    0  0.00000000000E+00  0.00000000000E+00 -0.42214520184E+03  0.42214520185E+03  0.25500000920E-02 0. -1.
    10030    2    1    2    0    0  0.00000000000E+00  0.00000000000E+00 -0.21524702987E+03  0.62904337383E+03  0.59107045459E+03 0.  0.
        2    1    3    3  502    0 -0.12931690283E+03 -0.58100281415E+02  0.16834750677E+03  0.22008949794E+03  0.25500000920E-02 0.  1.
       -2    1    3    3    0  502  0.12931690283E+03  0.58100281415E+02 -0.38359453665E+03  0.40895387590E+03  0.25500000920E-02 0. -1.
</event>
<event>
 5   0  0.3437375E-02  0.5965467E+03  0.7818609E-02  0.9912597E-01
        3   -1    0    0  501    0  0.00000000000E+00  0.00000000000E+00  0.25669132226E+03  0.25669134213E+03  0.10100000352E+00 0.  1.
       -3   -1    0    0    0  501  0.00000000000E+00  0.00000000000E+00 -0.34659130001E+03  0.34659131473E+03  0.10100000352E+00 0. -1.
    10030    2    1    2    0    0  0.00000000000E+00  0.00000000000E+00 -0.89899977750E+02  0.60328265686E+03  0.59654669396E+03 0.  0.
        2    1    3    3  502    0  0.29699979378E+03 -0.10792099424E+02 -0.70566677566E+02  0.30545867627E+03  0.25500000920E-02 0.  1.
       -2    1    3    3    0  502 -0.29699979378E+03  0.10792099424E+02 -0.19333300184E+02  0.29782398060E+03  0.25500000920E-02 0. -1.
</event>
<event>
 5   0  0.8575590E-02  0.6140011E+03  0.7818609E-02  0.9876777E-01
       -2   -1    0    0    0  501  0.00000000000E+00  0.00000000000E+00  0.43228987847E+03  0.43228987848E+03  0.25500000920E-02 0. -1.
        2   -1    0    0  501    0  0.00000000000E+00  0.00000000000E+00 -0.21802346109E+03  0.21802346111E+03  0.25500000920E-02 0.  1.
    10030    2    1    2    0    0  0.00000000000E+00  0.00000000000E+00  0.21426641738E+03  0.65031333958E+03  0.61400109285E+03 0.  0.
        4    1    3    3  502    0  0.26958287951E+03  0.11419981700E+03  0.93062695941E+01  0.29292447265E+03  0.12699999809E+01 0.  1.
       -4    1    3    3    0  502 -0.26958287951E+03 -0.11419981700E+03  0.20496014779E+03  0.35738886693E+03  0.12699999809E+01 0. -1.
</event>
<event>
 5   0  0.8817544E-02  0.5976096E+03  0.7818609E-02  0.9910378E-01
        2   -1    0    0  501    0  0.00000000000E+00  0.00000000000E+00  0.21893886584E+03  0.21893886585E+03  0.25500000920E-02 0. -1.
       -2   -1    0    0    0  501  0.00000000000E+00  0.00000000000E+00 -0.40780480757E+03  0.40780480758E+03  0.25500000920E-02 0.  1.
    10030    2    1    2    0    0  0.00000000000E+00  0.00000000000E+00 -0.18886594174E+03  0.62674367343E+03  0.59760964537E+03 0.  0.
        5    1    3    3  502    0  0.18248087291E+03  0.83336451561E+02  0.13776057800E+03  0.24340152009E+03  0.46999998093E+01 0. -1.
       -5    1    3    3    0  502 -0.18248087291E+03 -0.83336451561E+02 -0.32662651973E+03  0.38334215334E+03  0.46999998093E+01 0.  1.
</event>
<event>
 5   0  0.3437375E-02  0.5883770E+03  0.7818609E-02  0.9929818E-01
        4   -1    0    0  501    0  0.00000000000E+00  0.00000000000E+00  0.16336174027E+03  0.16336667678E+03  0.12699999809E+01 0.  1.
       -4   -1    0    0    0  501  0.00000000000E+00  0.00000000000E+00 -0.52977302929E+03  0.52977455155E+03  0.12699999809E+01 0. -1.
    10030    2    1    2    0    0  0.00000000000E+00  0.00000000000E+00 -0.36641128903E+03  0.69314122833E+03  0.58837703021E+03 0.  0.
        4    1    3    3  502    0  0.22109278619E+03 -0.13752704227E+03 -0.21895535048E+02  0.26129817223E+03  0.12699999809E+01 0.  1.
       -4    1    3    3    0  502 -0.22109278619E+03  0.13752704227E+03 -0.34451575398E+03  0.43184305609E+03  0.12699999809E+01 0. -1.
</event>
<event>
 5   0  0.8817544E-02  0.6053902E+03  0.7818609E-02  0.9894286E-01
       -2   -1    0    0    0  501  0.00000000000E+00  0.00000000000E+00  0.43943447743E+03  0.43943447744E+03  0.25500000920E-02 0.  1.
        2   -1    0    0  501    0  0.00000000000E+00  0.00000000000E+00 -0.20850506399E+03  0.20850506401E+03  0.25500000920E-02 0. -1.
    10030    2    1    2    0    0  0.00000000000E+00  0.00000000000E+00  0.23092941344E+03  0.64793954145E+03  0.60539016789E+03 0.  0.
        5    1    3    3  502    0 -0.21255631034E+02  0.24123388266E+03  0.30976370321E+03  0.39321906085E+03  0.46999998093E+01 0.  1.
       -5    1    3    3    0  502  0.21255631034E+02 -0.24123388266E+03 -0.78834289776E+02  0.25472048060E+03  0.46999998093E+01 0. -1.
</event>
<event>
 5   0  0.5190380E-02  0.5984524E+03  0.7818609E-02  0.9908622E-01
        1   -1    0    0  501    0  0.00000000000E+00  0.00000000000E+00  0.30802531905E+03  0.30802531909E+03  0.50400001928E-02 0. -1.
       -1   -1    0    0    0  501  0.00000000000E+00  0.00000000000E+00 -0.29067843436E+03  0.29067843440E+03  0.50400001928E-02 0.  1.
    10030    2    1    2    0    0  0.00000000000E+00  0.00000000000E+00  0.17346884684E+02  0.59870375349E+03  0.59845239580E+03 0.  0.
        5    1    3    3  502    0 -0.21151217479E+03 -0.16370767361E+03 -0.12545980866E+03  0.29546549049E+03  0.46999998093E+01 0.  1.
       -5    1    3    3    0  502  0.21151217479E+03  0.16370767361E+03  0.14280669334E+03  0.30323826300E+03  0.46999998093E+01 0. -1.
</event>
<event>
 5   0  0.5166903E-02  0.5985426E+03  0.7818609E-02  0.9908434E-01
       -1   -1    0    0    0  501  0.00000000000E+00  0.00000000000E+00  0.13155626210E+03  0.13155626220E+03  0.50400001928E-02 0. -1.
        1   -1    0    0  501    0  0.00000000000E+00  0.00000000000E+00 -0.68079855930E+03  0.68079855932E+03  0.50400001928E-02 0.  1.
    10030    2    1    2    0    0  0.00000000000E+00  0.00000000000E+00 -0.54924229720E+03  0.81235482152E+03  0.59854260919E+03 0.  0.
        2    1    3    3  502    0 -0.14746892973E+03 -0.53605632002E+01 -0.62798773069E+03  0.64509255986E+03  0.25500000920E-02 0.  1.
       -2    1    3    3    0  502  0.14746892973E+03  0.53605632002E+01  0.78745433494E+02  0.16726226166E+03  0.25500000920E-02 0. -1.
</event>
<event>
 5   0  0.8207443E-02  0.5487870E+03  0.7818609E-02  0.1001775E+00
        2   -1    0    0  501    0  0.00000000000E+00  0.00000000000E+00  0.10251727106E+04  0.10251727106E+04  0.25500000920E-02 0.  1.
       -2   -1    0    0    0  501  0.00000000000E+00  0.00000000000E+00 -0.73443032303E+02  0.73443032347E+02  0.25500000920E-02 0. -1.
    10030    2    1    2    0    0  0.00000000000E+00  0.00000000000E+00  0.95172967834E+03  0.10986157430E+04  0.54878699886E+03 0.  0.
        1    1    3    3  502    0 -0.21140363627E+03 -0.12936263305E+03  0.24013671286E+03  0.34509684024E+03  0.50400001928E-02 0. -1.
       -1    1    3    3    0  502  0.21140363627E+03  0.12936263305E+03  0.71159296548E+03  0.75351890275E+03  0.50400001928E-02 0.  1.
</event>
<event>
 5   0  0.5125031E-02  0.7079928E+03  0.7818609E-02  0.9703660E-01
        1   -1    0    0  501    0  0.00000000000E+00  0.00000000000E+00  0.61714883648E+03  0.61714883650E+03  0.50400001928E-02 0. -1.
       -1   -1    0    0    0  501  0.00000000000E+00  0.00000000000E+00 -0.20305221557E+03  0.20305221563E+03  0.50400001928E-02 0.  1.
    10030    2    1    2    0    0  0.00000000000E+00  0.00000000000E+00  0.41409662091E+03  0.82020105213E+03  0.70799276442E+03 0.  0.
        4    1    3    3  502    0  0.11991862990E+03  0.10989398728E+03 -0.15719373402E+03  0.22620488314E+03  0.12699999809E+01 0.  1.
       -4    1    3    3    0  502 -0.11991862990E+03 -0.10989398728E+03  0.57129035493E+03  0.59399616899E+03  0.12699999809E+01 0. -1.
</event>
<event>
 5   0  0.8699746E-02  0.5986533E+03  0.7818609E-02  0.9908204E-01
        2   -1    0    0  501    0  0.00000000000E+00  0.00000000000E+00  0.10744985462E+04  0.10744985462E+04  0.25500000920E-02 0.  1.
       -2   -1    0    0    0  501  0.00000000000E+00  0.00000000000E+00 -0.83384412236E+02  0.83384412275E+02  0.25500000920E-02 0. -1.
    10030    2    1    2    0    0  0.00000000000E+00  0.00000000000E+00  0.99111413396E+03  0.11578829585E+04  0.59865325439E+03 0.  0.
        3    1    3    3  502    0 -0.35479368197E+02 -0.16695431323E+03  0.19961978287E+02  0.17184591660E+03  0.10100000352E+00 0. -1.
       -3    1    3    3    0  502  0.35479368197E+02  0.16695431323E+03  0.97115215567E+03  0.98603704187E+03  0.10100000352E+00 0.  1.
</event>
<event>
 5   0  0.4881209E-02  0.6169324E+03  0.7818609E-02  0.9870886E-01
        1   -1    0    0  501    0  0.00000000000E+00  0.00000000000E+00  0.16464820249E+04  0.16464820249E+04  0.50400001928E-02 0. -1.
       -1   -1    0    0    0  501  0.00000000000E+00  0.00000000000E+00 -0.57790728227E+02  0.57790728447E+02  0.50400001928E-02 0.  1.
    10030    2    1    2    0    0  0.00000000000E+00  0.00000000000E+00  0.15886912967E+04  0.17042727533E+04  0.61693239638E+03 0.  0.
        3    1    3    3  502    0 -0.10656338093E+03 -0.43295215659E+02  0.36678237656E+01  0.11508124516E+03  0.10100000352E+00 0.  1.
       -3    1    3    3    0  502  0.10656338093E+03  0.43295215659E+02  0.15850234729E+04  0.15891915082E+04  0.10100000352E+00 0. -1.
</event>
<event>
 5   0  0.4881209E-02  0.5985571E+03  0.7818609E-02  0.9908404E-01
        1   -1    0    0  501    0  0.00000000000E+00  0.00000000000E+00  0.13046442056E+04  0.13046442056E+04  0.50400001928E-02 0.  1.
       -1   -1    0    0    0  501  0.00000000000E+00  0.00000000000E+00 -0.68652921106E+02  0.68652921291E+02  0.50400001928E-02 0. -1.
    10030    2    1    2    0    0  0.00000000000E+00  0.00000000000E+00  0.12359912845E+04  0.13732971269E+04  0.59855705108E+03 0.  0.
        3    1    3    3  502    0 -0.67823684009E+02 -0.20266832006E+03  0.13731435666E+03  0.25402705134E+03  0.10100000352E+00 0. -1.
       -3    1    3    3    0  502  0.67823684009E+02  0.20266832006E+03  0.10986769278E+04  0.11192700755E+04  0.10100000352E+00 0.  1.
</event>
<event>
 5   0  0.5190380E-02  0.6084904E+03  0.7818609E-02  0.9887946E-01
       -1   -1    0    0    0  501  0.00000000000E+00  0.00000000000E+00  0.15938639108E+03  0.15938639116E+03  0.50400001928E-02 0.  1.
        1   -1    0    0  501    0  0.00000000000E+00  0.00000000000E+00 -0.58075933755E+03  0.58075933757E+03  0.50400001928E-02 0. -1.
    10030    2    1    2    0    0  0.00000000000E+00  0.00000000000E+00 -0.42137294647E+03  0.74014572872E+03  0.60849037768E+03 0.  0.
        5    1    3    3  502    0  0.13002877846E+03  0.17653242653E+03  0.45824642188E+02  0.22403831966E+03  0.46999998093E+01 0.  1.
       -5    1    3    3    0  502 -0.13002877846E+03 -0.17653242653E+03 -0.46719758866E+03  0.51610740906E+03  0.46999998093E+01 0. -1.
</event>
<event>
 5   0  0.8420604E-02  0.6008507E+03  0.7818609E-02  0.9903643E-01
        2   -1    0    0  501    0  0.00000000000E+00  0.00000000000E+00  0.29468106638E+04  0.29468106638E+04  0.25500000920E-02 0. -1.
       -2   -1    0    0    0  501  0.00000000000E+00  0.00000000000E+00 -0.30628158491E+02  0.30628158597E+02  0.25500000920E-02 0.  1.
    10030    2    1    2    0    0  0.00000000000E+00  0.00000000000E+00  0.29161825054E+04  0.29774388224E+04  0.60085067767E+03 0.  0.
        2    1    3    3  502    0  0.10016295476E+03 -0.26217914117E+03  0.92703658319E+03  0.96859039132E+03  0.25500000920E-02 0.  1.
       -2    1    3    3    0  502 -0.10016295476E+03  0.26217914117E+03  0.19891459222E+04  0.20088484311E+04  0.25500000920E-02 0. -1.
</event>
<event>
 5   0  0.8817544E-02  0.6080531E+03  0.7818609E-02  0.9888838E-01
        2   -1    0    0  501    0  0.00000000000E+00  0.00000000000E+00  0.78737500905E+03  0.78737500905E+03  0.25500000920E-02 0. -1.
       -2   -1    0    0    0  501  0.00000000000E+00  0.00000000000E+00 -0.11739279496E+03  0.11739279499E+03  0.25500000920E-02 0.  1.
    10030    2    1    2    0    0  0.00000000000E+00  0.00000000000E+00  0.66998221409E+03  0.90476780404E+03  0.60805313258E+03 0.  0.
        5    1    3    3  502    0 -0.23467771363E+03 -0.15002321319E+03  0.15379101603E+03  0.31820490313E+03  0.46999998093E+01 0.  1.
       -5    1    3    3    0  502  0.23467771363E+03  0.15002321319E+03  0.51619119806E+03  0.58656290091E+03  0.46999998093E+01 0. -1.
</event>
<event>
 5   0  0.5125031E-02  0.5944179E+03  0.7818609E-02  0.9917055E-01
        1   -1    0    0  501    0  0.00000000000E+00  0.00000000000E+00  0.68980630362E+03  0.68980630364E+03  0.50400001928E-02 0.  1.
       -1   -1    0    0    0  501  0.00000000000E+00  0.00000000000E+00 -0.12805500149E+03  0.12805500159E+03  0.50400001928E-02 0. -1.
    10030    2    1    2    0    0  0.00000000000E+00  0.00000000000E+00  0.56175130213E+03  0.81786130524E+03  0.59441785737E+03 0.  0.
        4    1    3    3  502    0  0.63236738423E+02 -0.11602261597E+03  0.64716418593E+03  0.66051739489E+03  0.12699999809E+01 0.  1.
       -4    1    3    3    0  502 -0.63236738423E+02  0.11602261597E+03 -0.85412883802E+02  0.15734391034E+03  0.12699999809E+01 0. -1.
</event>
<event>
 5   0  0.8575590E-02  0.6019403E+03  0.7818609E-02  0.9901389E-01
        2   -1    0    0  501    0  0.00000000000E+00  0.00000000000E+00  0.26216324461E+03  0.26216324462E+03  0.25500000920E-02 0.  1.
       -2   -1    0    0    0  501  0.00000000000E+00  0.00000000000E+00 -0.34552148886E+03  0.34552148887E+03  0.25500000920E-02 0. -1.
    10030    2    1    2    0    0  0.00000000000E+00  0.00000000000E+00 -0.83358244253E+02  0.60768473350E+03  0.60194031136E+03 0.  0.
        4    1    3    3  502    0 -0.21114971738E+03  0.21368917896E+03 -0.60133432136E+02  0.30637380912E+03  0.12699999809E+01 0.  1.
       -4    1    3    3    0  502  0.21114971738E+03 -0.21368917896E+03 -0.23224812117E+02  0.30131092438E+03  0.12699999809E+01 0. -1.
</event>
<event>
 5   0  0.5190380E-02  0.5989035E+03  0.7818609E-02  0.9907684E-01
       -1   -1    0    0    0  501  0.00000000000E+00  0.00000000000E+00  0.23842319685E+03  0.23842319690E+03  0.50400001928E-02 0.  1.
        1   -1    0    0  501    0  0.00000000000E+00  0.00000000000E+00 -0.37610156109E+03  0.37610156113E+03  0.50400001928E-02 0. -1.
    10030    2    1    2    0    0  0.00000000000E+00  0.00000000000E+00 -0.13767836424E+03  0.61452475803E+03  0.59890345320E+03 0.  0.
        5    1    3    3  502    0  0.22105258851E+02 -0.21000762624E+03 -0.28664307409E+03  0.35605924713E+03  0.46999998093E+01 0. -1.
       -5    1    3    3    0  502 -0.22105258851E+02  0.21000762624E+03  0.14896470985E+03  0.25846551090E+03  0.46999998093E+01 0.  1.
</event>
<event>
 5   0  0.8420604E-02  0.6009696E+03  0.7818609E-02  0.9903396E-01
       -2   -1    0    0    0  501  0.00000000000E+00  0.00000000000E+00  0.12869161380E+03  0.12869161383E+03  0.25500000920E-02 0. -1.
        2   -1    0    0  501    0  0.00000000000E+00  0.00000000000E+00 -0.70160848665E+03  0.70160848665E+03  0.25500000920E-02 0.  1.
    10030    2    1    2    0    0  0.00000000000E+00  0.00000000000E+00 -0.57291687284E+03  0.83030010048E+03  0.60096964454E+03 0.  0.
        2    1    3    3  502    0 -0.24023530661E+03  0.62681793042E+01 -0.53567881972E+03  0.58711505731E+03  0.25500000920E-02 0.  1.
       -2    1    3    3    0  502  0.24023530661E+03 -0.62681793042E+01 -0.37238053128E+02  0.24318504317E+03  0.25500000920E-02 0. -1.
</event>
<event>
 5   0  0.8699746E-02  0.5965329E+03  0.7818609E-02  0.9912625E-01
        2   -1    0    0  501    0  0.00000000000E+00  0.00000000000E+00  0.99568075479E+03  0.99568075479E+03  0.25500000920E-02 0.  1.
       -2   -1    0    0    0  501  0.00000000000E+00  0.00000000000E+00 -0.89348806677E+02  0.89348806713E+02  0.25500000920E-02 0. -1.
    10030    2    1    2    0    0  0.00000000000E+00  0.00000000000E+00  0.90633194811E+03  0.10850295615E+04  0.59653294056E+03 0.  0.
        3    1    3    3  502    0  0.17260743242E+03 -0.14633582227E+03  0.80659039440E+03  0.83773239948E+03  0.10100000352E+00 0.  1.
       -3    1    3    3    0  502 -0.17260743242E+03  0.14633582227E+03  0.99741553711E+02  0.24729716202E+03  0.10100000352E+00 0. -1.
</event>
<event>
 5   0  0.5166903E-02  0.5986098E+03  0.7818609E-02  0.9908294E-01
       -1   -1    0    0    0  501  0.00000000000E+00  0.00000000000E+00  0.17855217063E+03  0.17855217070E+03  0.50400001928E-02 0. -1.
        1   -1    0    0  501    0  0.00000000000E+00  0.00000000000E+00 -0.50172128149E+03  0.50172128152E+03  0.50400001928E-02 0.  1.
    10030    2    1    2    0    0  0.00000000000E+00  0.00000000000E+00 -0.32316911086E+03  0.68027345222E+03  0.59860980244E+03 0.  0.
        2    1    3    3  502    0 -0.29039438766E+03  0.49962699982E+02 -0.22126838457E+03  0.36848998601E+03  0.25500000920E-02 0. -1.
       -2    1    3    3    0  502  0.29039438766E+03 -0.49962699982E+02 -0.10190072630E+03  0.31178346621E+03  0.25500000920E-02 0.  1.
</event>
<event>
 5   0  0.5190380E-02  0.5981073E+03  0.7818609E-02  0.9909341E-01
        1   -1    0    0  501    0  0.00000000000E+00  0.00000000000E+00  0.11390648507E+04  0.11390648507E+04  0.50400001928E-02 0. -1.
       -1   -1    0    0    0  501  0.00000000000E+00  0.00000000000E+00 -0.78514481303E+02  0.78514481465E+02  0.50400001928E-02 0.  1.
    10030    2    1    2    0    0  0.00000000000E+00  0.00000000000E+00  0.10605503694E+04  0.12175793322E+04  0.59810730150E+03 0.  0.
        5    1    3    3  502    0  0.12550910019E+03  0.22609882540E+03  0.83588954662E+03  0.87498950692E+03  0.46999998093E+01 0.  1.
       -5    1    3    3    0  502 -0.12550910019E+03 -0.22609882540E+03  0.22466082277E+03  0.34258982525E+03  0.46999998093E+01 0. -1.
</event>
<event>
 5   0  0.8699746E-02  0.6145450E+03  0.7818609E-02  0.9875681E-01
        2   -1    0    0  501    0  0.00000000000E+00  0.00000000000E+00  0.21148239330E+04  0.21148239330E+04  0.25500000920E-02 0. -1.
       -2   -1    0    0    0  501  0.00000000000E+00  0.00000000000E+00 -0.44645029791E+02  0.44645029863E+02  0.25500000920E-02 0.  1.
    10030    2    1    2    0    0  0.00000000000E+00  0.00000000000E+00  0.20701789032E+04  0.21594689629E+04  0.61454496197E+03 0.  0.
        3    1    3    3  502    0 -0.17313435850E+03  0.18545762515E+03  0.16441900473E+04  0.16636498906E+04  0.10100000352E+00 0. -1.
       -3    1    3    3    0  502  0.17313435850E+03 -0.18545762515E+03  0.42598885596E+03  0.49581907227E+03  0.10100000352E+00 0.  1.
</event>
<event>
 5   0  0.8699746E-02  0.6096671E+03  0.7818609E-02  0.9885550E-01
       -2   -1    0    0    0  501  0.00000000000E+00  0.00000000000E+00  0.52404399806E+02  0.52404399868E+02  0.25500000920E-02 0.  1.
        2   -1    0    0  501    0  0.00000000000E+00  0.00000000000E+00 -0.17732001609E+04  0.17732001609E+04  0.25500000920E-02 0. -1.
    10030    2    1    2    0    0  0.00000000000E+00  0.00000000000E+00 -0.17207957611E+04  0.18256045608E+04  0.60966709023E+03 0.  0.
        3    1    3    3  502    0  0.13441238428E+03  0.15544472616E+03 -0.15346014928E+04  0.15482995524E+04  0.10100000352E+00 0. -1.
       -3    1    3    3    0  502 -0.13441238428E+03 -0.15544472616E+03 -0.18619426826E+03  0.27730500837E+03  0.10100000352E+00 0.  1.
</event>
<event>
 5   0  0.8420604E-02  0.6018885E+03  0.7818609E-02  0.9901496E-01
       -2   -1    0    0    0  501  0.00000000000E+00  0.00000000000E+00  0.52244941364E+02  0.52244941427E+02  0.25500000920E-02 0.  1.
        2   -1    0    0  501    0  0.00000000000E+00  0.00000000000E+00 -0.17335162404E+04  0.17335162404E+04  0.25500000920E-02 0. -1.
    10030    2    1    2    0    0  0.00000000000E+00  0.00000000000E+00 -0.16812712990E+04  0.17857611818E+04  0.60188854248E+03 0.  0.
        2    1    3    3  502    0  0.27185276359E+02  0.19387097683E+03 -0.15187752550E+04  0.15313403508E+04  0.25500000920E-02 0. -1.
       -2    1    3    3    0  502 -0.27185276359E+02 -0.19387097683E+03 -0.16249604405E+03  0.25442083100E+03  0.25500000920E-02 0.  1.
</event>
<event>
 5   0  0.4987389E-02  0.5997510E+03  0.7818609E-02  0.9905923E-01
       -1   -1    0    0    0  501  0.00000000000E+00  0.00000000000E+00  0.90308674551E+02  0.90308674692E+02  0.50400001928E-02 0.  1.
        1   -1    0    0  501    0  0.00000000000E+00  0.00000000000E+00 -0.99575514290E+03  0.99575514292E+03  0.50400001928E-02 0. -1.
    10030    2    1    2    0    0  0.00000000000E+00  0.00000000000E+00 -0.90544646835E+03  0.10860638176E+04  0.59975103907E+03 0.  0.
        1    1    3    3  502    0  0.11486809701E+03 -0.20663408218E+03 -0.11865554275E+03  0.26452119287E+03  0.50400001928E-02 0. -1.
       -1    1    3    3    0  502 -0.11486809701E+03  0.20663408218E+03 -0.78679092560E+03  0.82154262473E+03  0.50400001928E-02 0.  1.
</event>
<event>
 5   0  0.8575590E-02  0.6039996E+03  0.7818609E-02  0.9897143E-01
        2   -1    0    0  501    0  0.00000000000E+00  0.00000000000E+00  0.12640546784E+04  0.12640546784E+04  0.25500000920E-02 0.  1.
       -2   -1    0    0    0  501  0.00000000000E+00  0.00000000000E+00 -0.72151851035E+02  0.72151851080E+02  0.25500000920E-02 0. -1.
    10030    2    1    2    0    0  0.00000000000E+00  0.00000000000E+00  0.11919028274E+04  0.13362065295E+04  0.60399961884E+03 0.  0.
        4    1    3    3  502    0 -0.19925839014E+03 -0.20002703104E+03  0.35884096882E+03  0.45659957621E+03  0.12699999809E+01 0.  1.
       -4    1    3    3    0  502  0.19925839014E+03  0.20002703104E+03  0.83306185858E+03  0.87960695331E+03  0.12699999809E+01 0. -1.
</event>
<event>
 5   0  0.8699746E-02  0.5806325E+03  0.7818609E-02  0.9946423E-01
        2   -1    0    0  501    0  0.00000000000E+00  0.00000000000E+00  0.62994317317E+03  0.62994317317E+03  0.25500000920E-02 0.  1.
       -2   -1    0    0    0  501  0.00000000000E+00  0.00000000000E+00 -0.13379542563E+03  0.13379542565E+03  0.25500000920E-02 0. -1.
    10030    2    1    2    0    0  0.00000000000E+00  0.00000000000E+00  0.49614774754E+03  0.76373859882E+03  0.58063246546E+03 0.  0.
        3    1    3    3  502    0 -0.25544048714E+03  0.24644893719E+02  0.42662491774E+03  0.49786147058E+03  0.10100000352E+00 0. -1.
       -3    1    3    3    0  502  0.25544048714E+03 -0.24644893719E+02  0.69522829804E+02  0.26587712824E+03  0.10100000352E+00 0.  1.
</event>
<event>
 5   0  0.3437375E-02  0.6061630E+03  0.7818609E-02  0.9892702E-01
        4   -1    0    0  501    0  0.00000000000E+00  0.00000000000E+00  0.36844676217E+03  0.36844895094E+03  0.12699999809E+01 0.  1.
       -4   -1    0    0    0  501  0.00000000000E+00  0.00000000000E+00 -0.24930795246E+03  0.24931118720E+03  0.12699999809E+01 0. -1.
    10030    2    1    2    0    0  0.00000000000E+00  0.00000000000E+00  0.11913880970E+03  0.61776013814E+03  0.60616295853E+03 0.  0.
        3    1    3    3  502    0 -0.41247775744E+01  0.54423874545E+02  0.36339967997E+03  0.36747559036E+03  0.10100000352E+00 0.  1.
       -3    1    3    3    0  502  0.41247775744E+01 -0.54423874545E+02 -0.24426087027E+03  0.25028454778E+03  0.10100000352E+00 0. -1.
</event>
<event>
 5   0  0.5125031E-02  0.6067042E+03  0.7818609E-02  0.9891594E-01
       -1   -1    0    0    0  501  0.00000000000E+00  0.00000000000E+00  0.61603606041E+03  0.61603606043E+03  0.50400001928E-02 0. -1.
        1   -1    0    0  501    0  0.00000000000E+00  0.00000000000E+00 -0.14937840330E+03  0.14937840338E+03  0.50400001928E-02 0.  1.
    10030    2    1    2    0    0  0.00000000000E+00  0.00000000000E+00  0.46665765711E+03  0.76541446381E+03  0.60670415564E+03 0.  0.
        4    1    3    3  502    0 -0.24448768409E+03  0.81451471419E+02  0.43523239389E+03  0.50580373611E+03  0.12699999809E+01 0. -1.
       -4    1    3    3    0  502  0.24448768409E+03 -0.81451471419E+02  0.31425263216E+02  0.25961072770E+03  0.12699999809E+01 0.  1.
</event>
<event>
 5   0  0.8207443E-02  0.6142234E+03  0.7818609E-02  0.9876329E-01
        2   -1    0    0  501    0  0.00000000000E+00  0.00000000000E+00  0.26708322669E+03  0.26708322670E+03  0.25500000920E-02 0. -1.
       -2   -1    0    0    0  501  0.00000000000E+00  0.00000000000E+00 -0.35313932050E+03  0.35313932051E+03  0.25500000920E-02 0.  1.
    10030    2    1    2    0    0  0.00000000000E+00  0.00000000000E+00 -0.86056093809E+02  0.62022254721E+03  0.61422337695E+03 0.  0.
        1    1    3    3  502    0 -0.11624549763E+03 -0.69728240382E+02  0.23524028536E+03  0.27150144587E+03  0.50400001928E-02 0. -1.
       -1    1    3    3    0  502  0.11624549763E+03  0.69728240382E+02 -0.32129637917E+03  0.34872110134E+03  0.50400001928E-02 0.  1.
</event>
<event>
 5   0  0.5190380E-02  0.5397968E+03  0.7818609E-02  0.1003884E+00
       -1   -1    0    0    0  501  0.00000000000E+00  0.00000000000E+00  0.66070376542E+02  0.66070376734E+02  0.50400001928E-02 0. -1.
        1   -1    0    0  501    0  0.00000000000E+00  0.00000000000E+00 -0.11025387839E+04  0.11025387839E+04  0.50400001928E-02 0.  1.
    10030    2    1    2    0    0  0.00000000000E+00  0.00000000000E+00 -0.10364684073E+04  0.11686091606E+04  0.53979682371E+03 0.  0.
        5    1    3    3  502    0 -0.97216936905E+02 -0.13111126928E+03 -0.52997226792E+02  0.17167438306E+03  0.46999998093E+01 0. -1.
       -5    1    3    3    0  502  0.97216936905E+02  0.13111126928E+03 -0.98347118055E+03  0.99693477757E+03  0.46999998093E+01 0.  1.
</event>
<event>
 5   0  0.5125031E-02  0.5996478E+03  0.7818609E-02  0.9906137E-01
        1   -1    0    0  501    0  0.00000000000E+00  0.00000000000E+00  0.72494597631E+03  0.72494597632E+03  0.50400001928E-02 0.  1.
       -1   -1    0    0    0  501  0.00000000000E+00  0.00000000000E+00 -0.12400147878E+03  0.12400147888E+03  0.50400001928E-02 0. -1.
    10030    2    1    2    0    0  0.00000000000E+00  0.00000000000E+00  0.60094449753E+03  0.84894745521E+03  0.59964780713E+03 0.  0.
        4    1    3    3  502    0 -0.21068633888E+03  0.21321559833E+03  0.29117398341E+03  0.41789176383E+03  0.12699999809E+01 0.  1.
       -4    1    3    3    0  502  0.21068633888E+03 -0.21321559833E+03  0.30977051411E+03  0.43105569138E+03  0.12699999809E+01 0. -1.
</event>
<event>
 5   0  0.8699746E-02  0.5962878E+03  0.7818609E-02  0.9913138E-01
        2   -1    0    0  501    0  0.00000000000E+00  0.00000000000E+00  0.47790383847E+03  0.47790383848E+03  0.25500000920E-02 0. -1.
       -2   -1    0    0    0  501  0.00000000000E+00  0.00000000000E+00 -0.18599929820E+03  0.18599929821E+03  0.25500000920E-02 0.  1.
    10030    2    1    2    0    0  0.00000000000E+00  0.00000000000E+00  0.29190454028E+03  0.66390313669E+03  0.59628777807E+03 0.  0.
        3    1    3    3  502    0 -0.13145492127E+03 -0.50161236075E+00  0.44389513017E+03  0.46295090964E+03  0.10100000352E+00 0. -1.
       -3    1    3    3    0  502  0.13145492127E+03  0.50161236075E+00 -0.15199058990E+03  0.20095222706E+03  0.10100000352E+00 0.  1.
</event>
<event>
 5   0  0.5125031E-02  0.6037745E+03  0.7818609E-02  0.9897606E-01
       -1   -1    0    0    0  501  0.00000000000E+00  0.00000000000E+00  0.11518632517E+03  0.11518632528E+03  0.50400001928E-02 0.  1.
        1   -1    0    0  501    0  0.00000000000E+00  0.00000000000E+00 -0.79120424480E+03  0.79120424481E+03  0.50400001928E-02 0. -1.
    10030    2    1    2    0    0  0.00000000000E+00  0.00000000000E+00 -0.67601791963E+03  0.90639057009E+03  0.60377449258E+03 0.  0.
        4    1    3    3  502    0  0.90187673378E+01 -0.30137332299E+03 -0.36063084098E+03  0.47006747850E+03  0.12699999809E+01 0. -1.
       -4    1    3    3    0  502 -0.90187673378E+01  0.30137332299E+03 -0.31538707865E+03  0.43632309159E+03  0.12699999809E+01 0.  1.
</event>
<event>
 5   0  0.4987389E-02  0.5969580E+03  0.7818609E-02  0.9911737E-01
       -1   -1    0    0    0  501  0.00000000000E+00  0.00000000000E+00  0.33854571400E+03  0.33854571403E+03  0.50400001928E-02 0. -1.
        1   -1    0    0  501    0  0.00000000000E+00  0.00000000000E+00 -0.26315419643E+03  0.26315419648E+03  0.50400001928E-02 0.  1.
    10030    2    1    2    0    0  0.00000000000E+00  0.00000000000E+00  0.75391517570E+02  0.60169991051E+03  0.59695803989E+03 0.  0.
        1    1    3    3  502    0 -0.28135000019E+03 -0.26028936940E+02  0.13465968847E+03  0.31299929695E+03  0.50400001928E-02 0. -1.
       -1    1    3    3    0  502  0.28135000019E+03  0.26028936940E+02 -0.59268170898E+02  0.28870061356E+03  0.50400001928E-02 0.  1.
</event>
<event>
 5   0  0.5166903E-02  0.5711745E+03  0.7818609E-02  0.9967083E-01
        1   -1    0    0  501    0  0.00000000000E+00  0.00000000000E+00  0.16002689855E+04  0.16002689855E+04  0.50400001928E-02 0.  1.
       -1   -1    0    0    0  501  0.00000000000E+00  0.00000000000E+00 -0.50966477674E+02  0.50966477923E+02  0.50400001928E-02 0. -1.
    10030    2    1    2    0    0  0.00000000000E+00  0.00000000000E+00  0.15493025078E+04  0.16512354634E+04  0.57117448729E+03 0.  0.
        2    1    3    3  502    0 -0.65096014605E+02 -0.25758318545E+03  0.10774907379E+04  0.11097625326E+04  0.25500000920E-02 0.  1.
       -2    1    3    3    0  502  0.65096014605E+02  0.25758318545E+03  0.47181176988E+03  0.54147293076E+03  0.25500000920E-02 0. -1.
</event>
<event>
 5   0  0.8207443E-02  0.5975519E+03  0.7818609E-02  0.9910498E-01
       -2   -1    0    0    0  501  0.00000000000E+00  0.00000000000E+00  0.39510426440E+02  0.39510426522E+02  0.25500000920E-02 0. -1.
        2   -1    0    0  501    0  0.00000000000E+00  0.00000000000E+00 -0.22593291101E+04  0.22593291101E+04  0.25500000920E-02 0.  1.
    10030    2    1    2    0    0  0.00000000000E+00  0.00000000000E+00 -0.22198186837E+04  0.22988395367E+04  0.59755186120E+03 0.  0.
        1    1    3    3  502    0 -0.24172653631E+03 -0.37844282575E+02 -0.17695842628E+04  0.17864188678E+04  0.50400001928E-02 0.  1.
       -1    1    3    3    0  502  0.24172653631E+03  0.37844282575E+02 -0.45023442088E+03  0.51242066884E+03  0.50400001928E-02 0. -1.
</event>
<event>
 5   0  0.5190380E-02  0.6061719E+03  0.7818609E-02  0.9892683E-01
       -1   -1    0    0    0  501  0.00000000000E+00  0.00000000000E+00  0.12754630637E+03  0.12754630647E+03  0.50400001928E-02 0.  1.
        1   -1    0    0  501    0  0.00000000000E+00  0.00000000000E+00 -0.72021770325E+03  0.72021770327E+03  0.50400001928E-02 0. -1.
    10030    2    1    2    0    0  0.00000000000E+00  0.00000000000E+00 -0.59267139688E+03  0.84776400974E+03  0.60617194881E+03 0.  0.
        5    1    3    3  502    0 -0.26220402534E+03 -0.15104866007E+03 -0.27325450857E+03  0.40774595653E+03  0.46999998093E+01 0. -1.
       -5    1    3    3    0  502  0.26220402534E+03  0.15104866007E+03 -0.31941688832E+03  0.44001805321E+03  0.46999998093E+01 0.  1.
</event>
<event>
 5   0  0.8699746E-02  0.6109994E+03  0.7818609E-02  0.9882845E-01
        2   -1    0    0  501    0  0.00000000000E+00  0.00000000000E+00  0.11592656306E+04  0.11592656306E+04  0.25500000920E-02 0. -1.
       -2   -1    0    0    0  501  0.00000000000E+00  0.00000000000E+00 -0.80507909696E+02  0.80507909736E+02  0.25500000920E-02 0.  1.
    10030    2    1    2    0    0  0.00000000000E+00  0.00000000000E+00  0.10787577209E+04  0.12397735404E+04  0.61099935427E+03 0.  0.
        3    1    3    3  502    0  0.79987968534E+02 -0.22805645915E+03  0.91856506355E+03  0.94982609453E+03  0.10100000352E+00 0. -1.
       -3    1    3    3    0  502 -0.79987968534E+02  0.22805645915E+03  0.16019265738E+03  0.28994744584E+03  0.10100000352E+00 0.  1.
</event>
<event>
 5   0  0.8420604E-02  0.6068965E+03  0.7818609E-02  0.9891200E-01
        2   -1    0    0  501    0  0.00000000000E+00  0.00000000000E+00  0.26587429570E+03  0.26587429571E+03  0.25500000920E-02 0. -1.
       -2   -1    0    0    0  501  0.00000000000E+00  0.00000000000E+00 -0.34633225972E+03  0.34633225973E+03  0.25500000920E-02 0.  1.
    10030    2    1    2    0    0  0.00000000000E+00  0.00000000000E+00 -0.80457964027E+02  0.61220655544E+03  0.60689651717E+03 0.  0.
        2    1    3    3  502    0  0.66333509838E+02 -0.26087743015E+03 -0.18153918814E+03  0.32467467553E+03  0.25500000920E-02 0.  1.
       -2    1    3    3    0  502 -0.66333509838E+02  0.26087743015E+03  0.10108122412E+03  0.28753187991E+03  0.25500000920E-02 0. -1.
</event>
<event>
 5   0  0.8575590E-02  0.5924878E+03  0.7818609E-02  0.9921115E-01
        2   -1    0    0  501    0  0.00000000000E+00  0.00000000000E+00  0.22519956111E+04  0.22519956111E+04  0.25500000920E-02 0.  1.
       -2   -1    0    0    0  501  0.00000000000E+00  0.00000000000E+00 -0.38970084292E+02  0.38970084376E+02  0.25500000920E-02 0. -1.
    10030    2    1    2    0    0  0.00000000000E+00  0.00000000000E+00  0.22130255268E+04  0.22909656954E+04  0.59248783578E+03 0.  0.
        4    1    3    3  502    0 -0.11960137998E+03  0.27032466104E+03  0.11817825463E+04  0.12181919028E+04  0.12699999809E+01 0. -1.
       -4    1    3    3    0  502  0.11960137998E+03 -0.27032466104E+03  0.10312429805E+04  0.10727737926E+04  0.12699999809E+01 0.  1.
</event>
<event>
 5   0  0.8699746E-02  0.6084786E+03  0.7818609E-02  0.9887970E-01
        2   -1    0    0  501    0  0.00000000000E+00  0.00000000000E+00  0.12336755726E+03  0.12336755729E+03  0.25500000920E-02 0. -1.
       -2   -1    0    0    0  501  0.00000000000E+00  0.00000000000E+00 -0.75029077714E+03  0.75029077715E+03  0.25500000920E-02 0.  1.
    10030    2    1    2    0    0  0.00000000000E+00  0.00000000000E+00 -0.62692321988E+03  0.87365833443E+03  0.60847856305E+03 0.  0.
        3    1    3    3  502    0  0.41566360087E+02  0.18088253834E+03  0.32670182525E+02  0.18845053992E+03  0.10100000352E+00 0. -1.
       -3    1    3    3    0  502 -0.41566360087E+02 -0.18088253834E+03 -0.65959340241E+03  0.68520779452E+03  0.10100000352E+00 0.  1.
</event>
<event>
 5   0  0.4987389E-02  0.5917695E+03  0.7818609E-02  0.9922630E-01
       -1   -1    0    0    0  501  0.00000000000E+00  0.00000000000E+00  0.14938669371E+03  0.14938669379E+03  0.50400001928E-02 0.  1.
        1   -1    0    0  501    0  0.00000000000E+00  0.00000000000E+00 -0.58604816799E+03  0.58604816802E+03  0.50400001928E-02 0. -1.
    10030    2    1    2    0    0  0.00000000000E+00  0.00000000000E+00 -0.43666147429E+03  0.73543486181E+03  0.59176954369E+03 0.  0.
        1    1    3    3  502    0 -0.51980231317E+02  0.15966555818E+03  0.84438728688E+02  0.18794928530E+03  0.50400001928E-02 0.  1.
       -1    1    3    3    0  502  0.51980231317E+02 -0.15966555818E+03 -0.52110020298E+03  0.54748557651E+03  0.50400001928E-02 0. -1.
</event>
<event>
 5   0  0.5190380E-02  0.6019768E+03  0.7818609E-02  0.9901313E-01
       -1   -1    0    0    0  501  0.00000000000E+00  0.00000000000E+00  0.86410035842E+02  0.86410035989E+02  0.50400001928E-02 0. -1.
        1   -1    0    0  501    0  0.00000000000E+00  0.00000000000E+00 -0.10484199546E+04  0.10484199547E+04  0.50400001928E-02 0.  1.
    10030    2    1    2    0    0  0.00000000000E+00  0.00000000000E+00 -0.96200991880E+03  0.11348299906E+04  0.60197676350E+03 0.  0.
        5    1    3    3  502    0 -0.10658241341E+03  0.27002910050E+03 -0.63059300452E+03  0.69422269720E+03  0.46999998093E+01 0.  1.
       -5    1    3    3    0  502  0.10658241341E+03 -0.27002910050E+03 -0.33141691429E+03  0.44060729345E+03  0.46999998093E+01 0. -1.
</event>
<event>
 5   0  0.5190380E-02  0.5669533E+03  0.7818609E-02  0.9976443E-01
        1   -1    0    0  501    0  0.00000000000E+00  0.00000000000E+00  0.14943700119E+03  0.14943700127E+03  0.50400001928E-02 0. -1.
       -1   -1    0    0    0  501  0.00000000000E+00  0.00000000000E+00 -0.53774508159E+03  0.53774508161E+03  0.50400001928E-02 0.  1.
    10030    2    1    2    0    0  0.00000000000E+00  0.00000000000E+00 -0.38830808040E+03  0.68718208288E+03  0.56695330471E+03 0.  0.
        5    1    3    3  502    0 -0.20154927459E+03  0.17195314451E+03 -0.72060739362E+02  0.27459940668E+03  0.46999998093E+01 0. -1.
       -5    1    3    3    0  502  0.20154927459E+03 -0.17195314451E+03 -0.31624734104E+03  0.41258267620E+03  0.46999998093E+01 0.  1.
</event>
<event>
 5   0  0.3437375E-02  0.6658076E+03  0.7818609E-02  0.9777561E-01
        3   -1    0    0  501    0  0.00000000000E+00  0.00000000000E+00  0.26340690875E+03  0.26340692811E+03  0.10100000352E+00 0. -1.
       -3   -1    0    0    0  501  0.00000000000E+00  0.00000000000E+00 -0.42073661695E+03  0.42073662907E+03  0.10100000352E+00 0.  1.
    10030    2    1    2    0    0  0.00000000000E+00  0.00000000000E+00 -0.15732970820E+03  0.68414355719E+03  0.66580760716E+03 0.  0.
        5    1    3    3  502    0  0.29569490325E+03 -0.15195041558E+03 -0.95811153996E+02  0.34601484337E+03  0.46999998093E+01 0.  1.
       -5    1    3    3    0  502 -0.29569490325E+03  0.15195041558E+03 -0.61518554206E+02  0.33812871382E+03  0.46999998093E+01 0. -1.
</event>
<event>
 5   0  0.8575590E-02  0.5995465E+03  0.7818609E-02  0.9906347E-01
       -2   -1    0    0    0  501  0.00000000000E+00  0.00000000000E+00  0.11732672513E+04  0.11732672513E+04  0.25500000920E-02 0. -1.
        2   -1    0    0  501    0  0.00000000000E+00  0.00000000000E+00 -0.76592959303E+02  0.76592959346E+02  0.25500000920E-02 0.  1.
    10030    2    1    2    0    0  0.00000000000E+00  0.00000000000E+00  0.10966742920E+04  0.12498602107E+04  0.59954653151E+03 0.  0.
        4    1    3    3  502    0 -0.29671842377E+03 -0.17764369873E+02  0.46746348492E+03  0.55396851758E+03  0.12699999809E+01 0. -1.
       -4    1    3    3    0  502  0.29671842377E+03  0.17764369873E+02  0.62921080712E+03  0.69589169310E+03  0.12699999809E+01 0.  1.
</event>
<event>
 5   0  0.8420604E-02  0.5763503E+03  0.7818609E-02  0.9955724E-01
       -2   -1    0    0    0  501  0.00000000000E+00  0.00000000000E+00  0.13833283747E+03  0.13833283750E+03  0.25500000920E-02 0.  1.
        2   -1    0    0  501    0  0.00000000000E+00  0.00000000000E+00 -0.60032679582E+03  0.60032679583E+03  0.25500000920E-02 0. -1.
    10030    2    1    2    0    0  0.00000000000E+00  0.00000000000E+00 -0.46199395835E+03  0.73865963332E+03  0.57635027227E+03 0.  0.
        2    1    3    3  502    0 -0.26022304852E+03  0.22162410916E+02 -0.74883220390E+02  0.27168861614E+03  0.25500000920E-02 0.  1.
       -2    1    3    3    0  502  0.26022304852E+03 -0.22162410916E+02 -0.38711073796E+03  0.46697101718E+03  0.25500000920E-02 0. -1.
</event>
<event>
 5   0  0.5166903E-02  0.5870763E+03  0.7818609E-02  0.9932587E-01
        1   -1    0    0  501    0  0.00000000000E+00  0.00000000000E+00  0.10342780802E+04  0.10342780802E+04  0.50400001928E-02 0.  1.
       -1   -1    0    0    0  501  0.00000000000E+00  0.00000000000E+00 -0.83308968463E+02  0.83308968616E+02  0.50400001928E-02 0. -1.
    10030    2    1    2    0    0  0.00000000000E+00  0.00000000000E+00  0.95096911176E+03  0.11175870488E+04  0.58707628145E+03 0.  0.
        2    1    3    3  502    0  0.19482577722E+03  0.23413819053E+02  0.59898582093E+02  0.20516610475E+03  0.25500000920E-02 0. -1.
       -2    1    3    3    0  502 -0.19482577722E+03 -0.23413819053E+02  0.89107052966E+03  0.91242094410E+03  0.25500000920E-02 0.  1.
</event>
<event>
 5   0  0.3437375E-02  0.6010610E+03  0.7818609E-02  0.9903207E-01
       -3   -1    0    0    0  501  0.00000000000E+00  0.00000000000E+00  0.92574902340E+03  0.92574902891E+03  0.10100000352E+00 0.  1.
        3   -1    0    0  501    0  0.00000000000E+00  0.00000000000E+00 -0.97562678697E+02  0.97562730976E+02  0.10100000352E+00 0. -1.
    10030    2    1    2    0    0  0.00000000000E+00  0.00000000000E+00  0.82818634470E+03  0.10233117599E+04  0.60106100885E+03 0.  0.
        3    1    3    3  502    0 -0.19939769499E+03  0.22405067328E+03  0.44641524707E+03  0.53781477107E+03  0.10100000352E+00 0.  1.
       -3    1    3    3    0  502  0.19939769499E+03 -0.22405067328E+03  0.38177109763E+03  0.48549698881E+03  0.10100000352E+00 0. -1.
</event>
<event>
 5   0  0.3437375E-02  0.6036141E+03  0.7818609E-02  0.9897936E-01
        4   -1    0    0  501    0  0.00000000000E+00  0.00000000000E+00  0.73253040902E+03  0.73253150992E+03  0.12699999809E+01 0.  1.
       -4   -1    0    0    0  501  0.00000000000E+00  0.00000000000E+00 -0.12434191398E+03  0.12434839956E+03  0.12699999809E+01 0. -1.
    10030    2    1    2    0    0  0.00000000000E+00  0.00000000000E+00  0.60818849503E+03  0.85687990948E+03  0.60361406029E+03 0.  0.
        4    1    3    3  502    0  0.14432927247E+03  0.20890411435E+03  0.72506429469E+02  0.26406564165E+03  0.12699999809E+01 0.  1.
       -4    1    3    3    0  502 -0.14432927247E+03 -0.20890411435E+03  0.53568206557E+03  0.59281426784E+03  0.12699999809E+01 0. -1.
</event>
<event>
 5   0  0.8207443E-02  0.6070552E+03  0.7818609E-02  0.9890876E-01
        2   -1    0    0  501    0  0.00000000000E+00  0.00000000000E+00  0.17705106489E+03  0.17705106491E+03  0.25500000920E-02 0.  1.
       -2   -1    0    0    0  501  0.00000000000E+00  0.00000000000E+00 -0.52035268557E+03  0.52035268557E+03  0.25500000920E-02 0. -1.
    10030    2    1    2    0    0  0.00000000000E+00  0.00000000000E+00 -0.34330162068E+03  0.69740375048E+03  0.60705517741E+03 0.  0.
        1    1    3    3  502    0 -0.26868587120E+03 -0.12974040558E+03 -0.23565963198E+03  0.38021064214E+03  0.50400001928E-02 0. -1.
       -1    1    3    3    0  502  0.26868587120E+03  0.12974040558E+03 -0.10764198870E+03  0.31719310834E+03  0.50400001928E-02 0.  1.
</event>
<event>
 5   0  0.5125031E-02  0.5967281E+03  0.7818609E-02  0.9912218E-01
        1   -1    0    0  501    0  0.00000000000E+00  0.00000000000E+00  0.10098155303E+03  0.10098155316E+03  0.50400001928E-02 0. -1.
       -1   -1    0    0    0  501  0.00000000000E+00  0.00000000000E+00 -0.88155801525E+03  0.88155801526E+03  0.50400001928E-02 0.  1.
    10030    2    1    2    0    0  0.00000000000E+00  0.00000000000E+00 -0.78057646221E+03  0.98253956842E+03  0.59672807053E+03 0.  0.
        4    1    3    3  502    0 -0.14504251461E+03 -0.25795704275E+03 -0.45277710931E+03  0.54091394007E+03  0.12699999809E+01 0.  1.
       -4    1    3    3    0  502  0.14504251461E+03  0.25795704275E+03 -0.32779935291E+03  0.44162562835E+03  0.12699999809E+01 0. -1.
</event>
<event>
 5   0  0.5190380E-02  0.6230953E+03  0.7818609E-02  0.9858616E-01
        1   -1    0    0  501    0  0.00000000000E+00  0.00000000000E+00  0.53722741629E+03  0.53722741632E+03  0.50400001928E-02 0.  1.
       -1   -1    0    0    0  501  0.00000000000E+00  0.00000000000E+00 -0.18067198642E+03  0.18067198649E+03  0.50400001928E-02 0. -1.
    10030    2    1    2    0    0  0.00000000000E+00  0.00000000000E+00  0.35655542987E+03  0.71789940281E+03  0.62309532014E+03 0.  0.
        5    1    3    3  502    0  0.72950971252E+02 -0.30282986194E+03  0.17427243779E+03  0.35696042086E+03  0.46999998093E+01 0. -1.
       -5    1    3    3    0  502 -0.72950971252E+02  0.30282986194E+03  0.18228299208E+03  0.36093898195E+03  0.46999998093E+01 0.  1.
</event>
<event>
 5   0  0.4987389E-02  0.6087120E+03  0.7818609E-02  0.9887494E-01
       -1   -1    0    0    0  501  0.00000000000E+00  0.00000000000E+00  0.13161880465E+03  0.13161880474E+03  0.50400001928E-02 0. -1.
        1   -1    0    0  501    0  0.00000000000E+00  0.00000000000E+00 -0.70379447008E+03  0.70379447009E+03  0.50400001928E-02 0.  1.
    10030    2    1    2    0    0  0.00000000000E+00  0.00000000000E+00 -0.57217566543E+03  0.83541327484E+03  0.60871204002E+03 0.  0.
        1    1    3    3  502    0 -0.14456893446E+03  0.20021952823E+03 -0.41947829362E+02  0.25049482372E+03  0.50400001928E-02 0.  1.
       -1    1    3    3    0  502  0.14456893446E+03 -0.20021952823E+03 -0.53022783607E+03  0.58491845112E+03  0.50400001928E-02 0. -1.
</event>
<event>
 5   0  0.4881209E-02  0.6070814E+03  0.7818609E-02  0.9890822E-01
       -1   -1    0    0    0  501  0.00000000000E+00  0.00000000000E+00  0.14613700950E+03  0.14613700959E+03  0.50400001928E-02 0.  1.
        1   -1    0    0  501    0  0.00000000000E+00  0.00000000000E+00 -0.63048329417E+03  0.63048329419E+03  0.50400001928E-02 0. -1.
    10030    2    1    2    0    0  0.00000000000E+00  0.00000000000E+00 -0.48434628467E+03  0.77662030377E+03  0.60708135597E+03 0.  0.
        3    1    3    3  502    0  0.10124591876E+03  0.99014087724E+02 -0.58563339588E+03  0.60251224901E+03  0.10100000352E+00 0. -1.
       -3    1    3    3    0  502 -0.10124591876E+03 -0.99014087724E+02  0.10128711121E+03  0.17410805476E+03  0.10100000352E+00 0.  1.
</event>
<event>
 5   0  0.3437375E-02  0.6102585E+03  0.7818609E-02  0.9884349E-01
        3   -1    0    0  501    0  0.00000000000E+00  0.00000000000E+00  0.25958630948E+03  0.25958632913E+03  0.10100000352E+00 0. -1.
       -3   -1    0    0    0  501  0.00000000000E+00  0.00000000000E+00 -0.35866234452E+03  0.35866235874E+03  0.10100000352E+00 0.  1.
    10030    2    1    2    0    0  0.00000000000E+00  0.00000000000E+00 -0.99076035043E+02  0.61824868787E+03  0.61025845290E+03 0.  0.
        3    1    3    3  502    0  0.15097513740E+03 -0.10507453450E+03  0.19710322986E+03  0.26959941271E+03  0.10100000352E+00 0. -1.
       -3    1    3    3    0  502 -0.15097513740E+03  0.10507453450E+03 -0.29617926490E+03  0.34864927516E+03  0.10100000352E+00 0.  1.
</event>
<event>
 5   0  0.8207443E-02  0.6280447E+03  0.7818609E-02  0.9848872E-01
       -2   -1    0    0    0  501  0.00000000000E+00  0.00000000000E+00  0.77859613898E+02  0.77859613939E+02  0.25500000920E-02 0.  1.
        2   -1    0    0  501    0  0.00000000000E+00  0.00000000000E+00 -0.12665107496E+04  0.12665107496E+04  0.25500000920E-02 0. -1.
    10030    2    1    2    0    0  0.00000000000E+00  0.00000000000E+00 -0.11886511357E+04  0.13443703636E+04  0.62804470540E+03 0.  0.
        1    1    3    3  502    0 -0.24036418710E+03 -0.15406548202E+03 -0.31441922065E+03  0.42470055513E+03  0.50400001928E-02 0.  1.
       -1    1    3    3    0  502  0.24036418710E+03  0.15406548202E+03 -0.87423191510E+03  0.91966980846E+03  0.50400001928E-02 0. -1.
</event>
<event>
 5   0  0.8207443E-02  0.6349170E+03  0.7818609E-02  0.9835500E-01
       -2   -1    0    0    0  501  0.00000000000E+00  0.00000000000E+00  0.28772037805E+03  0.28772037807E+03  0.25500000920E-02 0. -1.
        2   -1    0    0  501    0  0.00000000000E+00  0.00000000000E+00 -0.35027023306E+03  0.35027023307E+03  0.25500000920E-02 0.  1.
    10030    2    1    2    0    0  0.00000000000E+00  0.00000000000E+00 -0.62549855007E+02  0.63799061114E+03  0.63491695169E+03 0.  0.
        1    1    3    3  502    0 -0.23244073552E+03  0.10684431470E+03 -0.22016227470E+03  0.33751419280E+03  0.50400001928E-02 0.  1.
       -1    1    3    3    0  502  0.23244073552E+03 -0.10684431470E+03  0.15761241969E+03  0.30047641834E+03  0.50400001928E-02 0. -1.
</event>
<event>
 5   0  0.5190380E-02  0.6156833E+03  0.7818609E-02  0.9873392E-01
        1   -1    0    0  501    0  0.00000000000E+00  0.00000000000E+00  0.11208066918E+04  0.11208066918E+04  0.50400001928E-02 0. -1.
       -1   -1    0    0    0  501  0.00000000000E+00  0.00000000000E+00 -0.84552043417E+02  0.84552043567E+02  0.50400001928E-02 0.  1.
    10030    2    1    2    0    0  0.00000000000E+00  0.00000000000E+00  0.10362546484E+04  0.12053587354E+04  0.61568334772E+03 0.  0.
        5    1    3    3  502    0  0.79982446965E+02 -0.11424374308E+03 -0.19082143513E+02  0.14083693711E+03  0.46999998093E+01 0.  1.
       -5    1    3    3    0  502 -0.79982446965E+02  0.11424374308E+03  0.10553367919E+04  0.10645217983E+04  0.46999998093E+01 0. -1.
</event>
<event>
 5   0  0.8575590E-02  0.6072740E+03  0.7818609E-02  0.9890429E-01
       -2   -1    0    0    0  501  0.00000000000E+00  0.00000000000E+00  0.35997327455E+03  0.35997327456E+03  0.25500000920E-02 0.  1.
        2   -1    0    0  501    0  0.00000000000E+00  0.00000000000E+00 -0.25611746158E+03  0.25611746160E+03  0.25500000920E-02 0. -1.
    10030    2    1    2    0    0  0.00000000000E+00  0.00000000000E+00  0.10385581296E+03  0.61609073615E+03  0.60727404464E+03 0.  0.
        4    1    3    3  502    0  0.96063141635E+02 -0.17494383083E+03  0.28407393583E+03  0.34717875086E+03  0.12699999809E+01 0.  1.
       -4    1    3    3    0  502 -0.96063141635E+02  0.17494383083E+03 -0.18021812287E+03  0.26891198530E+03  0.12699999809E+01 0. -1.
</event>
<event>
 5   0  0.5166903E-02  0.5904474E+03  0.7818609E-02  0.9925425E-01
        1   -1    0    0  501    0  0.00000000000E+00  0.00000000000E+00  0.62073612674E+03  0.62073612676E+03  0.50400001928E-02 0. -1.
       -1   -1    0    0    0  501  0.00000000000E+00  0.00000000000E+00 -0.14040914026E+03  0.14040914035E+03  0.50400001928E-02 0.  1.
    10030    2    1    2    0    0  0.00000000000E+00  0.00000000000E+00  0.48032698648E+03  0.76114526711E+03  0.59044737590E+03 0.  0.
        2    1    3    3  502    0  0.18201403882E+03 -0.22086217503E+03  0.33354817054E+03  0.43950380290E+03  0.25500000920E-02 0. -1.
       -2    1    3    3    0  502 -0.18201403882E+03  0.22086217503E+03  0.14677881594E+03  0.32164146422E+03  0.25500000920E-02 0.  1.
</event>
<event>
 5   0  0.8817544E-02  0.5948538E+03  0.7818609E-02  0.9916141E-01
        2   -1    0    0  501    0  0.00000000000E+00  0.00000000000E+00  0.58523393680E+02  0.58523393736E+02  0.25500000920E-02 0. -1.
       -2   -1    0    0    0  501  0.00000000000E+00  0.00000000000E+00 -0.15115792639E+04  0.15115792639E+04  0.25500000920E-02 0.  1.
    10030    2    1    2    0    0  0.00000000000E+00  0.00000000000E+00 -0.14530558702E+04  0.15701026577E+04  0.59485375812E+03 0.  0.
        5    1    3    3  502    0 -0.12223267960E+03 -0.16247376600E+03 -0.12993740880E+04  0.13151933938E+04  0.46999998093E+01 0.  1.
       -5    1    3    3    0  502  0.12223267960E+03  0.16247376600E+03 -0.15368178227E+03  0.25490926386E+03  0.46999998093E+01 0. -1.
</event>
<event>
 5   0  0.8817544E-02  0.5982111E+03  0.7818609E-02  0.9909125E-01
       -2   -1    0    0    0  501  0.00000000000E+00  0.00000000000E+00  0.49732674536E+03  0.49732674537E+03  0.25500000920E-02 0. -1.
        2   -1    0    0  501    0  0.00000000000E+00  0.00000000000E+00 -0.17989001441E+03  0.17989001443E+03  0.25500000920E-02 0.  1.
    10030    2    1    2    0    0  0.00000000000E+00  0.00000000000E+00  0.31743673095E+03  0.67721675980E+03  0.59821105105E+03 0.  0.
        5    1    3    3  502    0 -0.84515967690E+02 -0.27949487906E+03  0.85511950265E+02  0.30429380515E+03  0.46999998093E+01 0. -1.
       -5    1    3    3    0  502  0.84515967690E+02  0.27949487906E+03  0.23192478068E+03  0.37292295465E+03  0.46999998093E+01 0.  1.
</event>
<event>
 5   0  0.8699746E-02  0.5980280E+03  0.7818609E-02  0.9909506E-01
       -2   -1    0    0    0  501  0.00000000000E+00  0.00000000000E+00  0.10447841398E+03  0.10447841401E+03  0.25500000920E-02 0.  1.
        2   -1    0    0  501    0  0.00000000000E+00  0.00000000000E+00 -0.85576886435E+03  0.85576886436E+03  0.25500000920E-02 0. -1.
    10030    2    1    2    0    0  0.00000000000E+00  0.00000000000E+00 -0.75129045037E+03  0.96024727836E+03  0.59802800501E+03 0.  0.
        3    1    3    3  502    0 -0.16936928454E+03 -0.24155877556E+03 -0.45386005422E+03  0.54131834960E+03  0.10100000352E+00 0. -1.
       -3    1    3    3    0  502  0.16936928454E+03  0.24155877556E+03 -0.29743039615E+03  0.41892892876E+03  0.10100000352E+00 0.  1.
</event>
<event>
 5   0  0.8817544E-02  0.6107843E+03  0.7818609E-02  0.9883281E-01
        2   -1    0    0  501    0  0.00000000000E+00  0.00000000000E+00  0.19611817761E+04  0.19611817761E+04  0.25500000920E-02 0.  1.
       -2   -1    0    0    0  501  0.00000000000E+00  0.00000000000E+00 -0.47555191362E+02  0.47555191430E+02  0.25500000920E-02 0. -1.
    10030    2    1    2    0    0  0.00000000000E+00  0.00000000000E+00  0.19136265847E+04  0.20087369675E+04  0.61078433093E+03 0.  0.
        5    1    3    3  502    0  0.29737881297E+02 -0.19986527997E+03  0.17097349270E+04  0.17216405207E+04  0.46999998093E+01 0.  1.
       -5    1    3    3    0  502 -0.29737881297E+02  0.19986527997E+03  0.20389165773E+03  0.28709644688E+03  0.46999998093E+01 0. -1.
</event>
<event>
 5   0  0.8420604E-02  0.6013222E+03  0.7818609E-02  0.9902667E-01
        2   -1    0    0  501    0  0.00000000000E+00  0.00000000000E+00  0.43364025681E+03  0.43364025681E+03  0.25500000920E-02 0. -1.
       -2   -1    0    0    0  501  0.00000000000E+00  0.00000000000E+00 -0.20846106217E+03  0.20846106218E+03  0.25500000920E-02 0.  1.
    10030    2    1    2    0    0  0.00000000000E+00  0.00000000000E+00  0.22517919464E+03  0.64210131900E+03  0.60132223821E+03 0.  0.
        2    1    3    3  502    0  0.29295403791E+03 -0.65384146945E+02  0.13108327523E+03  0.32753622708E+03  0.25500000920E-02 0.  1.
       -2    1    3    3    0  502 -0.29295403791E+03  0.65384146945E+02  0.94095919402E+02  0.31456509192E+03  0.25500000920E-02 0. -1.
</event>
<event>
 5   0  0.8817544E-02  0.6019322E+03  0.7818609E-02  0.9901405E-01
       -2   -1    0    0    0  501  0.00000000000E+00  0.00000000000E+00  0.42977008840E+03  0.42977008841E+03  0.25500000920E-02 0.  1.
        2   -1    0    0  501    0  0.00000000000E+00  0.00000000000E+00 -0.21076523855E+03  0.21076523856E+03  0.25500000920E-02 0. -1.
    10030    2    1    2    0    0  0.00000000000E+00  0.00000000000E+00  0.21900484985E+03  0.64053532697E+03  0.60193220618E+03 0.  0.
        5    1    3    3  502    0 -0.14687029411E+03 -0.11711613778E+03  0.35967855223E+03  0.40580515516E+03  0.46999998093E+01 0.  1.
       -5    1    3    3    0  502  0.14687029411E+03  0.11711613778E+03 -0.14067370238E+03  0.23473017181E+03  0.46999998093E+01 0. -1.
</event>
<event>
 5   0  0.8420604E-02  0.5930446E+03  0.7818609E-02  0.9919942E-01
        2   -1    0    0  501    0  0.00000000000E+00  0.00000000000E+00  0.23807082321E+03  0.23807082323E+03  0.25500000920E-02 0. -1.
       -2   -1    0    0    0  501  0.00000000000E+00  0.00000000000E+00 -0.36932484221E+03  0.36932484222E+03  0.25500000920E-02 0.  1.
    10030    2    1    2    0    0  0.00000000000E+00  0.00000000000E+00 -0.13125401900E+03  0.60739566545E+03  0.59304458256E+03 0.  0.
        2    1    3    3  502    0 -0.10578677707E+03  0.27211948175E+03 -0.12550030567E+02  0.29222826322E+03  0.25500000920E-02 0. -1.
       -2    1    3    3    0  502  0.10578677707E+03 -0.27211948175E+03 -0.11870398843E+03  0.31516740223E+03  0.25500000920E-02 0.  1.
</event>
<event>
 5   0  0.8575590E-02  0.6004148E+03  0.7818609E-02  0.9904546E-01
        2   -1    0    0  501    0  0.00000000000E+00  0.00000000000E+00  0.21859589344E+04  0.21859589344E+04  0.25500000920E-02 0.  1.
       -2   -1    0    0    0  501  0.00000000000E+00  0.00000000000E+00 -0.41228803736E+02  0.41228803815E+02  0.25500000920E-02 0. -1.
    10030    2    1    2    0    0  0.00000000000E+00  0.00000000000E+00  0.21447301307E+04  0.22271877382E+04  0.60041476322E+03 0.  0.
        4    1    3    3  502    0  0.18016361236E+03 -0.15842966259E+03  0.17417472713E+04  0.17581934066E+04  0.12699999809E+01 0.  1.
       -4    1    3    3    0  502 -0.18016361236E+03  0.15842966259E+03  0.40298285942E+03  0.46899433162E+03  0.12699999809E+01 0. -1.
</event>
<event>
 5   0  0.8207443E-02  0.5932852E+03  0.7818609E-02  0.9919436E-01
        2   -1    0    0  501    0  0.00000000000E+00  0.00000000000E+00  0.92956993697E+03  0.92956993697E+03  0.25500000920E-02 0. -1.
       -2   -1    0    0    0  501  0.00000000000E+00  0.00000000000E+00 -0.94664026227E+02  0.94664026261E+02  0.25500000920E-02 0.  1.
    10030    2    1    2    0    0  0.00000000000E+00  0.00000000000E+00  0.83490591074E+03  0.10242339632E+04  0.59328520262E+03 0.  0.
        1    1    3    3  502    0 -0.21685462091E+03 -0.12777454010E+03  0.14643609693E+03  0.29119716726E+03  0.50400001928E-02 0.  1.
       -1    1    3    3    0  502  0.21685462091E+03  0.12777454010E+03  0.68846981381E+03  0.73303679598E+03  0.50400001928E-02 0. -1.
</event>
<event>
 5   0  0.4987389E-02  0.7119969E+03  0.7818609E-02  0.9696933E-01
       -1   -1    0    0    0  501  0.00000000000E+00  0.00000000000E+00  0.14616169662E+03  0.14616169671E+03  0.50400001928E-02 0.  1.
        1   -1    0    0  501    0  0.00000000000E+00  0.00000000000E+00 -0.86708701237E+03  0.86708701239E+03  0.50400001928E-02 0. -1.
    10030    2    1    2    0    0  0.00000000000E+00  0.00000000000E+00 -0.72092531575E+03  0.10132487091E+04  0.71199693510E+03 0.  0.
        1    1    3    3  502    0 -0.29648601998E+03  0.11457948697E+03 -0.58861531674E+03  0.66895471446E+03  0.50400001928E-02 0. -1.
       -1    1    3    3    0  502  0.29648601998E+03 -0.11457948697E+03 -0.13230999901E+03  0.34429399463E+03  0.50400001928E-02 0.  1.
</event>
<event>
 5   0  0.4881209E-02  0.6283341E+03  0.7818609E-02  0.9848305E-01
        1   -1    0    0  501    0  0.00000000000E+00  0.00000000000E+00  0.71031717762E+03  0.71031717764E+03  0.50400001928E-02 0.  1.
       -1   -1    0    0    0  501  0.00000000000E+00  0.00000000000E+00 -0.13895332836E+03  0.13895332845E+03  0.50400001928E-02 0. -1.
    10030    2    1    2    0    0  0.00000000000E+00  0.00000000000E+00  0.57136384926E+03  0.84927050609E+03  0.62833410243E+03 0.  0.
        3    1    3    3  502    0 -0.14027662244E+03 -0.15592735890E+03  0.60182886383E+03  0.63732947805E+03  0.10100000352E+00 0.  1.
       -3    1    3    3    0  502  0.14027662244E+03  0.15592735890E+03 -0.30465014568E+02  0.21194102804E+03  0.10100000352E+00 0. -1.
</event>
<event>
 5   0  0.5166903E-02  0.5931420E+03  0.7818609E-02  0.9919737E-01
       -1   -1    0    0    0  501  0.00000000000E+00  0.00000000000E+00  0.20820435698E+03  0.20820435704E+03  0.50400001928E-02 0. -1.
        1   -1    0    0  501    0  0.00000000000E+00  0.00000000000E+00 -0.42244247429E+03  0.42244247432E+03  0.50400001928E-02 0.  1.
    10030    2    1    2    0    0  0.00000000000E+00  0.00000000000E+00 -0.21423811731E+03  0.63064683137E+03  0.59314201925E+03 0.  0.
        2    1    3    3  502    0  0.19145930173E+03  0.14673716365E+03  0.76317995528E+02  0.25300769922E+03  0.25500000920E-02 0. -1.
       -2    1    3    3    0  502 -0.19145930173E+03 -0.14673716365E+03 -0.29055611284E+03  0.37763913215E+03  0.25500000920E-02 0.  1.
</event>
<event>
 5   0  0.5190380E-02  0.6003599E+03  0.7818609E-02  0.9904660E-01
        1   -1    0    0  501    0  0.00000000000E+00  0.00000000000E+00  0.11009237593E+04  0.11009237593E+04  0.50400001928E-02 0.  1.
       -1   -1    0    0    0  501  0.00000000000E+00  0.00000000000E+00 -0.81847642974E+02  0.81847643129E+02  0.50400001928E-02 0. -1.
    10030    2    1    2    0    0  0.00000000000E+00  0.00000000000E+00  0.10190761163E+04  0.11827714025E+04  0.60035994168E+03 0.  0.
        5    1    3    3  502    0  0.14531036675E+03 -0.13823342891E+02 -0.71392227359E+01  0.14621643544E+03  0.46999998093E+01 0. -1.
       -5    1    3    3    0  502 -0.14531036675E+03  0.13823342891E+02  0.10262153391E+04  0.10365549670E+04  0.46999998093E+01 0.  1.
</event>
<event>
 5   0  0.8207443E-02  0.5716397E+03  0.7818609E-02  0.9966057E-01
        2   -1    0    0  501    0  0.00000000000E+00  0.00000000000E+00  0.31401528445E+03  0.31401528446E+03  0.25500000920E-02 0. -1.
       -2   -1    0    0    0  501  0.00000000000E+00  0.00000000000E+00 -0.26015612343E+03  0.26015612344E+03  0.25500000920E-02 0.  1.
    10030    2    1    2    0    0  0.00000000000E+00  0.00000000000E+00  0.53859161027E+02  0.57417140790E+03  0.57163974357E+03 0.  0.
        1    1    3    3  502    0 -0.19203378496E+02 -0.21855327707E+03 -0.15707205132E+03  0.26982574746E+03  0.50400001928E-02 0.  1.
       -1    1    3    3    0  502  0.19203378496E+02  0.21855327707E+03  0.21093121234E+03  0.30434566044E+03  0.50400001928E-02 0. -1.
</event>
<event>
 5   0  0.8575590E-02  0.6017403E+03  0.7818609E-02  0.9901802E-01
        2   -1    0    0  501    0  0.00000000000E+00  0.00000000000E+00  0.10096013830E+04  0.10096013830E+04  0.25500000920E-02 0.  1.
       -2   -1    0    0    0  501  0.00000000000E+00  0.00000000000E+00 -0.89661970414E+02  0.89661970450E+02  0.25500000920E-02 0. -1.
    10030    2    1    2    0    0  0.00000000000E+00  0.00000000000E+00  0.91993941261E+03  0.10992633535E+04  0.60174030730E+03 0.  0.
        4    1    3    3  502    0  0.28115494586E+02 -0.63255127052E+02 -0.74912196433E+02  0.10200559891E+03  0.12699999809E+01 0. -1.
       -4    1    3    3    0  502 -0.28115494586E+02  0.63255127052E+02  0.99485160905E+03  0.99725775457E+03  0.12699999809E+01 0.  1.
</event>
<event>
 5   0  0.5125031E-02  0.5786517E+03  0.7818609E-02  0.9950714E-01
       -1   -1    0    0    0  501  0.00000000000E+00  0.00000000000E+00  0.88508917199E+02  0.88508917342E+02  0.50400001928E-02 0.  1.
        1   -1    0    0  501    0  0.00000000000E+00  0.00000000000E+00 -0.94577423414E+03  0.94577423416E+03  0.50400001928E-02 0. -1.
    10030    2    1    2    0    0  0.00000000000E+00  0.00000000000E+00 -0.85726531694E+03  0.10342831515E+04  0.57865172067E+03 0.  0.
        4    1    3    3  502    0 -0.25248120911E+03 -0.13588490192E+03 -0.49777469038E+03  0.57444993063E+03  0.12699999809E+01 0. -1.
       -4    1    3    3    0  502  0.25248120911E+03  0.13588490192E+03 -0.35949062657E+03  0.45983322087E+03  0.12699999809E+01 0.  1.
</event>
<event>
 5   0  0.5166903E-02  0.6126704E+03  0.7818609E-02  0.9879462E-01
        1   -1    0    0  501    0  0.00000000000E+00  0.00000000000E+00  0.51714107716E+03  0.51714107719E+03  0.50400001928E-02 0.  1.
       -1   -1    0    0    0  501  0.00000000000E+00  0.00000000000E+00 -0.18146158624E+03  0.18146158631E+03  0.50400001928E-02 0. -1.
    10030    2    1    2    0    0  0.00000000000E+00  0.00000000000E+00  0.33567949093E+03  0.69860266350E+03  0.61267035249E+03 0.  0.
        2    1    3    3  502    0 -0.25778009296E+02  0.16955976244E+03  0.45726385274E+03  0.48836999276E+03  0.25500000920E-02 0.  1.
       -2    1    3    3    0  502  0.25778009296E+02 -0.16955976244E+03 -0.12158436181E+03  0.21023267074E+03  0.25500000920E-02 0. -1.
</event>
<event>
 5   0  0.5166903E-02  0.5822642E+03  0.7818609E-02  0.9942901E-01
        1   -1    0    0  501    0  0.00000000000E+00  0.00000000000E+00  0.91862856028E+02  0.91862856166E+02  0.50400001928E-02 0. -1.
       -1   -1    0    0    0  501  0.00000000000E+00  0.00000000000E+00 -0.92265683618E+03  0.92265683620E+03  0.50400001928E-02 0.  1.
    10030    2    1    2    0    0  0.00000000000E+00  0.00000000000E+00 -0.83079398016E+03  0.10145196924E+04  0.58226417435E+03 0.  0.
        2    1    3    3  502    0  0.12380588428E+02 -0.10836253328E+03  0.54920875354E+02  0.12211478266E+03  0.25500000920E-02 0.  1.
       -2    1    3    3    0  502 -0.12380588428E+02  0.10836253328E+03 -0.88571485551E+03  0.89240490971E+03  0.25500000920E-02 0. -1.
</event>
<event>
 5   0  0.8420604E-02  0.5972289E+03  0.7818609E-02  0.9911172E-01
       -2   -1    0    0    0  501  0.00000000000E+00  0.00000000000E+00  0.91626371780E+02  0.91626371816E+02  0.25500000920E-02 0.  1.
        2   -1    0    0  501    0  0.00000000000E+00  0.00000000000E+00 -0.97319780518E+03  0.97319780519E+03  0.25500000920E-02 0. -1.
    10030    2    1    2    0    0  0.00000000000E+00  0.00000000000E+00 -0.88157143340E+03  0.10648241770E+04  0.59722888053E+03 0.  0.
        2    1    3    3  502    0  0.93068187498E+01 -0.22394573075E+02  0.89867677664E+02  0.93082400451E+02  0.25500000920E-02 0.  1.
       -2    1    3    3    0  502 -0.93068187498E+01  0.22394573075E+02 -0.97143911107E+03  0.97174177655E+03  0.25500000920E-02 0. -1.
</event>
<event>
 5   0  0.5125031E-02  0.6483794E+03  0.7818609E-02  0.9809825E-01
        1   -1    0    0  501    0  0.00000000000E+00  0.00000000000E+00  0.60355556569E+03  0.60355556571E+03  0.50400001928E-02 0. -1.
       -1   -1    0    0    0  501  0.00000000000E+00  0.00000000000E+00 -0.17413303064E+03  0.17413303071E+03  0.50400001928E-02 0.  1.
    10030    2    1    2    0    0  0.00000000000E+00  0.00000000000E+00  0.42942253505E+03  0.77768859642E+03  0.64837939464E+03 0.  0.
        4    1    3    3  502    0 -0.17072087264E+03 -0.15876619640E+02 -0.11529599742E+03  0.20662154613E+03  0.12699999809E+01 0.  1.
       -4    1    3    3    0  502  0.17072087264E+03  0.15876619640E+02  0.54471853247E+03  0.57106705028E+03  0.12699999809E+01 0. -1.
</event>
<event>
 5   0  0.5166903E-02  0.5963078E+03  0.7818609E-02  0.9913096E-01
       -1   -1    0    0    0  501  0.00000000000E+00  0.00000000000E+00  0.13746115502E+03  0.13746115511E+03  0.50400001928E-02 0. -1.
        1   -1    0    0  501    0  0.00000000000E+00  0.00000000000E+00 -0.64669726004E+03  0.64669726006E+03  0.50400001928E-02 0.  1.
    10030    2    1    2    0    0  0.00000000000E+00  0.00000000000E+00 -0.50923610502E+03  0.78415841517E+03  0.59630781432E+03 0.  0.
        2    1    3    3  502    0  0.28231085218E+03  0.95874361553E+02 -0.25184653909E+03  0.39027937394E+03  0.25500000920E-02 0.  1.
       -2    1    3    3    0  502 -0.28231085218E+03 -0.95874361553E+02 -0.25738956594E+03  0.39387904123E+03  0.25500000920E-02 0. -1.
</event>
<event>
 5   0  0.4881209E-02  0.6014189E+03  0.7818609E-02  0.9902467E-01
        1   -1    0    0  501    0  0.00000000000E+00  0.00000000000E+00  0.42751072994E+03  0.42751072997E+03  0.50400001928E-02 0.  1.
       -1   -1    0    0    0  501  0.00000000000E+00  0.00000000000E+00 -0.21151787821E+03  0.21151787827E+03  0.50400001928E-02 0. -1.
    10030    2    1    2    0    0  0.00000000000E+00  0.00000000000E+00  0.21599285173E+03  0.63902860824E+03  0.60141886414E+03 0.  0.
        3    1    3    3  502    0  0.28689424354E+03 -0.78000859075E+02  0.15591323727E+03  0.33571027501E+03  0.10100000352E+00 0. -1.
       -3    1    3    3    0  502 -0.28689424354E+03  0.78000859075E+02  0.60079614463E+02  0.30331833322E+03  0.10100000352E+00 0.  1.
</event>
<event>
 5   0  0.5125031E-02  0.5503820E+03  0.7818609E-02  0.1001406E+00
       -1   -1    0    0    0  501  0.00000000000E+00  0.00000000000E+00  0.55993078966E+02  0.55993079193E+02  0.50400001928E-02 0.  1.
        1   -1    0    0  501    0  0.00000000000E+00  0.00000000000E+00 -0.13524899317E+04  0.13524899317E+04  0.50400001928E-02 0. -1.
    10030    2    1    2    0    0  0.00000000000E+00  0.00000000000E+00 -0.12964968527E+04  0.14084830109E+04  0.55038196087E+03 0.  0.
        4    1    3    3  502    0 -0.28749367681E+02 -0.11582040093E+03 -0.13676154036E+02  0.12012302653E+03  0.12699999809E+01 0.  1.
       -4    1    3    3    0  502  0.28749367681E+02  0.11582040093E+03 -0.12828206987E+04  0.12883599843E+04  0.12699999809E+01 0. -1.
</event>
<event>
 5   0  0.8575590E-02  0.5931679E+03  0.7818609E-02  0.9919683E-01
       -2   -1    0    0    0  501  0.00000000000E+00  0.00000000000E+00  0.65618292284E+03  0.65618292285E+03  0.25500000920E-02 0.  1.
        2   -1    0    0  501    0  0.00000000000E+00  0.00000000000E+00 -0.13405111161E+03  0.13405111163E+03  0.25500000920E-02 0. -1.
    10030    2    1    2    0    0  0.00000000000E+00  0.00000000000E+00  0.52213181124E+03  0.79023403448E+03  0.59316793654E+03 0.  0.
        4    1    3    3  502    0 -0.20441625233E+03  0.19828986954E+03  0.15075979924E+03  0.32223439690E+03  0.12699999809E+01 0. -1.
       -4    1    3    3    0  502  0.20441625233E+03 -0.19828986954E+03  0.37137201200E+03  0.46799963758E+03  0.12699999809E+01 0.  1.
</event>
<event>
 5   0  0.8420604E-02  0.5853476E+03  0.7818609E-02  0.9936280E-01
        2   -1    0    0  501    0  0.00000000000E+00  0.00000000000E+00  0.30785045148E+03  0.30785045149E+03  0.25500000920E-02 0.  1.
       -2   -1    0    0    0  501  0.00000000000E+00  0.00000000000E+00 -0.27824532528E+03  0.27824532529E+03  0.25500000920E-02 0. -1.
    10030    2    1    2    0    0  0.00000000000E+00  0.00000000000E+00  0.29605126198E+02  0.58609577678E+03  0.58534758568E+03 0.  0.
        2    1    3    3  502    0  0.28166958847E+03 -0.44824048671E+02  0.80544667371E+02  0.29636868231E+03  0.25500000920E-02 0.  1.
       -2    1    3    3    0  502 -0.28166958847E+03  0.44824048671E+02 -0.50939541173E+02  0.28972709447E+03  0.25500000920E-02 0. -1.
</event>
<event>
 5   0  0.8817544E-02  0.6003265E+03  0.7818609E-02  0.9904729E-01
        2   -1    0    0  501    0  0.00000000000E+00  0.00000000000E+00  0.10415667728E+03  0.10415667731E+03  0.25500000920E-02 0. -1.
       -2   -1    0    0    0  501  0.00000000000E+00  0.00000000000E+00 -0.86502343168E+03  0.86502343169E+03  0.25500000920E-02 0.  1.
    10030    2    1    2    0    0  0.00000000000E+00  0.00000000000E+00 -0.76086675440E+03  0.96918010900E+03  0.60032646595E+03 0.  0.
        5    1    3    3  502    0 -0.20839848869E+03 -0.86043438336E+02 -0.60621059570E+02  0.23351746451E+03  0.46999998093E+01 0. -1.
       -5    1    3    3    0  502  0.20839848869E+03  0.86043438336E+02 -0.70024569483E+03  0.73566264449E+03  0.46999998093E+01 0.  1.
</event>
<event>
 5   0  0.8699746E-02  0.6025225E+03  0.7818609E-02  0.9900186E-01
       -2   -1    0    0    0  501  0.00000000000E+00  0.00000000000E+00  0.26422645238E+03  0.26422645239E+03  0.25500000920E-02 0. -1.
        2   -1    0    0  501    0  0.00000000000E+00  0.00000000000E+00 -0.34348694822E+03  0.34348694823E+03  0.25500000920E-02 0.  1.
    10030    2    1    2    0    0  0.00000000000E+00  0.00000000000E+00 -0.79260495836E+02  0.60771340062E+03  0.60252249012E+03 0.  0.
        3    1    3    3  502    0 -0.29255772762E+03  0.62231987271E+02 -0.75933160297E+02  0.30859147633E+03  0.10100000352E+00 0. -1.
       -3    1    3    3    0  502  0.29255772762E+03 -0.62231987271E+02 -0.33273355386E+01  0.29912192429E+03  0.10100000352E+00 0.  1.
</event>
<event>
 5   0  0.8207443E-02  0.6059025E+03  0.7818609E-02  0.9893235E-01
       -2   -1    0    0    0  501  0.00000000000E+00  0.00000000000E+00  0.12124499924E+03  0.12124499927E+03  0.25500000920E-02 0.  1.
        2   -1    0    0  501    0  0.00000000000E+00  0.00000000000E+00 -0.75697528849E+03  0.75697528849E+03  0.25500000920E-02 0. -1.
    10030    2    1    2    0    0  0.00000000000E+00  0.00000000000E+00 -0.63573028925E+03  0.87822028776E+03  0.60590252777E+03 0.  0.
        1    1    3    3  502    0  0.91941534780E+02 -0.25894771987E+03 -0.50276015160E+03  0.57295282310E+03  0.50400001928E-02 0. -1.
       -1    1    3    3    0  502 -0.91941534780E+02  0.25894771987E+03 -0.13297013765E+03  0.30526746465E+03  0.50400001928E-02 0.  1.
</event>
<event>
 5   0  0.4881209E-02  0.5958409E+03  0.7818609E-02  0.9914073E-01
        1   -1    0    0  501    0  0.00000000000E+00  0.00000000000E+00  0.58772640024E+03  0.58772640026E+03  0.50400001928E-02 0.  1.
       -1   -1    0    0    0  501  0.00000000000E+00  0.00000000000E+00 -0.15101684281E+03  0.15101684290E+03  0.50400001928E-02 0. -1.
    10030    2    1    2    0    0  0.00000000000E+00  0.00000000000E+00  0.43670955743E+03  0.73874324316E+03  0.59584086950E+03 0.  0.
        3    1    3    3  502    0 -0.18634376927E+03  0.25905791239E+02  0.50475747655E+03  0.53867915377E+03  0.10100000352E+00 0.  1.
       -3    1    3    3    0  502  0.18634376927E+03 -0.25905791239E+02 -0.68047919124E+02  0.20006408939E+03  0.10100000352E+00 0. -1.
</event>
<event>
 5   0  0.4987389E-02  0.5823145E+03  0.7818609E-02  0.9942793E-01
        1   -1    0    0  501    0  0.00000000000E+00  0.00000000000E+00  0.56488490251E+03  0.56488490254E+03  0.50400001928E-02 0.  1.
       -1   -1    0    0    0  501  0.00000000000E+00  0.00000000000E+00 -0.15007045345E+03  0.15007045354E+03  0.50400001928E-02 0. -1.
    10030    2    1    2    0    0  0.00000000000E+00  0.00000000000E+00  0.41481444906E+03  0.71495535608E+03  0.58231446318E+03 0.  0.
        1    1    3    3  502    0 -0.35605366002E+02 -0.13751736193E+02  0.56179988716E+03  0.56309498806E+03  0.50400001928E-02 0.  1.
       -1    1    3    3    0  502  0.35605366002E+02  0.13751736193E+02 -0.14698543810E+03  0.15186036802E+03  0.50400001928E-02 0. -1.
</event>
<event>
 5   0  0.8817544E-02  0.5900298E+03  0.7818609E-02  0.9926310E-01
       -2   -1    0    0    0  501  0.00000000000E+00  0.00000000000E+00  0.53513389474E+03  0.53513389475E+03  0.25500000920E-02 0. -1.
        2   -1    0    0  501    0  0.00000000000E+00  0.00000000000E+00 -0.16263927525E+03  0.16263927527E+03  0.25500000920E-02 0.  1.
    10030    2    1    2    0    0  0.00000000000E+00  0.00000000000E+00  0.37249461949E+03  0.69777317002E+03  0.59002979183E+03 0.  0.
        5    1    3    3  502    0  0.19989938095E+03 -0.44612364492E+02  0.43728792050E+03  0.48290044624E+03  0.46999998093E+01 0. -1.
       -5    1    3    3    0  502 -0.19989938095E+03  0.44612364492E+02 -0.64793301004E+02  0.21487272378E+03  0.46999998093E+01 0.  1.
</event>
<event>
 5   0  0.5166903E-02  0.5912231E+03  0.7818609E-02  0.9923784E-01
        1   -1    0    0  501    0  0.00000000000E+00  0.00000000000E+00  0.33411880615E+03  0.33411880619E+03  0.50400001928E-02 0. -1.
       -1   -1    0    0    0  501  0.00000000000E+00  0.00000000000E+00 -0.26154229968E+03  0.26154229973E+03  0.50400001928E-02 0.  1.
    10030    2    1    2    0    0  0.00000000000E+00  0.00000000000E+00  0.72576506467E+02  0.59566110592E+03  0.59122314215E+03 0.  0.
        2    1    3    3  502    0 -0.18813682991E+03  0.59155423324E+02 -0.18557227652E+03  0.27079863496E+03  0.25500000920E-02 0.  1.
       -2    1    3    3    0  502  0.18813682991E+03 -0.59155423324E+02  0.25814878299E+03  0.32486247096E+03  0.25500000920E-02 0. -1.
</event>
<event>
 5   0  0.8207443E-02  0.5843121E+03  0.7818609E-02  0.9938499E-01
       -2   -1    0    0    0  501  0.00000000000E+00  0.00000000000E+00  0.15707750182E+03  0.15707750184E+03  0.25500000920E-02 0. -1.
        2   -1    0    0  501    0  0.00000000000E+00  0.00000000000E+00 -0.54339522939E+03  0.54339522939E+03  0.25500000920E-02 0.  1.
    10030    2    1    2    0    0  0.00000000000E+00  0.00000000000E+00 -0.38631772757E+03  0.70047273123E+03  0.58431212598E+03 0.  0.
        1    1    3    3  502    0 -0.21603688878E+03  0.12944359669E+03 -0.15641141570E+02  0.25233356370E+03  0.50400001928E-02 0.  1.
       -1    1    3    3    0  502  0.21603688878E+03 -0.12944359669E+03 -0.37067658600E+03  0.44813916753E+03  0.50400001928E-02 0. -1.
</event>
<event>
 5   0  0.3437375E-02  0.6909795E+03  0.7818609E-02  0.9732784E-01
       -3   -1    0    0    0  501  0.00000000000E+00  0.00000000000E+00  0.15073698109E+04  0.15073698143E+04  0.10100000352E+00 0. -1.
        3   -1    0    0  501    0  0.00000000000E+00  0.00000000000E+00 -0.79186347486E+02  0.79186411898E+02  0.10100000352E+00 0.  1.
    10030    2    1    2    0    0  0.00000000000E+00  0.00000000000E+00  0.14281834634E+04  0.15865562262E+04  0.69097948860E+03 0.  0.
        1    1    3    3  502    0 -0.31707671939E+01  0.14794374596E+03  0.14309220138E+04  0.14385531674E+04  0.50400001928E-02 0. -1.
       -1    1    3    3    0  502  0.31707671939E+01 -0.14794374596E+03 -0.27385503904E+01  0.14800305881E+03  0.50400001928E-02 0.  1.
</event>
<event>
 5   0  0.8699746E-02  0.5972966E+03  0.7818609E-02  0.9911031E-01
       -2   -1    0    0    0  501  0.00000000000E+00  0.00000000000E+00  0.22686762172E+03  0.22686762173E+03  0.25500000920E-02 0. -1.
        2   -1    0    0  501    0  0.00000000000E+00  0.00000000000E+00 -0.39314025916E+03  0.39314025917E+03  0.25500000920E-02 0.  1.
    10030    2    1    2    0    0  0.00000000000E+00  0.00000000000E+00 -0.16627263744E+03  0.62000788090E+03  0.59729656153E+03 0.  0.
        3    1    3    3  502    0 -0.25045270008E+03 -0.15349714265E+03 -0.13906313060E+03  0.32500229580E+03  0.10100000352E+00 0.  1.
       -3    1    3    3    0  502  0.25045270008E+03  0.15349714265E+03 -0.27209506839E+02  0.29500558510E+03  0.10100000352E+00 0. -1.
</event>
<event>
 5   0  0.3437375E-02  0.5998177E+03  0.7818609E-02  0.9905784E-01
       -3   -1    0    0    0  501  0.00000000000E+00  0.00000000000E+00  0.39005112531E+03  0.39005113838E+03  0.10100000352E+00 0. -1.
        3   -1    0    0  501    0  0.00000000000E+00  0.00000000000E+00 -0.23059875566E+03  0.23059877778E+03  0.10100000352E+00 0.  1.
    10030    2    1    2    0    0  0.00000000000E+00  0.00000000000E+00  0.15945236965E+03  0.62064991616E+03  0.59981768917E+03 0.  0.
        2    1    3    3  502    0  0.58923953349E+02 -0.11435382411E+03  0.36005327217E+03  0.38234433195E+03  0.25500000920E-02 0. -1.
       -2    1    3    3    0  502 -0.58923953349E+02  0.11435382411E+03 -0.20060090252E+03  0.23830558421E+03  0.25500000920E-02 0.  1.
</event>
<event>
 5   0  0.4987389E-02  0.5973635E+03  0.7818609E-02  0.9910891E-01
       -1   -1    0    0    0  501  0.00000000000E+00  0.00000000000E+00  0.17558981488E+03  0.17558981495E+03  0.50400001928E-02 0.  1.
        1   -1    0    0  501    0  0.00000000000E+00  0.00000000000E+00 -0.50806353101E+03  0.50806353104E+03  0.50400001928E-02 0. -1.
    10030    2    1    2    0    0  0.00000000000E+00  0.00000000000E+00 -0.33247371613E+03  0.68365334599E+03  0.59736347860E+03 0.  0.
        1    1    3    3  502    0 -0.60842664316E+02  0.98019606079E+01 -0.50070822252E+03  0.50448650364E+03  0.50400001928E-02 0. -1.
       -1    1    3    3    0  502  0.60842664316E+02 -0.98019606079E+01  0.16823450638E+03  0.17916684235E+03  0.50400001928E-02 0.  1.
</event>
<event>
 5   0  0.8699746E-02  0.6039662E+03  0.7818609E-02  0.9897212E-01
       -2   -1    0    0    0  501  0.00000000000E+00  0.00000000000E+00  0.15626347747E+03  0.15626347749E+03  0.25500000920E-02 0. -1.
        2   -1    0    0  501    0  0.00000000000E+00  0.00000000000E+00 -0.58358984368E+03  0.58358984368E+03  0.25500000920E-02 0.  1.
    10030    2    1    2    0    0  0.00000000000E+00  0.00000000000E+00 -0.42732636620E+03  0.73985332118E+03  0.60396615270E+03 0.  0.
        3    1    3    3  502    0  0.12977456022E+02 -0.65556471064E+02 -0.57441784241E+03  0.57829225582E+03  0.10100000352E+00 0.  1.
       -3    1    3    3    0  502 -0.12977456022E+02  0.65556471064E+02  0.14709147621E+03  0.16156106535E+03  0.10100000352E+00 0. -1.
</event>
<event>
 5   0  0.8207443E-02  0.5822539E+03  0.7818609E-02  0.9942923E-01
        2   -1    0    0  501    0  0.00000000000E+00  0.00000000000E+00  0.14175826125E+04  0.14175826125E+04  0.25500000920E-02 0. -1.
       -2   -1    0    0    0  501  0.00000000000E+00  0.00000000000E+00 -0.59788340591E+02  0.59788340646E+02  0.25500000920E-02 0.  1.
    10030    2    1    2    0    0  0.00000000000E+00  0.00000000000E+00  0.13577942719E+04  0.14773709532E+04  0.58225393806E+03 0.  0.
        1    1    3    3  502    0 -0.20998527041E+03  0.69438851162E+02  0.19854785077E+03  0.29721510209E+03  0.50400001928E-02 0.  1.
       -1    1    3    3    0  502  0.20998527041E+03 -0.69438851162E+02  0.11592464212E+04  0.11801558511E+04  0.50400001928E-02 0. -1.
</event>
<event>
 5   0  0.5166903E-02  0.5962369E+03  0.7818609E-02  0.9913244E-01
       -1   -1    0    0    0  501  0.00000000000E+00  0.00000000000E+00  0.52002640670E+02  0.52002640914E+02  0.50400001928E-02 0.  1.
        1   -1    0    0  501    0  0.00000000000E+00  0.00000000000E+00 -0.17090404408E+04  0.17090404408E+04  0.50400001928E-02 0. -1.
    10030    2    1    2    0    0  0.00000000000E+00  0.00000000000E+00 -0.16570378001E+04  0.17610430817E+04  0.59623691988E+03 0.  0.
        2    1    3    3  502    0 -0.51833556855E+02 -0.22576750242E+03 -0.13827959334E+04  0.14020635778E+04  0.25500000920E-02 0. -1.
       -2    1    3    3    0  502  0.51833556855E+02  0.22576750242E+03 -0.27424186674E+03  0.35897950393E+03  0.25500000920E-02 0.  1.
</event>
<event>
 5   0  0.8575590E-02  0.5949551E+03  0.7818609E-02  0.9915928E-01
        2   -1    0    0  501    0  0.00000000000E+00  0.00000000000E+00  0.25589939361E+03  0.25589939362E+03  0.25500000920E-02 0.  1.
       -2   -1    0    0    0  501  0.00000000000E+00  0.00000000000E+00 -0.34581131252E+03  0.34581131253E+03  0.25500000920E-02 0. -1.
    10030    2    1    2    0    0  0.00000000000E+00  0.00000000000E+00 -0.89911918904E+02  0.60171070615E+03  0.59495514178E+03 0.  0.
        4    1    3    3  502    0 -0.34917592783E+02  0.16085947541E+03  0.20564028429E+03  0.26340946934E+03  0.12699999809E+01 0.  1.
       -4    1    3    3    0  502  0.34917592783E+02 -0.16085947541E+03 -0.29555220320E+03  0.33830123681E+03  0.12699999809E+01 0. -1.
</event>
<event>
 5   0  0.8420604E-02  0.6279709E+03  0.7818609E-02  0.9849016E-01
        2   -1    0    0  501    0  0.00000000000E+00  0.00000000000E+00  0.64769442574E+03  0.64769442575E+03  0.25500000920E-02 0. -1.
       -2   -1    0    0    0  501  0.00000000000E+00  0.00000000000E+00 -0.15221201368E+03  0.15221201370E+03  0.25500000920E-02 0.  1.
    10030    2    1    2    0    0  0.00000000000E+00  0.00000000000E+00  0.49548241207E+03  0.79990643945E+03  0.62797093181E+03 0.  0.
        2    1    3    3  502    0  0.10029670563E+03  0.25367589027E+03  0.49683496361E+02  0.27727123234E+03  0.25500000920E-02 0.  1.
       -2    1    3    3    0  502 -0.10029670563E+03 -0.25367589027E+03  0.44579891571E+03  0.52263520711E+03  0.25500000920E-02 0. -1.
</event>
<event>
 5   0  0.4881209E-02  0.6156733E+03  0.7818609E-02  0.9873412E-01
       -1   -1    0    0    0  501  0.00000000000E+00  0.00000000000E+00  0.15362097616E+03  0.15362097624E+03  0.50400001928E-02 0.  1.
        1   -1    0    0  501    0  0.00000000000E+00  0.00000000000E+00 -0.61686498839E+03  0.61686498841E+03  0.50400001928E-02 0. -1.
    10030    2    1    2    0    0  0.00000000000E+00  0.00000000000E+00 -0.46324401223E+03  0.77048596466E+03  0.61567329556E+03 0.  0.
        3    1    3    3  502    0  0.10995478064E+03 -0.24909754371E+03 -0.51901245414E+02  0.27718836474E+03  0.10100000352E+00 0.  1.
       -3    1    3    3    0  502 -0.10995478064E+03  0.24909754371E+03 -0.41134276682E+03  0.49329759992E+03  0.10100000352E+00 0. -1.
</event>
<event>
 5   0  0.5125031E-02  0.6223065E+03  0.7818609E-02  0.9860178E-01
        1   -1    0    0  501    0  0.00000000000E+00  0.00000000000E+00  0.31410389746E+03  0.31410389750E+03  0.50400001928E-02 0. -1.
       -1   -1    0    0    0  501  0.00000000000E+00  0.00000000000E+00 -0.30823033745E+03  0.30823033749E+03  0.50400001928E-02 0.  1.
    10030    2    1    2    0    0  0.00000000000E+00  0.00000000000E+00  0.58735600133E+01  0.62233423499E+03  0.62230651719E+03 0.  0.
        4    1    3    3  502    0  0.18046960479E+03  0.11163015830E+03  0.23050826333E+03  0.31331492600E+03  0.12699999809E+01 0. -1.
       -4    1    3    3    0  502 -0.18046960479E+03 -0.11163015830E+03 -0.22463470331E+03  0.30901930899E+03  0.12699999809E+01 0.  1.
</event>
<event>
 5   0  0.5190380E-02  0.6034557E+03  0.7818609E-02  0.9898263E-01
        1   -1    0    0  501    0  0.00000000000E+00  0.00000000000E+00  0.87283172157E+03  0.87283172159E+03  0.50400001928E-02 0.  1.
       -1   -1    0    0    0  501  0.00000000000E+00  0.00000000000E+00 -0.10430381762E+03  0.10430381774E+03  0.50400001928E-02 0. -1.
    10030    2    1    2    0    0  0.00000000000E+00  0.00000000000E+00  0.76852790395E+03  0.97713553933E+03  0.60345565128E+03 0.  0.
        5    1    3    3  502    0  0.28182720288E+03  0.35833335186E+02  0.54865394987E+03  0.61786232035E+03  0.46999998093E+01 0. -1.
       -5    1    3    3    0  502 -0.28182720288E+03 -0.35833335186E+02  0.21987395408E+03  0.35927321898E+03  0.46999998093E+01 0.  1.
</event>
<event>
 5   0  0.5125031E-02  0.6546829E+03  0.7818609E-02  0.9798032E-01
        1   -1    0    0  501    0  0.00000000000E+00  0.00000000000E+00  0.47583893110E+03  0.47583893113E+03  0.50400001928E-02 0.  1.
       -1   -1    0    0    0  501  0.00000000000E+00  0.00000000000E+00 -0.22518632484E+03  0.22518632490E+03  0.50400001928E-02 0. -1.
    10030    2    1    2    0    0  0.00000000000E+00  0.00000000000E+00  0.25065260626E+03  0.70102525603E+03  0.65468288550E+03 0.  0.
        4    1    3    3  502    0 -0.20782866904E+03  0.21821269581E+03  0.26220806683E+03  0.39945490296E+03  0.12699999809E+01 0.  1.
       -4    1    3    3    0  502  0.20782866904E+03 -0.21821269581E+03 -0.11555460570E+02  0.30157035308E+03  0.12699999809E+01 0. -1.
</event>
<event>
 5   0  0.4987389E-02  0.5992170E+03  0.7818609E-02  0.9907032E-01
        1   -1    0    0  501    0  0.00000000000E+00  0.00000000000E+00  0.10470897955E+04  0.10470897955E+04  0.50400001928E-02 0.  1.
       -1   -1    0    0    0  501  0.00000000000E+00  0.00000000000E+00 -0.85728317963E+02  0.85728318111E+02  0.50400001928E-02 0. -1.
    10030    2    1    2    0    0  0.00000000000E+00  0.00000000000E+00  0.96136147754E+03  0.11328181136E+04  0.59921697912E+03 0.  0.
        1    1    3    3  502    0 -0.28033295928E+02  0.28936771926E+03  0.34375724273E+03  0.45020948967E+03  0.50400001928E-02 0. -1.
       -1    1    3    3    0  502  0.28033295928E+02 -0.28936771926E+03  0.61760423481E+03  0.68260862396E+03  0.50400001928E-02 0.  1.
</event>
<event>
 5   0  0.8817544E-02  0.5937273E+03  0.7818609E-02  0.9918506E-01
       -2   -1    0    0    0  501  0.00000000000E+00  0.00000000000E+00  0.89523886063E+02  0.89523886099E+02  0.25500000920E-02 0. -1.
        2   -1    0    0  501    0  0.00000000000E+00  0.00000000000E+00 -0.98440812563E+03  0.98440812563E+03  0.25500000920E-02 0.  1.
    10030    2    1    2    0    0  0.00000000000E+00  0.00000000000E+00 -0.89488423957E+03  0.10739320117E+04  0.59372734786E+03 0.  0.
        5    1    3    3  502    0 -0.10051567781E+03 -0.22223937828E+03 -0.14148157721E+03  0.28201572551E+03  0.46999998093E+01 0. -1.
       -5    1    3    3    0  502  0.10051567781E+03  0.22223937828E+03 -0.75340266236E+03  0.79191628623E+03  0.46999998093E+01 0.  1.
</event>
<event>
 5   0  0.5125031E-02  0.6077604E+03  0.7818609E-02  0.9889435E-01
       -1   -1    0    0    0  501  0.00000000000E+00  0.00000000000E+00  0.65001555002E+03  0.65001555004E+03  0.50400001928E-02 0. -1.
        1   -1    0    0  501    0  0.00000000000E+00  0.00000000000E+00 -0.14206300503E+03  0.14206300512E+03  0.50400001928E-02 0.  1.
    10030    2    1    2    0    0  0.00000000000E+00  0.00000000000E+00  0.50795254499E+03  0.79207855515E+03  0.60776035538E+03 0.  0.
        4    1    3    3  502    0  0.10745804469E+03 -0.20628192746E+02 -0.11549410006E+03  0.15910139457E+03  0.12699999809E+01 0.  1.
       -4    1    3    3    0  502 -0.10745804469E+03  0.20628192746E+02  0.62344664505E+03  0.63297716059E+03  0.12699999809E+01 0. -1.
</event>
<event>
 5   0  0.3437375E-02  0.5905122E+03  0.7818609E-02  0.9925288E-01
        4   -1    0    0  501    0  0.00000000000E+00  0.00000000000E+00  0.23363213276E+03  0.23363558452E+03  0.12699999809E+01 0.  1.
       -4   -1    0    0    0  501  0.00000000000E+00  0.00000000000E+00 -0.37312703174E+03  0.37312919306E+03  0.12699999809E+01 0. -1.
    10030    2    1    2    0    0  0.00000000000E+00  0.00000000000E+00 -0.13949489898E+03  0.60676477758E+03  0.59051220857E+03 0.  0.
        2    1    3    3  502    0  0.42460403780E+02 -0.92035450992E+02  0.21519846610E+03  0.23787347466E+03  0.25500000920E-02 0.  1.
       -2    1    3    3    0  502 -0.42460403780E+02  0.92035450992E+02 -0.35469336508E+03  0.36889130292E+03  0.25500000920E-02 0. -1.
</event>
<event>
 5   0  0.8699746E-02  0.5916556E+03  0.7818609E-02  0.9922871E-01
       -2   -1    0    0    0  501  0.00000000000E+00  0.00000000000E+00  0.15010607466E+03  0.15010607468E+03  0.25500000920E-02 0. -1.
        2   -1    0    0  501    0  0.00000000000E+00  0.00000000000E+00 -0.58301505430E+03  0.58301505431E+03  0.25500000920E-02 0.  1.
    10030    2    1    2    0    0  0.00000000000E+00  0.00000000000E+00 -0.43290897965E+03  0.73312112899E+03  0.59165564741E+03 0.  0.
        3    1    3    3  502    0  0.11761135350E+03  0.11630213218E+02  0.11958276491E+03  0.16813012876E+03  0.10100000352E+00 0. -1.
       -3    1    3    3    0  502 -0.11761135350E+03 -0.11630213218E+02 -0.55249174456E+03  0.56499100023E+03  0.10100000352E+00 0.  1.
</event>
<event>
 5   0  0.8699746E-02  0.5985367E+03  0.7818609E-02  0.9908447E-01
        2   -1    0    0  501    0  0.00000000000E+00  0.00000000000E+00  0.12833876071E+03  0.12833876074E+03  0.25500000920E-02 0. -1.
       -2   -1    0    0    0  501  0.00000000000E+00  0.00000000000E+00 -0.69785273100E+03  0.69785273100E+03  0.25500000920E-02 0.  1.
    10030    2    1    2    0    0  0.00000000000E+00  0.00000000000E+00 -0.56951397028E+03  0.82619149174E+03  0.59853673127E+03 0.  0.
        3    1    3    3  502    0  0.27376162640E+03 -0.10771457341E+03 -0.36053426066E+03  0.46533087232E+03  0.10100000352E+00 0. -1.
       -3    1    3    3    0  502 -0.27376162640E+03  0.10771457341E+03 -0.20897970962E+03  0.36086061942E+03  0.10100000352E+00 0.  1.
</event>
<event>
 5   0  0.5190380E-02  0.6093844E+03  0.7818609E-02  0.9886125E-01
       -1   -1    0    0    0  501  0.00000000000E+00  0.00000000000E+00  0.14993789359E+03  0.14993789368E+03  0.50400001928E-02 0.  1.
        1   -1    0    0  501    0  0.00000000000E+00  0.00000000000E+00 -0.61917190170E+03  0.61917190172E+03  0.50400001928E-02 0. -1.
    10030    2    1    2    0    0  0.00000000000E+00  0.00000000000E+00 -0.46923400811E+03  0.76910979540E+03  0.60938438035E+03 0.  0.
        5    1    3    3  502    0  0.45813659230E+01  0.34611725818E+02 -0.61659288659E+03  0.61759844420E+03  0.46999998093E+01 0. -1.
       -5    1    3    3    0  502 -0.45813659230E+01 -0.34611725818E+02  0.14735887848E+03  0.15151135121E+03  0.46999998093E+01 0.  1.
</event>
<event>
 5   0  0.8817544E-02  0.5963635E+03  0.7818609E-02  0.9912979E-01
        2   -1    0    0  501    0  0.00000000000E+00  0.00000000000E+00  0.21602319494E+04  0.21602319494E+04  0.25500000920E-02 0. -1.
       -2   -1    0    0    0  501  0.00000000000E+00  0.00000000000E+00 -0.41158712457E+02  0.41158712536E+02  0.25500000920E-02 0.  1.
    10030    2    1    2    0    0  0.00000000000E+00  0.00000000000E+00  0.21190732369E+04  0.22013906619E+04  0.59636353253E+03 0.  0.
        5    1    3    3  502    0 -0.22102827469E+03 -0.19496067851E+03  0.89333898129E+03  0.94071238424E+03  0.46999998093E+01 0. -1.
       -5    1    3    3    0  502  0.22102827469E+03  0.19496067851E+03  0.12257342556E+04  0.12606782777E+04  0.46999998093E+01 0.  1.
</event>
<event>
 5   0  0.8699746E-02  0.5938485E+03  0.7818609E-02  0.9918251E-01
        2   -1    0    0  501    0  0.00000000000E+00  0.00000000000E+00  0.84978413652E+03  0.84978413653E+03  0.25500000920E-02 0.  1.
       -2   -1    0    0    0  501  0.00000000000E+00  0.00000000000E+00 -0.10374871823E+03  0.10374871827E+03  0.25500000920E-02 0. -1.
    10030    2    1    2    0    0  0.00000000000E+00  0.00000000000E+00  0.74603541829E+03  0.95353285479E+03  0.59384851589E+03 0.  0.
        3    1    3    3  502    0  0.22751026147E+03  0.37934583914E+01  0.67931505161E+03  0.71641067757E+03  0.10100000352E+00 0.  1.
       -3    1    3    3    0  502 -0.22751026147E+03 -0.37934583914E+01  0.66720366682E+02  0.23712217722E+03  0.10100000352E+00 0. -1.
</event>
<event>
 5   0  0.4987389E-02  0.6017201E+03  0.7818609E-02  0.9901844E-01
        1   -1    0    0  501    0  0.00000000000E+00  0.00000000000E+00  0.40979833980E+03  0.40979833983E+03  0.50400001928E-02 0. -1.
       -1   -1    0    0    0  501  0.00000000000E+00  0.00000000000E+00 -0.22088124093E+03  0.22088124099E+03  0.50400001928E-02 0.  1.
    10030    2    1    2    0    0  0.00000000000E+00  0.00000000000E+00  0.18891709887E+03  0.63067958082E+03  0.60172008727E+03 0.  0.
        1    1    3    3  502    0  0.34903329692E+02 -0.82223126709E+02  0.39557946176E+03  0.40553914187E+03  0.50400001928E-02 0. -1.
       -1    1    3    3    0  502 -0.34903329692E+02  0.82223126709E+02 -0.20666236290E+03  0.22514043896E+03  0.50400001928E-02 0.  1.
</event>
<event>
 5   0  0.4881209E-02  0.5916976E+03  0.7818609E-02  0.9922782E-01
        1   -1    0    0  501    0  0.00000000000E+00  0.00000000000E+00  0.18645769771E+03  0.18645769777E+03  0.50400001928E-02 0.  1.
       -1   -1    0    0    0  501  0.00000000000E+00  0.00000000000E+00 -0.46941756882E+03  0.46941756884E+03  0.50400001928E-02 0. -1.
    10030    2    1    2    0    0  0.00000000000E+00  0.00000000000E+00 -0.28295987111E+03  0.65587526662E+03  0.59169762270E+03 0.  0.
        3    1    3    3  502    0 -0.26508990964E+03 -0.13114235100E+03 -0.13321964613E+03  0.32437395200E+03  0.10100000352E+00 0.  1.
       -3    1    3    3    0  502  0.26508990964E+03  0.13114235100E+03 -0.14974022498E+03  0.33150131462E+03  0.10100000352E+00 0. -1.
</event>
<event>
 5   0  0.5166903E-02  0.5995568E+03  0.7818609E-02  0.9906326E-01
        1   -1    0    0  501    0  0.00000000000E+00  0.00000000000E+00  0.11351727299E+03  0.11351727310E+03  0.50400001928E-02 0.  1.
       -1   -1    0    0    0  501  0.00000000000E+00  0.00000000000E+00 -0.79165994438E+03  0.79165994439E+03  0.50400001928E-02 0. -1.
    10030    2    1    2    0    0  0.00000000000E+00  0.00000000000E+00 -0.67814267138E+03  0.90517721750E+03  0.59955676322E+03 0.  0.
        2    1    3    3  502    0 -0.47235742168E+01  0.25295929810E+03 -0.58183685146E+03  0.63446421521E+03  0.25500000920E-02 0. -1.
       -2    1    3    3    0  502  0.47235742168E+01 -0.25295929810E+03 -0.96305819920E+02  0.27071300229E+03  0.25500000920E-02 0.  1.
</event>
<event>
 5   0  0.3437375E-02  0.5532273E+03  0.7818609E-02  0.1000750E+00
        3   -1    0    0  501    0  0.00000000000E+00  0.00000000000E+00  0.42570007736E+03  0.42570008934E+03  0.10100000352E+00 0. -1.
       -3   -1    0    0    0  501  0.00000000000E+00  0.00000000000E+00 -0.17973948265E+03  0.17973951103E+03  0.10100000352E+00 0.  1.
    10030    2    1    2    0    0  0.00000000000E+00  0.00000000000E+00  0.24596059471E+03  0.60543960037E+03  0.55322734527E+03 0.  0.
        2    1    3    3  502    0 -0.24223320006E+03 -0.10684100123E+03  0.35271542473E+02  0.26708800884E+03  0.25500000920E-02 0.  1.
       -2    1    3    3    0  502  0.24223320006E+03  0.10684100123E+03  0.21068905223E+03  0.33835159153E+03  0.25500000920E-02 0. -1.
</event>
<event>
 5   0  0.8207443E-02  0.5952990E+03  0.7818609E-02  0.9915207E-01
        2   -1    0    0  501    0  0.00000000000E+00  0.00000000000E+00  0.56219303507E+03  0.56219303508E+03  0.25500000920E-02 0. -1.
       -2   -1    0    0    0  501  0.00000000000E+00  0.00000000000E+00 -0.15758863318E+03  0.15758863320E+03  0.25500000920E-02 0.  1.
    10030    2    1    2    0    0  0.00000000000E+00  0.00000000000E+00  0.40460440189E+03  0.71978166827E+03  0.59529902398E+03 0.  0.
        1    1    3    3  502    0  0.18031576736E+03  0.73860408553E+02  0.47435476945E+03  0.51281730006E+03  0.50400001928E-02 0. -1.
       -1    1    3    3    0  502 -0.18031576736E+03 -0.73860408553E+02 -0.69750367561E+02  0.20696436822E+03  0.50400001928E-02 0.  1.
</event>
<event>
 5   0  0.8817544E-02  0.6008475E+03  0.7818609E-02  0.9903649E-01
       -2   -1    0    0    0  501  0.00000000000E+00  0.00000000000E+00  0.12939641879E+03  0.12939641881E+03  0.25500000920E-02 0.  1.
        2   -1    0    0  501    0  0.00000000000E+00  0.00000000000E+00 -0.69750320499E+03  0.69750320499E+03  0.25500000920E-02 0. -1.
    10030    2    1    2    0    0  0.00000000000E+00  0.00000000000E+00 -0.56810678620E+03  0.82689962381E+03  0.60084745762E+03 0.  0.
        5    1    3    3  502    0  0.21618934072E+03 -0.14656647574E+03 -0.79867443109E+02  0.27316746022E+03  0.46999998093E+01 0.  1.
       -5    1    3    3    0  502 -0.21618934072E+03  0.14656647574E+03 -0.48823934309E+03  0.55373216359E+03  0.46999998093E+01 0. -1.
</event>
<event>
 5   0  0.8420604E-02  0.6232668E+03  0.7818609E-02  0.9858277E-01
        2   -1    0    0  501    0  0.00000000000E+00  0.00000000000E+00  0.12666116649E+04  0.12666116649E+04  0.25500000920E-02 0. -1.
       -2   -1    0    0    0  501  0.00000000000E+00  0.00000000000E+00 -0.76673367970E+02  0.76673368013E+02  0.25500000920E-02 0.  1.
    10030    2    1    2    0    0  0.00000000000E+00  0.00000000000E+00  0.11899382969E+04  0.13432850329E+04  0.62326682019E+03 0.  0.
        2    1    3    3  502    0  0.11464248044E+02  0.18560255635E+03  0.11339309459E+04  0.11490775117E+04  0.25500000920E-02 0. -1.
       -2    1    3    3    0  502 -0.11464248044E+02 -0.18560255635E+03  0.56007351033E+02  0.19420752118E+03  0.25500000920E-02 0.  1.
</event>
<event>
 5   0  0.8699746E-02  0.5897080E+03  0.7818609E-02  0.9926992E-01
        2   -1    0    0  501    0  0.00000000000E+00  0.00000000000E+00  0.35266768815E+03  0.35266768816E+03  0.25500000920E-02 0.  1.
       -2   -1    0    0    0  501  0.00000000000E+00  0.00000000000E+00 -0.24651785010E+03  0.24651785011E+03  0.25500000920E-02 0. -1.
    10030    2    1    2    0    0  0.00000000000E+00  0.00000000000E+00  0.10614983805E+03  0.59918553827E+03  0.58970799651E+03 0.  0.
        3    1    3    3  502    0 -0.86862123131E+02 -0.19688851163E+02  0.33867272550E+03  0.35018838430E+03  0.10100000352E+00 0.  1.
       -3    1    3    3    0  502  0.86862123131E+02  0.19688851163E+02 -0.23252288746E+03  0.24899715397E+03  0.10100000352E+00 0. -1.
</event>
<event>
 5   0  0.5166903E-02  0.6004834E+03  0.7818609E-02  0.9904404E-01
       -1   -1    0    0    0  501  0.00000000000E+00  0.00000000000E+00  0.10827527555E+03  0.10827527566E+03  0.50400001928E-02 0.  1.
        1   -1    0    0  501    0  0.00000000000E+00  0.00000000000E+00 -0.83255449648E+03  0.83255449649E+03  0.50400001928E-02 0. -1.
    10030    2    1    2    0    0  0.00000000000E+00  0.00000000000E+00 -0.72427922093E+03  0.94082977216E+03  0.60048336389E+03 0.  0.
        2    1    3    3  502    0  0.71436045550E+02 -0.13796093775E+03  0.40402008491E+02  0.16052616997E+03  0.25500000920E-02 0.  1.
       -2    1    3    3    0  502 -0.71436045550E+02  0.13796093775E+03 -0.76468122942E+03  0.78030360219E+03  0.25500000920E-02 0. -1.
</event>
<event>
 5   0  0.4987389E-02  0.6118174E+03  0.7818609E-02  0.9881188E-01
        1   -1    0    0  501    0  0.00000000000E+00  0.00000000000E+00  0.51113966450E+03  0.51113966452E+03  0.50400001928E-02 0.  1.
       -1   -1    0    0    0  501  0.00000000000E+00  0.00000000000E+00 -0.18308133998E+03  0.18308134005E+03  0.50400001928E-02 0. -1.
    10030    2    1    2    0    0  0.00000000000E+00  0.00000000000E+00  0.32805832452E+03  0.69422100457E+03  0.61181740650E+03 0.  0.
        1    1    3    3  502    0  0.12876727825E+03  0.13376282676E+02 -0.15046575543E+03  0.19849403132E+03  0.50400001928E-02 0. -1.
       -1    1    3    3    0  502 -0.12876727825E+03 -0.13376282676E+02  0.47852407995E+03  0.49572697325E+03  0.50400001928E-02 0.  1.
</event>
<event>
 5   0  0.8699746E-02  0.6003559E+03  0.7818609E-02  0.9904668E-01
        2   -1    0    0  501    0  0.00000000000E+00  0.00000000000E+00  0.27351473977E+03  0.27351473978E+03  0.25500000920E-02 0. -1.
       -2   -1    0    0    0  501  0.00000000000E+00  0.00000000000E+00 -0.32944034681E+03  0.32944034682E+03  0.25500000920E-02 0.  1.
    10030    2    1    2    0    0  0.00000000000E+00  0.00000000000E+00 -0.55925607040E+02  0.60295508660E+03  0.60035586358E+03 0.  0.
        3    1    3    3  502    0  0.14163119921E+03  0.40163518668E+02  0.23476924025E+03  0.27710848271E+03  0.10100000352E+00 0. -1.
       -3    1    3    3    0  502 -0.14163119921E+03 -0.40163518668E+02 -0.29069484729E+03  0.32584660389E+03  0.10100000352E+00 0.  1.
</event>
<event>
 5   0  0.8817544E-02  0.6011685E+03  0.7818609E-02  0.9902985E-01
        2   -1    0    0  501    0  0.00000000000E+00  0.00000000000E+00  0.18533543398E+04  0.18533543398E+04  0.25500000920E-02 0.  1.
       -2   -1    0    0    0  501  0.00000000000E+00  0.00000000000E+00 -0.48749935052E+02  0.48749935118E+02  0.25500000920E-02 0. -1.
    10030    2    1    2    0    0  0.00000000000E+00  0.00000000000E+00  0.18046044047E+04  0.19021042749E+04  0.60116854128E+03 0.  0.
        5    1    3    3  502    0  0.21494693459E+02  0.29220881994E+03  0.69050718819E+03  0.75011351357E+03  0.46999998093E+01 0. -1.
       -5    1    3    3    0  502 -0.21494693459E+02 -0.29220881994E+03  0.11140972165E+04  0.11519907613E+04  0.46999998093E+01 0.  1.
</event>
<event>
 5   0  0.4881209E-02  0.6053476E+03  0.7818609E-02  0.9894373E-01
       -1   -1    0    0    0  501  0.00000000000E+00  0.00000000000E+00  0.79155379448E+03  0.79155379450E+03  0.50400001928E-02 0.  1.
        1   -1    0    0  501    0  0.00000000000E+00  0.00000000000E+00 -0.11573619878E+03  0.11573619889E+03  0.50400001928E-02 0. -1.
    10030    2    1    2    0    0  0.00000000000E+00  0.00000000000E+00  0.67581759571E+03  0.90728999339E+03  0.60534759389E+03 0.  0.
        3    1    3    3  502    0  0.29376924294E+03  0.47373182612E+02  0.25490724907E+03  0.39181922153E+03  0.10100000352E+00 0.  1.
       -3    1    3    3    0  502 -0.29376924294E+03 -0.47373182612E+02  0.42091034663E+03  0.51547077185E+03  0.10100000352E+00 0. -1.
</event>
<event>
 5   0  0.5166903E-02  0.4765286E+03  0.7818609E-02  0.1020094E+00
       -1   -1    0    0    0  501  0.00000000000E+00  0.00000000000E+00  0.19115927276E+03  0.19115927283E+03  0.50400001928E-02 0. -1.
        1   -1    0    0  501    0  0.00000000000E+00  0.00000000000E+00 -0.29697680106E+03  0.29697680111E+03  0.50400001928E-02 0.  1.
    10030    2    1    2    0    0  0.00000000000E+00  0.00000000000E+00 -0.10581752830E+03  0.48813607394E+03  0.47652856932E+03 0.  0.
        2    1    3    3  502    0 -0.61716185993E+02  0.22957554830E+03 -0.69300079175E+02  0.24762132576E+03  0.25500000920E-02 0. -1.
       -2    1    3    3    0  502  0.61716185993E+02 -0.22957554830E+03 -0.36517449124E+02  0.24051474817E+03  0.25500000920E-02 0.  1.
</event>
<event>
 5   0  0.5166903E-02  0.6083655E+03  0.7818609E-02  0.9888201E-01
        1   -1    0    0  501    0  0.00000000000E+00  0.00000000000E+00  0.37495009855E+03  0.37495009858E+03  0.50400001928E-02 0. -1.
       -1   -1    0    0    0  501  0.00000000000E+00  0.00000000000E+00 -0.24677190731E+03  0.24677190736E+03  0.50400001928E-02 0.  1.
    10030    2    1    2    0    0  0.00000000000E+00  0.00000000000E+00  0.12817819124E+03  0.62172200595E+03  0.60836551839E+03 0.  0.
        2    1    3    3  502    0  0.72549217813E+02  0.27098106677E+03  0.18428514824E+03  0.33564139111E+03  0.25500000920E-02 0. -1.
       -2    1    3    3    0  502 -0.72549217813E+02 -0.27098106677E+03 -0.56106957004E+02  0.28608061484E+03  0.25500000920E-02 0.  1.
</event>
<event>
 5   0  0.3437375E-02  0.5663795E+03  0.7818609E-02  0.9977722E-01
        3   -1    0    0  501    0  0.00000000000E+00  0.00000000000E+00  0.23242649407E+03  0.23242651602E+03  0.10100000352E+00 0.  1.
       -3   -1    0    0    0  501  0.00000000000E+00  0.00000000000E+00 -0.34503996044E+03  0.34503997522E+03  0.10100000352E+00 0. -1.
    10030    2    1    2    0    0  0.00000000000E+00  0.00000000000E+00 -0.11261346636E+03  0.57746649124E+03  0.56637951560E+03 0.  0.
        5    1    3    3  502    0  0.42452064935E+02 -0.59380810152E+02  0.22262878005E+03  0.23433719751E+03  0.46999998093E+01 0.  1.
       -5    1    3    3    0  502 -0.42452064935E+02  0.59380810152E+02 -0.33524224642E+03  0.34312929372E+03  0.46999998093E+01 0. -1.
</event>
<event>
 5   0  0.8575590E-02  0.5989570E+03  0.7818609E-02  0.9907572E-01
       -2   -1    0    0    0  501  0.00000000000E+00  0.00000000000E+00  0.16390392079E+03  0.16390392081E+03  0.25500000920E-02 0.  1.
        2   -1    0    0  501    0  0.00000000000E+00  0.00000000000E+00 -0.54719481060E+03  0.54719481061E+03  0.25500000920E-02 0. -1.
    10030    2    1    2    0    0  0.00000000000E+00  0.00000000000E+00 -0.38329088981E+03  0.71109873142E+03  0.59895700982E+03 0.  0.
        4    1    3    3  502    0 -0.10879156047E+03  0.18239280889E+03  0.59034160097E+02  0.22043000096E+03  0.12699999809E+01 0.  1.
       -4    1    3    3    0  502  0.10879156047E+03 -0.18239280889E+03 -0.44232504991E+03  0.49066873045E+03  0.12699999809E+01 0. -1.
</event>
<event>
 5   0  0.3437375E-02  0.6093622E+03  0.7818609E-02  0.9886171E-01
       -3   -1    0    0    0  501  0.00000000000E+00  0.00000000000E+00  0.41097318602E+02  0.41097442710E+02  0.10100000352E+00 0.  1.
        3   -1    0    0  501    0  0.00000000000E+00  0.00000000000E+00 -0.22587952418E+04  0.22587952440E+04  0.10100000352E+00 0. -1.
    10030    2    1    2    0    0  0.00000000000E+00  0.00000000000E+00 -0.22176979232E+04  0.22998926867E+04  0.60936220107E+03 0.  0.
        1    1    3    3  502    0  0.73482837421E+02 -0.27659701087E+03 -0.71435389644E+03  0.76954994848E+03  0.50400001928E-02 0.  1.
       -1    1    3    3    0  502 -0.73482837421E+02  0.27659701087E+03 -0.15033440267E+04  0.15303427383E+04  0.50400001928E-02 0. -1.
</event>
<event>
 5   0  0.4881209E-02  0.6008406E+03  0.7818609E-02  0.9903664E-01
        1   -1    0    0  501    0  0.00000000000E+00  0.00000000000E+00  0.14714045540E+03  0.14714045548E+03  0.50400001928E-02 0.  1.
       -1   -1    0    0    0  501  0.00000000000E+00  0.00000000000E+00 -0.61337563566E+03  0.61337563568E+03  0.50400001928E-02 0. -1.
    10030    2    1    2    0    0  0.00000000000E+00  0.00000000000E+00 -0.46623518027E+03  0.76051609117E+03  0.60084064576E+03 0.  0.
        3    1    3    3  502    0  0.94291225954E+02 -0.75625484355E+02  0.11500443208E+03  0.16684147798E+03  0.10100000352E+00 0.  1.
       -3    1    3    3    0  502 -0.94291225954E+02  0.75625484355E+02 -0.58123961235E+03  0.59367461318E+03  0.10100000352E+00 0. -1.
</event>
<event>
 5   0  0.8817544E-02  0.6012059E+03  0.7818609E-02  0.9902907E-01
        2   -1    0    0  501    0  0.00000000000E+00  0.00000000000E+00  0.41142485411E+03  0.41142485411E+03  0.25500000920E-02 0. -1.
       -2   -1    0    0    0  501  0.00000000000E+00  0.00000000000E+00 -0.21963214336E+03  0.21963214337E+03  0.25500000920E-02 0.  1.
    10030    2    1    2    0    0  0.00000000000E+00  0.00000000000E+00  0.19179271075E+03  0.63105699748E+03  0.60120586339E+03 0.  0.
        5    1    3    3  502    0  0.25711694126E+03  0.53307419326E+02 -0.57615865831E+02  0.26887261004E+03  0.46999998093E+01 0.  1.
       -5    1    3    3    0  502 -0.25711694126E+03 -0.53307419326E+02  0.24940857658E+03  0.36218438744E+03  0.46999998093E+01 0. -1.
</event>
<event>
 5   0  0.5166903E-02  0.6095943E+03  0.7818609E-02  0.9885698E-01
        1   -1    0    0  501    0  0.00000000000E+00  0.00000000000E+00  0.99162914099E+03  0.99162914100E+03  0.50400001928E-02 0. -1.
       -1   -1    0    0    0  501  0.00000000000E+00  0.00000000000E+00 -0.93685545328E+02  0.93685545464E+02  0.50400001928E-02 0.  1.
    10030    2    1    2    0    0  0.00000000000E+00  0.00000000000E+00  0.89794359566E+03  0.10853146865E+04  0.60959434682E+03 0.  0.
        2    1    3    3  502    0 -0.19811354604E+03  0.23137618439E+03  0.42968097284E+03  0.52669692828E+03  0.25500000920E-02 0.  1.
       -2    1    3    3    0  502  0.19811354604E+03 -0.23137618439E+03  0.46826262282E+03  0.55861775819E+03  0.25500000920E-02 0. -1.
</event>
<event>
 5   0  0.3437375E-02  0.6008316E+03  0.7818609E-02  0.9903682E-01
        3   -1    0    0  501    0  0.00000000000E+00  0.00000000000E+00  0.48179040692E+03  0.48179041751E+03  0.10100000352E+00 0. -1.
       -3   -1    0    0    0  501  0.00000000000E+00  0.00000000000E+00 -0.18732140154E+03  0.18732142877E+03  0.10100000352E+00 0.  1.
    10030    2    1    2    0    0  0.00000000000E+00  0.00000000000E+00  0.29446900538E+03  0.66911184628E+03  0.60083164672E+03 0.  0.
        3    1    3    3  502    0 -0.21526485133E+03 -0.90471785962E+02 -0.63257412843E+02  0.24192067038E+03  0.10100000352E+00 0.  1.
       -3    1    3    3    0  502  0.21526485133E+03  0.90471785962E+02  0.35772641823E+03  0.42719117591E+03  0.10100000352E+00 0. -1.
</event>
<event>
 5   0  0.3437375E-02  0.5869714E+03  0.7818609E-02  0.9932811E-01
       -3   -1    0    0    0  501  0.00000000000E+00  0.00000000000E+00  0.29711604719E+03  0.29711606436E+03  0.10100000352E+00 0. -1.
        3   -1    0    0  501    0  0.00000000000E+00  0.00000000000E+00 -0.28989968988E+03  0.28989970748E+03  0.10100000352E+00 0.  1.
    10030    2    1    2    0    0  0.00000000000E+00  0.00000000000E+00  0.72163573089E+01  0.58701577184E+03  0.58697141376E+03 0.  0.
        4    1    3    3  502    0 -0.14053458093E+02 -0.14619722556E+03 -0.25049982412E+03  0.29038406160E+03  0.12699999809E+01 0.  1.
       -4    1    3    3    0  502  0.14053458093E+02  0.14619722556E+03  0.25771618143E+03  0.29663171024E+03  0.12699999809E+01 0. -1.
</event>
<event>
 5   0  0.8207443E-02  0.6472861E+03  0.7818609E-02  0.9811885E-01
       -2   -1    0    0    0  501  0.00000000000E+00  0.00000000000E+00  0.15001083659E+03  0.15001083661E+03  0.25500000920E-02 0.  1.
        2   -1    0    0  501    0  0.00000000000E+00  0.00000000000E+00 -0.69824845323E+03  0.69824845324E+03  0.25500000920E-02 0. -1.
    10030    2    1    2    0    0  0.00000000000E+00  0.00000000000E+00 -0.54823761665E+03  0.84825928985E+03  0.64728613341E+03 0.  0.
        1    1    3    3  502    0 -0.10876827102E+03 -0.34545359122E+02 -0.67100547838E+03  0.68064107330E+03  0.50400001928E-02 0. -1.
       -1    1    3    3    0  502  0.10876827102E+03  0.34545359122E+02  0.12276786174E+03  0.16761821655E+03  0.50400001928E-02 0.  1.
</event>
<event>
 5   0  0.4881209E-02  0.5864741E+03  0.7818609E-02  0.9933872E-01
        1   -1    0    0  501    0  0.00000000000E+00  0.00000000000E+00  0.93733216645E+03  0.93733216647E+03  0.50400001928E-02 0.  1.
       -1   -1    0    0    0  501  0.00000000000E+00  0.00000000000E+00 -0.91736909805E+02  0.91736909944E+02  0.50400001928E-02 0. -1.
    10030    2    1    2    0    0  0.00000000000E+00  0.00000000000E+00  0.84559525665E+03  0.10290690764E+04  0.58647406248E+03 0.  0.
        3    1    3    3  502    0  0.17915926409E+03  0.74588598161E+02  0.37063429873E+02  0.19757330012E+03  0.10100000352E+00 0. -1.
       -3    1    3    3    0  502 -0.17915926409E+03 -0.74588598161E+02  0.80853182678E+03  0.83149577629E+03  0.10100000352E+00 0.  1.
</event>
<event>
 5   0  0.3437375E-02  0.5987909E+03  0.7818609E-02  0.9907918E-01
        4   -1    0    0  501    0  0.00000000000E+00  0.00000000000E+00  0.25618632476E+03  0.25618947265E+03  0.12699999809E+01 0. -1.
       -4   -1    0    0    0  501  0.00000000000E+00  0.00000000000E+00 -0.34988591578E+03  0.34988822067E+03  0.12699999809E+01 0.  1.
    10030    2    1    2    0    0  0.00000000000E+00  0.00000000000E+00 -0.93699591020E+02  0.60607769332E+03  0.59879091257E+03 0.  0.
        4    1    3    3  502    0  0.17197405027E+01  0.13430779191E+03  0.22397778301E+03  0.26116891212E+03  0.12699999809E+01 0. -1.
       -4    1    3    3    0  502 -0.17197405027E+01 -0.13430779191E+03 -0.31767737403E+03  0.34490878120E+03  0.12699999809E+01 0.  1.
</event>
<event>
 5   0  0.8420604E-02  0.5867780E+03  0.7818609E-02  0.9933224E-01
       -2   -1    0    0    0  501  0.00000000000E+00  0.00000000000E+00  0.60916022236E+02  0.60916022290E+02  0.25500000920E-02 0.  1.
        2   -1    0    0  501    0  0.00000000000E+00  0.00000000000E+00 -0.14130451867E+04  0.14130451867E+04  0.25500000920E-02 0. -1.
    10030    2    1    2    0    0  0.00000000000E+00  0.00000000000E+00 -0.13521291645E+04  0.14739612090E+04  0.58677795479E+03 0.  0.
        2    1    3    3  502    0 -0.15196339186E+03  0.24264519628E+03 -0.83705593416E+03  0.88466502172E+03  0.25500000920E-02 0.  1.
       -2    1    3    3    0  502  0.15196339186E+03 -0.24264519628E+03 -0.51507323031E+03  0.58929618727E+03  0.25500000920E-02 0. -1.
</event>
<event>
 5   0  0.8420604E-02  0.6121935E+03  0.7818609E-02  0.9880426E-01
        2   -1    0    0  501    0  0.00000000000E+00  0.00000000000E+00  0.37682323890E+03  0.37682323891E+03  0.25500000920E-02 0. -1.
       -2   -1    0    0    0  501  0.00000000000E+00  0.00000000000E+00 -0.24864501324E+03  0.24864501325E+03  0.25500000920E-02 0.  1.
    10030    2    1    2    0    0  0.00000000000E+00  0.00000000000E+00  0.12817822566E+03  0.62546825217E+03  0.61219349632E+03 0.  0.
        2    1    3    3  502    0  0.26443783691E+03  0.94775888702E+02 -0.60142697103E+02  0.28727509932E+03  0.25500000920E-02 0.  1.
       -2    1    3    3    0  502 -0.26443783691E+03 -0.94775888702E+02  0.18832092277E+03  0.33819315284E+03  0.25500000920E-02 0. -1.
</event>
<event>
 5   0  0.8575590E-02  0.6047912E+03  0.7818609E-02  0.9895515E-01
       -2   -1    0    0    0  501  0.00000000000E+00  0.00000000000E+00  0.17430803177E+03  0.17430803179E+03  0.25500000920E-02 0. -1.
        2   -1    0    0  501    0  0.00000000000E+00  0.00000000000E+00 -0.52460633908E+03  0.52460633909E+03  0.25500000920E-02 0.  1.
    10030    2    1    2    0    0  0.00000000000E+00  0.00000000000E+00 -0.35029830732E+03  0.69891437087E+03  0.60479119844E+03 0.  0.
        4    1    3    3  502    0 -0.12016641782E+03 -0.73295912860E+02  0.13413925176E+03  0.19444076367E+03  0.12699999809E+01 0. -1.
       -4    1    3    3    0  502  0.12016641782E+03  0.73295912860E+02 -0.48443755908E+03  0.50447360720E+03  0.12699999809E+01 0.  1.
</event>
<event>
 5   0  0.8420604E-02  0.5719240E+03  0.7818609E-02  0.9965430E-01
        2   -1    0    0  501    0  0.00000000000E+00  0.00000000000E+00  0.56207884775E+03  0.56207884776E+03  0.25500000920E-02 0. -1.
       -2   -1    0    0    0  501  0.00000000000E+00  0.00000000000E+00 -0.14548541776E+03  0.14548541778E+03  0.25500000920E-02 0.  1.
    10030    2    1    2    0    0  0.00000000000E+00  0.00000000000E+00  0.41659343000E+03  0.70756426554E+03  0.57192403687E+03 0.  0.
        2    1    3    3  502    0 -0.59585225744E+02  0.19857549736E+02  0.55344030682E+03  0.55699272403E+03  0.25500000920E-02 0. -1.
       -2    1    3    3    0  502  0.59585225744E+02 -0.19857549736E+02 -0.13684687682E+03  0.15057154150E+03  0.25500000920E-02 0.  1.
</event>
<event>
 5   0  0.8420604E-02  0.6121154E+03  0.7818609E-02  0.9880584E-01
       -2   -1    0    0    0  501  0.00000000000E+00  0.00000000000E+00  0.49789051250E+02  0.49789051315E+02  0.25500000920E-02 0. -1.
        2   -1    0    0  501    0  0.00000000000E+00  0.00000000000E+00 -0.18813635841E+04  0.18813635841E+04  0.25500000920E-02 0.  1.
    10030    2    1    2    0    0  0.00000000000E+00  0.00000000000E+00 -0.18315745329E+04  0.19311526354E+04  0.61211537466E+03 0.  0.
        2    1    3    3  502    0  0.18368741684E+03 -0.19459238672E+03 -0.13844127155E+04  0.14100375282E+04  0.25500000920E-02 0.  1.
       -2    1    3    3    0  502 -0.18368741684E+03  0.19459238672E+03 -0.44716181738E+03  0.52111510725E+03  0.25500000920E-02 0. -1.
</event>
<event>
 5   0  0.8699746E-02  0.6065662E+03  0.7818609E-02  0.9891876E-01
       -2   -1    0    0    0  501  0.00000000000E+00  0.00000000000E+00  0.52622295582E+03  0.52622295582E+03  0.25500000920E-02 0.  1.
        2   -1    0    0  501    0  0.00000000000E+00  0.00000000000E+00 -0.17479404438E+03  0.17479404440E+03  0.25500000920E-02 0. -1.
    10030    2    1    2    0    0  0.00000000000E+00  0.00000000000E+00  0.35142891143E+03  0.70101700022E+03  0.60656619986E+03 0.  0.
        3    1    3    3  502    0 -0.19617710771E+03  0.11371498935E+02  0.44269652814E+03  0.48435007465E+03  0.10100000352E+00 0.  1.
       -3    1    3    3    0  502  0.19617710771E+03 -0.11371498935E+02 -0.91267616709E+02  0.21666692558E+03  0.10100000352E+00 0. -1.
</event>
<event>
 5   0  0.5166903E-02  0.6085818E+03  0.7818609E-02  0.9887760E-01
        1   -1    0    0  501    0  0.00000000000E+00  0.00000000000E+00  0.20667175381E+03  0.20667175387E+03  0.50400001928E-02 0. -1.
       -1   -1    0    0    0  501  0.00000000000E+00  0.00000000000E+00 -0.44801943552E+03  0.44801943554E+03  0.50400001928E-02 0.  1.
    10030    2    1    2    0    0  0.00000000000E+00  0.00000000000E+00 -0.24134768170E+03  0.65469118942E+03  0.60858183512E+03 0.  0.
        2    1    3    3  502    0  0.14599958519E+03  0.16345932332E+03 -0.34775494900E+03  0.41105757968E+03  0.25500000920E-02 0.  1.
       -2    1    3    3    0  502 -0.14599958519E+03 -0.16345932332E+03  0.10640726729E+03  0.24363360974E+03  0.25500000920E-02 0. -1.
</event>
<event>
 5   0  0.4987389E-02  0.5975867E+03  0.7818609E-02  0.9910426E-01
        1   -1    0    0  501    0  0.00000000000E+00  0.00000000000E+00  0.13001406932E+04  0.13001406932E+04  0.50400001928E-02 0.  1.
       -1   -1    0    0    0  501  0.00000000000E+00  0.00000000000E+00 -0.68667536099E+02  0.68667536284E+02  0.50400001928E-02 0. -1.
    10030    2    1    2    0    0  0.00000000000E+00  0.00000000000E+00  0.12314731571E+04  0.13688082295E+04  0.59758667361E+03 0.  0.
        1    1    3    3  502    0 -0.59440500575E+02 -0.24105520807E+03  0.99652573526E+03  0.10269879880E+04  0.50400001928E-02 0.  1.
       -1    1    3    3    0  502  0.59440500575E+02  0.24105520807E+03  0.23494742187E+03  0.34182024152E+03  0.50400001928E-02 0. -1.
</event>
<event>
 5   0  0.4881209E-02  0.6044030E+03  0.7818609E-02  0.9896313E-01
        1   -1    0    0  501    0  0.00000000000E+00  0.00000000000E+00  0.44950049710E+03  0.44950049713E+03  0.50400001928E-02 0. -1.
       -1   -1    0    0    0  501  0.00000000000E+00  0.00000000000E+00 -0.20317163556E+03  0.20317163562E+03  0.50400001928E-02 0.  1.
    10030    2    1    2    0    0  0.00000000000E+00  0.00000000000E+00  0.24632886155E+03  0.65267213275E+03  0.60440301525E+03 0.  0.
        3    1    3    3  502    0  0.81078786965E+02  0.80970719204E+02 -0.17880287372E+03  0.21236879459E+03  0.10100000352E+00 0.  1.
       -3    1    3    3    0  502 -0.81078786965E+02 -0.80970719204E+02  0.42513173527E+03  0.44030333816E+03  0.10100000352E+00 0. -1.
</event>
<event>
 5   0  0.3437375E-02  0.5971857E+03  0.7818609E-02  0.9911262E-01
        3   -1    0    0  501    0  0.00000000000E+00  0.00000000000E+00  0.85208329408E+03  0.85208330006E+03  0.10100000352E+00 0. -1.
       -3   -1    0    0    0  501  0.00000000000E+00  0.00000000000E+00 -0.10463490788E+03  0.10463495663E+03  0.10100000352E+00 0.  1.
    10030    2    1    2    0    0  0.00000000000E+00  0.00000000000E+00  0.74744838619E+03  0.95671825669E+03  0.59718567687E+03 0.  0.
        2    1    3    3  502    0  0.24898473025E+03  0.16053421548E+03  0.43351831417E+03  0.52507405093E+03  0.25500000920E-02 0. -1.
       -2    1    3    3    0  502 -0.24898473025E+03 -0.16053421548E+03  0.31393007203E+03  0.43164420576E+03  0.25500000920E-02 0.  1.
</event>
<event>
 5   0  0.5166903E-02  0.5993883E+03  0.7818609E-02  0.9906676E-01
        1   -1    0    0  501    0  0.00000000000E+00  0.00000000000E+00  0.63207889120E+03  0.63207889122E+03  0.50400001928E-02 0. -1.
       -1   -1    0    0    0  501  0.00000000000E+00  0.00000000000E+00 -0.14209711436E+03  0.14209711445E+03  0.50400001928E-02 0.  1.
    10030    2    1    2    0    0  0.00000000000E+00  0.00000000000E+00  0.48998177684E+03  0.77417600567E+03  0.59938830996E+03 0.  0.
        2    1    3    3  502    0  0.21180470468E+03  0.20885655496E+03  0.29217079215E+03  0.41694851633E+03  0.25500000920E-02 0. -1.
       -2    1    3    3    0  502 -0.21180470468E+03 -0.20885655496E+03  0.19781098469E+03  0.35722748934E+03  0.25500000920E-02 0.  1.
</event>
<event>
 5   0  0.4987389E-02  0.5899468E+03  0.7818609E-02  0.9926486E-01
       -1   -1    0    0    0  501  0.00000000000E+00  0.00000000000E+00  0.20236213481E+03  0.20236213488E+03  0.50400001928E-02 0.  1.
        1   -1    0    0  501    0  0.00000000000E+00  0.00000000000E+00 -0.42996827098E+03  0.42996827101E+03  0.50400001928E-02 0. -1.
    10030    2    1    2    0    0  0.00000000000E+00  0.00000000000E+00 -0.22760613616E+03  0.63233040588E+03  0.58994676792E+03 0.  0.
        1    1    3    3  502    0  0.94420704490E+02  0.17620424559E+03 -0.34628703871E+03  0.39984736939E+03  0.50400001928E-02 0. -1.
       -1    1    3    3    0  502 -0.94420704490E+02 -0.17620424559E+03  0.11868090255E+03  0.23248303649E+03  0.50400001928E-02 0.  1.
</event>
<event>
 5   0  0.8575590E-02  0.6006799E+03  0.7818609E-02  0.9903997E-01
       -2   -1    0    0    0  501  0.00000000000E+00  0.00000000000E+00  0.43217178779E+03  0.43217178780E+03  0.25500000920E-02 0.  1.
        2   -1    0    0  501    0  0.00000000000E+00  0.00000000000E+00 -0.20872274807E+03  0.20872274809E+03  0.25500000920E-02 0. -1.
    10030    2    1    2    0    0  0.00000000000E+00  0.00000000000E+00  0.22344903972E+03  0.64089453588E+03  0.60067989210E+03 0.  0.
        4    1    3    3  502    0  0.23074630965E+03 -0.10300191838E+03  0.28491631793E+03  0.38083090175E+03  0.12699999809E+01 0.  1.
       -4    1    3    3    0  502 -0.23074630965E+03  0.10300191838E+03 -0.61467278211E+02  0.26006363413E+03  0.12699999809E+01 0. -1.
</event>
<event>
 5   0  0.8575590E-02  0.4405099E+03  0.7818609E-02  0.1030590E+00
       -2   -1    0    0    0  501  0.00000000000E+00  0.00000000000E+00  0.72620647998E+02  0.72620648043E+02  0.25500000920E-02 0.  1.
        2   -1    0    0  501    0  0.00000000000E+00  0.00000000000E+00 -0.66802285236E+03  0.66802285236E+03  0.25500000920E-02 0. -1.
    10030    2    1    2    0    0  0.00000000000E+00  0.00000000000E+00 -0.59540220436E+03  0.74064350040E+03  0.44050994283E+03 0.  0.
        4    1    3    3  502    0 -0.13343441417E+03  0.82750522610E+01 -0.59199387495E+03  0.60690327092E+03  0.12699999809E+01 0. -1.
       -4    1    3    3    0  502  0.13343441417E+03 -0.82750522610E+01 -0.34083294092E+01  0.13374022949E+03  0.12699999809E+01 0.  1.
</event>
<event>
 5   0  0.8420604E-02  0.6239972E+03  0.7818609E-02  0.9856833E-01
        2   -1    0    0  501    0  0.00000000000E+00  0.00000000000E+00  0.38557876082E+03  0.38557876083E+03  0.25500000920E-02 0. -1.
       -2   -1    0    0    0  501  0.00000000000E+00  0.00000000000E+00 -0.25245977104E+03  0.25245977105E+03  0.25500000920E-02 0.  1.
    10030    2    1    2    0    0  0.00000000000E+00  0.00000000000E+00  0.13311898978E+03  0.63803853188E+03  0.62399719769E+03 0.  0.
        2    1    3    3  502    0 -0.10571263689E+03 -0.55916578104E+02  0.36121281458E+03  0.38049510211E+03  0.25500000920E-02 0. -1.
       -2    1    3    3    0  502  0.10571263689E+03  0.55916578104E+02 -0.22809382480E+03  0.25754342978E+03  0.25500000920E-02 0.  1.
</event>
<event>
 5   0  0.5190380E-02  0.6366881E+03  0.7818609E-02  0.9832084E-01
       -1   -1    0    0    0  501  0.00000000000E+00  0.00000000000E+00  0.97070945294E+02  0.97070945425E+02  0.50400001928E-02 0. -1.
        1   -1    0    0  501    0  0.00000000000E+00  0.00000000000E+00 -0.10440088365E+04  0.10440088365E+04  0.50400001928E-02 0.  1.
    10030    2    1    2    0    0  0.00000000000E+00  0.00000000000E+00 -0.94693789117E+03  0.11410797819E+04  0.63668807035E+03 0.  0.
        5    1    3    3  502    0  0.94503509466E+02 -0.29047811100E+03 -0.31304459261E+03  0.43740993728E+03  0.46999998093E+01 0. -1.
       -5    1    3    3    0  502 -0.94503509466E+02  0.29047811100E+03 -0.63389329856E+03  0.70366984462E+03  0.46999998093E+01 0.  1.
</event>
<event>
 5   0  0.5125031E-02  0.5974089E+03  0.7818609E-02  0.9910796E-01
        1   -1    0    0  501    0  0.00000000000E+00  0.00000000000E+00  0.89637326086E+03  0.89637326087E+03  0.50400001928E-02 0. -1.
       -1   -1    0    0    0  501  0.00000000000E+00  0.00000000000E+00 -0.99539268634E+02  0.99539268762E+02  0.50400001928E-02 0.  1.
    10030    2    1    2    0    0  0.00000000000E+00  0.00000000000E+00  0.79683399222E+03  0.99591252963E+03  0.59740886796E+03 0.  0.
        4    1    3    3  502    0  0.10196889999E+03  0.74010377391E+02 -0.53066925015E+02  0.13672199515E+03  0.12699999809E+01 0.  1.
       -4    1    3    3    0  502 -0.10196889999E+03 -0.74010377391E+02  0.84990091724E+03  0.85919053449E+03  0.12699999809E+01 0. -1.
</event>
<event>
 5   0  0.4881209E-02  0.6125235E+03  0.7818609E-02  0.9879759E-01
        1   -1    0    0  501    0  0.00000000000E+00  0.00000000000E+00  0.18267968062E+03  0.18267968069E+03  0.50400001928E-02 0. -1.
       -1   -1    0    0    0  501  0.00000000000E+00  0.00000000000E+00 -0.51344667143E+03  0.51344667146E+03  0.50400001928E-02 0.  1.
    10030    2    1    2    0    0  0.00000000000E+00  0.00000000000E+00 -0.33076699081E+03  0.69612635215E+03  0.61252354726E+03 0.  0.
        3    1    3    3  502    0  0.24143736132E+03 -0.36736600261E+02 -0.37541789880E+03  0.44786179362E+03  0.10100000352E+00 0.  1.
       -3    1    3    3    0  502 -0.24143736132E+03  0.36736600261E+02  0.44650907991E+02  0.24826455853E+03  0.10100000352E+00 0. -1.
</event>
<event>
 5   0  0.5190380E-02  0.6004398E+03  0.7818609E-02  0.9904494E-01
        1   -1    0    0  501    0  0.00000000000E+00  0.00000000000E+00  0.24222988364E+03  0.24222988370E+03  0.50400001928E-02 0.  1.
       -1   -1    0    0    0  501  0.00000000000E+00  0.00000000000E+00 -0.37209272140E+03  0.37209272143E+03  0.50400001928E-02 0. -1.
    10030    2    1    2    0    0  0.00000000000E+00  0.00000000000E+00 -0.12986283776E+03  0.61432260513E+03  0.60043976096E+03 0.  0.
        5    1    3    3  502    0  0.16769255864E+03  0.16206685827E+03 -0.25830787785E+03  0.34803952438E+03  0.46999998093E+01 0. -1.
       -5    1    3    3    0  502 -0.16769255864E+03 -0.16206685827E+03  0.12844504009E+03  0.26628308075E+03  0.46999998093E+01 0.  1.
</event>
<event>
 5   0  0.5125031E-02  0.5952877E+03  0.7818609E-02  0.9915231E-01
        1   -1    0    0  501    0  0.00000000000E+00  0.00000000000E+00  0.70439707786E+03  0.70439707788E+03  0.50400001928E-02 0. -1.
       -1   -1    0    0    0  501  0.00000000000E+00  0.00000000000E+00 -0.12576978657E+03  0.12576978667E+03  0.50400001928E-02 0.  1.
    10030    2    1    2    0    0  0.00000000000E+00  0.00000000000E+00  0.57862729129E+03  0.83016686456E+03  0.59528772941E+03 0.  0.
        4    1    3    3  502    0  0.12027675657E+03 -0.23789491139E+03  0.47395397938E+03  0.54377796434E+03  0.12699999809E+01 0. -1.
       -4    1    3    3    0  502 -0.12027675657E+03  0.23789491139E+03  0.10467331191E+03  0.28638890021E+03  0.12699999809E+01 0.  1.
</event>
<event>
 5   0  0.5166903E-02  0.6072375E+03  0.7818609E-02  0.9890503E-01
        1   -1    0    0  501    0  0.00000000000E+00  0.00000000000E+00  0.77439432952E+03  0.77439432954E+03  0.50400001928E-02 0.  1.
       -1   -1    0    0    0  501  0.00000000000E+00  0.00000000000E+00 -0.11904056121E+03  0.11904056132E+03  0.50400001928E-02 0. -1.
    10030    2    1    2    0    0  0.00000000000E+00  0.00000000000E+00  0.65535376830E+03  0.89343489086E+03  0.60723746802E+03 0.  0.
        2    1    3    3  502    0 -0.73845476101E+02  0.34415710191E+02 -0.10265753224E+03  0.13105786654E+03  0.25500000920E-02 0. -1.
       -2    1    3    3    0  502  0.73845476101E+02 -0.34415710191E+02  0.75801130055E+03  0.76237702432E+03  0.25500000920E-02 0.  1.
</event>
<event>
 5   0  0.8207443E-02  0.5912688E+03  0.7818609E-02  0.9923688E-01
        2   -1    0    0  501    0  0.00000000000E+00  0.00000000000E+00  0.88965912214E+03  0.88965912214E+03  0.25500000920E-02 0.  1.
       -2   -1    0    0    0  501  0.00000000000E+00  0.00000000000E+00 -0.98239527372E+02  0.98239527405E+02  0.25500000920E-02 0. -1.
    10030    2    1    2    0    0  0.00000000000E+00  0.00000000000E+00  0.79141959477E+03  0.98789864955E+03  0.59126877712E+03 0.  0.
        1    1    3    3  502    0 -0.79181624983E+02 -0.28987330384E+02 -0.77721924611E+02  0.11467646946E+03  0.50400001928E-02 0. -1.
       -1    1    3    3    0  502  0.79181624983E+02  0.28987330384E+02  0.86914151938E+03  0.87322218009E+03  0.50400001928E-02 0.  1.
</event>
<event>
 5   0  0.8420604E-02  0.5900931E+03  0.7818609E-02  0.9926175E-01
       -2   -1    0    0    0  501  0.00000000000E+00  0.00000000000E+00  0.23605892465E+03  0.23605892466E+03  0.25500000920E-02 0.  1.
        2   -1    0    0  501    0  0.00000000000E+00  0.00000000000E+00 -0.36877435749E+03  0.36877435750E+03  0.25500000920E-02 0. -1.
    10030    2    1    2    0    0  0.00000000000E+00  0.00000000000E+00 -0.13271543284E+03  0.60483328216E+03  0.59009313934E+03 0.  0.
        2    1    3    3  502    0  0.79291364461E+02 -0.19808872736E+03  0.14251238803E+03  0.25658535643E+03  0.25500000920E-02 0.  1.
       -2    1    3    3    0  502 -0.79291364461E+02  0.19808872736E+03 -0.27522782087E+03  0.34824792573E+03  0.25500000920E-02 0. -1.
</event>
<event>
 5   0  0.8699746E-02  0.5984144E+03  0.7818609E-02  0.9908701E-01
        2   -1    0    0  501    0  0.00000000000E+00  0.00000000000E+00  0.26467215450E+03  0.26467215452E+03  0.25500000920E-02 0.  1.
       -2   -1    0    0    0  501  0.00000000000E+00  0.00000000000E+00 -0.33824844882E+03  0.33824844883E+03  0.25500000920E-02 0. -1.
    10030    2    1    2    0    0  0.00000000000E+00  0.00000000000E+00 -0.73576294314E+02  0.60292060334E+03  0.59841439058E+03 0.  0.
        3    1    3    3  502    0  0.25026532097E+03 -0.13144216680E+03 -0.13558347028E+03  0.31351660516E+03  0.10100000352E+00 0. -1.
       -3    1    3    3    0  502 -0.25026532097E+03  0.13144216680E+03  0.62007175971E+02  0.28940399819E+03  0.10100000352E+00 0.  1.
</event>
<event>
 5   0  0.8817544E-02  0.6008934E+03  0.7818609E-02  0.9903554E-01
        2   -1    0    0  501    0  0.00000000000E+00  0.00000000000E+00  0.83913943216E+03  0.83913943216E+03  0.25500000920E-02 0. -1.
       -2   -1    0    0    0  501  0.00000000000E+00  0.00000000000E+00 -0.10757237695E+03  0.10757237698E+03  0.25500000920E-02 0.  1.
    10030    2    1    2    0    0  0.00000000000E+00  0.00000000000E+00  0.73156705521E+03  0.94671180914E+03  0.60089341259E+03 0.  0.
        5    1    3    3  502    0 -0.33767925818E+02 -0.23549611163E+03  0.76784502631E+02  0.25003328029E+03  0.46999998093E+01 0.  1.
       -5    1    3    3    0  502  0.33767925818E+02  0.23549611163E+03  0.65478255258E+03  0.69667852885E+03  0.46999998093E+01 0. -1.
</event>
<event>
 5   0  0.3437375E-02  0.6256493E+03  0.7818609E-02  0.9853576E-01
        3   -1    0    0  501    0  0.00000000000E+00  0.00000000000E+00  0.74502948802E+03  0.74502949487E+03  0.10100000352E+00 0. -1.
       -3   -1    0    0    0  501  0.00000000000E+00  0.00000000000E+00 -0.13134949077E+03  0.13134952960E+03  0.10100000352E+00 0.  1.
    10030    2    1    2    0    0  0.00000000000E+00  0.00000000000E+00  0.61367999725E+03  0.87637902447E+03  0.62564930712E+03 0.  0.
        4    1    3    3  502    0  0.20722202846E+03 -0.18736653908E+03  0.50399523110E+03  0.57624647064E+03  0.12699999809E+01 0. -1.
       -4    1    3    3    0  502 -0.20722202846E+03  0.18736653908E+03  0.10968476615E+03  0.30013255384E+03  0.12699999809E+01 0.  1.
</event>
<event>
 5   0  0.4881209E-02  0.6135277E+03  0.7818609E-02  0.9877731E-01
        1   -1    0    0  501    0  0.00000000000E+00  0.00000000000E+00  0.64880149988E+03  0.64880149990E+03  0.50400001928E-02 0. -1.
       -1   -1    0    0    0  501  0.00000000000E+00  0.00000000000E+00 -0.14504292395E+03  0.14504292404E+03  0.50400001928E-02 0.  1.
    10030    2    1    2    0    0  0.00000000000E+00  0.00000000000E+00  0.50375857593E+03  0.79384442394E+03  0.61352772276E+03 0.  0.
        3    1    3    3  502    0 -0.23670092275E+03 -0.15125930152E+00 -0.60298814715E+00  0.23670176068E+03  0.10100000352E+00 0.  1.
       -3    1    3    3    0  502  0.23670092275E+03  0.15125930152E+00  0.50436156407E+03  0.55714266326E+03  0.10100000352E+00 0. -1.
</event>
<event>
 5   0  0.3437375E-02  0.5898911E+03  0.7818609E-02  0.9926604E-01
        3   -1    0    0  501    0  0.00000000000E+00  0.00000000000E+00  0.56482783540E+03  0.56482784443E+03  0.10100000352E+00 0. -1.
       -3   -1    0    0    0  501  0.00000000000E+00  0.00000000000E+00 -0.15401661853E+03  0.15401665165E+03  0.10100000352E+00 0.  1.
    10030    2    1    2    0    0  0.00000000000E+00  0.00000000000E+00  0.41081121687E+03  0.71884449608E+03  0.58989113710E+03 0.  0.
        3    1    3    3  502    0  0.14970412910E+03  0.21575963990E+03  0.41779398336E+02  0.26591178388E+03  0.10100000352E+00 0.  1.
       -3    1    3    3    0  502 -0.14970412910E+03 -0.21575963990E+03  0.36903181854E+03  0.45293271220E+03  0.10100000352E+00 0. -1.
</event>
<event>
 5   0  0.5166903E-02  0.5075650E+03  0.7818609E-02  0.1011823E+00
        1   -1    0    0  501    0  0.00000000000E+00  0.00000000000E+00  0.61565160410E+03  0.61565160412E+03  0.50400001928E-02 0. -1.
       -1   -1    0    0    0  501  0.00000000000E+00  0.00000000000E+00 -0.10461363339E+03  0.10461363352E+03  0.50400001928E-02 0.  1.
    10030    2    1    2    0    0  0.00000000000E+00  0.00000000000E+00  0.51103797070E+03  0.72026523764E+03  0.50756497618E+03 0.  0.
        2    1    3    3  502    0 -0.20647980735E+03  0.14710902785E+03  0.27173446206E+03  0.37163771982E+03  0.25500000920E-02 0.  1.
       -2    1    3    3    0  502  0.20647980735E+03 -0.14710902785E+03  0.23930350865E+03  0.34862751781E+03  0.25500000920E-02 0. -1.
</event>
<event>
 5   0  0.4881209E-02  0.6107031E+03  0.7818609E-02  0.9883446E-01
       -1   -1    0    0    0  501  0.00000000000E+00  0.00000000000E+00  0.36738729701E+03  0.36738729704E+03  0.50400001928E-02 0.  1.
        1   -1    0    0  501    0  0.00000000000E+00  0.00000000000E+00 -0.25379098008E+03  0.25379098013E+03  0.50400001928E-02 0. -1.
    10030    2    1    2    0    0  0.00000000000E+00  0.00000000000E+00  0.11359631693E+03  0.62117827718E+03  0.61070314296E+03 0.  0.
        3    1    3    3  502    0 -0.14242121466E+03 -0.11955535598E+03  0.30315555054E+03  0.35564108811E+03  0.10100000352E+00 0.  1.
       -3    1    3    3    0  502  0.14242121466E+03  0.11955535598E+03 -0.18955923361E+03  0.26553718907E+03  0.10100000352E+00 0. -1.
</event>
<event>
 5   0  0.8420604E-02  0.6075485E+03  0.7818609E-02  0.9889868E-01
       -2   -1    0    0    0  501  0.00000000000E+00  0.00000000000E+00  0.21345387870E+03  0.21345387872E+03  0.25500000920E-02 0. -1.
        2   -1    0    0  501    0  0.00000000000E+00  0.00000000000E+00 -0.43231251324E+03  0.43231251325E+03  0.25500000920E-02 0.  1.
    10030    2    1    2    0    0  0.00000000000E+00  0.00000000000E+00 -0.21885863454E+03  0.64576639197E+03  0.60754845986E+03 0.  0.
        2    1    3    3  502    0 -0.29035692120E+03 -0.88737083816E+02 -0.11991772110E+03  0.32643785254E+03  0.25500000920E-02 0.  1.
       -2    1    3    3    0  502  0.29035692120E+03  0.88737083816E+02 -0.98940913442E+02  0.31932853943E+03  0.25500000920E-02 0. -1.
</event>
<event>
 5   0  0.8207443E-02  0.6143649E+03  0.7818609E-02  0.9876044E-01
        2   -1    0    0  501    0  0.00000000000E+00  0.00000000000E+00  0.47123549335E+03  0.47123549336E+03  0.25500000920E-02 0. -1.
       -2   -1    0    0    0  501  0.00000000000E+00  0.00000000000E+00 -0.20024179942E+03  0.20024179944E+03  0.25500000920E-02 0.  1.
    10030    2    1    2    0    0  0.00000000000E+00  0.00000000000E+00  0.27099369392E+03  0.67147729280E+03  0.61436485299E+03 0.  0.
        1    1    3    3  502    0 -0.28492918881E+03 -0.10935791338E+03  0.97364426493E+02  0.32034922729E+03  0.50400001928E-02 0.  1.
       -1    1    3    3    0  502  0.28492918881E+03  0.10935791338E+03  0.17362926743E+03  0.35112806551E+03  0.50400001928E-02 0. -1.
</event>
<event>
 5   0  0.8207443E-02  0.6035250E+03  0.7818609E-02  0.9898120E-01
       -2   -1    0    0    0  501  0.00000000000E+00  0.00000000000E+00  0.56586999269E+02  0.56586999326E+02  0.25500000920E-02 0.  1.
        2   -1    0    0  501    0  0.00000000000E+00  0.00000000000E+00 -0.16092144845E+04  0.16092144845E+04  0.25500000920E-02 0. -1.
    10030    2    1    2    0    0  0.00000000000E+00  0.00000000000E+00 -0.15526274852E+04  0.16658014838E+04  0.60352504142E+03 0.  0.
        1    1    3    3  502    0  0.20016989641E+03  0.18227327805E+03 -0.40838775446E+03  0.48997152298E+03  0.50400001928E-02 0.  1.
       -1    1    3    3    0  502 -0.20016989641E+03 -0.18227327805E+03 -0.11442397308E+04  0.11758299608E+04  0.50400001928E-02 0. -1.
</event>
<event>
 5   0  0.8699746E-02  0.6155727E+03  0.7818609E-02  0.9873614E-01
        2   -1    0    0  501    0  0.00000000000E+00  0.00000000000E+00  0.64257398790E+03  0.64257398790E+03  0.25500000920E-02 0. -1.
       -2   -1    0    0    0  501  0.00000000000E+00  0.00000000000E+00 -0.14742651410E+03  0.14742651412E+03  0.25500000920E-02 0.  1.
    10030    2    1    2    0    0  0.00000000000E+00  0.00000000000E+00  0.49514747380E+03  0.79000050203E+03  0.61557271901E+03 0.  0.
        3    1    3    3  502    0 -0.22471505490E+03  0.15369903366E+03  0.43182480266E+03  0.51048302542E+03  0.10100000352E+00 0. -1.
       -3    1    3    3    0  502  0.22471505490E+03 -0.15369903366E+03  0.63322671138E+02  0.27951747661E+03  0.10100000352E+00 0.  1.
</event>
<event>
 5   0  0.5166903E-02  0.5949807E+03  0.7818609E-02  0.9915875E-01
       -1   -1    0    0    0  501  0.00000000000E+00  0.00000000000E+00  0.14275815516E+03  0.14275815525E+03  0.50400001928E-02 0. -1.
        1   -1    0    0  501    0  0.00000000000E+00  0.00000000000E+00 -0.61993309039E+03  0.61993309041E+03  0.50400001928E-02 0.  1.
    10030    2    1    2    0    0  0.00000000000E+00  0.00000000000E+00 -0.47717493523E+03  0.76269124566E+03  0.59498068658E+03 0.  0.
        2    1    3    3  502    0  0.13084360748E+03  0.11455546767E+03  0.70813603778E+02  0.18776999568E+03  0.25500000920E-02 0. -1.
       -2    1    3    3    0  502 -0.13084360748E+03 -0.11455546767E+03 -0.54798853901E+03  0.57492124998E+03  0.25500000920E-02 0.  1.
</event>
<event>
 5   0  0.8207443E-02  0.5851239E+03  0.7818609E-02  0.9936759E-01
        2   -1    0    0  501    0  0.00000000000E+00  0.00000000000E+00  0.57444275155E+03  0.57444275155E+03  0.25500000920E-02 0.  1.
       -2   -1    0    0    0  501  0.00000000000E+00  0.00000000000E+00 -0.14900091676E+03  0.14900091678E+03  0.25500000920E-02 0. -1.
    10030    2    1    2    0    0  0.00000000000E+00  0.00000000000E+00  0.42544183479E+03  0.72344366833E+03  0.58512390693E+03 0.  0.
        1    1    3    3  502    0 -0.86982298488E+01  0.18967449581E+03  0.48791350542E+03  0.52355674225E+03  0.50400001928E-02 0.  1.
       -1    1    3    3    0  502  0.86982298488E+01 -0.18967449581E+03 -0.62471670627E+02  0.19988692608E+03  0.50400001928E-02 0. -1.
</event>
<event>
 5   0  0.5166903E-02  0.6008342E+03  0.7818609E-02  0.9903677E-01
       -1   -1    0    0    0  501  0.00000000000E+00  0.00000000000E+00  0.24612754195E+03  0.24612754200E+03  0.50400001928E-02 0. -1.
        1   -1    0    0  501    0  0.00000000000E+00  0.00000000000E+00 -0.36668161134E+03  0.36668161137E+03  0.50400001928E-02 0.  1.
    10030    2    1    2    0    0  0.00000000000E+00  0.00000000000E+00 -0.12055406939E+03  0.61280915337E+03  0.60083423239E+03 0.  0.
        2    1    3    3  502    0 -0.26734672097E+02  0.18465043757E+03  0.17987256135E+03  0.25916146534E+03  0.25500000920E-02 0. -1.
       -2    1    3    3    0  502  0.26734672097E+02 -0.18465043757E+03 -0.30042663074E+03  0.35364768803E+03  0.25500000920E-02 0.  1.
</event>
<event>
 5   0  0.8817544E-02  0.6099869E+03  0.7818609E-02  0.9884900E-01
        2   -1    0    0  501    0  0.00000000000E+00  0.00000000000E+00  0.22502328013E+04  0.22502328013E+04  0.25500000920E-02 0.  1.
       -2   -1    0    0    0  501  0.00000000000E+00  0.00000000000E+00 -0.41338395911E+02  0.41338395989E+02  0.25500000920E-02 0. -1.
    10030    2    1    2    0    0  0.00000000000E+00  0.00000000000E+00  0.22088944053E+04  0.22915711972E+04  0.60998693272E+03 0.  0.
        5    1    3    3  502    0  0.13292031984E+03 -0.12861026766E+03  0.19355613114E+03  0.26775824595E+03  0.46999998093E+01 0. -1.
       -5    1    3    3    0  502 -0.13292031984E+03  0.12861026766E+03  0.20153382742E+04  0.20238129513E+04  0.46999998093E+01 0.  1.
</event>
<event>
 5   0  0.8699746E-02  0.5954698E+03  0.7818609E-02  0.9914850E-01
       -2   -1    0    0    0  501  0.00000000000E+00  0.00000000000E+00  0.71282144269E+02  0.71282144315E+02  0.25500000920E-02 0. -1.
        2   -1    0    0  501    0  0.00000000000E+00  0.00000000000E+00 -0.12435941970E+04  0.12435941970E+04  0.25500000920E-02 0.  1.
    10030    2    1    2    0    0  0.00000000000E+00  0.00000000000E+00 -0.11723120527E+04  0.13148763413E+04  0.59546976747E+03 0.  0.
        3    1    3    3  502    0 -0.28016259497E+03  0.59738724408E+02 -0.76535870506E+03  0.81721095956E+03  0.10100000352E+00 0. -1.
       -3    1    3    3    0  502  0.28016259497E+03 -0.59738724408E+02 -0.40695334764E+03  0.49766538172E+03  0.10100000352E+00 0.  1.
</event>
<event>
 5   0  0.5166903E-02  0.5647978E+03  0.7818609E-02  0.9981257E-01
        1   -1    0    0  501    0  0.00000000000E+00  0.00000000000E+00  0.24826605193E+03  0.24826605198E+03  0.50400001928E-02 0.  1.
       -1   -1    0    0    0  501  0.00000000000E+00  0.00000000000E+00 -0.32122448399E+03  0.32122448403E+03  0.50400001928E-02 0. -1.
    10030    2    1    2    0    0  0.00000000000E+00  0.00000000000E+00 -0.72958432069E+02  0.56949053601E+03  0.56479778487E+03 0.  0.
        2    1    3    3  502    0  0.15419549103E+03  0.15584871995E+03 -0.21595834374E+03  0.30773865406E+03  0.25500000920E-02 0. -1.
       -2    1    3    3    0  502 -0.15419549103E+03 -0.15584871995E+03  0.14299991167E+03  0.26175188196E+03  0.25500000920E-02 0.  1.
</event>
<event>
 5   0  0.5166903E-02  0.6028077E+03  0.7818609E-02  0.9899598E-01
        1   -1    0    0  501    0  0.00000000000E+00  0.00000000000E+00  0.22598957031E+03  0.22598957037E+03  0.50400001928E-02 0.  1.
       -1   -1    0    0    0  501  0.00000000000E+00  0.00000000000E+00 -0.40198435598E+03  0.40198435601E+03  0.50400001928E-02 0. -1.
    10030    2    1    2    0    0  0.00000000000E+00  0.00000000000E+00 -0.17599478567E+03  0.62797392638E+03  0.60280767051E+03 0.  0.
        2    1    3    3  502    0 -0.20084023032E+03 -0.17016564116E+03  0.64934424332E+02  0.27112658117E+03  0.25500000920E-02 0.  1.
       -2    1    3    3    0  502  0.20084023032E+03  0.17016564116E+03 -0.24092921000E+03  0.35684734521E+03  0.25500000920E-02 0. -1.
</event>
<event>
 5   0  0.3437375E-02  0.6032396E+03  0.7818609E-02  0.9898708E-01
       -3   -1    0    0    0  501  0.00000000000E+00  0.00000000000E+00  0.70465176917E+03  0.70465177640E+03  0.10100000352E+00 0. -1.
        3   -1    0    0  501    0  0.00000000000E+00  0.00000000000E+00 -0.12910557726E+03  0.12910561676E+03  0.10100000352E+00 0.  1.
    10030    2    1    2    0    0  0.00000000000E+00  0.00000000000E+00  0.57554619191E+03  0.83375739317E+03  0.60323956405E+03 0.  0.
        4    1    3    3  502    0 -0.11553748591E+03 -0.17872245351E+03 -0.76358496418E+01  0.21295667432E+03  0.12699999809E+01 0.  1.
       -4    1    3    3    0  502  0.11553748591E+03  0.17872245351E+03  0.58318204155E+03  0.62080071885E+03  0.12699999809E+01 0. -1.
</event>
<event>
 5   0  0.5190380E-02  0.5958250E+03  0.7818609E-02  0.9914106E-01
        1   -1    0    0  501    0  0.00000000000E+00  0.00000000000E+00  0.17398136400E+03  0.17398136408E+03  0.50400001928E-02 0. -1.
       -1   -1    0    0    0  501  0.00000000000E+00  0.00000000000E+00 -0.51012279254E+03  0.51012279257E+03  0.50400001928E-02 0.  1.
    10030    2    1    2    0    0  0.00000000000E+00  0.00000000000E+00 -0.33614142854E+03  0.68410415664E+03  0.59582500548E+03 0.  0.
        5    1    3    3  502    0  0.19586662986E+03  0.19839342807E+03 -0.47617098254E+02  0.28286598777E+03  0.46999998093E+01 0.  1.
       -5    1    3    3    0  502 -0.19586662986E+03 -0.19839342807E+03 -0.28852433028E+03  0.40123816887E+03  0.46999998093E+01 0. -1.
</event>
<event>
 5   0  0.8420604E-02  0.6063198E+03  0.7818609E-02  0.9892381E-01
       -2   -1    0    0    0  501  0.00000000000E+00  0.00000000000E+00  0.10093549161E+03  0.10093549165E+03  0.25500000920E-02 0. -1.
        2   -1    0    0  501    0  0.00000000000E+00  0.00000000000E+00 -0.91054123387E+03  0.91054123387E+03  0.25500000920E-02 0.  1.
    10030    2    1    2    0    0  0.00000000000E+00  0.00000000000E+00 -0.80960574226E+03  0.10114767255E+04  0.60631980701E+03 0.  0.
        2    1    3    3  502    0 -0.13519578855E+03 -0.10141089883E+03 -0.82466469187E+03  0.84180397104E+03  0.25500000920E-02 0.  1.
       -2    1    3    3    0  502  0.13519578855E+03  0.10141089883E+03  0.15058949611E+02  0.16967275448E+03  0.25500000920E-02 0. -1.
</event>
<event>
 5   0  0.8420604E-02  0.6115563E+03  0.7818609E-02  0.9881716E-01
        2   -1    0    0  501    0  0.00000000000E+00  0.00000000000E+00  0.92566663524E+03  0.92566663524E+03  0.25500000920E-02 0.  1.
       -2   -1    0    0    0  501  0.00000000000E+00  0.00000000000E+00 -0.10100858976E+03  0.10100858979E+03  0.25500000920E-02 0. -1.
    10030    2    1    2    0    0  0.00000000000E+00  0.00000000000E+00  0.82465804547E+03  0.10266752250E+04  0.61155631444E+03 0.  0.
        2    1    3    3  502    0 -0.19102603873E+03 -0.15189602419E+03  0.10306249731E+03  0.26492494786E+03  0.25500000920E-02 0. -1.
       -2    1    3    3    0  502  0.19102603873E+03  0.15189602419E+03  0.72159554817E+03  0.76175027718E+03  0.25500000920E-02 0.  1.
</event>
<event>
 5   0  0.4881209E-02  0.6089553E+03  0.7818609E-02  0.9886999E-01
        1   -1    0    0  501    0  0.00000000000E+00  0.00000000000E+00  0.57667551450E+03  0.57667551453E+03  0.50400001928E-02 0. -1.
       -1   -1    0    0    0  501  0.00000000000E+00  0.00000000000E+00 -0.16076049960E+03  0.16076049968E+03  0.50400001928E-02 0.  1.
    10030    2    1    2    0    0  0.00000000000E+00  0.00000000000E+00  0.41591501490E+03  0.73743601420E+03  0.60895531480E+03 0.  0.
        3    1    3    3  502    0  0.11474707177E+02  0.30161471712E+03  0.25645028710E+03  0.39606800735E+03  0.10100000352E+00 0. -1.
       -3    1    3    3    0  502 -0.11474707177E+02 -0.30161471712E+03  0.15946472781E+03  0.34136800686E+03  0.10100000352E+00 0.  1.
</event>
<event>
 5   0  0.8575590E-02  0.5932869E+03  0.7818609E-02  0.9919432E-01
       -2   -1    0    0    0  501  0.00000000000E+00  0.00000000000E+00  0.12067807102E+03  0.12067807105E+03  0.25500000920E-02 0. -1.
        2   -1    0    0  501    0  0.00000000000E+00  0.00000000000E+00 -0.72919089424E+03  0.72919089424E+03  0.25500000920E-02 0.  1.
    10030    2    1    2    0    0  0.00000000000E+00  0.00000000000E+00 -0.60851282322E+03  0.84986896529E+03  0.59328694756E+03 0.  0.
        4    1    3    3  502    0 -0.21681046579E+03  0.20213667231E+03 -0.28794094629E+03  0.41325248193E+03  0.12699999809E+01 0.  1.
       -4    1    3    3    0  502  0.21681046579E+03 -0.20213667231E+03 -0.32057187693E+03  0.43661648336E+03  0.12699999809E+01 0. -1.
</event>
<event>
 5   0  0.4987389E-02  0.5906122E+03  0.7818609E-02  0.9925076E-01
       -1   -1    0    0    0  501  0.00000000000E+00  0.00000000000E+00  0.17071392680E+03  0.17071392688E+03  0.50400001928E-02 0. -1.
        1   -1    0    0  501    0  0.00000000000E+00  0.00000000000E+00 -0.51082946922E+03  0.51082946924E+03  0.50400001928E-02 0.  1.
    10030    2    1    2    0    0  0.00000000000E+00  0.00000000000E+00 -0.34011554241E+03  0.68154339611E+03  0.59061224047E+03 0.  0.
        1    1    3    3  502    0  0.25984526857E+03  0.59193698473E+02 -0.23263034409E+02  0.26751565623E+03  0.50400001928E-02 0. -1.
       -1    1    3    3    0  502 -0.25984526857E+03 -0.59193698473E+02 -0.31685250801E+03  0.41402773988E+03  0.50400001928E-02 0.  1.
</event>
<event>
 5   0  0.8420604E-02  0.6049630E+03  0.7818609E-02  0.9895163E-01
       -2   -1    0    0    0  501  0.00000000000E+00  0.00000000000E+00  0.42088992792E+03  0.42088992793E+03  0.25500000920E-02 0. -1.
        2   -1    0    0  501    0  0.00000000000E+00  0.00000000000E+00 -0.21738478506E+03  0.21738478508E+03  0.25500000920E-02 0.  1.
    10030    2    1    2    0    0  0.00000000000E+00  0.00000000000E+00  0.20350514286E+03  0.63827471300E+03  0.60496302870E+03 0.  0.
        2    1    3    3  502    0 -0.14497334631E+03  0.24341927904E+03 -0.10028708248E+02  0.28349742776E+03  0.25500000920E-02 0.  1.
       -2    1    3    3    0  502  0.14497334631E+03 -0.24341927904E+03  0.21353385110E+03  0.35477728524E+03  0.25500000920E-02 0. -1.
</event>
<event>
 5   0  0.4881209E-02  0.6052915E+03  0.7818609E-02  0.9894488E-01
       -1   -1    0    0    0  501  0.00000000000E+00  0.00000000000E+00  0.19823222908E+03  0.19823222915E+03  0.50400001928E-02 0. -1.
        1   -1    0    0  501    0  0.00000000000E+00  0.00000000000E+00 -0.46205626759E+03  0.46205626762E+03  0.50400001928E-02 0.  1.
    10030    2    1    2    0    0  0.00000000000E+00  0.00000000000E+00 -0.26382403851E+03  0.66028849677E+03  0.60529147992E+03 0.  0.
        3    1    3    3  502    0  0.11380744837E+03 -0.11706500565E+03 -0.40989544453E+03  0.44121495498E+03  0.10100000352E+00 0.  1.
       -3    1    3    3    0  502 -0.11380744837E+03  0.11706500565E+03  0.14607140602E+03  0.21907354179E+03  0.10100000352E+00 0. -1.
</event>
<event>
 5   0  0.3437375E-02  0.6008217E+03  0.7818609E-02  0.9903703E-01
        3   -1    0    0  501    0  0.00000000000E+00  0.00000000000E+00  0.34011654072E+03  0.34011655572E+03  0.10100000352E+00 0.  1.
       -3   -1    0    0    0  501  0.00000000000E+00  0.00000000000E+00 -0.26534039435E+03  0.26534041358E+03  0.10100000352E+00 0. -1.
    10030    2    1    2    0    0  0.00000000000E+00  0.00000000000E+00  0.74776146367E+02  0.60545696929E+03  0.60082166206E+03 0.  0.
        4    1    3    3  502    0  0.23077148007E+03  0.11739941831E+03 -0.11612550018E+03  0.28376899782E+03  0.12699999809E+01 0. -1.
       -4    1    3    3    0  502 -0.23077148007E+03 -0.11739941831E+03  0.19090164654E+03  0.32168797147E+03  0.12699999809E+01 0.  1.
</event>
<event>
 5   0  0.8207443E-02  0.6024971E+03  0.7818609E-02  0.9900239E-01
        2   -1    0    0  501    0  0.00000000000E+00  0.00000000000E+00  0.47583101802E+03  0.47583101803E+03  0.25500000920E-02 0. -1.
       -2   -1    0    0    0  501  0.00000000000E+00  0.00000000000E+00 -0.19072042156E+03  0.19072042158E+03  0.25500000920E-02 0.  1.
    10030    2    1    2    0    0  0.00000000000E+00  0.00000000000E+00  0.28511059646E+03  0.66655143961E+03  0.60249711155E+03 0.  0.
        1    1    3    3  502    0  0.81645374595E+02  0.28966160810E+03  0.12767637536E+03  0.32691141193E+03  0.50400001928E-02 0.  1.
       -1    1    3    3    0  502 -0.81645374595E+02 -0.28966160810E+03  0.15743422110E+03  0.33964002767E+03  0.50400001928E-02 0. -1.
</event>
<event>
 5   0  0.8817544E-02  0.6072607E+03  0.7818609E-02  0.9890456E-01
       -2   -1    0    0    0  501  0.00000000000E+00  0.00000000000E+00  0.13240654401E+03  0.13240654403E+03  0.25500000920E-02 0. -1.
        2   -1    0    0  501    0  0.00000000000E+00  0.00000000000E+00 -0.69627527316E+03  0.69627527316E+03  0.25500000920E-02 0.  1.
    10030    2    1    2    0    0  0.00000000000E+00  0.00000000000E+00 -0.56386872915E+03  0.82868181719E+03  0.60726074337E+03 0.  0.
        5    1    3    3  502    0 -0.20934600808E+03 -0.22331642985E+02  0.16555949827E+02  0.21123598853E+03  0.46999998093E+01 0. -1.
       -5    1    3    3    0  502  0.20934600808E+03  0.22331642985E+02 -0.58042467898E+03  0.61744582867E+03  0.46999998093E+01 0.  1.
</event>
<event>
 5   0  0.4987389E-02  0.5945944E+03  0.7818609E-02  0.9916685E-01
       -1   -1    0    0    0  501  0.00000000000E+00  0.00000000000E+00  0.34967391649E+03  0.34967391652E+03  0.50400001928E-02 0. -1.
        1   -1    0    0  501    0  0.00000000000E+00  0.00000000000E+00 -0.25276583953E+03  0.25276583958E+03  0.50400001928E-02 0.  1.
    10030    2    1    2    0    0  0.00000000000E+00  0.00000000000E+00  0.96908076960E+02  0.60243975610E+03  0.59459438641E+03 0.  0.
        1    1    3    3  502    0  0.39443122575E+02  0.29275851360E+03  0.82397019571E+02  0.30667992445E+03  0.50400001928E-02 0. -1.
       -1    1    3    3    0  502 -0.39443122575E+02 -0.29275851360E+03  0.14511057388E+02  0.29575983165E+03  0.50400001928E-02 0.  1.
</event>
<event>
 5   0  0.5166903E-02  0.6020304E+03  0.7818609E-02  0.9901203E-01
       -1   -1    0    0    0  501  0.00000000000E+00  0.00000000000E+00  0.66930341810E+02  0.66930342000E+02  0.50400001928E-02 0. -1.
        1   -1    0    0  501    0  0.00000000000E+00  0.00000000000E+00 -0.13537976800E+04  0.13537976800E+04  0.50400001928E-02 0.  1.
    10030    2    1    2    0    0  0.00000000000E+00  0.00000000000E+00 -0.12868673382E+04  0.14207280220E+04  0.60203037001E+03 0.  0.
        2    1    3    3  502    0  0.30014128198E+03 -0.22860684096E+02 -0.63952623064E+03  0.70682473055E+03  0.25500000920E-02 0. -1.
       -2    1    3    3    0  502 -0.30014128198E+03  0.22860684096E+02 -0.64734110752E+03  0.71390329144E+03  0.25500000920E-02 0.  1.
</event>
<event>
 5   0  0.5125031E-02  0.6083944E+03  0.7818609E-02  0.9888142E-01
        1   -1    0    0  501    0  0.00000000000E+00  0.00000000000E+00  0.82472329725E+03  0.82472329726E+03  0.50400001928E-02 0.  1.
       -1   -1    0    0    0  501  0.00000000000E+00  0.00000000000E+00 -0.11220238645E+03  0.11220238657E+03  0.50400001928E-02 0. -1.
    10030    2    1    2    0    0  0.00000000000E+00  0.00000000000E+00  0.71252091080E+03  0.93692568383E+03  0.60839435295E+03 0.  0.
        4    1    3    3  502    0  0.12373814372E+03  0.16032605325E+03  0.67158718122E+01  0.20263831671E+03  0.12699999809E+01 0. -1.
       -4    1    3    3    0  502 -0.12373814372E+03 -0.16032605325E+03  0.70580503898E+03  0.73428736712E+03  0.12699999809E+01 0.  1.
</event>
<event>
 5   0  0.8420604E-02  0.6025607E+03  0.7818609E-02  0.9900108E-01
        2   -1    0    0  501    0  0.00000000000E+00  0.00000000000E+00  0.61326831703E+03  0.61326831703E+03  0.25500000920E-02 0.  1.
       -2   -1    0    0    0  501  0.00000000000E+00  0.00000000000E+00 -0.14801000814E+03  0.14801000816E+03  0.25500000920E-02 0. -1.
    10030    2    1    2    0    0  0.00000000000E+00  0.00000000000E+00  0.46525830889E+03  0.76127832520E+03  0.60256069771E+03 0.  0.
        2    1    3    3  502    0  0.25106926272E+03 -0.54856753402E+02  0.33969740574E+02  0.25922766318E+03  0.25500000920E-02 0. -1.
       -2    1    3    3    0  502 -0.25106926272E+03  0.54856753402E+02  0.43128856831E+03  0.50205066202E+03  0.25500000920E-02 0.  1.
</event>
<event>
 5   0  0.8420604E-02  0.6008817E+03  0.7818609E-02  0.9903579E-01
        2   -1    0    0  501    0  0.00000000000E+00  0.00000000000E+00  0.94821638378E+03  0.94821638378E+03  0.25500000920E-02 0. -1.
       -2   -1    0    0    0  501  0.00000000000E+00  0.00000000000E+00 -0.95194200396E+02  0.95194200430E+02  0.25500000920E-02 0.  1.
    10030    2    1    2    0    0  0.00000000000E+00  0.00000000000E+00  0.85302218338E+03  0.10434105842E+04  0.60088168711E+03 0.  0.
        2    1    3    3  502    0  0.21348800191E+03  0.16500971584E+03  0.65595710644E+03  0.70928489254E+03  0.25500000920E-02 0. -1.
       -2    1    3    3    0  502 -0.21348800191E+03 -0.16500971584E+03  0.19706507694E+03  0.33412569168E+03  0.25500000920E-02 0.  1.
</event>
<event>
 5   0  0.8575590E-02  0.6013611E+03  0.7818609E-02  0.9902586E-01
        2   -1    0    0  501    0  0.00000000000E+00  0.00000000000E+00  0.22573893699E+03  0.22573893700E+03  0.25500000920E-02 0. -1.
       -2   -1    0    0    0  501  0.00000000000E+00  0.00000000000E+00 -0.40050153586E+03  0.40050153587E+03  0.25500000920E-02 0.  1.
    10030    2    1    2    0    0  0.00000000000E+00  0.00000000000E+00 -0.17476259887E+03  0.62624047287E+03  0.60136109277E+03 0.  0.
        4    1    3    3  502    0 -0.16809698935E+03  0.74152016461E+02 -0.33524541342E+03  0.38229075256E+03  0.12699999809E+01 0.  1.
       -4    1    3    3    0  502  0.16809698935E+03 -0.74152016461E+02  0.16048281455E+03  0.24394972031E+03  0.12699999809E+01 0. -1.
</event>
<event>
 5   0  0.3437375E-02  0.5872482E+03  0.7818609E-02  0.9932221E-01
        3   -1    0    0  501    0  0.00000000000E+00  0.00000000000E+00  0.22752748416E+03  0.22752750658E+03  0.10100000352E+00 0. -1.
       -3   -1    0    0    0  501  0.00000000000E+00  0.00000000000E+00 -0.37892170833E+03  0.37892172179E+03  0.10100000352E+00 0.  1.
    10030    2    1    2    0    0  0.00000000000E+00  0.00000000000E+00 -0.15139422417E+03  0.60644922837E+03  0.58724820603E+03 0.  0.
        1    1    3    3  502    0 -0.20028896001E+03  0.16395624071E+03 -0.21885805667E+03  0.33896336876E+03  0.50400001928E-02 0.  1.
       -1    1    3    3    0  502  0.20028896001E+03 -0.16395624071E+03  0.67463832502E+02  0.26748585961E+03  0.50400001928E-02 0. -1.
</event>
<event>
 5   0  0.8817544E-02  0.6103369E+03  0.7818609E-02  0.9884189E-01
        2   -1    0    0  501    0  0.00000000000E+00  0.00000000000E+00  0.16599234415E+04  0.16599234415E+04  0.25500000920E-02 0.  1.
       -2   -1    0    0    0  501  0.00000000000E+00  0.00000000000E+00 -0.56103659321E+02  0.56103659379E+02  0.25500000920E-02 0. -1.
    10030    2    1    2    0    0  0.00000000000E+00  0.00000000000E+00  0.16038197822E+04  0.17160271009E+04  0.61033688833E+03 0.  0.
        5    1    3    3  502    0 -0.15871433564E+03  0.20253545463E+03  0.34081639727E+03  0.42706996777E+03  0.46999998093E+01 0. -1.
       -5    1    3    3    0  502  0.15871433564E+03 -0.20253545463E+03  0.12630033849E+04  0.12889571331E+04  0.46999998093E+01 0.  1.
</event>
<event>
 5   0  0.8420604E-02  0.5983184E+03  0.7818609E-02  0.9908901E-01
       -2   -1    0    0    0  501  0.00000000000E+00  0.00000000000E+00  0.22422703510E+03  0.22422703511E+03  0.25500000920E-02 0.  1.
        2   -1    0    0  501    0  0.00000000000E+00  0.00000000000E+00 -0.39913220260E+03  0.39913220261E+03  0.25500000920E-02 0. -1.
    10030    2    1    2    0    0  0.00000000000E+00  0.00000000000E+00 -0.17490516750E+03  0.62335923772E+03  0.59831841157E+03 0.  0.
        2    1    3    3  502    0  0.34719049988E+02 -0.26632960964E+03  0.49816536349E+02  0.27316398134E+03  0.25500000920E-02 0.  1.
       -2    1    3    3    0  502 -0.34719049988E+02  0.26632960964E+03 -0.22472170385E+03  0.35019525638E+03  0.25500000920E-02 0. -1.
</event>
<event>
 5   0  0.8207443E-02  0.6126728E+03  0.7818609E-02  0.9879457E-01
        2   -1    0    0  501    0  0.00000000000E+00  0.00000000000E+00  0.41439595520E+03  0.41439595521E+03  0.25500000920E-02 0. -1.
       -2   -1    0    0    0  501  0.00000000000E+00  0.00000000000E+00 -0.22645489251E+03  0.22645489253E+03  0.25500000920E-02 0.  1.
    10030    2    1    2    0    0  0.00000000000E+00  0.00000000000E+00  0.18794106269E+03  0.64085084774E+03  0.61267280501E+03 0.  0.
        1    1    3    3  502    0 -0.18181192302E+03 -0.20691833810E+03 -0.46251776139E+02  0.27930270464E+03  0.50400001928E-02 0.  1.
       -1    1    3    3    0  502  0.18181192302E+03  0.20691833810E+03  0.23419283883E+03  0.36154814310E+03  0.50400001928E-02 0. -1.
</event>
<event>
 5   0  0.8575590E-02  0.6011880E+03  0.7818609E-02  0.9902944E-01
       -2   -1    0    0    0  501  0.00000000000E+00  0.00000000000E+00  0.14361175498E+03  0.14361175500E+03  0.25500000920E-02 0. -1.
        2   -1    0    0  501    0  0.00000000000E+00  0.00000000000E+00 -0.62917381369E+03  0.62917381369E+03  0.25500000920E-02 0.  1.
    10030    2    1    2    0    0  0.00000000000E+00  0.00000000000E+00 -0.48556205871E+03  0.77278556869E+03  0.60118800912E+03 0.  0.
        4    1    3    3  502    0  0.16148649340E+03 -0.24498571195E+03 -0.32667206753E+03  0.43910379093E+03  0.12699999809E+01 0.  1.
       -4    1    3    3    0  502 -0.16148649340E+03  0.24498571195E+03 -0.15888999118E+03  0.33368177776E+03  0.12699999809E+01 0. -1.
</event>
<event>
 5   0  0.8575590E-02  0.6000943E+03  0.7818609E-02  0.9905210E-01
        2   -1    0    0  501    0  0.00000000000E+00  0.00000000000E+00  0.96841608338E+03  0.96841608338E+03  0.25500000920E-02 0. -1.
       -2   -1    0    0    0  501  0.00000000000E+00  0.00000000000E+00 -0.92964472559E+02  0.92964472594E+02  0.25500000920E-02 0.  1.
    10030    2    1    2    0    0  0.00000000000E+00  0.00000000000E+00  0.87545161082E+03  0.10613805560E+04  0.60009429402E+03 0.  0.
        4    1    3    3  502    0 -0.15957272412E+03  0.24240156632E+03  0.57247980529E+03  0.64183854201E+03  0.12699999809E+01 0. -1.
       -4    1    3    3    0  502  0.15957272412E+03 -0.24240156632E+03  0.30297180553E+03  0.41954201397E+03  0.12699999809E+01 0.  1.
</event>
<event>
 5   0  0.8817544E-02  0.5990229E+03  0.7818609E-02  0.9907435E-01
        2   -1    0    0  501    0  0.00000000000E+00  0.00000000000E+00  0.67402620279E+03  0.67402620279E+03  0.25500000920E-02 0.  1.
       -2   -1    0    0    0  501  0.00000000000E+00  0.00000000000E+00 -0.13309142748E+03  0.13309142751E+03  0.25500000920E-02 0. -1.
    10030    2    1    2    0    0  0.00000000000E+00  0.00000000000E+00  0.54093477531E+03  0.80711763030E+03  0.59902290274E+03 0.  0.
        5    1    3    3  502    0  0.50356291013E+02  0.48235656137E+02  0.66288560294E+03  0.66655971012E+03  0.46999998093E+01 0.  1.
       -5    1    3    3    0  502 -0.50356291013E+02 -0.48235656137E+02 -0.12195082763E+03  0.14055792018E+03  0.46999998093E+01 0. -1.
</event>
<event>
 5   0  0.5166903E-02  0.5978679E+03  0.7818609E-02  0.9909839E-01
        1   -1    0    0  501    0  0.00000000000E+00  0.00000000000E+00  0.40756349022E+03  0.40756349025E+03  0.50400001928E-02 0.  1.
       -1   -1    0    0    0  501  0.00000000000E+00  0.00000000000E+00 -0.21925791142E+03  0.21925791147E+03  0.50400001928E-02 0. -1.
    10030    2    1    2    0    0  0.00000000000E+00  0.00000000000E+00  0.18830557881E+03  0.62682140173E+03  0.59786794416E+03 0.  0.
        2    1    3    3  502    0  0.69425663141E+01  0.10470076170E+03  0.38762096774E+03  0.40157248830E+03  0.25500000920E-02 0.  1.
       -2    1    3    3    0  502 -0.69425663141E+01 -0.10470076170E+03 -0.19931538893E+03  0.22524891342E+03  0.25500000920E-02 0. -1.
</event>
<event>
 5   0  0.8817544E-02  0.6058849E+03  0.7818609E-02  0.9893271E-01
       -2   -1    0    0    0  501  0.00000000000E+00  0.00000000000E+00  0.40817296463E+03  0.40817296464E+03  0.25500000920E-02 0.  1.
        2   -1    0    0  501    0  0.00000000000E+00  0.00000000000E+00 -0.22484126505E+03  0.22484126507E+03  0.25500000920E-02 0. -1.
    10030    2    1    2    0    0  0.00000000000E+00  0.00000000000E+00  0.18333169958E+03  0.63301422970E+03  0.60588489248E+03 0.  0.
        5    1    3    3  502    0 -0.13269916294E+03 -0.87715868239E+02  0.36098499576E+03  0.39450652536E+03  0.46999998093E+01 0.  1.
       -5    1    3    3    0  502  0.13269916294E+03  0.87715868239E+02 -0.17765329619E+03  0.23850770434E+03  0.46999998093E+01 0. -1.
</event>
<event>
 5   0  0.8699746E-02  0.5944590E+03  0.7818609E-02  0.9916969E-01
        2   -1    0    0  501    0  0.00000000000E+00  0.00000000000E+00  0.51683276385E+03  0.51683276386E+03  0.25500000920E-02 0.  1.
       -2   -1    0    0    0  501  0.00000000000E+00  0.00000000000E+00 -0.17093607647E+03  0.17093607649E+03  0.25500000920E-02 0. -1.
    10030    2    1    2    0    0  0.00000000000E+00  0.00000000000E+00  0.34589668738E+03  0.68776884034E+03  0.59445896360E+03 0.  0.
        3    1    3    3  502    0  0.17403503451E+03  0.11967191069E+03 -0.69009179229E+02  0.22219774180E+03  0.10100000352E+00 0. -1.
       -3    1    3    3    0  502 -0.17403503451E+03 -0.11967191069E+03  0.41490586661E+03  0.46557109854E+03  0.10100000352E+00 0.  1.
</event>
<event>
 5   0  0.3437375E-02  0.5980965E+03  0.7818609E-02  0.9909363E-01
        4   -1    0    0  501    0  0.00000000000E+00  0.00000000000E+00  0.27103465138E+03  0.27103762682E+03  0.12699999809E+01 0.  1.
       -4   -1    0    0    0  501  0.00000000000E+00  0.00000000000E+00 -0.32995130074E+03  0.32995374488E+03  0.12699999809E+01 0. -1.
    10030    2    1    2    0    0  0.00000000000E+00  0.00000000000E+00 -0.58916649362E+02  0.60099137170E+03  0.59809652840E+03 0.  0.
        2    1    3    3  502    0  0.21104531810E+03  0.91629411141E+02  0.16249977148E+03  0.28167756570E+03  0.25500000920E-02 0.  1.
       -2    1    3    3    0  502 -0.21104531810E+03 -0.91629411141E+02 -0.22141642084E+03  0.31931380600E+03  0.25500000920E-02 0. -1.
</event>
<event>
 5   0  0.5125031E-02  0.5983581E+03  0.7818609E-02  0.9908818E-01
       -1   -1    0    0    0  501  0.00000000000E+00  0.00000000000E+00  0.12400433587E+03  0.12400433597E+03  0.50400001928E-02 0.  1.
        1   -1    0    0  501    0  0.00000000000E+00  0.00000000000E+00 -0.72181419096E+03  0.72181419098E+03  0.50400001928E-02 0. -1.
    10030    2    1    2    0    0  0.00000000000E+00  0.00000000000E+00 -0.59780985510E+03  0.84581852695E+03  0.59835805141E+03 0.  0.
        4    1    3    3  502    0 -0.24882632351E+03  0.25923415085E+02 -0.53083276954E+03  0.58683183693E+03  0.12699999809E+01 0. -1.
       -4    1    3    3    0  502  0.24882632351E+03 -0.25923415085E+02 -0.66977085559E+02  0.25898669002E+03  0.12699999809E+01 0.  1.
</event>
<event>
 5   0  0.5190380E-02  0.5992082E+03  0.7818609E-02  0.9907050E-01
       -1   -1    0    0    0  501  0.00000000000E+00  0.00000000000E+00  0.17482948541E+03  0.17482948548E+03  0.50400001928E-02 0.  1.
        1   -1    0    0  501    0  0.00000000000E+00  0.00000000000E+00 -0.51342943643E+03  0.51342943645E+03  0.50400001928E-02 0. -1.
    10030    2    1    2    0    0  0.00000000000E+00  0.00000000000E+00 -0.33859995102E+03  0.68825892193E+03  0.59920815815E+03 0.  0.
        5    1    3    3  502    0 -0.17812059943E+02 -0.29888433057E+03 -0.18028121008E+03  0.34953185441E+03  0.46999998093E+01 0. -1.
       -5    1    3    3    0  502  0.17812059943E+02  0.29888433057E+03 -0.15831874094E+03  0.33872706753E+03  0.46999998093E+01 0.  1.
</event>
<event>
 5   0  0.4881209E-02  0.5837235E+03  0.7818609E-02  0.9939762E-01
        1   -1    0    0  501    0  0.00000000000E+00  0.00000000000E+00  0.28557203852E+03  0.28557203856E+03  0.50400001928E-02 0. -1.
       -1   -1    0    0    0  501  0.00000000000E+00  0.00000000000E+00 -0.29828995059E+03  0.29828995064E+03  0.50400001928E-02 0.  1.
    10030    2    1    2    0    0  0.00000000000E+00  0.00000000000E+00 -0.12717912075E+02  0.58386198920E+03  0.58372345948E+03 0.  0.
        3    1    3    3  502    0 -0.23028214696E+03  0.16179811850E+03 -0.83673876547E+02  0.29361509868E+03  0.10100000352E+00 0.  1.
       -3    1    3    3    0  502  0.23028214696E+03 -0.16179811850E+03  0.70955964472E+02  0.29024689051E+03  0.10100000352E+00 0. -1.
</event>
<event>
 5   0  0.3437375E-02  0.5939346E+03  0.7818609E-02  0.9918070E-01
       -3   -1    0    0    0  501  0.00000000000E+00  0.00000000000E+00  0.83147347878E+02  0.83147409221E+02  0.10100000352E+00 0. -1.
        3   -1    0    0  501    0  0.00000000000E+00  0.00000000000E+00 -0.10606416485E+04  0.10606416533E+04  0.10100000352E+00 0.  1.
    10030    2    1    2    0    0  0.00000000000E+00  0.00000000000E+00 -0.97749430063E+03  0.11437890625E+04  0.59393460231E+03 0.  0.
        3    1    3    3  502    0  0.46412363403E+02  0.15051751026E+03 -0.97357015779E+03  0.98622943107E+03  0.10100000352E+00 0.  1.
       -3    1    3    3    0  502 -0.46412363403E+02 -0.15051751026E+03 -0.39241428439E+01  0.15755963147E+03  0.10100000352E+00 0. -1.
</event>
<event>
 5   0  0.3437375E-02  0.5489245E+03  0.7818609E-02  0.1001743E+00
       -3   -1    0    0    0  501  0.00000000000E+00  0.00000000000E+00  0.53641223228E+03  0.53641224178E+03  0.10100000352E+00 0.  1.
        3   -1    0    0  501    0  0.00000000000E+00  0.00000000000E+00 -0.14043214495E+03  0.14043218127E+03  0.10100000352E+00 0. -1.
    10030    2    1    2    0    0  0.00000000000E+00  0.00000000000E+00  0.39598008732E+03  0.67684442306E+03  0.54892453349E+03 0.  0.
        2    1    3    3  502    0  0.92433103932E+02  0.19477682226E+03  0.40741643453E+03  0.46094472589E+03  0.25500000920E-02 0.  1.
       -2    1    3    3    0  502 -0.92433103932E+02 -0.19477682226E+03 -0.11436347209E+02  0.21589969717E+03  0.25500000920E-02 0. -1.
</event>
<event>
 5   0  0.8207443E-02  0.5935341E+03  0.7818609E-02  0.9918912E-01
        2   -1    0    0  501    0  0.00000000000E+00  0.00000000000E+00  0.49227507727E+03  0.49227507727E+03  0.25500000920E-02 0.  1.
       -2   -1    0    0    0  501  0.00000000000E+00  0.00000000000E+00 -0.17890542599E+03  0.17890542600E+03  0.25500000920E-02 0. -1.
    10030    2    1    2    0    0  0.00000000000E+00  0.00000000000E+00  0.31336965128E+03  0.67118050328E+03  0.59353410149E+03 0.  0.
        1    1    3    3  502    0  0.84746352624E+02  0.40973558656E+02 -0.16157616033E+03  0.18699634329E+03  0.50400001928E-02 0. -1.
       -1    1    3    3    0  502 -0.84746352624E+02 -0.40973558656E+02  0.47494581161E+03  0.48418415999E+03  0.50400001928E-02 0.  1.
</event>
<event>
 5   0  0.8207443E-02  0.6006279E+03  0.7818609E-02  0.9904104E-01
       -2   -1    0    0    0  501  0.00000000000E+00  0.00000000000E+00  0.92994511945E+02  0.92994511980E+02  0.25500000920E-02 0. -1.
        2   -1    0    0  501    0  0.00000000000E+00  0.00000000000E+00 -0.96982564411E+03  0.96982564411E+03  0.25500000920E-02 0.  1.
    10030    2    1    2    0    0  0.00000000000E+00  0.00000000000E+00 -0.87683113216E+03  0.10628201561E+04  0.60062787969E+03 0.  0.
        1    1    3    3  502    0 -0.74231356438E+02  0.24289250920E+03 -0.72198774370E+03  0.76535832614E+03  0.50400001928E-02 0.  1.
       -1    1    3    3    0  502  0.74231356438E+02 -0.24289250920E+03 -0.15484338846E+03  0.29746182996E+03  0.50400001928E-02 0. -1.
</event>
<event>
 5   0  0.5125031E-02  0.6048344E+03  0.7818609E-02  0.9895427E-01
        1   -1    0    0  501    0  0.00000000000E+00  0.00000000000E+00  0.33819511488E+03  0.33819511492E+03  0.50400001928E-02 0.  1.
       -1   -1    0    0    0  501  0.00000000000E+00  0.00000000000E+00 -0.27042425828E+03  0.27042425833E+03  0.50400001928E-02 0. -1.
    10030    2    1    2    0    0  0.00000000000E+00  0.00000000000E+00  0.67770856602E+02  0.60861937324E+03  0.60483440088E+03 0.  0.
        4    1    3    3  502    0 -0.61056166353E+00  0.85693564884E+02  0.32571892923E+03  0.33680586931E+03  0.12699999809E+01 0.  1.
       -4    1    3    3    0  502  0.61056166353E+00 -0.85693564884E+02 -0.25794807262E+03  0.27181350393E+03  0.12699999809E+01 0. -1.
</event>
<event>
 5   0  0.8420604E-02  0.6023957E+03  0.7818609E-02  0.9900448E-01
       -2   -1    0    0    0  501  0.00000000000E+00  0.00000000000E+00  0.12615461548E+03  0.12615461551E+03  0.25500000920E-02 0. -1.
        2   -1    0    0  501    0  0.00000000000E+00  0.00000000000E+00 -0.71911883295E+03  0.71911883295E+03  0.25500000920E-02 0.  1.
    10030    2    1    2    0    0  0.00000000000E+00  0.00000000000E+00 -0.59296421746E+03  0.84527344846E+03  0.60239574989E+03 0.  0.
        2    1    3    3  502    0 -0.46211578987E+02 -0.17810163095E+03  0.38125477856E+02  0.18790756517E+03  0.25500000920E-02 0. -1.
       -2    1    3    3    0  502  0.46211578987E+02  0.17810163095E+03 -0.63108969532E+03  0.65736588330E+03  0.25500000920E-02 0.  1.
</event>
<event>
 5   0  0.5190380E-02  0.5695744E+03  0.7818609E-02  0.9970621E-01
       -1   -1    0    0    0  501  0.00000000000E+00  0.00000000000E+00  0.83158484124E+02  0.83158484277E+02  0.50400001928E-02 0.  1.
        1   -1    0    0  501    0  0.00000000000E+00  0.00000000000E+00 -0.97529132838E+03  0.97529132839E+03  0.50400001928E-02 0. -1.
    10030    2    1    2    0    0  0.00000000000E+00  0.00000000000E+00 -0.89213284425E+03  0.10584498127E+04  0.56957439737E+03 0.  0.
        5    1    3    3  502    0 -0.38182591647E+02  0.25828994127E+02  0.76106156369E+02  0.89102661453E+02  0.46999998093E+01 0.  1.
       -5    1    3    3    0  502  0.38182591647E+02 -0.25828994127E+02 -0.96823900062E+03  0.96934715122E+03  0.46999998093E+01 0. -1.
</event>
<event>
 5   0  0.8817544E-02  0.6079211E+03  0.7818609E-02  0.9889107E-01
        2   -1    0    0  501    0  0.00000000000E+00  0.00000000000E+00  0.39319105410E+03  0.39319105411E+03  0.25500000920E-02 0.  1.
       -2   -1    0    0    0  501  0.00000000000E+00  0.00000000000E+00 -0.23497998415E+03  0.23497998416E+03  0.25500000920E-02 0. -1.
    10030    2    1    2    0    0  0.00000000000E+00  0.00000000000E+00  0.15821106995E+03  0.62817103828E+03  0.60792113853E+03 0.  0.
        5    1    3    3  502    0 -0.30053304775E+03  0.45236556405E+02  0.81032829724E+02  0.31457092732E+03  0.46999998093E+01 0. -1.
       -5    1    3    3    0  502  0.30053304775E+03 -0.45236556405E+02  0.77178240229E+02  0.31360011095E+03  0.46999998093E+01 0.  1.
</event>
<event>
 5   0  0.8817544E-02  0.6056025E+03  0.7818609E-02  0.9893850E-01
       -2   -1    0    0    0  501  0.00000000000E+00  0.00000000000E+00  0.10134322755E+03  0.10134322758E+03  0.25500000920E-02 0. -1.
        2   -1    0    0  501    0  0.00000000000E+00  0.00000000000E+00 -0.90473332244E+03  0.90473332244E+03  0.25500000920E-02 0.  1.
    10030    2    1    2    0    0  0.00000000000E+00  0.00000000000E+00 -0.80339009489E+03  0.10060765500E+04  0.60560249334E+03 0.  0.
        5    1    3    3  502    0  0.17805729166E+03 -0.21286332553E+03 -0.60278094241E+03  0.66361295120E+03  0.46999998093E+01 0.  1.
       -5    1    3    3    0  502 -0.17805729166E+03  0.21286332553E+03 -0.20060915248E+03  0.34246359883E+03  0.46999998093E+01 0. -1.
</event>
<event>
 5   0  0.4987389E-02  0.5979467E+03  0.7818609E-02  0.9909675E-01
        1   -1    0    0  501    0  0.00000000000E+00  0.00000000000E+00  0.70377757373E+03  0.70377757375E+03  0.50400001928E-02 0. -1.
       -1   -1    0    0    0  501  0.00000000000E+00  0.00000000000E+00 -0.12700755578E+03  0.12700755588E+03  0.50400001928E-02 0.  1.
    10030    2    1    2    0    0  0.00000000000E+00  0.00000000000E+00  0.57677001795E+03  0.83078512964E+03  0.59794671838E+03 0.  0.
        1    1    3    3  502    0 -0.11223527493E+03  0.18496914907E+03  0.17018636234E+01  0.21636367396E+03  0.50400001928E-02 0.  1.
       -1    1    3    3    0  502  0.11223527493E+03 -0.18496914907E+03  0.57506815433E+03  0.61442145567E+03  0.50400001928E-02 0. -1.
</event>
<event>
 5   0  0.5166903E-02  0.6007796E+03  0.7818609E-02  0.9903790E-01
        1   -1    0    0  501    0  0.00000000000E+00  0.00000000000E+00  0.13469918675E+04  0.13469918675E+04  0.50400001928E-02 0.  1.
       -1   -1    0    0    0  501  0.00000000000E+00  0.00000000000E+00 -0.66989297894E+02  0.66989298084E+02  0.50400001928E-02 0. -1.
    10030    2    1    2    0    0  0.00000000000E+00  0.00000000000E+00  0.12800025696E+04  0.14139811655E+04  0.60077962552E+03 0.  0.
        2    1    3    3  502    0 -0.12349642066E+03  0.59275732168E+02  0.12691994792E+04  0.12765705215E+04  0.25500000920E-02 0.  1.
       -2    1    3    3    0  502  0.12349642066E+03 -0.59275732168E+02  0.10803090389E+02  0.13741064408E+03  0.25500000920E-02 0. -1.
</event>
<event>
 5   0  0.8699746E-02  0.5965537E+03  0.7818609E-02  0.9912582E-01
       -2   -1    0    0    0  501  0.00000000000E+00  0.00000000000E+00  0.95499303431E+02  0.95499303465E+02  0.25500000920E-02 0. -1.
        2   -1    0    0  501    0  0.00000000000E+00  0.00000000000E+00 -0.93162006913E+03  0.93162006914E+03  0.25500000920E-02 0.  1.
    10030    2    1    2    0    0  0.00000000000E+00  0.00000000000E+00 -0.83612076570E+03  0.10271193726E+04  0.59655366124E+03 0.  0.
        3    1    3    3  502    0 -0.24857097558E+03  0.52349716767E+01 -0.13434081298E+03  0.28259936140E+03  0.10100000352E+00 0. -1.
       -3    1    3    3    0  502  0.24857097558E+03 -0.52349716767E+01 -0.70177995273E+03  0.74452001120E+03  0.10100000352E+00 0.  1.
</event>
<event>
 5   0  0.8207443E-02  0.6065150E+03  0.7818609E-02  0.9891981E-01
        2   -1    0    0  501    0  0.00000000000E+00  0.00000000000E+00  0.33443698162E+03  0.33443698163E+03  0.25500000920E-02 0.  1.
       -2   -1    0    0    0  501  0.00000000000E+00  0.00000000000E+00 -0.27498488274E+03  0.27498488275E+03  0.25500000920E-02 0. -1.
    10030    2    1    2    0    0  0.00000000000E+00  0.00000000000E+00  0.59452098888E+02  0.60942186438E+03  0.60651500948E+03 0.  0.
        1    1    3    3  502    0  0.15426830400E+03 -0.11935837378E+03 -0.20359362001E+03  0.28194945140E+03  0.50400001928E-02 0. -1.
       -1    1    3    3    0  502 -0.15426830400E+03  0.11935837378E+03  0.26304571890E+03  0.32747241298E+03  0.50400001928E-02 0.  1.
</event>
<event>
 5   0  0.8817544E-02  0.5962290E+03  0.7818609E-02  0.9913261E-01
        2   -1    0    0  501    0  0.00000000000E+00  0.00000000000E+00  0.10473682679E+04  0.10473682679E+04  0.25500000920E-02 0.  1.
       -2   -1    0    0    0  501  0.00000000000E+00  0.00000000000E+00 -0.84852922097E+02  0.84852922135E+02  0.25500000920E-02 0. -1.
    10030    2    1    2    0    0  0.00000000000E+00  0.00000000000E+00  0.96251534581E+03  0.11322211900E+04  0.59622900992E+03 0.  0.
        5    1    3    3  502    0 -0.98931705124E+02  0.13537804531E+03  0.13264652462E+02  0.16826389522E+03  0.46999998093E+01 0. -1.
       -5    1    3    3    0  502  0.98931705124E+02 -0.13537804531E+03  0.94925069335E+03  0.96395729483E+03  0.46999998093E+01 0.  1.
</event>
<event>
 5   0  0.3437375E-02  0.6008863E+03  0.7818609E-02  0.9903569E-01
       -4   -1    0    0    0  501  0.00000000000E+00  0.00000000000E+00  0.10663323495E+03  0.10664079752E+03  0.12699999809E+01 0.  1.
        4   -1    0    0  501    0  0.00000000000E+00  0.00000000000E+00 -0.84647194024E+03  0.84647289296E+03  0.12699999809E+01 0. -1.
    10030    2    1    2    0    0  0.00000000000E+00  0.00000000000E+00 -0.73983870529E+03  0.95311369049E+03  0.60088634295E+03 0.  0.
        2    1    3    3  502    0  0.81508490644E+02 -0.12362630159E+03  0.44735443435E+02  0.15468793229E+03  0.25500000920E-02 0.  1.
       -2    1    3    3    0  502 -0.81508490644E+02  0.12362630159E+03 -0.78457414873E+03  0.79842575819E+03  0.25500000920E-02 0. -1.
</event>
<event>
 5   0  0.8699746E-02  0.5993332E+03  0.7818609E-02  0.9906790E-01
       -2   -1    0    0    0  501  0.00000000000E+00  0.00000000000E+00  0.59558289292E+03  0.59558289293E+03  0.25500000920E-02 0. -1.
        2   -1    0    0  501    0  0.00000000000E+00  0.00000000000E+00 -0.15077676227E+03  0.15077676229E+03  0.25500000920E-02 0.  1.
    10030    2    1    2    0    0  0.00000000000E+00  0.00000000000E+00  0.44480613065E+03  0.74635965521E+03  0.59933316366E+03 0.  0.
        3    1    3    3  502    0  0.52748140720E+02  0.29496595207E+03  0.22685336713E+03  0.37583206304E+03  0.10100000352E+00 0.  1.
       -3    1    3    3    0  502 -0.52748140720E+02 -0.29496595207E+03  0.21795276353E+03  0.37052759217E+03  0.10100000352E+00 0. -1.
</event>
<event>
 5   0  0.8575590E-02  0.6240072E+03  0.7818609E-02  0.9856814E-01
        2   -1    0    0  501    0  0.00000000000E+00  0.00000000000E+00  0.59271552445E+03  0.59271552446E+03  0.25500000920E-02 0. -1.
       -2   -1    0    0    0  501  0.00000000000E+00  0.00000000000E+00 -0.16423771657E+03  0.16423771659E+03  0.25500000920E-02 0.  1.
    10030    2    1    2    0    0  0.00000000000E+00  0.00000000000E+00  0.42847780788E+03  0.75695324105E+03  0.62400719330E+03 0.  0.
        4    1    3    3  502    0 -0.48081913369E+02  0.27691872661E+03  0.37855611390E+03  0.47148933796E+03  0.12699999809E+01 0. -1.
       -4    1    3    3    0  502  0.48081913369E+02 -0.27691872661E+03  0.49921693980E+02  0.28546390309E+03  0.12699999809E+01 0.  1.
</event>
<event>
 5   0  0.5190380E-02  0.5920905E+03  0.7818609E-02  0.9921953E-01
        1   -1    0    0  501    0  0.00000000000E+00  0.00000000000E+00  0.32153385887E+03  0.32153385891E+03  0.50400001928E-02 0. -1.
       -1   -1    0    0    0  501  0.00000000000E+00  0.00000000000E+00 -0.27257719120E+03  0.27257719124E+03  0.50400001928E-02 0.  1.
    10030    2    1    2    0    0  0.00000000000E+00  0.00000000000E+00  0.48956667670E+02  0.59411105015E+03  0.59209052062E+03 0.  0.
        5    1    3    3  502    0  0.18041668506E+03  0.13647772980E+03 -0.16707717991E+03  0.28127073261E+03  0.46999998093E+01 0.  1.
       -5    1    3    3    0  502 -0.18041668506E+03 -0.13647772980E+03  0.21603384759E+03  0.31284031754E+03  0.46999998093E+01 0. -1.
</event>
<event>
 5   0  0.8699746E-02  0.6194591E+03  0.7818609E-02  0.9865837E-01
        2   -1    0    0  501    0  0.00000000000E+00  0.00000000000E+00  0.18919198097E+04  0.18919198097E+04  0.25500000920E-02 0. -1.
       -2   -1    0    0    0  501  0.00000000000E+00  0.00000000000E+00 -0.50706376495E+02  0.50706376559E+02  0.25500000920E-02 0.  1.
    10030    2    1    2    0    0  0.00000000000E+00  0.00000000000E+00  0.18412134332E+04  0.19426261863E+04  0.61945911320E+03 0.  0.
        3    1    3    3  502    0 -0.21604608933E+03  0.19864609192E+03  0.12309951546E+04  0.12654980297E+04  0.10100000352E+00 0. -1.
       -3    1    3    3    0  502  0.21604608933E+03 -0.19864609192E+03  0.61021827865E+03  0.67712815652E+03  0.10100000352E+00 0.  1.
</event>
<event>
 5   0  0.8575590E-02  0.5385665E+03  0.7818609E-02  0.1004176E+00
       -2   -1    0    0    0  501  0.00000000000E+00  0.00000000000E+00  0.13480527715E+03  0.13480527717E+03  0.25500000920E-02 0.  1.
        2   -1    0    0  501    0  0.00000000000E+00  0.00000000000E+00 -0.53791272779E+03  0.53791272780E+03  0.25500000920E-02 0. -1.
    10030    2    1    2    0    0  0.00000000000E+00  0.00000000000E+00 -0.40310745064E+03  0.67271800496E+03  0.53856652090E+03 0.  0.
        4    1    3    3  502    0  0.24594851446E+02  0.17814324226E+03 -0.45190805200E+03  0.48637683111E+03  0.12699999809E+01 0. -1.
       -4    1    3    3    0  502 -0.24594851446E+02 -0.17814324226E+03  0.48800601356E+02  0.18634117385E+03  0.12699999809E+01 0.  1.
</event>
<event>
 5   0  0.8207443E-02  0.6096939E+03  0.7818609E-02  0.9885496E-01
        2   -1    0    0  501    0  0.00000000000E+00  0.00000000000E+00  0.91278554316E+03  0.91278554316E+03  0.25500000920E-02 0. -1.
       -2   -1    0    0    0  501  0.00000000000E+00  0.00000000000E+00 -0.10181105215E+03  0.10181105219E+03  0.25500000920E-02 0.  1.
    10030    2    1    2    0    0  0.00000000000E+00  0.00000000000E+00  0.81097449100E+03  0.10145965953E+04  0.60969387912E+03 0.  0.
        1    1    3    3  502    0 -0.22004983444E+02 -0.16765467796E+02 -0.99717911278E+02  0.10348411502E+03  0.50400001928E-02 0.  1.
       -1    1    3    3    0  502  0.22004983444E+02  0.16765467796E+02  0.91069240228E+03  0.91111248032E+03  0.50400001928E-02 0. -1.
</event>
<event>
 5   0  0.5125031E-02  0.5997626E+03  0.7818609E-02  0.9905899E-01
       -1   -1    0    0    0  501  0.00000000000E+00  0.00000000000E+00  0.82098186563E+02  0.82098186718E+02  0.50400001928E-02 0.  1.
        1   -1    0    0  501    0  0.00000000000E+00  0.00000000000E+00 -0.10953809773E+04  0.10953809773E+04  0.50400001928E-02 0. -1.
    10030    2    1    2    0    0  0.00000000000E+00  0.00000000000E+00 -0.10132827907E+04  0.11774791640E+04  0.59976259280E+03 0.  0.
        4    1    3    3  502    0 -0.28386853616E+02 -0.14950392374E+03 -0.10139408042E+04  0.10252974222E+04  0.12699999809E+01 0. -1.
       -4    1    3    3    0  502  0.28386853616E+02  0.14950392374E+03  0.65801342437E+00  0.15218174186E+03  0.12699999809E+01 0.  1.
</event>
<event>
 5   0  0.8699746E-02  0.5949604E+03  0.7818609E-02  0.9915917E-01
       -2   -1    0    0    0  501  0.00000000000E+00  0.00000000000E+00  0.64444625405E+02  0.64444625456E+02  0.25500000920E-02 0. -1.
        2   -1    0    0  501    0  0.00000000000E+00  0.00000000000E+00 -0.13731859586E+04  0.13731859586E+04  0.25500000920E-02 0.  1.
    10030    2    1    2    0    0  0.00000000000E+00  0.00000000000E+00 -0.13087413332E+04  0.14376305840E+04  0.59496035078E+03 0.  0.
        3    1    3    3  502    0  0.17139937491E+03  0.83799849749E+02 -0.10285949316E+03  0.21674927006E+03  0.10100000352E+00 0. -1.
       -3    1    3    3    0  502 -0.17139937491E+03 -0.83799849749E+02 -0.12058818400E+04  0.12208813140E+04  0.10100000352E+00 0.  1.
</event>
<event>
 5   0  0.8817544E-02  0.6096348E+03  0.7818609E-02  0.9885616E-01
        2   -1    0    0  501    0  0.00000000000E+00  0.00000000000E+00  0.15284089380E+04  0.15284089380E+04  0.25500000920E-02 0. -1.
       -2   -1    0    0    0  501  0.00000000000E+00  0.00000000000E+00 -0.60791097757E+02  0.60791097810E+02  0.25500000920E-02 0.  1.
    10030    2    1    2    0    0  0.00000000000E+00  0.00000000000E+00  0.14676178403E+04  0.15892000358E+04  0.60963483236E+03 0.  0.
        5    1    3    3  502    0 -0.21895660249E+03  0.20921543510E+03  0.64432005344E+03  0.71195752213E+03  0.46999998093E+01 0.  1.
       -5    1    3    3    0  502  0.21895660249E+03 -0.20921543510E+03  0.82329778682E+03  0.87724251370E+03  0.46999998093E+01 0. -1.
</event>
<event>
 5   0  0.4987389E-02  0.6001222E+03  0.7818609E-02  0.9905153E-01
        1   -1    0    0  501    0  0.00000000000E+00  0.00000000000E+00  0.62898387887E+03  0.62898387889E+03  0.50400001928E-02 0. -1.
       -1   -1    0    0    0  501  0.00000000000E+00  0.00000000000E+00 -0.14314620496E+03  0.14314620505E+03  0.50400001928E-02 0.  1.
    10030    2    1    2    0    0  0.00000000000E+00  0.00000000000E+00  0.48583767391E+03  0.77213008394E+03  0.60012217184E+03 0.  0.
        1    1    3    3  502    0  0.34264583191E+02 -0.24931033346E+03  0.45318188618E+03  0.51836620840E+03  0.50400001928E-02 0.  1.
       -1    1    3    3    0  502 -0.34264583191E+02  0.24931033346E+03  0.32655787732E+02  0.25376387554E+03  0.50400001928E-02 0. -1.
</event>
<event>
 5   0  0.5190380E-02  0.5933298E+03  0.7818609E-02  0.9919342E-01
       -1   -1    0    0    0  501  0.00000000000E+00  0.00000000000E+00  0.29178573827E+03  0.29178573831E+03  0.50400001928E-02 0. -1.
        1   -1    0    0  501    0  0.00000000000E+00  0.00000000000E+00 -0.30162563791E+03  0.30162563795E+03  0.50400001928E-02 0.  1.
    10030    2    1    2    0    0  0.00000000000E+00  0.00000000000E+00 -0.98398996411E+01  0.59341137626E+03  0.59332978844E+03 0.  0.
        5    1    3    3  502    0  0.28789787360E+03  0.31171926712E+02  0.59362481874E+02  0.29563976203E+03  0.46999998093E+01 0.  1.
       -5    1    3    3    0  502 -0.28789787360E+03 -0.31171926712E+02 -0.69202381515E+02  0.29777161424E+03  0.46999998093E+01 0. -1.
</event>
<event>
 5   0  0.5166903E-02  0.6038232E+03  0.7818609E-02  0.9897506E-01
       -1   -1    0    0    0  501  0.00000000000E+00  0.00000000000E+00  0.39189754533E+03  0.39189754536E+03  0.50400001928E-02 0.  1.
        1   -1    0    0  501    0  0.00000000000E+00  0.00000000000E+00 -0.23258789803E+03  0.23258789808E+03  0.50400001928E-02 0. -1.
    10030    2    1    2    0    0  0.00000000000E+00  0.00000000000E+00  0.15930964730E+03  0.62448544344E+03  0.60382324015E+03 0.  0.
        2    1    3    3  502    0  0.21972795804E+03 -0.19528824585E+03  0.15080391545E+03  0.33039324363E+03  0.25500000920E-02 0.  1.
       -2    1    3    3    0  502 -0.21972795804E+03  0.19528824585E+03  0.85057318518E+01  0.29409219982E+03  0.25500000920E-02 0. -1.
</event>
<event>
 5   0  0.8575590E-02  0.5956708E+03  0.7818609E-02  0.9914429E-01
       -2   -1    0    0    0  501  0.00000000000E+00  0.00000000000E+00  0.41087375344E+03  0.41087375345E+03  0.25500000920E-02 0.  1.
        2   -1    0    0  501    0  0.00000000000E+00  0.00000000000E+00 -0.21589584227E+03  0.21589584229E+03  0.25500000920E-02 0. -1.
    10030    2    1    2    0    0  0.00000000000E+00  0.00000000000E+00  0.19497791117E+03  0.62676959573E+03  0.59567083216E+03 0.  0.
        4    1    3    3  502    0 -0.41458687212E+01 -0.13190545417E+03  0.37842668022E+03  0.40077999236E+03  0.12699999809E+01 0.  1.
       -4    1    3    3    0  502  0.41458687212E+01  0.13190545417E+03 -0.18344876906E+03  0.22598960338E+03  0.12699999809E+01 0. -1.
</event>
<event>
 5   0  0.4881209E-02  0.5942503E+03  0.7818609E-02  0.9917407E-01
        1   -1    0    0  501    0  0.00000000000E+00  0.00000000000E+00  0.11654726998E+03  0.11654727008E+03  0.50400001928E-02 0.  1.
       -1   -1    0    0    0  501  0.00000000000E+00  0.00000000000E+00 -0.75748966755E+03  0.75748966757E+03  0.50400001928E-02 0. -1.
    10030    2    1    2    0    0  0.00000000000E+00  0.00000000000E+00 -0.64094239758E+03  0.87403693765E+03  0.59425029354E+03 0.  0.
        3    1    3    3  502    0  0.37017664759E+02 -0.27314255649E+03 -0.15730808106E+03  0.31736888039E+03  0.10100000352E+00 0.  1.
       -3    1    3    3    0  502 -0.37017664759E+02  0.27314255649E+03 -0.48363431652E+03  0.55666805727E+03  0.10100000352E+00 0. -1.
</event>
<event>
 5   0  0.8817544E-02  0.6050842E+03  0.7818609E-02  0.9894914E-01
       -2   -1    0    0    0  501  0.00000000000E+00  0.00000000000E+00  0.82134066464E+02  0.82134066504E+02  0.25500000920E-02 0.  1.
        2   -1    0    0  501    0  0.00000000000E+00  0.00000000000E+00 -0.11144186047E+04  0.11144186047E+04  0.25500000920E-02 0. -1.
    10030    2    1    2    0    0  0.00000000000E+00  0.00000000000E+00 -0.10322845383E+04  0.11965526712E+04  0.60508423141E+03 0.  0.
        5    1    3    3  502    0  0.29465269910E+02  0.29549349609E+03 -0.63017092168E+03  0.69665062182E+03  0.46999998093E+01 0.  1.
       -5    1    3    3    0  502 -0.29465269910E+02 -0.29549349609E+03 -0.40211361658E+03  0.49990204941E+03  0.46999998093E+01 0. -1.
</event>
<event>
 5   0  0.8420604E-02  0.6001739E+03  0.7818609E-02  0.9905045E-01
       -2   -1    0    0    0  501  0.00000000000E+00  0.00000000000E+00  0.23063658471E+03  0.23063658472E+03  0.25500000920E-02 0.  1.
        2   -1    0    0  501    0  0.00000000000E+00  0.00000000000E+00 -0.39045047422E+03  0.39045047423E+03  0.25500000920E-02 0. -1.
    10030    2    1    2    0    0  0.00000000000E+00  0.00000000000E+00 -0.15981388951E+03  0.62108705896E+03  0.60017385441E+03 0.  0.
        2    1    3    3  502    0 -0.15952436440E+03 -0.43730892358E+02  0.17920092571E+03  0.24387165798E+03  0.25500000920E-02 0.  1.
       -2    1    3    3    0  502  0.15952436440E+03  0.43730892358E+02 -0.33901481523E+03  0.37721540098E+03  0.25500000920E-02 0. -1.
</event>
<event>
 5   0  0.8817544E-02  0.6087771E+03  0.7818609E-02  0.9887362E-01
        2   -1    0    0  501    0  0.00000000000E+00  0.00000000000E+00  0.47056626613E+03  0.47056626614E+03  0.25500000920E-02 0.  1.
       -2   -1    0    0    0  501  0.00000000000E+00  0.00000000000E+00 -0.19689554439E+03  0.19689554441E+03  0.25500000920E-02 0. -1.
    10030    2    1    2    0    0  0.00000000000E+00  0.00000000000E+00  0.27367072174E+03  0.66746181054E+03  0.60877713870E+03 0.  0.
        5    1    3    3  502    0 -0.49873789257E+02 -0.71922035253E+02  0.45643129579E+03  0.46477068731E+03  0.46999998093E+01 0.  1.
       -5    1    3    3    0  502  0.49873789257E+02  0.71922035253E+02 -0.18276057405E+03  0.20269112323E+03  0.46999998093E+01 0. -1.
</event>
<event>
 5   0  0.4881209E-02  0.5976035E+03  0.7818609E-02  0.9910390E-01
        1   -1    0    0  501    0  0.00000000000E+00  0.00000000000E+00  0.16128314979E+04  0.16128314979E+04  0.50400001928E-02 0.  1.
       -1   -1    0    0    0  501  0.00000000000E+00  0.00000000000E+00 -0.55357608659E+02  0.55357608888E+02  0.50400001928E-02 0. -1.
    10030    2    1    2    0    0  0.00000000000E+00  0.00000000000E+00  0.15574738892E+04  0.16681891068E+04  0.59760353108E+03 0.  0.
        3    1    3    3  502    0  0.19612296701E+03  0.18899838343E+03  0.43574013663E+03  0.51386193087E+03  0.10100000352E+00 0. -1.
       -3    1    3    3    0  502 -0.19612296701E+03 -0.18899838343E+03  0.11217337526E+04  0.11543271759E+04  0.10100000352E+00 0.  1.
</event>
<event>
 5   0  0.5166903E-02  0.6316378E+03  0.7818609E-02  0.9841858E-01
        1   -1    0    0  501    0  0.00000000000E+00  0.00000000000E+00  0.43912000417E+03  0.43912000420E+03  0.50400001928E-02 0. -1.
       -1   -1    0    0    0  501  0.00000000000E+00  0.00000000000E+00 -0.22713969118E+03  0.22713969124E+03  0.50400001928E-02 0.  1.
    10030    2    1    2    0    0  0.00000000000E+00  0.00000000000E+00  0.21198031299E+03  0.66625969544E+03  0.63163781447E+03 0.  0.
        2    1    3    3  502    0  0.15895918957E+03 -0.11685742046E+03 -0.15414025936E+03  0.25036553322E+03  0.25500000920E-02 0.  1.
       -2    1    3    3    0  502 -0.15895918957E+03  0.11685742046E+03  0.36612057234E+03  0.41589416221E+03  0.25500000920E-02 0. -1.
</event>
<event>
 5   0  0.8699746E-02  0.5957189E+03  0.7818609E-02  0.9914328E-01
       -2   -1    0    0    0  501  0.00000000000E+00  0.00000000000E+00  0.25988570774E+03  0.25988570776E+03  0.25500000920E-02 0.  1.
        2   -1    0    0  501    0  0.00000000000E+00  0.00000000000E+00 -0.34138182632E+03  0.34138182632E+03  0.25500000920E-02 0. -1.
    10030    2    1    2    0    0  0.00000000000E+00  0.00000000000E+00 -0.81496118572E+02  0.60126753408E+03  0.59571891878E+03 0.  0.
        3    1    3    3  502    0 -0.14088406981E+03  0.57656172702E+02  0.21765941063E+03  0.26560908233E+03  0.10100000352E+00 0.  1.
       -3    1    3    3    0  502  0.14088406981E+03 -0.57656172702E+02 -0.29915552920E+03  0.33565845175E+03  0.10100000352E+00 0. -1.
</event>
<event>
 5   0  0.5166903E-02  0.5964897E+03  0.7818609E-02  0.9912716E-01
       -1   -1    0    0    0  501  0.00000000000E+00  0.00000000000E+00  0.68419451913E+02  0.68419452099E+02  0.50400001928E-02 0. -1.
        1   -1    0    0  501    0  0.00000000000E+00  0.00000000000E+00 -0.13000689466E+04  0.13000689466E+04  0.50400001928E-02 0.  1.
    10030    2    1    2    0    0  0.00000000000E+00  0.00000000000E+00 -0.12316494947E+04  0.13684883987E+04  0.59648974815E+03 0.  0.
        2    1    3    3  502    0  0.99239564311E+02  0.80967924952E+02  0.21119688898E+01  0.12809666824E+03  0.25500000920E-02 0. -1.
       -2    1    3    3    0  502 -0.99239564311E+02 -0.80967924952E+02 -0.12337614636E+04  0.12403917305E+04  0.25500000920E-02 0.  1.
</event>
<event>
 5   0  0.8575590E-02  0.5940918E+03  0.7818609E-02  0.9917740E-01
        2   -1    0    0  501    0  0.00000000000E+00  0.00000000000E+00  0.13577412539E+04  0.13577412539E+04  0.25500000920E-02 0.  1.
       -2   -1    0    0    0  501  0.00000000000E+00  0.00000000000E+00 -0.64987552094E+02  0.64987552144E+02  0.25500000920E-02 0. -1.
    10030    2    1    2    0    0  0.00000000000E+00  0.00000000000E+00  0.12927537018E+04  0.14227288061E+04  0.59409184646E+03 0.  0.
        4    1    3    3  502    0  0.10242463310E+03 -0.19770445677E+03  0.17552797421E+03  0.28353049276E+03  0.12699999809E+01 0. -1.
       -4    1    3    3    0  502 -0.10242463310E+03  0.19770445677E+03  0.11172257276E+04  0.11391983133E+04  0.12699999809E+01 0.  1.
</event>
<event>
 5   0  0.3437375E-02  0.6021937E+03  0.7818609E-02  0.9900865E-01
        3   -1    0    0  501    0  0.00000000000E+00  0.00000000000E+00  0.14381502808E+03  0.14381506355E+03  0.10100000352E+00 0. -1.
       -3   -1    0    0    0  501  0.00000000000E+00  0.00000000000E+00 -0.63038829775E+03  0.63038830584E+03  0.10100000352E+00 0.  1.
    10030    2    1    2    0    0  0.00000000000E+00  0.00000000000E+00 -0.48657326967E+03  0.77420336939E+03  0.60219374824E+03 0.  0.
        3    1    3    3  502    0  0.21575757361E+03 -0.81814618838E+02  0.53916972096E+01  0.23081170469E+03  0.10100000352E+00 0. -1.
       -3    1    3    3    0  502 -0.21575757361E+03  0.81814618838E+02 -0.49196496688E+03  0.54339166470E+03  0.10100000352E+00 0.  1.
</event>
<event>
 5   0  0.5125031E-02  0.5781632E+03  0.7818609E-02  0.9951776E-01
       -1   -1    0    0    0  501  0.00000000000E+00  0.00000000000E+00  0.15413353391E+03  0.15413353399E+03  0.50400001928E-02 0. -1.
        1   -1    0    0  501    0  0.00000000000E+00  0.00000000000E+00 -0.54218027199E+03  0.54218027201E+03  0.50400001928E-02 0.  1.
    10030    2    1    2    0    0  0.00000000000E+00  0.00000000000E+00 -0.38804673808E+03  0.69631380601E+03  0.57816316512E+03 0.  0.
        4    1    3    3  502    0 -0.14084284726E+03 -0.91791086011E+02  0.89203069236E+02  0.19031844775E+03  0.12699999809E+01 0. -1.
       -4    1    3    3    0  502  0.14084284726E+03  0.91791086011E+02 -0.47724980731E+03  0.50599535825E+03  0.12699999809E+01 0.  1.
</event>
<event>
 5   0  0.4987389E-02  0.6022621E+03  0.7818609E-02  0.9900724E-01
       -1   -1    0    0    0  501  0.00000000000E+00  0.00000000000E+00  0.10760281831E+03  0.10760281843E+03  0.50400001928E-02 0.  1.
        1   -1    0    0  501    0  0.00000000000E+00  0.00000000000E+00 -0.84272804403E+03  0.84272804405E+03  0.50400001928E-02 0. -1.
    10030    2    1    2    0    0  0.00000000000E+00  0.00000000000E+00 -0.73512522572E+03  0.95033086248E+03  0.60226211129E+03 0.  0.
        1    1    3    3  502    0  0.24975194406E+03 -0.57702243048E+02 -0.61692802559E+03  0.66806120319E+03  0.50400001928E-02 0. -1.
       -1    1    3    3    0  502 -0.24975194406E+03  0.57702243048E+02 -0.11819720013E+03  0.28226965930E+03  0.50400001928E-02 0.  1.
</event>
<event>
 5   0  0.4881209E-02  0.6029998E+03  0.7818609E-02  0.9899202E-01
       -1   -1    0    0    0  501  0.00000000000E+00  0.00000000000E+00  0.10562454949E+03  0.10562454961E+03  0.50400001928E-02 0. -1.
        1   -1    0    0  501    0  0.00000000000E+00  0.00000000000E+00 -0.86061619564E+03  0.86061619565E+03  0.50400001928E-02 0.  1.
    10030    2    1    2    0    0  0.00000000000E+00  0.00000000000E+00 -0.75499164615E+03  0.96624074526E+03  0.60299982757E+03 0.  0.
        3    1    3    3  502    0  0.19538630320E+03  0.10915477723E+03 -0.53782890969E+02  0.23018076034E+03  0.10100000352E+00 0. -1.
       -3    1    3    3    0  502 -0.19538630320E+03 -0.10915477723E+03 -0.70120875518E+03  0.73605998493E+03  0.10100000352E+00 0.  1.
</event>
<event>
 5   0  0.4987389E-02  0.6016161E+03  0.7818609E-02  0.9902059E-01
        1   -1    0    0  501    0  0.00000000000E+00  0.00000000000E+00  0.69509072955E+03  0.69509072956E+03  0.50400001928E-02 0. -1.
       -1   -1    0    0    0  501  0.00000000000E+00  0.00000000000E+00 -0.13017794989E+03  0.13017794999E+03  0.50400001928E-02 0.  1.
    10030    2    1    2    0    0  0.00000000000E+00  0.00000000000E+00  0.56491277965E+03  0.82526867955E+03  0.60161611085E+03 0.  0.
        1    1    3    3  502    0 -0.14770421943E+03 -0.21420199172E+03  0.75387763679E+02  0.27089175815E+03  0.50400001928E-02 0.  1.
       -1    1    3    3    0  502  0.14770421943E+03  0.21420199172E+03  0.48952501598E+03  0.55437692140E+03  0.50400001928E-02 0. -1.
</event>
<event>
 5   0  0.8420604E-02  0.5871356E+03  0.7818609E-02  0.9932461E-01
        2   -1    0    0  501    0  0.00000000000E+00  0.00000000000E+00  0.13121676243E+04  0.13121676243E+04  0.25500000920E-02 0. -1.
       -2   -1    0    0    0  501  0.00000000000E+00  0.00000000000E+00 -0.65679142489E+02  0.65679142538E+02  0.25500000920E-02 0.  1.
    10030    2    1    2    0    0  0.00000000000E+00  0.00000000000E+00  0.12464884819E+04  0.13778467669E+04  0.58713557005E+03 0.  0.
        2    1    3    3  502    0 -0.21773691308E+03  0.19635529220E+03  0.58865247698E+03  0.65762945703E+03  0.25500000920E-02 0.  1.
       -2    1    3    3    0  502  0.21773691308E+03 -0.19635529220E+03  0.65783600487E+03  0.72021730985E+03  0.25500000920E-02 0. -1.
</event>
<event>
 5   0  0.5125031E-02  0.6019557E+03  0.7818609E-02  0.9901357E-01
        1   -1    0    0  501    0  0.00000000000E+00  0.00000000000E+00  0.54764270945E+03  0.54764270948E+03  0.50400001928E-02 0. -1.
       -1   -1    0    0    0  501  0.00000000000E+00  0.00000000000E+00 -0.16541382977E+03  0.16541382984E+03  0.50400001928E-02 0.  1.
    10030    2    1    2    0    0  0.00000000000E+00  0.00000000000E+00  0.38222887969E+03  0.71305653932E+03  0.60195573907E+03 0.  0.
        4    1    3    3  502    0  0.15995085384E+03 -0.17662866469E+03 -0.26678663719E+02  0.23978182757E+03  0.12699999809E+01 0.  1.
       -4    1    3    3    0  502 -0.15995085384E+03  0.17662866469E+03  0.40890754341E+03  0.47327471176E+03  0.12699999809E+01 0. -1.
</event>
<event>
 5   0  0.8699746E-02  0.6052977E+03  0.7818609E-02  0.9894476E-01
       -2   -1    0    0    0  501  0.00000000000E+00  0.00000000000E+00  0.21998494285E+03  0.21998494286E+03  0.25500000920E-02 0. -1.
        2   -1    0    0  501    0  0.00000000000E+00  0.00000000000E+00 -0.41637537537E+03  0.41637537537E+03  0.25500000920E-02 0.  1.
    10030    2    1    2    0    0  0.00000000000E+00  0.00000000000E+00 -0.19639043252E+03  0.63636031823E+03  0.60529765623E+03 0.  0.
        3    1    3    3  502    0  0.61052811793E+02 -0.10447096039E+03  0.19344781522E+03  0.22817470238E+03  0.10100000352E+00 0. -1.
       -3    1    3    3    0  502 -0.61052811793E+02  0.10447096039E+03 -0.38983824774E+03  0.40818561586E+03  0.10100000352E+00 0.  1.
</event>
<event>
 5   0  0.5190380E-02  0.5239790E+03  0.7818609E-02  0.1007703E+00
        1   -1    0    0  501    0  0.00000000000E+00  0.00000000000E+00  0.43083504054E+03  0.43083504057E+03  0.50400001928E-02 0.  1.
       -1   -1    0    0    0  501  0.00000000000E+00  0.00000000000E+00 -0.15931504676E+03  0.15931504684E+03  0.50400001928E-02 0. -1.
    10030    2    1    2    0    0  0.00000000000E+00  0.00000000000E+00  0.27151999378E+03  0.59015008741E+03  0.52397902500E+03 0.  0.
        5    1    3    3  502    0 -0.16237169052E+03  0.11423848922E+03  0.32822445075E+03  0.38362530986E+03  0.46999998093E+01 0.  1.
       -5    1    3    3    0  502  0.16237169052E+03 -0.11423848922E+03 -0.56704456966E+02  0.20652477754E+03  0.46999998093E+01 0. -1.
</event>
<event>
 5   0  0.8575590E-02  0.5956682E+03  0.7818609E-02  0.9914434E-01
        2   -1    0    0  501    0  0.00000000000E+00  0.00000000000E+00  0.26752715593E+03  0.26752715594E+03  0.25500000920E-02 0.  1.
       -2   -1    0    0    0  501  0.00000000000E+00  0.00000000000E+00 -0.33157440811E+03  0.33157440812E+03  0.25500000920E-02 0. -1.
    10030    2    1    2    0    0  0.00000000000E+00  0.00000000000E+00 -0.64047252179E+02  0.59910156406E+03  0.59566822439E+03 0.  0.
        4    1    3    3  502    0  0.15426654865E+02 -0.28880895597E+03 -0.10353160189E+03  0.30719537793E+03  0.12699999809E+01 0.  1.
       -4    1    3    3    0  502 -0.15426654865E+02  0.28880895597E+03  0.39484349714E+02  0.29190618613E+03  0.12699999809E+01 0. -1.
</event>
<event>
 5   0  0.4987389E-02  0.5991817E+03  0.7818609E-02  0.9907105E-01
        1   -1    0    0  501    0  0.00000000000E+00  0.00000000000E+00  0.40862730273E+03  0.40862730276E+03  0.50400001928E-02 0. -1.
       -1   -1    0    0    0  501  0.00000000000E+00  0.00000000000E+00 -0.21964927402E+03  0.21964927407E+03  0.50400001928E-02 0.  1.
    10030    2    1    2    0    0  0.00000000000E+00  0.00000000000E+00  0.18897802871E+03  0.62827657683E+03  0.59918174343E+03 0.  0.
        1    1    3    3  502    0  0.21226768120E+03 -0.14778664353E+03  0.25301285818E+03  0.36182035172E+03  0.50400001928E-02 0. -1.
       -1    1    3    3    0  502 -0.21226768120E+03  0.14778664353E+03 -0.64034829473E+02  0.26645622511E+03  0.50400001928E-02 0.  1.
</event>
<event>
 5   0  0.8817544E-02  0.5928080E+03  0.7818609E-02  0.9920440E-01
        2   -1    0    0  501    0  0.00000000000E+00  0.00000000000E+00  0.37729370831E+03  0.37729370832E+03  0.25500000920E-02 0. -1.
       -2   -1    0    0    0  501  0.00000000000E+00  0.00000000000E+00 -0.23285663775E+03  0.23285663776E+03  0.25500000920E-02 0.  1.
    10030    2    1    2    0    0  0.00000000000E+00  0.00000000000E+00  0.14443707056E+03  0.61015034608E+03  0.59280804437E+03 0.  0.
        5    1    3    3  502    0  0.22511001472E+03 -0.17848888827E+03 -0.27155211804E+01  0.28733650310E+03  0.46999998093E+01 0.  1.
       -5    1    3    3    0  502 -0.22511001472E+03  0.17848888827E+03  0.14715259174E+03  0.32281384298E+03  0.46999998093E+01 0. -1.
</event>
<event>
 5   0  0.5190380E-02  0.6963384E+03  0.7818609E-02  0.9723515E-01
       -1   -1    0    0    0  501  0.00000000000E+00  0.00000000000E+00  0.17207528361E+03  0.17207528368E+03  0.50400001928E-02 0. -1.
        1   -1    0    0  501    0  0.00000000000E+00  0.00000000000E+00 -0.70446956378E+03  0.70446956380E+03  0.50400001928E-02 0.  1.
    10030    2    1    2    0    0  0.00000000000E+00  0.00000000000E+00 -0.53239428018E+03  0.87654484748E+03  0.69633842353E+03 0.  0.
        5    1    3    3  502    0  0.12610123734E+03  0.91879305469E+02  0.12556088402E+03  0.20032711855E+03  0.46999998093E+01 0. -1.
       -5    1    3    3    0  502 -0.12610123734E+03 -0.91879305469E+02 -0.65795516420E+03  0.67621772893E+03  0.46999998093E+01 0.  1.
</event>
<event>
 5   0  0.8207443E-02  0.6295023E+03  0.7818609E-02  0.9846020E-01
        2   -1    0    0  501    0  0.00000000000E+00  0.00000000000E+00  0.12994439277E+03  0.12994439279E+03  0.25500000920E-02 0. -1.
       -2   -1    0    0    0  501  0.00000000000E+00  0.00000000000E+00 -0.76238991629E+03  0.76238991629E+03  0.25500000920E-02 0.  1.
    10030    2    1    2    0    0  0.00000000000E+00  0.00000000000E+00 -0.63244552352E+03  0.89233430909E+03  0.62950232640E+03 0.  0.
        1    1    3    3  502    0  0.63566551360E+02 -0.28898274485E+03 -0.46834463556E+03  0.55398414324E+03  0.50400001928E-02 0.  1.
       -1    1    3    3    0  502 -0.63566551360E+02  0.28898274485E+03 -0.16410088796E+03  0.33835016585E+03  0.50400001928E-02 0. -1.
</event>
<event>
 5   0  0.8699746E-02  0.6013102E+03  0.7818609E-02  0.9902692E-01
       -2   -1    0    0    0  501  0.00000000000E+00  0.00000000000E+00  0.55278986365E+03  0.55278986366E+03  0.25500000920E-02 0.  1.
        2   -1    0    0  501    0  0.00000000000E+00  0.00000000000E+00 -0.16352233425E+03  0.16352233427E+03  0.25500000920E-02 0. -1.
    10030    2    1    2    0    0  0.00000000000E+00  0.00000000000E+00  0.38926752940E+03  0.71631219792E+03  0.60131019902E+03 0.  0.
        3    1    3    3  502    0 -0.10432774292E+03  0.11596932004E+03  0.50081185155E+03  0.52454330802E+03  0.10100000352E+00 0.  1.
       -3    1    3    3    0  502  0.10432774292E+03 -0.11596932004E+03 -0.11154432214E+03  0.19176888991E+03  0.10100000352E+00 0. -1.
</event>
<event>
 5   0  0.5125031E-02  0.5915175E+03  0.7818609E-02  0.9923162E-01
        1   -1    0    0  501    0  0.00000000000E+00  0.00000000000E+00  0.40553874816E+03  0.40553874820E+03  0.50400001928E-02 0. -1.
       -1   -1    0    0    0  501  0.00000000000E+00  0.00000000000E+00 -0.21569640682E+03  0.21569640688E+03  0.50400001928E-02 0.  1.
    10030    2    1    2    0    0  0.00000000000E+00  0.00000000000E+00  0.18984234134E+03  0.62123515508E+03  0.59151754271E+03 0.  0.
        4    1    3    3  502    0  0.26146360534E+03 -0.13754132929E+03  0.80414029021E+02  0.30618436136E+03  0.12699999809E+01 0.  1.
       -4    1    3    3    0  502 -0.26146360534E+03  0.13754132929E+03  0.10942831232E+03  0.31505079371E+03  0.12699999809E+01 0. -1.
</event>
<event>
 5   0  0.3437375E-02  0.5925015E+03  0.7818609E-02  0.9921086E-01
       -4   -1    0    0    0  501  0.00000000000E+00  0.00000000000E+00  0.87936676545E+02  0.87945846870E+02  0.12699999809E+01 0.  1.
        4   -1    0    0  501    0  0.00000000000E+00  0.00000000000E+00 -0.99798045483E+03  0.99798126291E+03  0.12699999809E+01 0. -1.
    10030    2    1    2    0    0  0.00000000000E+00  0.00000000000E+00 -0.91004377828E+03  0.10859271098E+04  0.59250148469E+03 0.  0.
        1    1    3    3  502    0 -0.20009645279E+03 -0.17793401952E+03 -0.68732603354E+03  0.73764231314E+03  0.50400001928E-02 0. -1.
       -1    1    3    3    0  502  0.20009645279E+03  0.17793401952E+03 -0.22271774474E+03  0.34828479664E+03  0.50400001928E-02 0.  1.
</event>
<event>
 5   0  0.8207443E-02  0.5971010E+03  0.7818609E-02  0.9911439E-01
       -2   -1    0    0    0  501  0.00000000000E+00  0.00000000000E+00  0.73819368437E+02  0.73819368481E+02  0.25500000920E-02 0. -1.
        2   -1    0    0  501    0  0.00000000000E+00  0.00000000000E+00 -0.12074392429E+04  0.12074392429E+04  0.25500000920E-02 0.  1.
    10030    2    1    2    0    0  0.00000000000E+00  0.00000000000E+00 -0.11336198745E+04  0.12812586114E+04  0.59710100442E+03 0.  0.
        1    1    3    3  502    0  0.29840967069E+03  0.63239988977E+01 -0.58105613780E+03  0.65323392428E+03  0.50400001928E-02 0. -1.
       -1    1    3    3    0  502 -0.29840967069E+03 -0.63239988977E+01 -0.55256373670E+03  0.62802468715E+03  0.50400001928E-02 0.  1.
</event>
<event>
 5   0  0.8699746E-02  0.5991382E+03  0.7818609E-02  0.9907196E-01
        2   -1    0    0  501    0  0.00000000000E+00  0.00000000000E+00  0.40853528155E+03  0.40853528155E+03  0.25500000920E-02 0. -1.
       -2   -1    0    0    0  501  0.00000000000E+00  0.00000000000E+00 -0.21966684339E+03  0.21966684341E+03  0.25500000920E-02 0.  1.
    10030    2    1    2    0    0  0.00000000000E+00  0.00000000000E+00  0.18886843816E+03  0.62820212496E+03  0.59913823353E+03 0.  0.
        3    1    3    3  502    0  0.22233512937E+03  0.94417704824E+02 -0.91344481193E+02  0.25824685319E+03  0.10100000352E+00 0.  1.
       -3    1    3    3    0  502 -0.22233512937E+03 -0.94417704824E+02  0.28021291935E+03  0.36995527177E+03  0.10100000352E+00 0. -1.
</event>
<event>
 5   0  0.5190380E-02  0.5891042E+03  0.7818609E-02  0.9928273E-01
        1   -1    0    0  501    0  0.00000000000E+00  0.00000000000E+00  0.83821602020E+03  0.83821602022E+03  0.50400001928E-02 0.  1.
       -1   -1    0    0    0  501  0.00000000000E+00  0.00000000000E+00 -0.10350667026E+03  0.10350667038E+03  0.50400001928E-02 0. -1.
    10030    2    1    2    0    0  0.00000000000E+00  0.00000000000E+00  0.73470934994E+03  0.94172269060E+03  0.58910423279E+03 0.  0.
        5    1    3    3  502    0 -0.22721074039E+02  0.21182812251E+03  0.42285111507E+02  0.21724990528E+03  0.46999998093E+01 0. -1.
       -5    1    3    3    0  502  0.22721074039E+02 -0.21182812251E+03  0.69242423844E+03  0.72447278532E+03  0.46999998093E+01 0.  1.
</event>
<event>
 5   0  0.8699746E-02  0.6007480E+03  0.7818609E-02  0.9903855E-01
       -2   -1    0    0    0  501  0.00000000000E+00  0.00000000000E+00  0.71287194516E+02  0.71287194562E+02  0.25500000920E-02 0.  1.
        2   -1    0    0  501    0  0.00000000000E+00  0.00000000000E+00 -0.12656488172E+04  0.12656488172E+04  0.25500000920E-02 0. -1.
    10030    2    1    2    0    0  0.00000000000E+00  0.00000000000E+00 -0.11943616227E+04  0.13369360117E+04  0.60074804519E+03 0.  0.
        3    1    3    3  502    0 -0.10905300034E+03  0.27566014735E+03 -0.48944802037E+03  0.57222412442E+03  0.10100000352E+00 0. -1.
       -3    1    3    3    0  502  0.10905300034E+03 -0.27566014735E+03 -0.70491360228E+03  0.76471188732E+03  0.10100000352E+00 0.  1.
</event>
<event>
 5   0  0.5166903E-02  0.6285849E+03  0.7818609E-02  0.9847814E-01
       -1   -1    0    0    0  501  0.00000000000E+00  0.00000000000E+00  0.34301361861E+03  0.34301361865E+03  0.50400001928E-02 0.  1.
        1   -1    0    0  501    0  0.00000000000E+00  0.00000000000E+00 -0.28797619714E+03  0.28797619718E+03  0.50400001928E-02 0. -1.
    10030    2    1    2    0    0  0.00000000000E+00  0.00000000000E+00  0.55037421470E+02  0.63098981583E+03  0.62858494248E+03 0.  0.
        2    1    3    3  502    0 -0.31225860161E+03  0.31721140620E+02  0.43954881810E+02  0.31692853561E+03  0.25500000920E-02 0.  1.
       -2    1    3    3    0  502  0.31225860161E+03 -0.31721140620E+02  0.11082539660E+02  0.31406128022E+03  0.25500000920E-02 0. -1.
</event>
<event>
 5   0  0.5125031E-02  0.6029289E+03  0.7818609E-02  0.9899348E-01
        1   -1    0    0  501    0  0.00000000000E+00  0.00000000000E+00  0.56011258081E+03  0.56011258083E+03  0.50400001928E-02 0.  1.
       -1   -1    0    0    0  501  0.00000000000E+00  0.00000000000E+00 -0.16225457411E+03  0.16225457419E+03  0.50400001928E-02 0. -1.
    10030    2    1    2    0    0  0.00000000000E+00  0.00000000000E+00  0.39785800670E+03  0.72236715502E+03  0.60292894536E+03 0.  0.
        4    1    3    3  502    0 -0.18979930236E+03  0.12255650833E+03 -0.40196630779E+02  0.22948040207E+03  0.12699999809E+01 0. -1.
       -4    1    3    3    0  502  0.18979930236E+03 -0.12255650833E+03  0.43805463748E+03  0.49288675294E+03  0.12699999809E+01 0.  1.
</event>
<event>
 5   0  0.8699746E-02  0.6011844E+03  0.7818609E-02  0.9902952E-01
       -2   -1    0    0    0  501  0.00000000000E+00  0.00000000000E+00  0.21564575582E+03  0.21564575584E+03  0.25500000920E-02 0.  1.
        2   -1    0    0  501    0  0.00000000000E+00  0.00000000000E+00 -0.41900043208E+03  0.41900043209E+03  0.25500000920E-02 0. -1.
    10030    2    1    2    0    0  0.00000000000E+00  0.00000000000E+00 -0.20335467626E+03  0.63464618793E+03  0.60118438062E+03 0.  0.
        3    1    3    3  502    0 -0.20923153184E+03  0.11732453432E+03 -0.29290268767E+03  0.37859592564E+03  0.10100000352E+00 0. -1.
       -3    1    3    3    0  502  0.20923153184E+03 -0.11732453432E+03  0.89548011410E+02  0.25605026229E+03  0.10100000352E+00 0.  1.
</event>
<event>
 5   0  0.4881209E-02  0.5846622E+03  0.7818609E-02  0.9937748E-01
        1   -1    0    0  501    0  0.00000000000E+00  0.00000000000E+00  0.66186914960E+03  0.66186914962E+03  0.50400001928E-02 0. -1.
       -1   -1    0    0    0  501  0.00000000000E+00  0.00000000000E+00 -0.12911536311E+03  0.12911536321E+03  0.50400001928E-02 0.  1.
    10030    2    1    2    0    0  0.00000000000E+00  0.00000000000E+00  0.53275378648E+03  0.79098451283E+03  0.58466221232E+03 0.  0.
        3    1    3    3  502    0  0.23097372748E+03 -0.12702621690E+03  0.95392912524E+02  0.28032898624E+03  0.10100000352E+00 0.  1.
       -3    1    3    3    0  502 -0.23097372748E+03  0.12702621690E+03  0.43736087396E+03  0.51065552659E+03  0.10100000352E+00 0. -1.
</event>
<event>
 5   0  0.4987389E-02  0.6224275E+03  0.7818609E-02  0.9859938E-01
        1   -1    0    0  501    0  0.00000000000E+00  0.00000000000E+00  0.73252369926E+03  0.73252369928E+03  0.50400001928E-02 0.  1.
       -1   -1    0    0    0  501  0.00000000000E+00  0.00000000000E+00 -0.13221962192E+03  0.13221962202E+03  0.50400001928E-02 0. -1.
    10030    2    1    2    0    0  0.00000000000E+00  0.00000000000E+00  0.60030407734E+03  0.86474332130E+03  0.62242752707E+03 0.  0.
        1    1    3    3  502    0 -0.21991783895E+03 -0.21997430187E+03  0.31414597522E+03  0.44208623949E+03  0.50400001928E-02 0. -1.
       -1    1    3    3    0  502  0.21991783895E+03  0.21997430187E+03  0.28615810212E+03  0.42265708181E+03  0.50400001928E-02 0.  1.
</event>
<event>
 5   0  0.5166903E-02  0.6012716E+03  0.7818609E-02  0.9902771E-01
        1   -1    0    0  501    0  0.00000000000E+00  0.00000000000E+00  0.10473367342E+04  0.10473367342E+04  0.50400001928E-02 0. -1.
       -1   -1    0    0    0  501  0.00000000000E+00  0.00000000000E+00 -0.86296860140E+02  0.86296860287E+02  0.50400001928E-02 0.  1.
    10030    2    1    2    0    0  0.00000000000E+00  0.00000000000E+00  0.96103987405E+03  0.11336335945E+04  0.60127155848E+03 0.  0.
        2    1    3    3  502    0  0.12348073081E+03 -0.98218541646E+02 -0.19622104871E+01  0.15779170789E+03  0.25500000920E-02 0.  1.
       -2    1    3    3    0  502 -0.12348073081E+03  0.98218541646E+02  0.96300208454E+03  0.97584188660E+03  0.25500000920E-02 0. -1.
</event>
<event>
 5   0  0.8420604E-02  0.5984896E+03  0.7818609E-02  0.9908545E-01
       -2   -1    0    0    0  501  0.00000000000E+00  0.00000000000E+00  0.42397587816E+02  0.42397587892E+02  0.25500000920E-02 0. -1.
        2   -1    0    0  501    0  0.00000000000E+00  0.00000000000E+00 -0.21120884376E+04  0.21120884376E+04  0.25500000920E-02 0.  1.
    10030    2    1    2    0    0  0.00000000000E+00  0.00000000000E+00 -0.20696908498E+04  0.21544860255E+04  0.59848961592E+03 0.  0.
        2    1    3    3  502    0 -0.21622462696E+03 -0.15286742018E+02 -0.17775076725E+04  0.17906759337E+04  0.25500000920E-02 0.  1.
       -2    1    3    3    0  502  0.21622462696E+03  0.15286742018E+02 -0.29218317727E+03  0.36381009176E+03  0.25500000920E-02 0. -1.
</event>
<event>
 5   0  0.8420604E-02  0.5842061E+03  0.7818609E-02  0.9938726E-01
       -2   -1    0    0    0  501  0.00000000000E+00  0.00000000000E+00  0.79957869668E+02  0.79957869709E+02  0.25500000920E-02 0.  1.
        2   -1    0    0  501    0  0.00000000000E+00  0.00000000000E+00 -0.10671143664E+04  0.10671143665E+04  0.25500000920E-02 0. -1.
    10030    2    1    2    0    0  0.00000000000E+00  0.00000000000E+00 -0.98715649678E+03  0.11470722362E+04  0.58420609877E+03 0.  0.
        2    1    3    3  502    0 -0.95022027708E+02  0.18072064908E+03 -0.83428514454E+02  0.22056621632E+03  0.25500000920E-02 0.  1.
       -2    1    3    3    0  502  0.95022027708E+02 -0.18072064908E+03 -0.90372798233E+03  0.92650601984E+03  0.25500000920E-02 0. -1.
</event>
<event>
 5   0  0.8420604E-02  0.5977663E+03  0.7818609E-02  0.9910051E-01
        2   -1    0    0  501    0  0.00000000000E+00  0.00000000000E+00  0.92454631698E+03  0.92454631699E+03  0.25500000920E-02 0.  1.
       -2   -1    0    0    0  501  0.00000000000E+00  0.00000000000E+00 -0.96621587342E+02  0.96621587376E+02  0.25500000920E-02 0. -1.
    10030    2    1    2    0    0  0.00000000000E+00  0.00000000000E+00  0.82792472964E+03  0.10211679044E+04  0.59776628455E+03 0.  0.
        2    1    3    3  502    0  0.15564673788E+03 -0.24558245684E+03  0.29567547464E+03  0.41468136735E+03  0.25500000920E-02 0. -1.
       -2    1    3    3    0  502 -0.15564673788E+03  0.24558245684E+03  0.53224925500E+03  0.60648653701E+03  0.25500000920E-02 0.  1.
</event>
<event>
 5   0  0.3437375E-02  0.6027536E+03  0.7818609E-02  0.9899710E-01
        4   -1    0    0  501    0  0.00000000000E+00  0.00000000000E+00  0.72578653928E+03  0.72578765041E+03  0.12699999809E+01 0.  1.
       -4   -1    0    0    0  501  0.00000000000E+00  0.00000000000E+00 -0.12513975974E+03  0.12514620397E+03  0.12699999809E+01 0. -1.
    10030    2    1    2    0    0  0.00000000000E+00  0.00000000000E+00  0.60064677953E+03  0.85093385438E+03  0.60275357384E+03 0.  0.
        3    1    3    3  502    0 -0.89812999945E+02 -0.25087725435E+03  0.10156211227E+03  0.28516774811E+03  0.10100000352E+00 0. -1.
       -3    1    3    3    0  502  0.89812999945E+02  0.25087725435E+03  0.49908466726E+03  0.56576610628E+03  0.10100000352E+00 0.  1.
</event>
<event>
 5   0  0.5125031E-02  0.5981355E+03  0.7818609E-02  0.9909282E-01
       -1   -1    0    0    0  501  0.00000000000E+00  0.00000000000E+00  0.36308512220E+03  0.36308512223E+03  0.50400001928E-02 0.  1.
        1   -1    0    0  501    0  0.00000000000E+00  0.00000000000E+00 -0.24633759517E+03  0.24633759523E+03  0.50400001928E-02 0. -1.
    10030    2    1    2    0    0  0.00000000000E+00  0.00000000000E+00  0.11674752702E+03  0.60942271746E+03  0.59813548924E+03 0.  0.
        4    1    3    3  502    0 -0.19514770003E+03 -0.72845524238E+02 -0.16027030208E+03  0.26282556546E+03  0.12699999809E+01 0. -1.
       -4    1    3    3    0  502  0.19514770003E+03  0.72845524238E+02  0.27701782911E+03  0.34659715200E+03  0.12699999809E+01 0.  1.
</event>
<event>
 5   0  0.4881209E-02  0.6001328E+03  0.7818609E-02  0.9905131E-01
        1   -1    0    0  501    0  0.00000000000E+00  0.00000000000E+00  0.80898275861E+03  0.80898275863E+03  0.50400001928E-02 0.  1.
       -1   -1    0    0    0  501  0.00000000000E+00  0.00000000000E+00 -0.11130007711E+03  0.11130007722E+03  0.50400001928E-02 0. -1.
    10030    2    1    2    0    0  0.00000000000E+00  0.00000000000E+00  0.69768268150E+03  0.92028283585E+03  0.60013279688E+03 0.  0.
        3    1    3    3  502    0  0.11931955918E+03 -0.59366492682E+02 -0.63425032011E+02  0.14759499498E+03  0.10100000352E+00 0. -1.
       -3    1    3    3    0  502 -0.11931955918E+03  0.59366492682E+02  0.76110771352E+03  0.77268784087E+03  0.10100000352E+00 0.  1.
</event>
<event>
 5   0  0.8817544E-02  0.5969384E+03  0.7818609E-02  0.9911778E-01
        2   -1    0    0  501    0  0.00000000000E+00  0.00000000000E+00  0.20765160834E+03  0.20765160836E+03  0.25500000920E-02 0.  1.
       -2   -1    0    0    0  501  0.00000000000E+00  0.00000000000E+00 -0.42900641311E+03  0.42900641312E+03  0.25500000920E-02 0. -1.
    10030    2    1    2    0    0  0.00000000000E+00  0.00000000000E+00 -0.22135480477E+03  0.63665802148E+03  0.59693842791E+03 0.  0.
        5    1    3    3  502    0 -0.25380268615E+03 -0.10857625010E+03  0.10256891709E+02  0.27628228211E+03  0.46999998093E+01 0.  1.
       -5    1    3    3    0  502  0.25380268615E+03  0.10857625010E+03 -0.23161169648E+03  0.36037573937E+03  0.46999998093E+01 0. -1.
</event>
<event>
 5   0  0.5166903E-02  0.5848938E+03  0.7818609E-02  0.9937252E-01
        1   -1    0    0  501    0  0.00000000000E+00  0.00000000000E+00  0.57943922450E+03  0.57943922453E+03  0.50400001928E-02 0.  1.
       -1   -1    0    0    0  501  0.00000000000E+00  0.00000000000E+00 -0.14759992604E+03  0.14759992613E+03  0.50400001928E-02 0. -1.
    10030    2    1    2    0    0  0.00000000000E+00  0.00000000000E+00  0.43183929846E+03  0.72703915065E+03  0.58489379111E+03 0.  0.
        2    1    3    3  502    0  0.30963123607E+02 -0.18385860193E+03  0.49598038728E+03  0.52986719572E+03  0.25500000920E-02 0.  1.
       -2    1    3    3    0  502 -0.30963123607E+02  0.18385860193E+03 -0.64141088820E+02  0.19717195493E+03  0.25500000920E-02 0. -1.
</event>
<event>
 5   0  0.8817544E-02  0.6022063E+03  0.7818609E-02  0.9900839E-01
       -2   -1    0    0    0  501  0.00000000000E+00  0.00000000000E+00  0.45803754648E+02  0.45803754719E+02  0.25500000920E-02 0.  1.
        2   -1    0    0  501    0  0.00000000000E+00  0.00000000000E+00 -0.19793814054E+04  0.19793814054E+04  0.25500000920E-02 0. -1.
    10030    2    1    2    0    0  0.00000000000E+00  0.00000000000E+00 -0.19335776508E+04  0.20251851601E+04  0.60220627802E+03 0.  0.
        5    1    3    3  502    0  0.67988431487E+02  0.17481310637E+03 -0.17587526120E+04  0.17687325658E+04  0.46999998093E+01 0. -1.
       -5    1    3    3    0  502 -0.67988431487E+02 -0.17481310637E+03 -0.17482503872E+03  0.25645259433E+03  0.46999998093E+01 0.  1.
</event>
<event>
 5   0  0.5125031E-02  0.5837329E+03  0.7818609E-02  0.9939742E-01
        1   -1    0    0  501    0  0.00000000000E+00  0.00000000000E+00  0.14090178448E+04  0.14090178448E+04  0.50400001928E-02 0. -1.
       -1   -1    0    0    0  501  0.00000000000E+00  0.00000000000E+00 -0.60457743161E+02  0.60457743371E+02  0.50400001928E-02 0.  1.
    10030    2    1    2    0    0  0.00000000000E+00  0.00000000000E+00  0.13485601016E+04  0.14694755882E+04  0.58373294966E+03 0.  0.
        4    1    3    3  502    0 -0.14164631253E+03 -0.22200391743E+03  0.35750036416E+03  0.44402425664E+03  0.12699999809E+01 0.  1.
       -4    1    3    3    0  502  0.14164631253E+03  0.22200391743E+03  0.99105973747E+03  0.10254513315E+04  0.12699999809E+01 0. -1.
</event>
<event>
 5   0  0.5190380E-02  0.6300067E+03  0.7818609E-02  0.9845036E-01
        1   -1    0    0  501    0  0.00000000000E+00  0.00000000000E+00  0.52233721729E+03  0.52233721731E+03  0.50400001928E-02 0.  1.
       -1   -1    0    0    0  501  0.00000000000E+00  0.00000000000E+00 -0.18996750543E+03  0.18996750550E+03  0.50400001928E-02 0. -1.
    10030    2    1    2    0    0  0.00000000000E+00  0.00000000000E+00  0.33236971186E+03  0.71230472281E+03  0.63000666090E+03 0.  0.
        5    1    3    3  502    0  0.13461548806E+03 -0.26697440572E+03  0.54210504613E+02  0.30390381989E+03  0.46999998093E+01 0.  1.
       -5    1    3    3    0  502 -0.13461548806E+03  0.26697440572E+03  0.27815920724E+03  0.40840090292E+03  0.46999998093E+01 0. -1.
</event>
<event>
 5   0  0.4881209E-02  0.5681718E+03  0.7818609E-02  0.9973732E-01
        1   -1    0    0  501    0  0.00000000000E+00  0.00000000000E+00  0.66927969067E+03  0.66927969068E+03  0.50400001928E-02 0.  1.
       -1   -1    0    0    0  501  0.00000000000E+00  0.00000000000E+00 -0.12058454201E+03  0.12058454212E+03  0.50400001928E-02 0. -1.
    10030    2    1    2    0    0  0.00000000000E+00  0.00000000000E+00  0.54869514865E+03  0.78986423280E+03  0.56817175229E+03 0.  0.
        3    1    3    3  502    0 -0.17603416385E+03 -0.76329282865E+02  0.56559259721E+03  0.59725135620E+03  0.10100000352E+00 0.  1.
       -3    1    3    3    0  502  0.17603416385E+03  0.76329282865E+02 -0.16897448551E+02  0.19261287660E+03  0.10100000352E+00 0. -1.
</event>
<event>
 5   0  0.4987389E-02  0.6093963E+03  0.7818609E-02  0.9886101E-01
       -1   -1    0    0    0  501  0.00000000000E+00  0.00000000000E+00  0.35853820161E+03  0.35853820164E+03  0.50400001928E-02 0. -1.
        1   -1    0    0  501    0  0.00000000000E+00  0.00000000000E+00 -0.25894302241E+03  0.25894302246E+03  0.50400001928E-02 0.  1.
    10030    2    1    2    0    0  0.00000000000E+00  0.00000000000E+00  0.99595179197E+02  0.61748122410E+03  0.60939630980E+03 0.  0.
        1    1    3    3  502    0 -0.29657032429E+03  0.45380313704E+02 -0.40834101612E+01  0.30005000314E+03  0.50400001928E-02 0.  1.
       -1    1    3    3    0  502  0.29657032429E+03 -0.45380313704E+02  0.10367858936E+03  0.31743122096E+03  0.50400001928E-02 0. -1.
</event>
<event>
 5   0  0.8575590E-02  0.5904851E+03  0.7818609E-02  0.9925346E-01
        2   -1    0    0  501    0  0.00000000000E+00  0.00000000000E+00  0.64217565556E+03  0.64217565556E+03  0.25500000920E-02 0. -1.
       -2   -1    0    0    0  501  0.00000000000E+00  0.00000000000E+00 -0.13573880165E+03  0.13573880168E+03  0.25500000920E-02 0.  1.
    10030    2    1    2    0    0  0.00000000000E+00  0.00000000000E+00  0.50643685390E+03  0.77791445724E+03  0.59048506822E+03 0.  0.
        4    1    3    3  502    0 -0.13325605533E+03  0.18893476350E+03  0.11326289955E+02  0.23148092553E+03  0.12699999809E+01 0.  1.
       -4    1    3    3    0  502  0.13325605533E+03 -0.18893476350E+03  0.49511056395E+03  0.54643353171E+03  0.12699999809E+01 0. -1.
</event>
<event>
 5   0  0.8420604E-02  0.6008078E+03  0.7818609E-02  0.9903731E-01
        2   -1    0    0  501    0  0.00000000000E+00  0.00000000000E+00  0.64521701703E+03  0.64521701703E+03  0.25500000920E-02 0.  1.
       -2   -1    0    0    0  501  0.00000000000E+00  0.00000000000E+00 -0.13986381456E+03  0.13986381458E+03  0.25500000920E-02 0. -1.
    10030    2    1    2    0    0  0.00000000000E+00  0.00000000000E+00  0.50535320247E+03  0.78508083161E+03  0.60080783360E+03 0.  0.
        2    1    3    3  502    0  0.69570539337E+02 -0.52292801734E+02 -0.12302866490E+03  0.15070052903E+03  0.25500000920E-02 0. -1.
       -2    1    3    3    0  502 -0.69570539337E+02  0.52292801734E+02  0.62838186737E+03  0.63438030258E+03  0.25500000920E-02 0.  1.
</event>
<event>
 5   0  0.4881209E-02  0.5962625E+03  0.7818609E-02  0.9913191E-01
       -1   -1    0    0    0  501  0.00000000000E+00  0.00000000000E+00  0.66781514419E+02  0.66781514609E+02  0.50400001928E-02 0.  1.
        1   -1    0    0  501    0  0.00000000000E+00  0.00000000000E+00 -0.13309409826E+04  0.13309409826E+04  0.50400001928E-02 0. -1.
    10030    2    1    2    0    0  0.00000000000E+00  0.00000000000E+00 -0.12641594682E+04  0.13977224972E+04  0.59626254136E+03 0.  0.
        3    1    3    3  502    0 -0.28524624683E+03 -0.74393103395E+02 -0.73645289660E+03  0.79326076058E+03  0.10100000352E+00 0. -1.
       -3    1    3    3    0  502  0.28524624683E+03  0.74393103395E+02 -0.52770657155E+03  0.60446173660E+03  0.10100000352E+00 0.  1.
</event>
<event>
 5   0  0.8699746E-02  0.5995971E+03  0.7818609E-02  0.9906242E-01
        2   -1    0    0  501    0  0.00000000000E+00  0.00000000000E+00  0.18974094089E+04  0.18974094089E+04  0.25500000920E-02 0. -1.
       -2   -1    0    0    0  501  0.00000000000E+00  0.00000000000E+00 -0.47369415177E+02  0.47369415245E+02  0.25500000920E-02 0.  1.
    10030    2    1    2    0    0  0.00000000000E+00  0.00000000000E+00  0.18500399937E+04  0.19447788241E+04  0.59959711179E+03 0.  0.
        3    1    3    3  502    0  0.26847356094E+03 -0.11062441666E+03  0.11669439409E+04  0.12025281643E+04  0.10100000352E+00 0.  1.
       -3    1    3    3    0  502 -0.26847356094E+03  0.11062441666E+03  0.68309605282E+03  0.74225065986E+03  0.10100000352E+00 0. -1.
</event>
<event>
 5   0  0.4987389E-02  0.6034998E+03  0.7818609E-02  0.9898172E-01
       -1   -1    0    0    0  501  0.00000000000E+00  0.00000000000E+00  0.42746817105E+03  0.42746817108E+03  0.50400001928E-02 0.  1.
        1   -1    0    0  501    0  0.00000000000E+00  0.00000000000E+00 -0.21300533270E+03  0.21300533276E+03  0.50400001928E-02 0. -1.
    10030    2    1    2    0    0  0.00000000000E+00  0.00000000000E+00  0.21446283835E+03  0.64047350384E+03  0.60349979295E+03 0.  0.
        1    1    3    3  502    0  0.20246428921E+03  0.20278561112E+03  0.68915450268E+01  0.28663790032E+03  0.50400001928E-02 0. -1.
       -1    1    3    3    0  502 -0.20246428921E+03 -0.20278561112E+03  0.20757129333E+03  0.35383560352E+03  0.50400001928E-02 0.  1.
</event>
<event>
 5   0  0.5125031E-02  0.5971813E+03  0.7818609E-02  0.9911271E-01
       -1   -1    0    0    0  501  0.00000000000E+00  0.00000000000E+00  0.14915882842E+03  0.14915882850E+03  0.50400001928E-02 0. -1.
        1   -1    0    0  501    0  0.00000000000E+00  0.00000000000E+00 -0.59772777240E+03  0.59772777242E+03  0.50400001928E-02 0.  1.
    10030    2    1    2    0    0  0.00000000000E+00  0.00000000000E+00 -0.44856894399E+03  0.74688660093E+03  0.59718129336E+03 0.  0.
        4    1    3    3  502    0  0.17999060087E+02 -0.26936729841E+03 -0.64744445951E+02  0.27762594222E+03  0.12699999809E+01 0. -1.
       -4    1    3    3    0  502 -0.17999060087E+02  0.26936729841E+03 -0.38382449803E+03  0.46926065870E+03  0.12699999809E+01 0.  1.
</event>
<event>
 5   0  0.5190380E-02  0.5825521E+03  0.7818609E-02  0.9942281E-01
       -1   -1    0    0    0  501  0.00000000000E+00  0.00000000000E+00  0.39589649747E+02  0.39589650068E+02  0.50400001928E-02 0.  1.
        1   -1    0    0  501    0  0.00000000000E+00  0.00000000000E+00 -0.21430279888E+04  0.21430279888E+04  0.50400001928E-02 0. -1.
    10030    2    1    2    0    0  0.00000000000E+00  0.00000000000E+00 -0.21034383390E+04  0.21826176388E+04  0.58255206747E+03 0.  0.
        5    1    3    3  502    0  0.23947104648E+02  0.11595197375E+02  0.34884540869E+02  0.44124070676E+02  0.46999998093E+01 0.  1.
       -5    1    3    3    0  502 -0.23947104648E+02 -0.11595197375E+02 -0.21383228799E+04  0.21384935682E+04  0.46999998093E+01 0. -1.
</event>
<event>
 5   0  0.8699746E-02  0.5392474E+03  0.7818609E-02  0.1004014E+00
        2   -1    0    0  501    0  0.00000000000E+00  0.00000000000E+00  0.80399293126E+03  0.80399293127E+03  0.25500000920E-02 0. -1.
       -2   -1    0    0    0  501  0.00000000000E+00  0.00000000000E+00 -0.90419858844E+02  0.90419858880E+02  0.25500000920E-02 0.  1.
    10030    2    1    2    0    0  0.00000000000E+00  0.00000000000E+00  0.71357307242E+03  0.89441279014E+03  0.53924735465E+03 0.  0.
        3    1    3    3  502    0 -0.46947358432E+02 -0.15871056722E+03  0.70982122631E+03  0.72886163442E+03  0.10100000352E+00 0. -1.
       -3    1    3    3    0  502  0.46947358432E+02  0.15871056722E+03  0.37518461101E+01  0.16555115572E+03  0.10100000352E+00 0.  1.
</event>
<event>
 5   0  0.5125031E-02  0.5990889E+03  0.7818609E-02  0.9907298E-01
        1   -1    0    0  501    0  0.00000000000E+00  0.00000000000E+00  0.10777819685E+03  0.10777819696E+03  0.50400001928E-02 0. -1.
       -1   -1    0    0    0  501  0.00000000000E+00  0.00000000000E+00 -0.83251417194E+03  0.83251417195E+03  0.50400001928E-02 0.  1.
    10030    2    1    2    0    0  0.00000000000E+00  0.00000000000E+00 -0.72473597509E+03  0.94029236891E+03  0.59908889612E+03 0.  0.
        4    1    3    3  502    0 -0.48453396587E+02  0.10065938200E+03  0.73853897723E+02  0.13392555370E+03  0.12699999809E+01 0. -1.
       -4    1    3    3    0  502  0.48453396587E+02 -0.10065938200E+03 -0.79858987281E+03  0.80636681522E+03  0.12699999809E+01 0.  1.
</event>
<event>
 5   0  0.8207443E-02  0.5952523E+03  0.7818609E-02  0.9915305E-01
        2   -1    0    0  501    0  0.00000000000E+00  0.00000000000E+00  0.48551791659E+03  0.48551791660E+03  0.25500000920E-02 0. -1.
       -2   -1    0    0    0  501  0.00000000000E+00  0.00000000000E+00 -0.18244710854E+03  0.18244710855E+03  0.25500000920E-02 0.  1.
    10030    2    1    2    0    0  0.00000000000E+00  0.00000000000E+00  0.30307080806E+03  0.66796502515E+03  0.59525234996E+03 0.  0.
        1    1    3    3  502    0  0.23573274667E+03  0.18078435625E+03  0.17187176061E+03  0.34320957655E+03  0.50400001928E-02 0.  1.
       -1    1    3    3    0  502 -0.23573274667E+03 -0.18078435625E+03  0.13119904745E+03  0.32475544860E+03  0.50400001928E-02 0. -1.
</event>
<event>
 5   0  0.5125031E-02  0.5977367E+03  0.7818609E-02  0.9910113E-01
        1   -1    0    0  501    0  0.00000000000E+00  0.00000000000E+00  0.23834584324E+03  0.23834584329E+03  0.50400001928E-02 0. -1.
       -1   -1    0    0    0  501  0.00000000000E+00  0.00000000000E+00 -0.37475923204E+03  0.37475923208E+03  0.50400001928E-02 0.  1.
    10030    2    1    2    0    0  0.00000000000E+00  0.00000000000E+00 -0.13641338880E+03  0.61310507537E+03  0.59773674874E+03 0.  0.
        4    1    3    3  502    0 -0.12029263544E+03 -0.18899978522E+03 -0.27110426906E+03  0.35169642387E+03  0.12699999809E+01 0. -1.
       -4    1    3    3    0  502  0.12029263544E+03  0.18899978522E+03  0.13469088026E+03  0.26140865150E+03  0.12699999809E+01 0.  1.
</event>
<event>
 5   0  0.5190380E-02  0.6194952E+03  0.7818609E-02  0.9865765E-01
       -1   -1    0    0    0  501  0.00000000000E+00  0.00000000000E+00  0.29580415243E+03  0.29580415247E+03  0.50400001928E-02 0.  1.
        1   -1    0    0  501    0  0.00000000000E+00  0.00000000000E+00 -0.32434832085E+03  0.32434832089E+03  0.50400001928E-02 0. -1.
    10030    2    1    2    0    0  0.00000000000E+00  0.00000000000E+00 -0.28544168427E+02  0.62015247336E+03  0.61949521440E+03 0.  0.
        5    1    3    3  502    0  0.21524998730E+03 -0.13669313703E+03 -0.19025370197E+03  0.31817625910E+03  0.46999998093E+01 0. -1.
       -5    1    3    3    0  502 -0.21524998730E+03  0.13669313703E+03  0.16170953355E+03  0.30197621426E+03  0.46999998093E+01 0.  1.
</event>
<event>
 5   0  0.3437375E-02  0.6276990E+03  0.7818609E-02  0.9849549E-01
        3   -1    0    0  501    0  0.00000000000E+00  0.00000000000E+00  0.43813633285E+03  0.43813634449E+03  0.10100000352E+00 0. -1.
       -3   -1    0    0    0  501  0.00000000000E+00  0.00000000000E+00 -0.22481930979E+03  0.22481933248E+03  0.10100000352E+00 0.  1.
    10030    2    1    2    0    0  0.00000000000E+00  0.00000000000E+00  0.21331702306E+03  0.66295567697E+03  0.62769903401E+03 0.  0.
        4    1    3    3  502    0 -0.11847331658E+03  0.28682055501E+03  0.15617408687E+03  0.34741029897E+03  0.12699999809E+01 0. -1.
       -4    1    3    3    0  502  0.11847331658E+03 -0.28682055501E+03  0.57142936193E+02  0.31554537800E+03  0.12699999809E+01 0.  1.
</event>
<event>
 5   0  0.3437375E-02  0.5989878E+03  0.7818609E-02  0.9907508E-01
        3   -1    0    0  501    0  0.00000000000E+00  0.00000000000E+00  0.49068225941E+03  0.49068226980E+03  0.10100000352E+00 0.  1.
       -3   -1    0    0    0  501  0.00000000000E+00  0.00000000000E+00 -0.18279972434E+03  0.18279975224E+03  0.10100000352E+00 0. -1.
    10030    2    1    2    0    0  0.00000000000E+00  0.00000000000E+00  0.30788253506E+03  0.67348202205E+03  0.59898779505E+03 0.  0.
        1    1    3    3  502    0  0.23689162308E+03  0.88927035033E+02  0.33408903554E+03  0.41909562434E+03  0.50400001928E-02 0.  1.
       -1    1    3    3    0  502 -0.23689162308E+03 -0.88927035033E+02 -0.26206500480E+02  0.25438639771E+03  0.50400001928E-02 0. -1.
</event>
<event>
 5   0  0.3437375E-02  0.6029047E+03  0.7818609E-02  0.9899398E-01
        4   -1    0    0  501    0  0.00000000000E+00  0.00000000000E+00  0.38448652078E+03  0.38448861825E+03  0.12699999809E+01 0.  1.
       -4   -1    0    0    0  501  0.00000000000E+00  0.00000000000E+00 -0.23634588572E+03  0.23634929785E+03  0.12699999809E+01 0. -1.
    10030    2    1    2    0    0  0.00000000000E+00  0.00000000000E+00  0.14814063506E+03  0.62083791610E+03  0.60290469421E+03 0.  0.
        5    1    3    3  502    0 -0.35303572992E+02  0.12360781286E+02 -0.23391166783E+03  0.23693013638E+03  0.46999998093E+01 0. -1.
       -5    1    3    3    0  502  0.35303572992E+02 -0.12360781286E+02  0.38205230290E+03  0.38390777972E+03  0.46999998093E+01 0.  1.
</event>
<event>
 5   0  0.3437375E-02  0.6038050E+03  0.7818609E-02  0.9897543E-01
        3   -1    0    0  501    0  0.00000000000E+00  0.00000000000E+00  0.10132269132E+04  0.10132269182E+04  0.10100000352E+00 0.  1.
       -3   -1    0    0    0  501  0.00000000000E+00  0.00000000000E+00 -0.89955244232E+02  0.89955300933E+02  0.10100000352E+00 0. -1.
    10030    2    1    2    0    0  0.00000000000E+00  0.00000000000E+00  0.92327166895E+03  0.11031822191E+04  0.60380496351E+03 0.  0.
        1    1    3    3  502    0 -0.52293928893E+02 -0.14859785277E+03  0.93218253269E+03  0.94539951932E+03  0.50400001928E-02 0.  1.
       -1    1    3    3    0  502  0.52293928893E+02  0.14859785277E+03 -0.89108637452E+01  0.15778269983E+03  0.50400001928E-02 0. -1.
</event>
<event>
 5   0  0.5166903E-02  0.6006455E+03  0.7818609E-02  0.9904068E-01
       -1   -1    0    0    0  501  0.00000000000E+00  0.00000000000E+00  0.11838467794E+04  0.11838467794E+04  0.50400001928E-02 0.  1.
        1   -1    0    0  501    0  0.00000000000E+00  0.00000000000E+00 -0.76187011953E+02  0.76187012120E+02  0.50400001928E-02 0. -1.
    10030    2    1    2    0    0  0.00000000000E+00  0.00000000000E+00  0.11076597674E+04  0.12600337915E+04  0.60064548228E+03 0.  0.
        2    1    3    3  502    0 -0.31333177354E+01  0.13196922378E+03 -0.12063167486E+02  0.13255645485E+03  0.25500000920E-02 0. -1.
       -2    1    3    3    0  502  0.31333177354E+01 -0.13196922378E+03  0.11197229349E+04  0.11274773367E+04  0.25500000920E-02 0.  1.
</event>
<event>
 5   0  0.3437375E-02  0.6024265E+03  0.7818609E-02  0.9900385E-01
       -3   -1    0    0    0  501  0.00000000000E+00  0.00000000000E+00  0.83952049237E+03  0.83952049844E+03  0.10100000352E+00 0.  1.
        3   -1    0    0  501    0  0.00000000000E+00  0.00000000000E+00 -0.10807286846E+03  0.10807291565E+03  0.10100000352E+00 0. -1.
    10030    2    1    2    0    0  0.00000000000E+00  0.00000000000E+00  0.73144762391E+03  0.94759341410E+03  0.60242647014E+03 0.  0.
        4    1    3    3  502    0 -0.21506418598E+03  0.15134648632E+03  0.59673732944E+03  0.65211610643E+03  0.12699999809E+01 0.  1.
       -4    1    3    3    0  502  0.21506418598E+03 -0.15134648632E+03  0.13471029447E+03  0.29547730767E+03  0.12699999809E+01 0. -1.
</event>
<event>
 5   0  0.5190380E-02  0.5997878E+03  0.7818609E-02  0.9905846E-01
       -1   -1    0    0    0  501  0.00000000000E+00  0.00000000000E+00  0.17319334783E+03  0.17319334790E+03  0.50400001928E-02 0.  1.
        1   -1    0    0  501    0  0.00000000000E+00  0.00000000000E+00 -0.51928296507E+03  0.51928296510E+03  0.50400001928E-02 0. -1.
    10030    2    1    2    0    0  0.00000000000E+00  0.00000000000E+00 -0.34608961724E+03  0.69247631300E+03  0.59978781324E+03 0.  0.
        5    1    3    3  502    0  0.38706821602E+02 -0.11544459857E+03 -0.48941405873E+03  0.50435491894E+03  0.46999998093E+01 0. -1.
       -5    1    3    3    0  502 -0.38706821602E+02  0.11544459857E+03  0.14332444149E+03  0.18812139406E+03  0.46999998093E+01 0.  1.
</event>
<event>
 5   0  0.3437375E-02  0.6045174E+03  0.7818609E-02  0.9896078E-01
        3   -1    0    0  501    0  0.00000000000E+00  0.00000000000E+00  0.10593869030E+04  0.10593869078E+04  0.10100000352E+00 0. -1.
       -3   -1    0    0    0  501  0.00000000000E+00  0.00000000000E+00 -0.86238835962E+02  0.86238895106E+02  0.10100000352E+00 0.  1.
    10030    2    1    2    0    0  0.00000000000E+00  0.00000000000E+00  0.97314806703E+03  0.11456258029E+04  0.60451742732E+03 0.  0.
        3    1    3    3  502    0 -0.68028579753E+01  0.22212515639E+03  0.87483747381E+03  0.90262200270E+03  0.10100000352E+00 0. -1.
       -3    1    3    3    0  502  0.68028579753E+01 -0.22212515639E+03  0.98310593216E+02  0.24300380021E+03  0.10100000352E+00 0.  1.
</event>
<event>
 5   0  0.8420604E-02  0.6025574E+03  0.7818609E-02  0.9900114E-01
        2   -1    0    0  501    0  0.00000000000E+00  0.00000000000E+00  0.15237003824E+04  0.15237003824E+04  0.25500000920E-02 0. -1.
       -2   -1    0    0    0  501  0.00000000000E+00  0.00000000000E+00 -0.59571337300E+02  0.59571337354E+02  0.25500000920E-02 0.  1.
    10030    2    1    2    0    0  0.00000000000E+00  0.00000000000E+00  0.14641290451E+04  0.15832717197E+04  0.60255744777E+03 0.  0.
        2    1    3    3  502    0 -0.22995045624E+03 -0.39715387207E+02  0.23134317858E+03  0.32859426439E+03  0.25500000920E-02 0.  1.
       -2    1    3    3    0  502  0.22995045624E+03  0.39715387207E+02  0.12327858665E+04  0.12546774553E+04  0.25500000920E-02 0. -1.
</event>
<event>
 5   0  0.5125031E-02  0.5973842E+03  0.7818609E-02  0.9910848E-01
       -1   -1    0    0    0  501  0.00000000000E+00  0.00000000000E+00  0.16455694894E+03  0.16455694901E+03  0.50400001928E-02 0.  1.
        1   -1    0    0  501    0  0.00000000000E+00  0.00000000000E+00 -0.54216466575E+03  0.54216466577E+03  0.50400001928E-02 0. -1.
    10030    2    1    2    0    0  0.00000000000E+00  0.00000000000E+00 -0.37760771681E+03  0.70672161479E+03  0.59738417539E+03 0.  0.
        4    1    3    3  502    0  0.53368704238E+02  0.25228782288E+03 -0.10492267115E+02  0.25808731998E+03  0.12699999809E+01 0.  1.
       -4    1    3    3    0  502 -0.53368704238E+02 -0.25228782288E+03 -0.36711544970E+03  0.44863429480E+03  0.12699999809E+01 0. -1.
</event>
<event>
 5   0  0.4987389E-02  0.5958852E+03  0.7818609E-02  0.9913980E-01
       -1   -1    0    0    0  501  0.00000000000E+00  0.00000000000E+00  0.92021111402E+02  0.92021111540E+02  0.50400001928E-02 0. -1.
        1   -1    0    0  501    0  0.00000000000E+00  0.00000000000E+00 -0.96466764235E+03  0.96466764236E+03  0.50400001928E-02 0.  1.
    10030    2    1    2    0    0  0.00000000000E+00  0.00000000000E+00 -0.87264653095E+03  0.10566887539E+04  0.59588518580E+03 0.  0.
        1    1    3    3  502    0 -0.45492289764E+02  0.19078914572E+03 -0.38612473514E+02  0.19990240041E+03  0.50400001928E-02 0. -1.
       -1    1    3    3    0  502  0.45492289764E+02 -0.19078914572E+03 -0.83403405744E+03  0.85678635350E+03  0.50400001928E-02 0.  1.
</event>
<event>
 5   0  0.4987389E-02  0.5942731E+03  0.7818609E-02  0.9917359E-01
       -1   -1    0    0    0  501  0.00000000000E+00  0.00000000000E+00  0.16501696232E+03  0.16501696240E+03  0.50400001928E-02 0.  1.
        1   -1    0    0  501    0  0.00000000000E+00  0.00000000000E+00 -0.53503666686E+03  0.53503666689E+03  0.50400001928E-02 0. -1.
    10030    2    1    2    0    0  0.00000000000E+00  0.00000000000E+00 -0.37001970454E+03  0.70005362928E+03  0.59427308716E+03 0.  0.
        1    1    3    3  502    0 -0.18674168452E+03  0.70390442503E+02 -0.44433805101E+03  0.48709708963E+03  0.50400001928E-02 0. -1.
       -1    1    3    3    0  502  0.18674168452E+03 -0.70390442503E+02  0.74318346466E+02  0.21295653965E+03  0.50400001928E-02 0.  1.
</event>
<event>
 5   0  0.5190380E-02  0.6061951E+03  0.7818609E-02  0.9892636E-01
        1   -1    0    0  501    0  0.00000000000E+00  0.00000000000E+00  0.66070375622E+03  0.66070375624E+03  0.50400001928E-02 0. -1.
       -1   -1    0    0    0  501  0.00000000000E+00  0.00000000000E+00 -0.13904586835E+03  0.13904586844E+03  0.50400001928E-02 0.  1.
    10030    2    1    2    0    0  0.00000000000E+00  0.00000000000E+00  0.52165788787E+03  0.79974962468E+03  0.60619510901E+03 0.  0.
        5    1    3    3  502    0 -0.42875483188E+02 -0.21037613325E+03  0.54301485690E+03  0.58393805264E+03  0.46999998093E+01 0. -1.
       -5    1    3    3    0  502  0.42875483188E+02  0.21037613325E+03 -0.21356969032E+02  0.21581157204E+03  0.46999998093E+01 0.  1.
</event>
<event>
 5   0  0.8575590E-02  0.6127390E+03  0.7818609E-02  0.9879324E-01
        2   -1    0    0  501    0  0.00000000000E+00  0.00000000000E+00  0.14829365355E+04  0.14829365355E+04  0.25500000920E-02 0. -1.
       -2   -1    0    0    0  501  0.00000000000E+00  0.00000000000E+00 -0.63294864645E+02  0.63294864696E+02  0.25500000920E-02 0.  1.
    10030    2    1    2    0    0  0.00000000000E+00  0.00000000000E+00  0.14196416708E+04  0.15462314002E+04  0.61273898955E+03 0.  0.
        4    1    3    3  502    0 -0.10050089492E+03 -0.16742393687E+03  0.13055396965E+04  0.13200631487E+04  0.12699999809E+01 0. -1.
       -4    1    3    3    0  502  0.10050089492E+03  0.16742393687E+03  0.11410197428E+03  0.22616825142E+03  0.12699999809E+01 0.  1.
</event>
<event>
 5   0  0.4987389E-02  0.6044370E+03  0.7818609E-02  0.9896243E-01
       -1   -1    0    0    0  501  0.00000000000E+00  0.00000000000E+00  0.20357508715E+03  0.20357508721E+03  0.50400001928E-02 0.  1.
        1   -1    0    0  501    0  0.00000000000E+00  0.00000000000E+00 -0.44866018069E+03  0.44866018072E+03  0.50400001928E-02 0. -1.
    10030    2    1    2    0    0  0.00000000000E+00  0.00000000000E+00 -0.24508509355E+03  0.65223526793E+03  0.60443704524E+03 0.  0.
        1    1    3    3  502    0  0.79939565968E+00  0.30067666694E+03 -0.15543124186E+03  0.33847594899E+03  0.50400001928E-02 0.  1.
       -1    1    3    3    0  502 -0.79939565968E+00 -0.30067666694E+03 -0.89653851685E+02  0.31375931894E+03  0.50400001928E-02 0. -1.
</event>
<event>
 5   0  0.8575590E-02  0.5251750E+03  0.7818609E-02  0.1007409E+00
       -2   -1    0    0    0  501  0.00000000000E+00  0.00000000000E+00  0.48904121530E+02  0.48904121596E+02  0.25500000920E-02 0. -1.
        2   -1    0    0  501    0  0.00000000000E+00  0.00000000000E+00 -0.14099463363E+04  0.14099463363E+04  0.25500000920E-02 0.  1.
    10030    2    1    2    0    0  0.00000000000E+00  0.00000000000E+00 -0.13610422148E+04  0.14588504579E+04  0.52517496906E+03 0.  0.
        4    1    3    3  502    0  0.66762146687E+02 -0.13147276495E+03 -0.76967364705E+02  0.16633658733E+03  0.12699999809E+01 0. -1.
       -4    1    3    3    0  502 -0.66762146687E+02  0.13147276495E+03 -0.12840748501E+04  0.12925138706E+04  0.12699999809E+01 0.  1.
</event>
<event>
 5   0  0.8699746E-02  0.6123966E+03  0.7818609E-02  0.9880016E-01
        2   -1    0    0  501    0  0.00000000000E+00  0.00000000000E+00  0.64376221447E+03  0.64376221447E+03  0.25500000920E-02 0.  1.
       -2   -1    0    0    0  501  0.00000000000E+00  0.00000000000E+00 -0.14563980799E+03  0.14563980802E+03  0.25500000920E-02 0. -1.
    10030    2    1    2    0    0  0.00000000000E+00  0.00000000000E+00  0.49812240647E+03  0.78940202249E+03  0.61239662089E+03 0.  0.
        3    1    3    3  502    0  0.26077343239E+03 -0.88286785209E+02  0.42181169323E+03  0.50370869977E+03  0.10100000352E+00 0.  1.
       -3    1    3    3    0  502 -0.26077343239E+03  0.88286785209E+02  0.76310713247E+02  0.28569332271E+03  0.10100000352E+00 0. -1.
</event>
<event>
 5   0  0.8207443E-02  0.5947485E+03  0.7818609E-02  0.9916361E-01
       -2   -1    0    0    0  501  0.00000000000E+00  0.00000000000E+00  0.58763238952E+02  0.58763239007E+02  0.25500000920E-02 0. -1.
        2   -1    0    0  501    0  0.00000000000E+00  0.00000000000E+00 -0.15048771502E+04  0.15048771503E+04  0.25500000920E-02 0.  1.
    10030    2    1    2    0    0  0.00000000000E+00  0.00000000000E+00 -0.14461139113E+04  0.15636403893E+04  0.59474853717E+03 0.  0.
        1    1    3    3  502    0  0.84635429340E+02 -0.78880073491E+02 -0.14432815506E+04  0.14479112046E+04  0.50400001928E-02 0.  1.
       -1    1    3    3    0  502 -0.84635429340E+02  0.78880073491E+02 -0.28323606515E+01  0.11572918468E+03  0.50400001928E-02 0. -1.
</event>
<event>
 5   0  0.8575590E-02  0.6013617E+03  0.7818609E-02  0.9902585E-01
        2   -1    0    0  501    0  0.00000000000E+00  0.00000000000E+00  0.14396577193E+03  0.14396577196E+03  0.25500000920E-02 0. -1.
       -2   -1    0    0    0  501  0.00000000000E+00  0.00000000000E+00 -0.62798935413E+03  0.62798935413E+03  0.25500000920E-02 0.  1.
    10030    2    1    2    0    0  0.00000000000E+00  0.00000000000E+00 -0.48402358219E+03  0.77195512609E+03  0.60136169530E+03 0.  0.
        4    1    3    3  502    0  0.55721089213E+02  0.13758432938E+03  0.93647628854E+02  0.17551575076E+03  0.12699999809E+01 0. -1.
       -4    1    3    3    0  502 -0.55721089213E+02 -0.13758432938E+03 -0.57767121105E+03  0.59643937533E+03  0.12699999809E+01 0.  1.
</event>
<event>
 5   0  0.4987389E-02  0.6393970E+03  0.7818609E-02  0.9826881E-01
       -1   -1    0    0    0  501  0.00000000000E+00  0.00000000000E+00  0.61428532346E+02  0.61428532552E+02  0.50400001928E-02 0.  1.
        1   -1    0    0  501    0  0.00000000000E+00  0.00000000000E+00 -0.16638380161E+04  0.16638380161E+04  0.50400001928E-02 0. -1.
    10030    2    1    2    0    0  0.00000000000E+00  0.00000000000E+00 -0.16024094837E+04  0.17252665486E+04  0.63939698959E+03 0.  0.
        1    1    3    3  502    0 -0.10756224407E+03 -0.59166258161E+02 -0.47033657583E+01  0.12285114622E+03  0.50400001928E-02 0.  1.
       -1    1    3    3    0  502  0.10756224407E+03  0.59166258161E+02 -0.15977061180E+04  0.16024154024E+04  0.50400001928E-02 0. -1.
</event>
<event>
 5   0  0.8699746E-02  0.5952489E+03  0.7818609E-02  0.9915312E-01
       -2   -1    0    0    0  501  0.00000000000E+00  0.00000000000E+00  0.85820928369E+02  0.85820928407E+02  0.25500000920E-02 0.  1.
        2   -1    0    0  501    0  0.00000000000E+00  0.00000000000E+00 -0.10321527267E+04  0.10321527267E+04  0.25500000920E-02 0. -1.
    10030    2    1    2    0    0  0.00000000000E+00  0.00000000000E+00 -0.94633179836E+03  0.11179736551E+04  0.59524887316E+03 0.  0.
        3    1    3    3  502    0 -0.20149165328E+02  0.24476209177E+03 -0.78893077364E+03  0.82627250119E+03  0.10100000352E+00 0.  1.
       -3    1    3    3    0  502  0.20149165328E+02 -0.24476209177E+03 -0.15740102472E+03  0.29170115395E+03  0.10100000352E+00 0. -1.
</event>
<event>
 5   0  0.4987389E-02  0.6182741E+03  0.7818609E-02  0.9868202E-01
       -1   -1    0    0    0  501  0.00000000000E+00  0.00000000000E+00  0.53543748788E+03  0.53543748790E+03  0.50400001928E-02 0.  1.
        1   -1    0    0  501    0  0.00000000000E+00  0.00000000000E+00 -0.17848156889E+03  0.17848156896E+03  0.50400001928E-02 0. -1.
    10030    2    1    2    0    0  0.00000000000E+00  0.00000000000E+00  0.35695591899E+03  0.71391905686E+03  0.61827412339E+03 0.  0.
        1    1    3    3  502    0  0.14836930083E+03 -0.14934214298E+03 -0.82925565904E+02  0.22625908734E+03  0.50400001928E-02 0. -1.
       -1    1    3    3    0  502 -0.14836930083E+03  0.14934214298E+03  0.43988148489E+03  0.48765996952E+03  0.50400001928E-02 0.  1.
</event>
<event>
 5   0  0.3437375E-02  0.6038742E+03  0.7818609E-02  0.9897401E-01
       -3   -1    0    0    0  501  0.00000000000E+00  0.00000000000E+00  0.83536206274E+03  0.83536206885E+03  0.10100000352E+00 0. -1.
        3   -1    0    0  501    0  0.00000000000E+00  0.00000000000E+00 -0.10913350593E+03  0.10913355267E+03  0.10100000352E+00 0.  1.
    10030    2    1    2    0    0  0.00000000000E+00  0.00000000000E+00  0.72622855681E+03  0.94449562152E+03  0.60387421069E+03 0.  0.
        5    1    3    3  502    0  0.29374547726E+03 -0.49404722668E+02  0.44000328640E+03  0.53136824715E+03  0.46999998093E+01 0.  1.
       -5    1    3    3    0  502 -0.29374547726E+03  0.49404722668E+02  0.28622527041E+03  0.41312737437E+03  0.46999998093E+01 0. -1.
</event>
<event>
 5   0  0.8575590E-02  0.6131283E+03  0.7818609E-02  0.9878537E-01
        2   -1    0    0  501    0  0.00000000000E+00  0.00000000000E+00  0.57109146109E+03  0.57109146109E+03  0.25500000920E-02 0.  1.
       -2   -1    0    0    0  501  0.00000000000E+00  0.00000000000E+00 -0.16456482875E+03  0.16456482877E+03  0.25500000920E-02 0. -1.
    10030    2    1    2    0    0  0.00000000000E+00  0.00000000000E+00  0.40652663234E+03  0.73565628987E+03  0.61312826882E+03 0.  0.
        4    1    3    3  502    0  0.28646088352E+03 -0.10865591477E+03  0.19045196041E+03  0.36074853808E+03  0.12699999809E+01 0. -1.
       -4    1    3    3    0  502 -0.28646088352E+03  0.10865591477E+03  0.21607467193E+03  0.37490775179E+03  0.12699999809E+01 0.  1.
</event>
<event>
 5   0  0.8420604E-02  0.5999631E+03  0.7818609E-02  0.9905483E-01
        2   -1    0    0  501    0  0.00000000000E+00  0.00000000000E+00  0.15522728824E+04  0.15522728824E+04  0.25500000920E-02 0. -1.
       -2   -1    0    0    0  501  0.00000000000E+00  0.00000000000E+00 -0.57972367925E+02  0.57972367981E+02  0.25500000920E-02 0.  1.
    10030    2    1    2    0    0  0.00000000000E+00  0.00000000000E+00  0.14943005144E+04  0.16102452503E+04  0.59996311454E+03 0.  0.
        2    1    3    3  502    0  0.21724210071E+03 -0.17347368985E+03  0.44466924621E+03  0.52442157652E+03  0.25500000920E-02 0.  1.
       -2    1    3    3    0  502 -0.21724210071E+03  0.17347368985E+03  0.10496312682E+04  0.10858236738E+04  0.25500000920E-02 0. -1.
</event>
<event>
 5   0  0.8207443E-02  0.6023861E+03  0.7818609E-02  0.9900468E-01
        2   -1    0    0  501    0  0.00000000000E+00  0.00000000000E+00  0.24037125441E+03  0.24037125442E+03  0.25500000920E-02 0. -1.
       -2   -1    0    0    0  501  0.00000000000E+00  0.00000000000E+00 -0.37740474238E+03  0.37740474239E+03  0.25500000920E-02 0.  1.
    10030    2    1    2    0    0  0.00000000000E+00  0.00000000000E+00 -0.13703348797E+03  0.61777599681E+03  0.60238609330E+03 0.  0.
        1    1    3    3  502    0  0.22636515895E+02  0.86350312339E+02  0.22649279638E+03  0.24344973840E+03  0.50400001928E-02 0. -1.
       -1    1    3    3    0  502 -0.22636515895E+02 -0.86350312339E+02 -0.36352628435E+03  0.37432625840E+03  0.50400001928E-02 0.  1.
</event>
<event>
 5   0  0.8699746E-02  0.6080903E+03  0.7818609E-02  0.9888762E-01
        2   -1    0    0  501    0  0.00000000000E+00  0.00000000000E+00  0.69808485786E+03  0.69808485787E+03  0.25500000920E-02 0. -1.
       -2   -1    0    0    0  501  0.00000000000E+00  0.00000000000E+00 -0.13242437349E+03  0.13242437351E+03  0.25500000920E-02 0.  1.
    10030    2    1    2    0    0  0.00000000000E+00  0.00000000000E+00  0.56566048437E+03  0.83050923138E+03  0.60809028921E+03 0.  0.
        3    1    3    3  502    0 -0.20276086167E+03  0.10936682501E+03  0.55382515981E+03  0.59982946516E+03  0.10100000352E+00 0. -1.
       -3    1    3    3    0  502  0.20276086167E+03 -0.10936682501E+03  0.11835324564E+02  0.23067976622E+03  0.10100000352E+00 0.  1.
</event>
<event>
 5   0  0.5190380E-02  0.6197066E+03  0.7818609E-02  0.9865344E-01
        1   -1    0    0  501    0  0.00000000000E+00  0.00000000000E+00  0.70583000370E+03  0.70583000371E+03  0.50400001928E-02 0.  1.
       -1   -1    0    0    0  501  0.00000000000E+00  0.00000000000E+00 -0.13602295042E+03  0.13602295051E+03  0.50400001928E-02 0. -1.
    10030    2    1    2    0    0  0.00000000000E+00  0.00000000000E+00  0.56980705328E+03  0.84185295422E+03  0.61970663912E+03 0.  0.
        5    1    3    3  502    0  0.25482693339E+03  0.15929347218E+03  0.18255911225E+03  0.35165479625E+03  0.46999998093E+01 0. -1.
       -5    1    3    3    0  502 -0.25482693339E+03 -0.15929347218E+03  0.38724794102E+03  0.49019815798E+03  0.46999998093E+01 0.  1.
</event>
<event>
 5   0  0.8420604E-02  0.6043917E+03  0.7818609E-02  0.9896336E-01
       -2   -1    0    0    0  501  0.00000000000E+00  0.00000000000E+00  0.13568471503E+03  0.13568471505E+03  0.25500000920E-02 0.  1.
        2   -1    0    0  501    0  0.00000000000E+00  0.00000000000E+00 -0.67304799520E+03  0.67304799521E+03  0.25500000920E-02 0. -1.
    10030    2    1    2    0    0  0.00000000000E+00  0.00000000000E+00 -0.53736328018E+03  0.80873271026E+03  0.60439167910E+03 0.  0.
        2    1    3    3  502    0  0.20509270580E+03  0.66269562606E+01 -0.56553160504E+03  0.60160861931E+03  0.25500000920E-02 0. -1.
       -2    1    3    3    0  502 -0.20509270580E+03 -0.66269562606E+01  0.28168324860E+02  0.20712409095E+03  0.25500000920E-02 0.  1.
</event>
<event>
 5   0  0.5166903E-02  0.6138411E+03  0.7818609E-02  0.9877099E-01
       -1   -1    0    0    0  501  0.00000000000E+00  0.00000000000E+00  0.76966569518E+02  0.76966569683E+02  0.50400001928E-02 0. -1.
        1   -1    0    0  501    0  0.00000000000E+00  0.00000000000E+00 -0.12239107187E+04  0.12239107187E+04  0.50400001928E-02 0.  1.
    10030    2    1    2    0    0  0.00000000000E+00  0.00000000000E+00 -0.11469441492E+04  0.13008772884E+04  0.61384105281E+03 0.  0.
        2    1    3    3  502    0  0.27640062701E+03  0.12870827715E+03 -0.64801041152E+03  0.71615684083E+03  0.25500000920E-02 0. -1.
       -2    1    3    3    0  502 -0.27640062701E+03 -0.12870827715E+03 -0.49893373768E+03  0.58472044758E+03  0.25500000920E-02 0.  1.
</event>
<event>
 5   0  0.5166903E-02  0.6192056E+03  0.7818609E-02  0.9866343E-01
       -1   -1    0    0    0  501  0.00000000000E+00  0.00000000000E+00  0.52419107218E+02  0.52419107461E+02  0.50400001928E-02 0. -1.
        1   -1    0    0  501    0  0.00000000000E+00  0.00000000000E+00 -0.18286062705E+04  0.18286062705E+04  0.50400001928E-02 0.  1.
    10030    2    1    2    0    0  0.00000000000E+00  0.00000000000E+00 -0.17761871633E+04  0.18810253780E+04  0.61920564723E+03 0.  0.
        2    1    3    3  502    0 -0.34308380859E+01  0.10057870204E+03 -0.17775326146E+04  0.17803791848E+04  0.25500000920E-02 0.  1.
       -2    1    3    3    0  502  0.34308380859E+01 -0.10057870204E+03  0.13454512461E+01  0.10064619317E+03  0.25500000920E-02 0. -1.
</event>
<event>
 5   0  0.5125031E-02  0.5942183E+03  0.7818609E-02  0.9917474E-01
       -1   -1    0    0    0  501  0.00000000000E+00  0.00000000000E+00  0.10407065488E+03  0.10407065500E+03  0.50400001928E-02 0. -1.
        1   -1    0    0  501    0  0.00000000000E+00  0.00000000000E+00 -0.84821086800E+03  0.84821086802E+03  0.50400001928E-02 0.  1.
    10030    2    1    2    0    0  0.00000000000E+00  0.00000000000E+00 -0.74414021312E+03  0.95228152302E+03  0.59421834565E+03 0.  0.
        4    1    3    3  502    0 -0.86544502507E+02 -0.52652594465E+02  0.75534393223E+02  0.12636971187E+03  0.12699999809E+01 0. -1.
       -4    1    3    3    0  502  0.86544502507E+02  0.52652594465E+02 -0.81967460634E+03  0.82591181115E+03  0.12699999809E+01 0.  1.
</event>
<event>
 5   0  0.5190380E-02  0.6581894E+03  0.7818609E-02  0.9791533E-01
       -1   -1    0    0    0  501  0.00000000000E+00  0.00000000000E+00  0.13195991531E+03  0.13195991540E+03  0.50400001928E-02 0.  1.
        1   -1    0    0  501    0  0.00000000000E+00  0.00000000000E+00 -0.82072884964E+03  0.82072884965E+03  0.50400001928E-02 0. -1.
    10030    2    1    2    0    0  0.00000000000E+00  0.00000000000E+00 -0.68876893433E+03  0.95268876506E+03  0.65818936345E+03 0.  0.
        5    1    3    3  502    0 -0.77381548916E+01 -0.46224300761E+02  0.12705557527E+03  0.13550562433E+03  0.46999998093E+01 0.  1.
       -5    1    3    3    0  502  0.77381548916E+01  0.46224300761E+02 -0.81582450960E+03  0.81718314072E+03  0.46999998093E+01 0. -1.
</event>
<event>
 5   0  0.5190380E-02  0.5973912E+03  0.7818609E-02  0.9910833E-01
        1   -1    0    0  501    0  0.00000000000E+00  0.00000000000E+00  0.11605025220E+04  0.11605025220E+04  0.50400001928E-02 0.  1.
       -1   -1    0    0    0  501  0.00000000000E+00  0.00000000000E+00 -0.76879685675E+02  0.76879685840E+02  0.50400001928E-02 0. -1.
    10030    2    1    2    0    0  0.00000000000E+00  0.00000000000E+00  0.10836228364E+04  0.12373822079E+04  0.59739122601E+03 0.  0.
        5    1    3    3  502    0  0.12358998863E+03  0.26572403786E+03  0.42258546689E+03  0.51428038696E+03  0.46999998093E+01 0.  1.
       -5    1    3    3    0  502 -0.12358998863E+03 -0.26572403786E+03  0.66103736946E+03  0.72310182092E+03  0.46999998093E+01 0. -1.
</event>
<event>
 5   0  0.3437375E-02  0.6103472E+03  0.7818609E-02  0.9884168E-01
       -3   -1    0    0    0  501  0.00000000000E+00  0.00000000000E+00  0.50104170530E+03  0.50104171548E+03  0.10100000352E+00 0.  1.
        3   -1    0    0  501    0  0.00000000000E+00  0.00000000000E+00 -0.18587459649E+03  0.18587462393E+03  0.10100000352E+00 0. -1.
    10030    2    1    2    0    0  0.00000000000E+00  0.00000000000E+00  0.31516710881E+03  0.68691633941E+03  0.61034723795E+03 0.  0.
        5    1    3    3  502    0 -0.94977801976E+02 -0.17558191886E+02 -0.16817547137E+03  0.19399523742E+03  0.46999998093E+01 0. -1.
       -5    1    3    3    0  502  0.94977801976E+02  0.17558191886E+02  0.48334258018E+03  0.49292110199E+03  0.46999998093E+01 0.  1.
</event>
<event>
 5   0  0.8699746E-02  0.5999721E+03  0.7818609E-02  0.9905464E-01
       -2   -1    0    0    0  501  0.00000000000E+00  0.00000000000E+00  0.62349337227E+03  0.62349337228E+03  0.25500000920E-02 0. -1.
        2   -1    0    0  501    0  0.00000000000E+00  0.00000000000E+00 -0.14433453923E+03  0.14433453925E+03  0.25500000920E-02 0.  1.
    10030    2    1    2    0    0  0.00000000000E+00  0.00000000000E+00  0.47915883305E+03  0.76782791153E+03  0.59997209471E+03 0.  0.
        3    1    3    3  502    0 -0.30936590406E+02 -0.18982507302E+03  0.53420796370E+03  0.56777529856E+03  0.10100000352E+00 0. -1.
       -3    1    3    3    0  502  0.30936590406E+02  0.18982507302E+03 -0.55049130649E+02  0.20005261297E+03  0.10100000352E+00 0.  1.
</event>
<event>
 5   0  0.8699746E-02  0.5778191E+03  0.7818609E-02  0.9952524E-01
       -2   -1    0    0    0  501  0.00000000000E+00  0.00000000000E+00  0.31260876855E+03  0.31260876856E+03  0.25500000920E-02 0. -1.
        2   -1    0    0  501    0  0.00000000000E+00  0.00000000000E+00 -0.26700702208E+03  0.26700702210E+03  0.25500000920E-02 0.  1.
    10030    2    1    2    0    0  0.00000000000E+00  0.00000000000E+00  0.45601746461E+02  0.57961579065E+03  0.57781912870E+03 0.  0.
        3    1    3    3  502    0  0.14880955260E+03  0.52485197162E+02  0.26556525556E+03  0.30890758169E+03  0.10100000352E+00 0. -1.
       -3    1    3    3    0  502 -0.14880955260E+03 -0.52485197162E+02 -0.21996350909E+03  0.27070820896E+03  0.10100000352E+00 0.  1.
</event>
<event>
 5   0  0.5190380E-02  0.5977101E+03  0.7818609E-02  0.9910168E-01
       -1   -1    0    0    0  501  0.00000000000E+00  0.00000000000E+00  0.97513914891E+02  0.97513915021E+02  0.50400001928E-02 0.  1.
        1   -1    0    0  501    0  0.00000000000E+00  0.00000000000E+00 -0.91591386998E+03  0.91591387000E+03  0.50400001928E-02 0. -1.
    10030    2    1    2    0    0  0.00000000000E+00  0.00000000000E+00 -0.81839995509E+03  0.10134277850E+04  0.59771012117E+03 0.  0.
        5    1    3    3  502    0 -0.73138704244E+02  0.15787310151E+03  0.27062725064E+01  0.17407642043E+03  0.46999998093E+01 0.  1.
       -5    1    3    3    0  502  0.73138704244E+02 -0.15787310151E+03 -0.82110622760E+03  0.83935136459E+03  0.46999998093E+01 0. -1.
</event>
<event>
 5   0  0.8207443E-02  0.6235292E+03  0.7818609E-02  0.9857758E-01
       -2   -1    0    0    0  501  0.00000000000E+00  0.00000000000E+00  0.32929618415E+03  0.32929618416E+03  0.25500000920E-02 0.  1.
        2   -1    0    0  501    0  0.00000000000E+00  0.00000000000E+00 -0.29516642210E+03  0.29516642211E+03  0.25500000920E-02 0. -1.
    10030    2    1    2    0    0  0.00000000000E+00  0.00000000000E+00  0.34129762050E+02  0.62446260627E+03  0.62352923426E+03 0.  0.
        1    1    3    3  502    0  0.16559596698E+03 -0.85409122342E+02  0.26739991685E+03  0.32591326763E+03  0.50400001928E-02 0.  1.
       -1    1    3    3    0  502 -0.16559596698E+03  0.85409122342E+02 -0.23327015480E+03  0.29854933864E+03  0.50400001928E-02 0. -1.
</event>
<event>
 5   0  0.5166903E-02  0.6020754E+03  0.7818609E-02  0.9901110E-01
       -1   -1    0    0    0  501  0.00000000000E+00  0.00000000000E+00  0.94987523188E+02  0.94987523321E+02  0.50400001928E-02 0. -1.
        1   -1    0    0  501    0  0.00000000000E+00  0.00000000000E+00 -0.95405879472E+03  0.95405879473E+03  0.50400001928E-02 0.  1.
    10030    2    1    2    0    0  0.00000000000E+00  0.00000000000E+00 -0.85907127153E+03  0.10490463181E+04  0.60207535064E+03 0.  0.
        2    1    3    3  502    0  0.11086477512E+03  0.18905425074E+03 -0.69948934613E+02  0.23005512719E+03  0.25500000920E-02 0. -1.
       -2    1    3    3    0  502 -0.11086477512E+03 -0.18905425074E+03 -0.78912233692E+03  0.81899119087E+03  0.25500000920E-02 0.  1.
</event>
<event>
 5   0  0.8699746E-02  0.6310348E+03  0.7818609E-02  0.9843032E-01
        2   -1    0    0  501    0  0.00000000000E+00  0.00000000000E+00  0.11969805476E+04  0.11969805476E+04  0.25500000920E-02 0.  1.
       -2   -1    0    0    0  501  0.00000000000E+00  0.00000000000E+00 -0.83168621016E+02  0.83168621055E+02  0.25500000920E-02 0. -1.
    10030    2    1    2    0    0  0.00000000000E+00  0.00000000000E+00  0.11138119266E+04  0.12801491687E+04  0.63103477418E+03 0.  0.
        3    1    3    3  502    0  0.97504668405E+02  0.69396202807E+02 -0.35335746569E+02  0.12478629136E+03  0.10100000352E+00 0. -1.
       -3    1    3    3    0  502 -0.97504668405E+02 -0.69396202807E+02  0.11491476732E+04  0.11553628773E+04  0.10100000352E+00 0.  1.
</event>
<event>
 5   0  0.8575590E-02  0.6039197E+03  0.7818609E-02  0.9897307E-01
        2   -1    0    0  501    0  0.00000000000E+00  0.00000000000E+00  0.34313027146E+03  0.34313027146E+03  0.25500000920E-02 0. -1.
       -2   -1    0    0    0  501  0.00000000000E+00  0.00000000000E+00 -0.26572927539E+03  0.26572927540E+03  0.25500000920E-02 0.  1.
    10030    2    1    2    0    0  0.00000000000E+00  0.00000000000E+00  0.77400996066E+02  0.60885954687E+03  0.60391972448E+03 0.  0.
        4    1    3    3  502    0  0.16426153725E+03 -0.10844788472E+03  0.26956118738E+03  0.33377783474E+03  0.12699999809E+01 0. -1.
       -4    1    3    3    0  502 -0.16426153725E+03  0.10844788472E+03 -0.19216019132E+03  0.27508171213E+03  0.12699999809E+01 0.  1.
</event>
<event>
 5   0  0.8817544E-02  0.4620863E+03  0.7818609E-02  0.1024178E+00
        2   -1    0    0  501    0  0.00000000000E+00  0.00000000000E+00  0.20170593529E+04  0.20170593529E+04  0.25500000920E-02 0. -1.
       -2   -1    0    0    0  501  0.00000000000E+00  0.00000000000E+00 -0.26464731495E+02  0.26464731618E+02  0.25500000920E-02 0.  1.
    10030    2    1    2    0    0  0.00000000000E+00  0.00000000000E+00  0.19905946214E+04  0.20435240845E+04  0.46208628766E+03 0.  0.
        5    1    3    3  502    0 -0.19231824935E+03 -0.11698151809E+03  0.76602058126E+03  0.79842382574E+03  0.46999998093E+01 0.  1.
       -5    1    3    3    0  502  0.19231824935E+03  0.11698151809E+03  0.12245740401E+04  0.12451002588E+04  0.46999998093E+01 0. -1.
</event>
<event>
 5   0  0.4987389E-02  0.5983326E+03  0.7818609E-02  0.9908871E-01
        1   -1    0    0  501    0  0.00000000000E+00  0.00000000000E+00  0.46721940038E+03  0.46721940041E+03  0.50400001928E-02 0.  1.
       -1   -1    0    0    0  501  0.00000000000E+00  0.00000000000E+00 -0.19155985103E+03  0.19155985109E+03  0.50400001928E-02 0. -1.
    10030    2    1    2    0    0  0.00000000000E+00  0.00000000000E+00  0.27565954936E+03  0.65877925150E+03  0.59833261240E+03 0.  0.
        1    1    3    3  502    0 -0.12036750050E+03  0.25596488240E+03  0.30548319921E+02  0.28449878044E+03  0.50400001928E-02 0. -1.
       -1    1    3    3    0  502  0.12036750050E+03 -0.25596488240E+03  0.24511122944E+03  0.37428047106E+03  0.50400001928E-02 0.  1.
</event>
<event>
 5   0  0.3437375E-02  0.6066061E+03  0.7818609E-02  0.9891795E-01
       -3   -1    0    0    0  501  0.00000000000E+00  0.00000000000E+00  0.40887689017E+03  0.40887690264E+03  0.10100000352E+00 0.  1.
        3   -1    0    0  501    0  0.00000000000E+00  0.00000000000E+00 -0.22498878529E+03  0.22498880796E+03  0.10100000352E+00 0. -1.
    10030    2    1    2    0    0  0.00000000000E+00  0.00000000000E+00  0.18388810487E+03  0.63386571060E+03  0.60660605335E+03 0.  0.
        4    1    3    3  502    0 -0.32462371846E+02 -0.19288393940E+03 -0.15027675136E+03  0.24666320066E+03  0.12699999809E+01 0. -1.
       -4    1    3    3    0  502  0.32462371846E+02  0.19288393940E+03  0.33416485623E+03  0.38720250994E+03  0.12699999809E+01 0.  1.
</event>
<event>
 5   0  0.3437375E-02  0.5998338E+03  0.7818609E-02  0.9905751E-01
       -3   -1    0    0    0  501  0.00000000000E+00  0.00000000000E+00  0.43966707472E+03  0.43966708632E+03  0.10100000352E+00 0.  1.
        3   -1    0    0  501    0  0.00000000000E+00  0.00000000000E+00 -0.20458689237E+03  0.20458691730E+03  0.10100000352E+00 0. -1.
    10030    2    1    2    0    0  0.00000000000E+00  0.00000000000E+00  0.23508018235E+03  0.64425400361E+03  0.59983375117E+03 0.  0.
        3    1    3    3  502    0  0.18433000395E+03 -0.32402401238E+02  0.36925097421E+03  0.41397313695E+03  0.10100000352E+00 0.  1.
       -3    1    3    3    0  502 -0.18433000395E+03  0.32402401238E+02 -0.13417079186E+03  0.23028086666E+03  0.10100000352E+00 0. -1.
</event>
<event>
 5   0  0.4987389E-02  0.6336806E+03  0.7818609E-02  0.9837893E-01
       -1   -1    0    0    0  501  0.00000000000E+00  0.00000000000E+00  0.87604429277E+02  0.87604429422E+02  0.50400001928E-02 0. -1.
        1   -1    0    0  501    0  0.00000000000E+00  0.00000000000E+00 -0.11459211740E+04  0.11459211740E+04  0.50400001928E-02 0.  1.
    10030    2    1    2    0    0  0.00000000000E+00  0.00000000000E+00 -0.10583167447E+04  0.12335256034E+04  0.63368058369E+03 0.  0.
        1    1    3    3  502    0 -0.73467997990E+01  0.11037140193E+03  0.48796230152E+02  0.12090034712E+03  0.50400001928E-02 0. -1.
       -1    1    3    3    0  502  0.73467997990E+01 -0.11037140193E+03 -0.11071129748E+04  0.11126252563E+04  0.50400001928E-02 0.  1.
</event>
<event>
 5   0  0.3437375E-02  0.6005881E+03  0.7818609E-02  0.9904187E-01
       -3   -1    0    0    0  501  0.00000000000E+00  0.00000000000E+00  0.39924739265E+03  0.39924740542E+03  0.10100000352E+00 0. -1.
        3   -1    0    0  501    0  0.00000000000E+00  0.00000000000E+00 -0.22586622941E+03  0.22586625200E+03  0.10100000352E+00 0.  1.
    10030    2    1    2    0    0  0.00000000000E+00  0.00000000000E+00  0.17338116323E+03  0.62511365742E+03  0.60058809256E+03 0.  0.
        5    1    3    3  502    0  0.14853137808E+03  0.97336713245E+02 -0.16530870855E+03  0.24266245103E+03  0.46999998093E+01 0.  1.
       -5    1    3    3    0  502 -0.14853137808E+03 -0.97336713245E+02  0.33868987178E+03  0.38245120639E+03  0.46999998093E+01 0. -1.
</event>
<event>
 5   0  0.5125031E-02  0.5959324E+03  0.7818609E-02  0.9913881E-01
       -1   -1    0    0    0  501  0.00000000000E+00  0.00000000000E+00  0.68299998448E+02  0.68299998634E+02  0.50400001928E-02 0.  1.
        1   -1    0    0  501    0  0.00000000000E+00  0.00000000000E+00 -0.12999100001E+04  0.12999100001E+04  0.50400001928E-02 0. -1.
    10030    2    1    2    0    0  0.00000000000E+00  0.00000000000E+00 -0.12316100017E+04  0.13682099988E+04  0.59593238249E+03 0.  0.
        4    1    3    3  502    0  0.10940933650E+03  0.22840792098E+03 -0.97620993507E+03  0.10085276553E+04  0.12699999809E+01 0.  1.
       -4    1    3    3    0  502 -0.10940933650E+03 -0.22840792098E+03 -0.25540006662E+03  0.35968234348E+03  0.12699999809E+01 0. -1.
</event>
<event>
 5   0  0.4881209E-02  0.6104960E+03  0.7818609E-02  0.9883866E-01
        1   -1    0    0  501    0  0.00000000000E+00  0.00000000000E+00  0.14752107985E+03  0.14752107993E+03  0.50400001928E-02 0.  1.
       -1   -1    0    0    0  501  0.00000000000E+00  0.00000000000E+00 -0.63161366164E+03  0.63161366166E+03  0.50400001928E-02 0. -1.
    10030    2    1    2    0    0  0.00000000000E+00  0.00000000000E+00 -0.48409258179E+03  0.77913474159E+03  0.61049596052E+03 0.  0.
        3    1    3    3  502    0  0.19957660130E+03  0.10398638067E+03 -0.50524840505E+03  0.55310030570E+03  0.10100000352E+00 0. -1.
       -3    1    3    3    0  502 -0.19957660130E+03 -0.10398638067E+03  0.21155823260E+02  0.22603443590E+03  0.10100000352E+00 0.  1.
</event>
<event>
 5   0  0.8699746E-02  0.6045211E+03  0.7818609E-02  0.9896070E-01
       -2   -1    0    0    0  501  0.00000000000E+00  0.00000000000E+00  0.94721512133E+02  0.94721512167E+02  0.25500000920E-02 0. -1.
        2   -1    0    0  501    0  0.00000000000E+00  0.00000000000E+00 -0.96452696100E+03  0.96452696100E+03  0.25500000920E-02 0.  1.
    10030    2    1    2    0    0  0.00000000000E+00  0.00000000000E+00 -0.86980544886E+03  0.10592484732E+04  0.60452114027E+03 0.  0.
        3    1    3    3  502    0 -0.73719026951E+02  0.26239808522E+03 -0.66386104673E+03  0.71763413355E+03  0.10100000352E+00 0.  1.
       -3    1    3    3    0  502  0.73719026951E+02 -0.26239808522E+03 -0.20594440213E+03  0.34161433962E+03  0.10100000352E+00 0. -1.
</event>
<event>
 5   0  0.5166903E-02  0.6002097E+03  0.7818609E-02  0.9904971E-01
       -1   -1    0    0    0  501  0.00000000000E+00  0.00000000000E+00  0.88336244155E+02  0.88336244299E+02  0.50400001928E-02 0. -1.
        1   -1    0    0  501    0  0.00000000000E+00  0.00000000000E+00 -0.10195466920E+04  0.10195466920E+04  0.50400001928E-02 0.  1.
    10030    2    1    2    0    0  0.00000000000E+00  0.00000000000E+00 -0.93121044782E+03  0.11078829363E+04  0.60020971534E+03 0.  0.
        2    1    3    3  502    0 -0.10299222580E+03 -0.13842831155E+03 -0.91884160787E+03  0.93490090190E+03  0.25500000920E-02 0.  1.
       -2    1    3    3    0  502  0.10299222580E+03  0.13842831155E+03 -0.12368839954E+02  0.17298203439E+03  0.25500000920E-02 0. -1.
</event>
<event>
 5   0  0.5166903E-02  0.6043139E+03  0.7818609E-02  0.9896496E-01
       -1   -1    0    0    0  501  0.00000000000E+00  0.00000000000E+00  0.17183475616E+03  0.17183475623E+03  0.50400001928E-02 0. -1.
        1   -1    0    0  501    0  0.00000000000E+00  0.00000000000E+00 -0.53131756832E+03  0.53131756834E+03  0.50400001928E-02 0.  1.
    10030    2    1    2    0    0  0.00000000000E+00  0.00000000000E+00 -0.35948281216E+03  0.70315232457E+03  0.60431390793E+03 0.  0.
        2    1    3    3  502    0  0.23724672887E+00 -0.96763427591E+02 -0.51280193454E+03  0.52185155100E+03  0.25500000920E-02 0.  1.
       -2    1    3    3    0  502 -0.23724672887E+00  0.96763427591E+02  0.15331912238E+03  0.18130077358E+03  0.25500000920E-02 0. -1.
</event>
<event>
 5   0  0.4881209E-02  0.5998188E+03  0.7818609E-02  0.9905782E-01
       -1   -1    0    0    0  501  0.00000000000E+00  0.00000000000E+00  0.45052187183E+03  0.45052187186E+03  0.50400001928E-02 0.  1.
        1   -1    0    0  501    0  0.00000000000E+00  0.00000000000E+00 -0.19964766943E+03  0.19964766949E+03  0.50400001928E-02 0. -1.
    10030    2    1    2    0    0  0.00000000000E+00  0.00000000000E+00  0.25087420241E+03  0.65016954135E+03  0.59981877852E+03 0.  0.
        3    1    3    3  502    0 -0.19273140229E+02 -0.95586850419E+02 -0.18198521457E+03  0.20646289843E+03  0.10100000352E+00 0. -1.
       -3    1    3    3    0  502  0.19273140229E+02  0.95586850419E+02  0.43285941697E+03  0.44370664292E+03  0.10100000352E+00 0.  1.
</event>
<event>
 5   0  0.5125031E-02  0.6017424E+03  0.7818609E-02  0.9901798E-01
        1   -1    0    0  501    0  0.00000000000E+00  0.00000000000E+00  0.42514588270E+03  0.42514588273E+03  0.50400001928E-02 0.  1.
       -1   -1    0    0    0  501  0.00000000000E+00  0.00000000000E+00 -0.21292334345E+03  0.21292334351E+03  0.50400001928E-02 0. -1.
    10030    2    1    2    0    0  0.00000000000E+00  0.00000000000E+00  0.21222253925E+03  0.63806922624E+03  0.60174241276E+03 0.  0.
        4    1    3    3  502    0  0.25274820596E+03  0.16001612016E+03  0.14022577008E+03  0.33038113418E+03  0.12699999809E+01 0. -1.
       -4    1    3    3    0  502 -0.25274820596E+03 -0.16001612016E+03  0.71996769169E+02  0.30768809206E+03  0.12699999809E+01 0.  1.
</event>
<event>
 5   0  0.8420604E-02  0.6034568E+03  0.7818609E-02  0.9898260E-01
        2   -1    0    0  501    0  0.00000000000E+00  0.00000000000E+00  0.19883058124E+04  0.19883058124E+04  0.25500000920E-02 0. -1.
       -2   -1    0    0    0  501  0.00000000000E+00  0.00000000000E+00 -0.45787737170E+02  0.45787737241E+02  0.25500000920E-02 0.  1.
    10030    2    1    2    0    0  0.00000000000E+00  0.00000000000E+00  0.19425180752E+04  0.20340935496E+04  0.60345678892E+03 0.  0.
        2    1    3    3  502    0 -0.42493254041E+02  0.27462497235E+03  0.13674527762E+04  0.13954037578E+04  0.25500000920E-02 0. -1.
       -2    1    3    3    0  502  0.42493254041E+02 -0.27462497235E+03  0.57506529902E+03  0.63868979185E+03  0.25500000920E-02 0.  1.
</event>
<event>
 5   0  0.8817544E-02  0.5922115E+03  0.7818609E-02  0.9921698E-01
       -2   -1    0    0    0  501  0.00000000000E+00  0.00000000000E+00  0.10557332819E+03  0.10557332822E+03  0.25500000920E-02 0.  1.
        2   -1    0    0  501    0  0.00000000000E+00  0.00000000000E+00 -0.83049981640E+03  0.83049981641E+03  0.25500000920E-02 0. -1.
    10030    2    1    2    0    0  0.00000000000E+00  0.00000000000E+00 -0.72492648821E+03  0.93607314463E+03  0.59221154901E+03 0.  0.
        5    1    3    3  502    0  0.14472501622E+03 -0.16890861192E+03 -0.67131997878E+03  0.70722560291E+03  0.46999998093E+01 0. -1.
       -5    1    3    3    0  502 -0.14472501622E+03  0.16890861192E+03 -0.53606509433E+02  0.22884754172E+03  0.46999998093E+01 0.  1.
</event>
<event>
 5   0  0.8699746E-02  0.5736189E+03  0.7818609E-02  0.9961702E-01
        2   -1    0    0  501    0  0.00000000000E+00  0.00000000000E+00  0.12868769605E+04  0.12868769605E+04  0.25500000920E-02 0.  1.
       -2   -1    0    0    0  501  0.00000000000E+00  0.00000000000E+00 -0.63921939793E+02  0.63921939844E+02  0.25500000920E-02 0. -1.
    10030    2    1    2    0    0  0.00000000000E+00  0.00000000000E+00  0.12229550207E+04  0.13507989003E+04  0.57361893841E+03 0.  0.
        3    1    3    3  502    0 -0.21136851004E+03 -0.19213080510E+03  0.55057923428E+03  0.62026477953E+03  0.10100000352E+00 0. -1.
       -3    1    3    3    0  502  0.21136851004E+03  0.19213080510E+03  0.67237578642E+03  0.73053412081E+03  0.10100000352E+00 0.  1.
</event>
<event>
 5   0  0.8817544E-02  0.5935095E+03  0.7818609E-02  0.9918964E-01
       -2   -1    0    0    0  501  0.00000000000E+00  0.00000000000E+00  0.16856363368E+03  0.16856363370E+03  0.25500000920E-02 0. -1.
        2   -1    0    0  501    0  0.00000000000E+00  0.00000000000E+00 -0.52243411375E+03  0.52243411375E+03  0.25500000920E-02 0.  1.
    10030    2    1    2    0    0  0.00000000000E+00  0.00000000000E+00 -0.35387048007E+03  0.69099774745E+03  0.59350953683E+03 0.  0.
        5    1    3    3  502    0 -0.57162854285E+02  0.26928988302E+03 -0.48040507742E+02  0.27948991644E+03  0.46999998093E+01 0. -1.
       -5    1    3    3    0  502  0.57162854285E+02 -0.26928988302E+03 -0.30582997233E+03  0.41150783101E+03  0.46999998093E+01 0.  1.
</event>
<event>
 5   0  0.5125031E-02  0.5960057E+03  0.7818609E-02  0.9913728E-01
       -1   -1    0    0    0  501  0.00000000000E+00  0.00000000000E+00  0.32741084964E+03  0.32741084968E+03  0.50400001928E-02 0.  1.
        1   -1    0    0  501    0  0.00000000000E+00  0.00000000000E+00 -0.27123625168E+03  0.27123625173E+03  0.50400001928E-02 0. -1.
    10030    2    1    2    0    0  0.00000000000E+00  0.00000000000E+00  0.56174597960E+02  0.59864710141E+03  0.59600567663E+03 0.  0.
        4    1    3    3  502    0 -0.16133669808E+03  0.30410364669E+02 -0.22171100841E+03  0.27588349820E+03  0.12699999809E+01 0. -1.
       -4    1    3    3    0  502  0.16133669808E+03 -0.30410364669E+02  0.27788560637E+03  0.32276360321E+03  0.12699999809E+01 0.  1.
</event>
<event>
 5   0  0.4881209E-02  0.5941006E+03  0.7818609E-02  0.9917722E-01
       -1   -1    0    0    0  501  0.00000000000E+00  0.00000000000E+00  0.36566052065E+03  0.36566052068E+03  0.50400001928E-02 0.  1.
        1   -1    0    0  501    0  0.00000000000E+00  0.00000000000E+00 -0.24131369264E+03  0.24131369270E+03  0.50400001928E-02 0. -1.
    10030    2    1    2    0    0  0.00000000000E+00  0.00000000000E+00  0.12434682800E+03  0.60697421338E+03  0.59410063295E+03 0.  0.
        3    1    3    3  502    0  0.44750097676E+02  0.24193247553E+02  0.36117702572E+03  0.36474201647E+03  0.10100000352E+00 0.  1.
       -3    1    3    3    0  502 -0.44750097676E+02 -0.24193247553E+02 -0.23683019771E+03  0.24223219691E+03  0.10100000352E+00 0. -1.
</event>
<event>
 5   0  0.4881209E-02  0.5906713E+03  0.7818609E-02  0.9924951E-01
        1   -1    0    0  501    0  0.00000000000E+00  0.00000000000E+00  0.69784426209E+03  0.69784426211E+03  0.50400001928E-02 0. -1.
       -1   -1    0    0    0  501  0.00000000000E+00  0.00000000000E+00 -0.12498939747E+03  0.12498939757E+03  0.50400001928E-02 0.  1.
    10030    2    1    2    0    0  0.00000000000E+00  0.00000000000E+00  0.57285486463E+03  0.82283365968E+03  0.59067125846E+03 0.  0.
        3    1    3    3  502    0  0.18051021650E+00  0.14919669126E+03 -0.68631719950E+02  0.16422548052E+03  0.10100000352E+00 0.  1.
       -3    1    3    3    0  502 -0.18051021650E+00 -0.14919669126E+03  0.64148658458E+03  0.65860817916E+03  0.10100000352E+00 0. -1.
</event>
<event>
 5   0  0.4881209E-02  0.5923586E+03  0.7818609E-02  0.9921388E-01
        1   -1    0    0  501    0  0.00000000000E+00  0.00000000000E+00  0.39939993350E+03  0.39939993353E+03  0.50400001928E-02 0. -1.
       -1   -1    0    0    0  501  0.00000000000E+00  0.00000000000E+00 -0.21963492728E+03  0.21963492734E+03  0.50400001928E-02 0.  1.
    10030    2    1    2    0    0  0.00000000000E+00  0.00000000000E+00  0.17976500622E+03  0.61903486087E+03  0.59235859199E+03 0.  0.
        3    1    3    3  502    0  0.19348606660E+02 -0.46326920460E+02 -0.21515576270E+03  0.22093565707E+03  0.10100000352E+00 0.  1.
       -3    1    3    3    0  502 -0.19348606660E+02  0.46326920460E+02  0.39492076892E+03  0.39809920380E+03  0.10100000352E+00 0. -1.
</event>
<event>
 5   0  0.8420604E-02  0.5992020E+03  0.7818609E-02  0.9907063E-01
       -2   -1    0    0    0  501  0.00000000000E+00  0.00000000000E+00  0.11685079970E+03  0.11685079973E+03  0.25500000920E-02 0. -1.
        2   -1    0    0  501    0  0.00000000000E+00  0.00000000000E+00 -0.76816556969E+03  0.76816556970E+03  0.25500000920E-02 0.  1.
    10030    2    1    2    0    0  0.00000000000E+00  0.00000000000E+00 -0.65131476999E+03  0.88501636943E+03  0.59920200646E+03 0.  0.
        2    1    3    3  502    0  0.28862822971E+03  0.79251200511E+02 -0.30618833993E+03  0.42818022758E+03  0.25500000920E-02 0. -1.
       -2    1    3    3    0  502 -0.28862822971E+03 -0.79251200511E+02 -0.34512643005E+03  0.45683614185E+03  0.25500000920E-02 0.  1.
</event>
<event>
 5   0  0.8699746E-02  0.5901404E+03  0.7818609E-02  0.9926075E-01
        2   -1    0    0  501    0  0.00000000000E+00  0.00000000000E+00  0.11991770769E+04  0.11991770769E+04  0.25500000920E-02 0. -1.
       -2   -1    0    0    0  501  0.00000000000E+00  0.00000000000E+00 -0.72605154171E+02  0.72605154216E+02  0.25500000920E-02 0.  1.
    10030    2    1    2    0    0  0.00000000000E+00  0.00000000000E+00  0.11265719228E+04  0.12717822312E+04  0.59014044626E+03 0.  0.
        3    1    3    3  502    0  0.28733956878E+03  0.67099562004E+02  0.56281691637E+03  0.63547562547E+03  0.10100000352E+00 0.  1.
       -3    1    3    3    0  502 -0.28733956878E+03 -0.67099562004E+02  0.56375500639E+03  0.63630660569E+03  0.10100000352E+00 0. -1.
</event>
<event>
 5   0  0.8699746E-02  0.6047440E+03  0.7818609E-02  0.9895612E-01
       -2   -1    0    0    0  501  0.00000000000E+00  0.00000000000E+00  0.24055342851E+03  0.24055342852E+03  0.25500000920E-02 0.  1.
        2   -1    0    0  501    0  0.00000000000E+00  0.00000000000E+00 -0.38007699347E+03  0.38007699348E+03  0.25500000920E-02 0. -1.
    10030    2    1    2    0    0  0.00000000000E+00  0.00000000000E+00 -0.13952356497E+03  0.62063042200E+03  0.60474399173E+03 0.  0.
        3    1    3    3  502    0 -0.18957854424E+03 -0.23530597949E+03 -0.80998627697E+02  0.31284135965E+03  0.10100000352E+00 0. -1.
       -3    1    3    3    0  502  0.18957854424E+03  0.23530597949E+03 -0.58524937269E+02  0.30778906235E+03  0.10100000352E+00 0.  1.
</event>
<event>
 5   0  0.5166903E-02  0.5697408E+03  0.7818609E-02  0.9970252E-01
       -1   -1    0    0    0  501  0.00000000000E+00  0.00000000000E+00  0.17860059743E+03  0.17860059750E+03  0.50400001928E-02 0. -1.
        1   -1    0    0  501    0  0.00000000000E+00  0.00000000000E+00 -0.45437225399E+03  0.45437225402E+03  0.50400001928E-02 0.  1.
    10030    2    1    2    0    0  0.00000000000E+00  0.00000000000E+00 -0.27577165656E+03  0.63297285152E+03  0.56974083951E+03 0.  0.
        2    1    3    3  502    0  0.36487259694E+02  0.15751403377E+03  0.12268467926E+03  0.20296187200E+03  0.25500000920E-02 0. -1.
       -2    1    3    3    0  502 -0.36487259694E+02 -0.15751403377E+03 -0.39845633582E+03  0.43001097952E+03  0.25500000920E-02 0.  1.
</event>
<event>
 5   0  0.8575590E-02  0.5989774E+03  0.7818609E-02  0.9907530E-01
       -2   -1    0    0    0  501  0.00000000000E+00  0.00000000000E+00  0.57952107763E+02  0.57952107819E+02  0.25500000920E-02 0. -1.
        2   -1    0    0  501    0  0.00000000000E+00  0.00000000000E+00 -0.15477171503E+04  0.15477171503E+04  0.25500000920E-02 0.  1.
    10030    2    1    2    0    0  0.00000000000E+00  0.00000000000E+00 -0.14897650425E+04  0.16056692581E+04  0.59897736561E+03 0.  0.
        4    1    3    3  502    0 -0.48716756139E+02  0.29226945804E+03 -0.62812341284E+03  0.69450370272E+03  0.12699999809E+01 0.  1.
       -4    1    3    3    0  502  0.48716756139E+02 -0.29226945804E+03 -0.86164162970E+03  0.91116555541E+03  0.12699999809E+01 0. -1.
</event>
<event>
 5   0  0.8699746E-02  0.6028741E+03  0.7818609E-02  0.9899461E-01
       -2   -1    0    0    0  501  0.00000000000E+00  0.00000000000E+00  0.25228145385E+03  0.25228145386E+03  0.25500000920E-02 0.  1.
        2   -1    0    0  501    0  0.00000000000E+00  0.00000000000E+00 -0.36017031534E+03  0.36017031535E+03  0.25500000920E-02 0. -1.
    10030    2    1    2    0    0  0.00000000000E+00  0.00000000000E+00 -0.10788886149E+03  0.61245176921E+03  0.60287408567E+03 0.  0.
        3    1    3    3  502    0 -0.25160119305E+03  0.12421410070E+03 -0.16583953216E+03  0.32593720834E+03  0.10100000352E+00 0. -1.
       -3    1    3    3    0  502  0.25160119305E+03 -0.12421410070E+03  0.57950670666E+02  0.28651456086E+03  0.10100000352E+00 0.  1.
</event>
<event>
 5   0  0.8699746E-02  0.5944139E+03  0.7818609E-02  0.9917064E-01
        2   -1    0    0  501    0  0.00000000000E+00  0.00000000000E+00  0.10327651628E+04  0.10327651628E+04  0.25500000920E-02 0.  1.
       -2   -1    0    0    0  501  0.00000000000E+00  0.00000000000E+00 -0.85529583458E+02  0.85529583496E+02  0.25500000920E-02 0. -1.
    10030    2    1    2    0    0  0.00000000000E+00  0.00000000000E+00  0.94723557932E+03  0.11182947463E+04  0.59441391035E+03 0.  0.
        3    1    3    3  502    0 -0.64257781873E+02  0.18509555025E+03  0.89405643497E+03  0.91527391767E+03  0.10100000352E+00 0.  1.
       -3    1    3    3    0  502  0.64257781873E+02 -0.18509555025E+03  0.53179144351E+02  0.20302082861E+03  0.10100000352E+00 0. -1.
</event>
<event>
 5   0  0.3437375E-02  0.5912853E+03  0.7818609E-02  0.9923653E-01
        3   -1    0    0  501    0  0.00000000000E+00  0.00000000000E+00  0.35446670513E+03  0.35446671952E+03  0.10100000352E+00 0.  1.
       -3   -1    0    0    0  501  0.00000000000E+00  0.00000000000E+00 -0.24658050666E+03  0.24658052735E+03  0.10100000352E+00 0. -1.
    10030    2    1    2    0    0  0.00000000000E+00  0.00000000000E+00  0.10788619847E+03  0.60104724687E+03  0.59128534664E+03 0.  0.
        2    1    3    3  502    0 -0.12003885892E+03  0.15348180035E+03  0.27996190506E+03  0.34109332885E+03  0.25500000920E-02 0.  1.
       -2    1    3    3    0  502  0.12003885892E+03 -0.15348180035E+03 -0.17207570659E+03  0.25995391802E+03  0.25500000920E-02 0. -1.
</event>
<event>
 5   0  0.8699746E-02  0.6065904E+03  0.7818609E-02  0.9891827E-01
       -2   -1    0    0    0  501  0.00000000000E+00  0.00000000000E+00  0.52618434765E+03  0.52618434766E+03  0.25500000920E-02 0. -1.
        2   -1    0    0  501    0  0.00000000000E+00  0.00000000000E+00 -0.17482084621E+03  0.17482084623E+03  0.25500000920E-02 0.  1.
    10030    2    1    2    0    0  0.00000000000E+00  0.00000000000E+00  0.35136350144E+03  0.70100519389E+03  0.60659044809E+03 0.  0.
        3    1    3    3  502    0  0.13800565389E+03  0.47978054209E+02 -0.13146974782E+03  0.19654963491E+03  0.10100000352E+00 0.  1.
       -3    1    3    3    0  502 -0.13800565389E+03 -0.47978054209E+02  0.48283324926E+03  0.50445555898E+03  0.10100000352E+00 0. -1.
</event>
<event>
 5   0  0.8817544E-02  0.5675583E+03  0.7818609E-02  0.9975096E-01
        2   -1    0    0  501    0  0.00000000000E+00  0.00000000000E+00  0.72137759552E+03  0.72137759552E+03  0.25500000920E-02 0.  1.
       -2   -1    0    0    0  501  0.00000000000E+00  0.00000000000E+00 -0.11163445245E+03  0.11163445248E+03  0.25500000920E-02 0. -1.
    10030    2    1    2    0    0  0.00000000000E+00  0.00000000000E+00  0.60974314307E+03  0.83301204800E+03  0.56755825393E+03 0.  0.
        5    1    3    3  502    0  0.67800884268E+01  0.99103847659E+02  0.69496545177E+03  0.70204459358E+03  0.46999998093E+01 0.  1.
       -5    1    3    3    0  502 -0.67800884268E+01 -0.99103847659E+02 -0.85222308703E+02  0.13096745443E+03  0.46999998093E+01 0. -1.
</event>
<event>
 5   0  0.4881209E-02  0.5860854E+03  0.7818609E-02  0.9934702E-01
       -1   -1    0    0    0  501  0.00000000000E+00  0.00000000000E+00  0.19422817700E+03  0.19422817706E+03  0.50400001928E-02 0.  1.
        1   -1    0    0  501    0  0.00000000000E+00  0.00000000000E+00 -0.44212958154E+03  0.44212958157E+03  0.50400001928E-02 0. -1.
    10030    2    1    2    0    0  0.00000000000E+00  0.00000000000E+00 -0.24790140454E+03  0.63635775863E+03  0.58608539531E+03 0.  0.
        3    1    3    3  502    0 -0.20369880848E+03 -0.19668729777E+03 -0.42012947646E+02  0.28625896606E+03  0.10100000352E+00 0.  1.
       -3    1    3    3    0  502  0.20369880848E+03  0.19668729777E+03 -0.20588845689E+03  0.35009879257E+03  0.10100000352E+00 0. -1.
</event>
<event>
 5   0  0.5190380E-02  0.6006665E+03  0.7818609E-02  0.9904024E-01
       -1   -1    0    0    0  501  0.00000000000E+00  0.00000000000E+00  0.11337327637E+03  0.11337327648E+03  0.50400001928E-02 0.  1.
        1   -1    0    0  501    0  0.00000000000E+00  0.00000000000E+00 -0.79560244672E+03  0.79560244673E+03  0.50400001928E-02 0. -1.
    10030    2    1    2    0    0  0.00000000000E+00  0.00000000000E+00 -0.68222917035E+03  0.90897572321E+03  0.60066648359E+03 0.  0.
        5    1    3    3  502    0  0.97394631343E+02 -0.14745256128E+03 -0.70853287186E+03  0.73025262242E+03  0.46999998093E+01 0. -1.
       -5    1    3    3    0  502 -0.97394631343E+02  0.14745256128E+03  0.26303701515E+02  0.17872310079E+03  0.46999998093E+01 0.  1.
</event>
<event>
 5   0  0.5166903E-02  0.6183153E+03  0.7818609E-02  0.9868120E-01
       -1   -1    0    0    0  501  0.00000000000E+00  0.00000000000E+00  0.60411082267E+03  0.60411082269E+03  0.50400001928E-02 0. -1.
        1   -1    0    0  501    0  0.00000000000E+00  0.00000000000E+00 -0.15821346206E+03  0.15821346214E+03  0.50400001928E-02 0.  1.
    10030    2    1    2    0    0  0.00000000000E+00  0.00000000000E+00  0.44589736061E+03  0.76232428483E+03  0.61831533948E+03 0.  0.
        2    1    3    3  502    0  0.24039656182E+03  0.11921622795E+03  0.33644711657E+02  0.27043480281E+03  0.25500000920E-02 0.  1.
       -2    1    3    3    0  502 -0.24039656182E+03 -0.11921622795E+03  0.41225264896E+03  0.49188948202E+03  0.25500000920E-02 0. -1.
</event>
<event>
 5   0  0.5125031E-02  0.6041999E+03  0.7818609E-02  0.9896731E-01
        1   -1    0    0  501    0  0.00000000000E+00  0.00000000000E+00  0.28803446127E+03  0.28803446131E+03  0.50400001928E-02 0. -1.
       -1   -1    0    0    0  501  0.00000000000E+00  0.00000000000E+00 -0.31685230243E+03  0.31685230247E+03  0.50400001928E-02 0.  1.
    10030    2    1    2    0    0  0.00000000000E+00  0.00000000000E+00 -0.28817841159E+02  0.60488676378E+03  0.60419990817E+03 0.  0.
        4    1    3    3  502    0  0.36934244412E+01 -0.26892712504E+03  0.12332410778E+03  0.29588154458E+03  0.12699999809E+01 0. -1.
       -4    1    3    3    0  502 -0.36934244412E+01  0.26892712504E+03 -0.15214194894E+03  0.30900521920E+03  0.12699999809E+01 0.  1.
</event>
<event>
 5   0  0.8699746E-02  0.6004067E+03  0.7818609E-02  0.9904563E-01
        2   -1    0    0  501    0  0.00000000000E+00  0.00000000000E+00  0.63442908855E+02  0.63442908906E+02  0.25500000920E-02 0. -1.
       -2   -1    0    0    0  501  0.00000000000E+00  0.00000000000E+00 -0.14205221763E+04  0.14205221763E+04  0.25500000920E-02 0.  1.
    10030    2    1    2    0    0  0.00000000000E+00  0.00000000000E+00 -0.13570792675E+04  0.14839650852E+04  0.60040672548E+03 0.  0.
        3    1    3    3  502    0 -0.77753290165E+02  0.28781066484E+03 -0.59145314621E+03  0.66234234901E+03  0.10100000352E+00 0.  1.
       -3    1    3    3    0  502  0.77753290165E+02 -0.28781066484E+03 -0.76562612125E+03  0.82162273622E+03  0.10100000352E+00 0. -1.
</event>
<event>
 5   0  0.8699746E-02  0.6167394E+03  0.7818609E-02  0.9871273E-01
       -2   -1    0    0    0  501  0.00000000000E+00  0.00000000000E+00  0.82351302810E+02  0.82351302849E+02  0.25500000920E-02 0. -1.
        2   -1    0    0  501    0  0.00000000000E+00  0.00000000000E+00 -0.11547101540E+04  0.11547101540E+04  0.25500000920E-02 0.  1.
    10030    2    1    2    0    0  0.00000000000E+00  0.00000000000E+00 -0.10723588512E+04  0.12370614569E+04  0.61673944443E+03 0.  0.
        3    1    3    3  502    0 -0.10781507977E+03 -0.26696495615E+03 -0.75770552234E+03  0.81056279709E+03  0.10100000352E+00 0.  1.
       -3    1    3    3    0  502  0.10781507977E+03  0.26696495615E+03 -0.31465332889E+03  0.42649865981E+03  0.10100000352E+00 0. -1.
</event>
<event>
 5   0  0.8207443E-02  0.6023263E+03  0.7818609E-02  0.9900591E-01
       -2   -1    0    0    0  501  0.00000000000E+00  0.00000000000E+00  0.39865387661E+03  0.39865387662E+03  0.25500000920E-02 0. -1.
        2   -1    0    0  501    0  0.00000000000E+00  0.00000000000E+00 -0.22751379459E+03  0.22751379460E+03  0.25500000920E-02 0.  1.
    10030    2    1    2    0    0  0.00000000000E+00  0.00000000000E+00  0.17114008203E+03  0.62616767122E+03  0.60232634411E+03 0.  0.
        1    1    3    3  502    0 -0.26939690614E+03  0.10362456749E+03 -0.37766537679E+01  0.28866417715E+03  0.50400001928E-02 0.  1.
       -1    1    3    3    0  502  0.26939690614E+03 -0.10362456749E+03  0.17491673579E+03  0.33750349408E+03  0.50400001928E-02 0. -1.
</event>
<event>
 5   0  0.4987389E-02  0.5847638E+03  0.7818609E-02  0.9937530E-01
       -1   -1    0    0    0  501  0.00000000000E+00  0.00000000000E+00  0.93190803258E+02  0.93190803394E+02  0.50400001928E-02 0.  1.
        1   -1    0    0  501    0  0.00000000000E+00  0.00000000000E+00 -0.91733483634E+03  0.91733483635E+03  0.50400001928E-02 0. -1.
    10030    2    1    2    0    0  0.00000000000E+00  0.00000000000E+00 -0.82414403308E+03  0.10105256397E+04  0.58476378250E+03 0.  0.
        1    1    3    3  502    0  0.80007532892E+02 -0.28117860182E+03 -0.42063590518E+03  0.51224718271E+03  0.50400001928E-02 0. -1.
       -1    1    3    3    0  502 -0.80007532892E+02  0.28117860182E+03 -0.40350812790E+03  0.49827845704E+03  0.50400001928E-02 0.  1.
</event>
<event>
 5   0  0.8420604E-02  0.6115799E+03  0.7818609E-02  0.9881669E-01
       -2   -1    0    0    0  501  0.00000000000E+00  0.00000000000E+00  0.31435113698E+02  0.31435113801E+02  0.25500000920E-02 0.  1.
        2   -1    0    0  501    0  0.00000000000E+00  0.00000000000E+00 -0.29746189366E+04  0.29746189366E+04  0.25500000920E-02 0. -1.
    10030    2    1    2    0    0  0.00000000000E+00  0.00000000000E+00 -0.29431838229E+04  0.30060540504E+04  0.61157987095E+03 0.  0.
        2    1    3    3  502    0  0.18484185397E+03 -0.13440846257E+03 -0.24701858506E+04  0.24807358348E+04  0.25500000920E-02 0. -1.
       -2    1    3    3    0  502 -0.18484185397E+03  0.13440846257E+03 -0.47299797233E+03  0.52531821558E+03  0.25500000920E-02 0.  1.
</event>
<event>
 5   0  0.8699746E-02  0.5963519E+03  0.7818609E-02  0.9913004E-01
       -2   -1    0    0    0  501  0.00000000000E+00  0.00000000000E+00  0.17026056300E+03  0.17026056302E+03  0.25500000920E-02 0.  1.
        2   -1    0    0  501    0  0.00000000000E+00  0.00000000000E+00 -0.52219305459E+03  0.52219305459E+03  0.25500000920E-02 0. -1.
    10030    2    1    2    0    0  0.00000000000E+00  0.00000000000E+00 -0.35193249159E+03  0.69245361761E+03  0.59635185412E+03 0.  0.
        3    1    3    3  502    0 -0.24978374622E+03 -0.13350002549E+02  0.12479152466E+02  0.25045135634E+03  0.10100000352E+00 0.  1.
       -3    1    3    3    0  502  0.24978374622E+03  0.13350002549E+02 -0.36441164406E+03  0.44200226127E+03  0.10100000352E+00 0. -1.
</event>
<event>
 5   0  0.4987389E-02  0.5872132E+03  0.7818609E-02  0.9932295E-01
       -1   -1    0    0    0  501  0.00000000000E+00  0.00000000000E+00  0.45680861125E+03  0.45680861128E+03  0.50400001928E-02 0.  1.
        1   -1    0    0  501    0  0.00000000000E+00  0.00000000000E+00 -0.18871108607E+03  0.18871108614E+03  0.50400001928E-02 0. -1.
    10030    2    1    2    0    0  0.00000000000E+00  0.00000000000E+00  0.26809752518E+03  0.64551969742E+03  0.58721324640E+03 0.  0.
        1    1    3    3  502    0 -0.84950102160E+02 -0.26062402430E+03  0.24967566466E+03  0.37078206463E+03  0.50400001928E-02 0.  1.
       -1    1    3    3    0  502  0.84950102160E+02  0.26062402430E+03  0.18421860524E+02  0.27473763279E+03  0.50400001928E-02 0. -1.
</event>
<event>
 5   0  0.8575590E-02  0.5996981E+03  0.7818609E-02  0.9906033E-01
       -2   -1    0    0    0  501  0.00000000000E+00  0.00000000000E+00  0.23992490850E+03  0.23992490852E+03  0.25500000920E-02 0.  1.
        2   -1    0    0  501    0  0.00000000000E+00  0.00000000000E+00 -0.37473991593E+03  0.37473991594E+03  0.25500000920E-02 0. -1.
    10030    2    1    2    0    0  0.00000000000E+00  0.00000000000E+00 -0.13481500743E+03  0.61466482446E+03  0.59969805752E+03 0.  0.
        4    1    3    3  502    0 -0.13209144847E+03 -0.19724068078E+03 -0.25516161417E+03  0.34851269584E+03  0.12699999809E+01 0. -1.
       -4    1    3    3    0  502  0.13209144847E+03  0.19724068078E+03  0.12034660675E+03  0.26615212862E+03  0.12699999809E+01 0.  1.
</event>
<event>
 5   0  0.5190380E-02  0.5999345E+03  0.7818609E-02  0.9905542E-01
        1   -1    0    0  501    0  0.00000000000E+00  0.00000000000E+00  0.17585232069E+04  0.17585232069E+04  0.50400001928E-02 0.  1.
       -1   -1    0    0    0  501  0.00000000000E+00  0.00000000000E+00 -0.51168125840E+02  0.51168126089E+02  0.50400001928E-02 0. -1.
    10030    2    1    2    0    0  0.00000000000E+00  0.00000000000E+00  0.17073550811E+04  0.18096913330E+04  0.59993445300E+03 0.  0.
        5    1    3    3  502    0  0.27635556774E+03  0.11326959496E+03  0.93660862920E+03  0.98308708426E+03  0.46999998093E+01 0.  1.
       -5    1    3    3    0  502 -0.27635556774E+03 -0.11326959496E+03  0.77074645185E+03  0.82660424872E+03  0.46999998093E+01 0. -1.
</event>
<event>
 5   0  0.3437375E-02  0.5973618E+03  0.7818609E-02  0.9910895E-01
        3   -1    0    0  501    0  0.00000000000E+00  0.00000000000E+00  0.36829243792E+03  0.36829245176E+03  0.10100000352E+00 0. -1.
       -3   -1    0    0    0  501  0.00000000000E+00  0.00000000000E+00 -0.24222673535E+03  0.24222675641E+03  0.10100000352E+00 0.  1.
    10030    2    1    2    0    0  0.00000000000E+00  0.00000000000E+00  0.12606570256E+03  0.61051920817E+03  0.59736181849E+03 0.  0.
        5    1    3    3  502    0 -0.13909444788E+03 -0.19839876840E+03  0.24146011812E+03  0.34210293096E+03  0.46999998093E+01 0. -1.
       -5    1    3    3    0  502  0.13909444788E+03  0.19839876840E+03 -0.11539441555E+03  0.26841627721E+03  0.46999998093E+01 0.  1.
</event>
<event>
 5   0  0.8817544E-02  0.6044044E+03  0.7818609E-02  0.9896310E-01
       -2   -1    0    0    0  501  0.00000000000E+00  0.00000000000E+00  0.24793905837E+03  0.24793905839E+03  0.25500000920E-02 0.  1.
        2   -1    0    0  501    0  0.00000000000E+00  0.00000000000E+00 -0.36834113723E+03  0.36834113724E+03  0.25500000920E-02 0. -1.
    10030    2    1    2    0    0  0.00000000000E+00  0.00000000000E+00 -0.12040207885E+03  0.61628019562E+03  0.60440435052E+03 0.  0.
        5    1    3    3  502    0  0.25878564094E+03  0.52667359074E+02 -0.20992009665E+03  0.33739056839E+03  0.46999998093E+01 0.  1.
       -5    1    3    3    0  502 -0.25878564094E+03 -0.52667359074E+02  0.89518017793E+02  0.27888962723E+03  0.46999998093E+01 0. -1.
</event>
<event>
 5   0  0.8575590E-02  0.5960746E+03  0.7818609E-02  0.9913584E-01
        2   -1    0    0  501    0  0.00000000000E+00  0.00000000000E+00  0.91956973021E+03  0.91956973021E+03  0.25500000920E-02 0. -1.
       -2   -1    0    0    0  501  0.00000000000E+00  0.00000000000E+00 -0.96595425092E+02  0.96595425125E+02  0.25500000920E-02 0.  1.
    10030    2    1    2    0    0  0.00000000000E+00  0.00000000000E+00  0.82297430512E+03  0.10161651553E+04  0.59607458932E+03 0.  0.
        4    1    3    3  502    0 -0.46956023483E+02  0.22899621288E+02  0.91169851408E+03  0.91319497056E+03  0.12699999809E+01 0. -1.
       -4    1    3    3    0  502  0.46956023483E+02 -0.22899621288E+02 -0.88724208960E+02  0.10297018477E+03  0.12699999809E+01 0.  1.
</event>
<event>
 5   0  0.8699746E-02  0.5994622E+03  0.7818609E-02  0.9906522E-01
        2   -1    0    0  501    0  0.00000000000E+00  0.00000000000E+00  0.90451973011E+03  0.90451973012E+03  0.25500000920E-02 0.  1.
       -2   -1    0    0    0  501  0.00000000000E+00  0.00000000000E+00 -0.99322019176E+02  0.99322019209E+02  0.25500000920E-02 0. -1.
    10030    2    1    2    0    0  0.00000000000E+00  0.00000000000E+00  0.80519771094E+03  0.10038417493E+04  0.59946217895E+03 0.  0.
        3    1    3    3  502    0 -0.21351544991E+03 -0.20346548175E+03  0.31317511981E+03  0.43019264927E+03  0.10100000352E+00 0. -1.
       -3    1    3    3    0  502  0.21351544991E+03  0.20346548175E+03  0.49202259112E+03  0.57364910005E+03  0.10100000352E+00 0.  1.
</event>
<event>
 5   0  0.8699746E-02  0.6108738E+03  0.7818609E-02  0.9883100E-01
        2   -1    0    0  501    0  0.00000000000E+00  0.00000000000E+00  0.40699781099E+03  0.40699781100E+03  0.25500000920E-02 0. -1.
       -2   -1    0    0    0  501  0.00000000000E+00  0.00000000000E+00 -0.22921916427E+03  0.22921916428E+03  0.25500000920E-02 0.  1.
    10030    2    1    2    0    0  0.00000000000E+00  0.00000000000E+00  0.17777864672E+03  0.63621697528E+03  0.61087379417E+03 0.  0.
        3    1    3    3  502    0 -0.60992161534E+02  0.18593290992E+03  0.33314094746E+03  0.38635992524E+03  0.10100000352E+00 0. -1.
       -3    1    3    3    0  502  0.60992161534E+02 -0.18593290992E+03 -0.15536230074E+03  0.24985705003E+03  0.10100000352E+00 0.  1.
</event>
<event>
 5   0  0.3437375E-02  0.6089315E+03  0.7818609E-02  0.9887047E-01
        3   -1    0    0  501    0  0.00000000000E+00  0.00000000000E+00  0.65494388158E+03  0.65494388937E+03  0.10100000352E+00 0.  1.
       -3   -1    0    0    0  501  0.00000000000E+00  0.00000000000E+00 -0.14153787163E+03  0.14153790767E+03  0.10100000352E+00 0. -1.
    10030    2    1    2    0    0  0.00000000000E+00  0.00000000000E+00  0.51340600995E+03  0.79648179704E+03  0.60893145917E+03 0.  0.
        3    1    3    3  502    0 -0.11983333334E+03 -0.27833346835E+03  0.21812650125E+03  0.37337478239E+03  0.10100000352E+00 0. -1.
       -3    1    3    3    0  502  0.11983333334E+03  0.27833346835E+03  0.29527950870E+03  0.42310701465E+03  0.10100000352E+00 0.  1.
</event>
<event>
 5   0  0.8575590E-02  0.6097762E+03  0.7818609E-02  0.9885329E-01
       -2   -1    0    0    0  501  0.00000000000E+00  0.00000000000E+00  0.15331152360E+03  0.15331152362E+03  0.25500000920E-02 0. -1.
        2   -1    0    0  501    0  0.00000000000E+00  0.00000000000E+00 -0.60632599668E+03  0.60632599668E+03  0.25500000920E-02 0.  1.
    10030    2    1    2    0    0  0.00000000000E+00  0.00000000000E+00 -0.45301447308E+03  0.75963752031E+03  0.60977622899E+03 0.  0.
        4    1    3    3  502    0 -0.99331731534E+02  0.28820099710E+03 -0.21985179458E+03  0.37584974670E+03  0.12699999809E+01 0. -1.
       -4    1    3    3    0  502  0.99331731534E+02 -0.28820099710E+03 -0.23316267850E+03  0.38378777360E+03  0.12699999809E+01 0.  1.
</event>
<event>
 5   0  0.8699746E-02  0.6434188E+03  0.7818609E-02  0.9819207E-01
       -2   -1    0    0    0  501  0.00000000000E+00  0.00000000000E+00  0.12916056002E+03  0.12916056004E+03  0.25500000920E-02 0. -1.
        2   -1    0    0  501    0  0.00000000000E+00  0.00000000000E+00 -0.80130456566E+03  0.80130456566E+03  0.25500000920E-02 0.  1.
    10030    2    1    2    0    0  0.00000000000E+00  0.00000000000E+00 -0.67214400564E+03  0.93046512571E+03  0.64341882615E+03 0.  0.
        3    1    3    3  502    0 -0.33482836487E+01  0.52021941298E+02  0.12301216186E+03  0.13360200428E+03  0.10100000352E+00 0. -1.
       -3    1    3    3    0  502  0.33482836487E+01 -0.52021941298E+02 -0.79515616750E+03  0.79686312143E+03  0.10100000352E+00 0.  1.
</event>
<event>
 5   0  0.5190380E-02  0.6086635E+03  0.7818609E-02  0.9887593E-01
        1   -1    0    0  501    0  0.00000000000E+00  0.00000000000E+00  0.63744376318E+03  0.63744376320E+03  0.50400001928E-02 0. -1.
       -1   -1    0    0    0  501  0.00000000000E+00  0.00000000000E+00 -0.14529564321E+03  0.14529564329E+03  0.50400001928E-02 0.  1.
    10030    2    1    2    0    0  0.00000000000E+00  0.00000000000E+00  0.49214811998E+03  0.78273940649E+03  0.60866345913E+03 0.  0.
        5    1    3    3  502    0  0.21416905166E+03  0.19762904621E+03  0.35870045191E+03  0.46218365050E+03  0.46999998093E+01 0.  1.
       -5    1    3    3    0  502 -0.21416905166E+03 -0.19762904621E+03  0.13344766807E+03  0.32055575600E+03  0.46999998093E+01 0. -1.
</event>
<event>
 5   0  0.4881209E-02  0.5985283E+03  0.7818609E-02  0.9908464E-01
       -1   -1    0    0    0  501  0.00000000000E+00  0.00000000000E+00  0.21371539299E+03  0.21371539305E+03  0.50400001928E-02 0. -1.
        1   -1    0    0  501    0  0.00000000000E+00  0.00000000000E+00 -0.41905745505E+03  0.41905745508E+03  0.50400001928E-02 0.  1.
    10030    2    1    2    0    0  0.00000000000E+00  0.00000000000E+00 -0.20534206206E+03  0.63277284813E+03  0.59852829079E+03 0.  0.
        3    1    3    3  502    0  0.22397740003E+03 -0.17079119532E+03  0.42253922126E+01  0.28169730610E+03  0.10100000352E+00 0. -1.
       -3    1    3    3    0  502 -0.22397740003E+03  0.17079119532E+03 -0.20956745427E+03  0.35107554203E+03  0.10100000352E+00 0.  1.
</event>
<event>
 5   0  0.8207443E-02  0.6018888E+03  0.7818609E-02  0.9901495E-01
        2   -1    0    0  501    0  0.00000000000E+00  0.00000000000E+00  0.51355419286E+03  0.51355419287E+03  0.25500000920E-02 0.  1.
       -2   -1    0    0    0  501  0.00000000000E+00  0.00000000000E+00 -0.17635436900E+03  0.17635436902E+03  0.25500000920E-02 0. -1.
    10030    2    1    2    0    0  0.00000000000E+00  0.00000000000E+00  0.33719982386E+03  0.68990856189E+03  0.60188877923E+03 0.  0.
        1    1    3    3  502    0 -0.12223201783E+03  0.27499543326E+03  0.17099637920E+03  0.34612557869E+03  0.50400001928E-02 0. -1.
       -1    1    3    3    0  502  0.12223201783E+03 -0.27499543326E+03  0.16620344466E+03  0.34378298320E+03  0.50400001928E-02 0.  1.
</event>
<event>
 5   0  0.4987389E-02  0.5890060E+03  0.7818609E-02  0.9928481E-01
        1   -1    0    0  501    0  0.00000000000E+00  0.00000000000E+00  0.11945770002E+04  0.11945770002E+04  0.50400001928E-02 0. -1.
       -1   -1    0    0    0  501  0.00000000000E+00  0.00000000000E+00 -0.72604792554E+02  0.72604792729E+02  0.50400001928E-02 0.  1.
    10030    2    1    2    0    0  0.00000000000E+00  0.00000000000E+00  0.11219722076E+04  0.12671817929E+04  0.58900599455E+03 0.  0.
        1    1    3    3  502    0  0.23638639226E+03 -0.17421620597E+03  0.51277371514E+03  0.59090328805E+03  0.50400001928E-02 0. -1.
       -1    1    3    3    0  502 -0.23638639226E+03  0.17421620597E+03  0.60919849246E+03  0.67627850484E+03  0.50400001928E-02 0.  1.
</event>
<event>
 5   0  0.8575590E-02  0.6028525E+03  0.7818609E-02  0.9899506E-01
       -2   -1    0    0    0  501  0.00000000000E+00  0.00000000000E+00  0.75781678173E+02  0.75781678216E+02  0.25500000920E-02 0. -1.
        2   -1    0    0  501    0  0.00000000000E+00  0.00000000000E+00 -0.11989411643E+04  0.11989411643E+04  0.25500000920E-02 0.  1.
    10030    2    1    2    0    0  0.00000000000E+00  0.00000000000E+00 -0.11231594861E+04  0.12747228425E+04  0.60285246450E+03 0.  0.
        4    1    3    3  502    0 -0.26637756370E+03  0.70241931264E+02 -0.82024991777E+03  0.86527595359E+03  0.12699999809E+01 0.  1.
       -4    1    3    3    0  502  0.26637756370E+03 -0.70241931264E+02 -0.30290956834E+03  0.40944688891E+03  0.12699999809E+01 0. -1.
</event>
<event>
 5   0  0.8575590E-02  0.5936847E+03  0.7818609E-02  0.9918596E-01
        2   -1    0    0  501    0  0.00000000000E+00  0.00000000000E+00  0.15106679857E+04  0.15106679857E+04  0.25500000920E-02 0. -1.
       -2   -1    0    0    0  501  0.00000000000E+00  0.00000000000E+00 -0.58328749575E+02  0.58328749631E+02  0.25500000920E-02 0.  1.
    10030    2    1    2    0    0  0.00000000000E+00  0.00000000000E+00  0.14523392361E+04  0.15689967353E+04  0.59368467952E+03 0.  0.
        4    1    3    3  502    0 -0.14291814469E+03 -0.25722181423E+03  0.82937822707E+03  0.88003324609E+03  0.12699999809E+01 0. -1.
       -4    1    3    3    0  502  0.14291814469E+03  0.25722181423E+03  0.62296100904E+03  0.68896348922E+03  0.12699999809E+01 0.  1.
</event>
<event>
 5   0  0.5190380E-02  0.5955897E+03  0.7818609E-02  0.9914598E-01
       -1   -1    0    0    0  501  0.00000000000E+00  0.00000000000E+00  0.43380344993E+02  0.43380345286E+02  0.50400001928E-02 0.  1.
        1   -1    0    0  501    0  0.00000000000E+00  0.00000000000E+00 -0.20442847089E+04  0.20442847089E+04  0.50400001928E-02 0. -1.
    10030    2    1    2    0    0  0.00000000000E+00  0.00000000000E+00 -0.20009043639E+04  0.20876650542E+04  0.59558971196E+03 0.  0.
        5    1    3    3  502    0 -0.18673458155E+03  0.80064261356E+02 -0.23747893062E+03  0.31256746852E+03  0.46999998093E+01 0.  1.
       -5    1    3    3    0  502  0.18673458155E+03 -0.80064261356E+02 -0.17634254332E+04  0.17750975856E+04  0.46999998093E+01 0. -1.
</event>
<event>
 5   0  0.8575590E-02  0.5953122E+03  0.7818609E-02  0.9915180E-01
       -2   -1    0    0    0  501  0.00000000000E+00  0.00000000000E+00  0.28439586549E+03  0.28439586550E+03  0.25500000920E-02 0. -1.
        2   -1    0    0  501    0  0.00000000000E+00  0.00000000000E+00 -0.31153464448E+03  0.31153464449E+03  0.25500000920E-02 0.  1.
    10030    2    1    2    0    0  0.00000000000E+00  0.00000000000E+00 -0.27138778984E+02  0.59593050999E+03  0.59531223691E+03 0.  0.
        4    1    3    3  502    0  0.44540127021E+02  0.22864207186E+03 -0.19906303034E+03  0.30641266763E+03  0.12699999809E+01 0.  1.
       -4    1    3    3    0  502 -0.44540127021E+02 -0.22864207186E+03  0.17192425136E+03  0.28951784236E+03  0.12699999809E+01 0. -1.
</event>
<event>
 5   0  0.8207443E-02  0.5995368E+03  0.7818609E-02  0.9906368E-01
       -2   -1    0    0    0  501  0.00000000000E+00  0.00000000000E+00  0.19038767763E+03  0.19038767764E+03  0.25500000920E-02 0. -1.
        2   -1    0    0  501    0  0.00000000000E+00  0.00000000000E+00 -0.47199005968E+03  0.47199005969E+03  0.25500000920E-02 0.  1.
    10030    2    1    2    0    0  0.00000000000E+00  0.00000000000E+00 -0.28160238205E+03  0.66237773733E+03  0.59953679231E+03 0.  0.
        1    1    3    3  502    0  0.14210430410E+03 -0.21470989951E+03 -0.31040793518E+03  0.40329525219E+03  0.50400001928E-02 0.  1.
       -1    1    3    3    0  502 -0.14210430410E+03  0.21470989951E+03  0.28805553132E+02  0.25908248514E+03  0.50400001928E-02 0. -1.
</event>
<event>
 5   0  0.5125031E-02  0.5982867E+03  0.7818609E-02  0.9908967E-01
        1   -1    0    0  501    0  0.00000000000E+00  0.00000000000E+00  0.97731344242E+02  0.97731344372E+02  0.50400001928E-02 0.  1.
       -1   -1    0    0    0  501  0.00000000000E+00  0.00000000000E+00 -0.91564022851E+03  0.91564022852E+03  0.50400001928E-02 0. -1.
    10030    2    1    2    0    0  0.00000000000E+00  0.00000000000E+00 -0.81790888427E+03  0.10133715729E+04  0.59828672205E+03 0.  0.
        4    1    3    3  502    0  0.13149198112E+03  0.19209304772E+02  0.44987373644E+02  0.14030187161E+03  0.12699999809E+01 0.  1.
       -4    1    3    3    0  502 -0.13149198112E+03 -0.19209304772E+02 -0.86289625791E+03  0.87306970129E+03  0.12699999809E+01 0. -1.
</event>
<event>
 5   0  0.5190380E-02  0.6017251E+03  0.7818609E-02  0.9901834E-01
        1   -1    0    0  501    0  0.00000000000E+00  0.00000000000E+00  0.13656412643E+04  0.13656412643E+04  0.50400001928E-02 0.  1.
       -1   -1    0    0    0  501  0.00000000000E+00  0.00000000000E+00 -0.66282605673E+02  0.66282605864E+02  0.50400001928E-02 0. -1.
    10030    2    1    2    0    0  0.00000000000E+00  0.00000000000E+00  0.12993586586E+04  0.14319238702E+04  0.60172505866E+03 0.  0.
        5    1    3    3  502    0  0.23716819935E+03  0.90524932325E+02  0.26557622973E+03  0.36741848341E+03  0.46999998093E+01 0. -1.
       -5    1    3    3    0  502 -0.23716819935E+03 -0.90524932325E+02  0.10337824289E+04  0.10645053867E+04  0.46999998093E+01 0.  1.
</event>
<event>
 5   0  0.4881209E-02  0.5322052E+03  0.7818609E-02  0.1005699E+00
       -1   -1    0    0    0  501  0.00000000000E+00  0.00000000000E+00  0.15621790832E+03  0.15621790840E+03  0.50400001928E-02 0. -1.
        1   -1    0    0  501    0  0.00000000000E+00  0.00000000000E+00 -0.45328092815E+03  0.45328092818E+03  0.50400001928E-02 0.  1.
    10030    2    1    2    0    0  0.00000000000E+00  0.00000000000E+00 -0.29706301983E+03  0.60949883658E+03  0.53220521798E+03 0.  0.
        3    1    3    3  502    0 -0.10650964957E+03 -0.23896043176E+03 -0.20421614678E+03  0.33188949698E+03  0.10100000352E+00 0.  1.
       -3    1    3    3    0  502  0.10650964957E+03  0.23896043176E+03 -0.92846873055E+02  0.27760933960E+03  0.10100000352E+00 0. -1.
</event>
<event>
 5   0  0.8575590E-02  0.5847751E+03  0.7818609E-02  0.9937506E-01
        2   -1    0    0  501    0  0.00000000000E+00  0.00000000000E+00  0.93005454104E+03  0.93005454104E+03  0.25500000920E-02 0. -1.
       -2   -1    0    0    0  501  0.00000000000E+00  0.00000000000E+00 -0.91919856414E+02  0.91919856449E+02  0.25500000920E-02 0.  1.
    10030    2    1    2    0    0  0.00000000000E+00  0.00000000000E+00  0.83813468462E+03  0.10219743975E+04  0.58477510169E+03 0.  0.
        4    1    3    3  502    0  0.10058293971E+03 -0.67018685935E+02 -0.46212598762E+02  0.12940498139E+03  0.12699999809E+01 0.  1.
       -4    1    3    3    0  502 -0.10058293971E+03  0.67018685935E+02  0.88434728339E+03  0.89256941610E+03  0.12699999809E+01 0. -1.
</event>
<event>
 5   0  0.8207443E-02  0.6046232E+03  0.7818609E-02  0.9895860E-01
        2   -1    0    0  501    0  0.00000000000E+00  0.00000000000E+00  0.38568964085E+03  0.38568964086E+03  0.25500000920E-02 0. -1.
       -2   -1    0    0    0  501  0.00000000000E+00  0.00000000000E+00 -0.23695818023E+03  0.23695818024E+03  0.25500000920E-02 0.  1.
    10030    2    1    2    0    0  0.00000000000E+00  0.00000000000E+00  0.14873146062E+03  0.62264782110E+03  0.60462323950E+03 0.  0.
        1    1    3    3  502    0 -0.27435822424E+03  0.86166101262E+02 -0.21662627577E+02  0.28838568215E+03  0.50400001928E-02 0.  1.
       -1    1    3    3    0  502  0.27435822424E+03 -0.86166101262E+02  0.17039408820E+03  0.33426213894E+03  0.50400001928E-02 0. -1.
</event>
<event>
 5   0  0.8420604E-02  0.6015976E+03  0.7818609E-02  0.9902097E-01
        2   -1    0    0  501    0  0.00000000000E+00  0.00000000000E+00  0.98342864162E+03  0.98342864162E+03  0.25500000920E-02 0. -1.
       -2   -1    0    0    0  501  0.00000000000E+00  0.00000000000E+00 -0.92004548880E+02  0.92004548915E+02  0.25500000920E-02 0.  1.
    10030    2    1    2    0    0  0.00000000000E+00  0.00000000000E+00  0.89142409274E+03  0.10754331905E+04  0.60159756831E+03 0.  0.
        2    1    3    3  502    0 -0.10219152450E+03 -0.14200045053E+03  0.88312504722E+03  0.90028722342E+03  0.25500000920E-02 0. -1.
       -2    1    3    3    0  502  0.10219152450E+03  0.14200045053E+03  0.82990455198E+01  0.17514596711E+03  0.25500000920E-02 0.  1.
</event>
<event>
 5   0  0.8817544E-02  0.5917083E+03  0.7818609E-02  0.9922759E-01
        2   -1    0    0  501    0  0.00000000000E+00  0.00000000000E+00  0.22176239262E+04  0.22176239262E+04  0.25500000920E-02 0.  1.
       -2   -1    0    0    0  501  0.00000000000E+00  0.00000000000E+00 -0.39470034243E+02  0.39470034326E+02  0.25500000920E-02 0. -1.
    10030    2    1    2    0    0  0.00000000000E+00  0.00000000000E+00  0.21781538920E+04  0.22570939606E+04  0.59170834843E+03 0.  0.
        5    1    3    3  502    0 -0.46289616152E+02  0.21085103498E+03  0.18605828321E+04  0.18730700608E+04  0.46999998093E+01 0.  1.
       -5    1    3    3    0  502  0.46289616152E+02 -0.21085103498E+03  0.31757105985E+03  0.38402389973E+03  0.46999998093E+01 0. -1.
</event>
<event>
 5   0  0.8420604E-02  0.5906099E+03  0.7818609E-02  0.9925081E-01
       -2   -1    0    0    0  501  0.00000000000E+00  0.00000000000E+00  0.36695845790E+02  0.36695845879E+02  0.25500000920E-02 0. -1.
        2   -1    0    0  501    0  0.00000000000E+00  0.00000000000E+00 -0.23764277045E+04  0.23764277045E+04  0.25500000920E-02 0.  1.
    10030    2    1    2    0    0  0.00000000000E+00  0.00000000000E+00 -0.23397318587E+04  0.24131235504E+04  0.59060993789E+03 0.  0.
        2    1    3    3  502    0 -0.14596280343E+03 -0.19153747195E+03 -0.47152261496E+03  0.52945757108E+03  0.25500000920E-02 0. -1.
       -2    1    3    3    0  502  0.14596280343E+03  0.19153747195E+03 -0.18682092437E+04  0.18836659793E+04  0.25500000920E-02 0.  1.
</event>
<event>
 5   0  0.4881209E-02  0.5930937E+03  0.7818609E-02  0.9919839E-01
       -1   -1    0    0    0  501  0.00000000000E+00  0.00000000000E+00  0.17330689755E+03  0.17330689763E+03  0.50400001928E-02 0. -1.
        1   -1    0    0  501    0  0.00000000000E+00  0.00000000000E+00 -0.50742379360E+03  0.50742379362E+03  0.50400001928E-02 0.  1.
    10030    2    1    2    0    0  0.00000000000E+00  0.00000000000E+00 -0.33411689605E+03  0.68073069125E+03  0.59309373103E+03 0.  0.
        3    1    3    3  502    0  0.16017115539E+03  0.46214094203E+02  0.11443479783E+03  0.20220255853E+03  0.10100000352E+00 0. -1.
       -3    1    3    3    0  502 -0.16017115539E+03 -0.46214094203E+02 -0.44855169388E+03  0.47852813272E+03  0.10100000352E+00 0.  1.
</event>
<event>
 5   0  0.8207443E-02  0.5849701E+03  0.7818609E-02  0.9937088E-01
        2   -1    0    0  501    0  0.00000000000E+00  0.00000000000E+00  0.36920369471E+03  0.36920369472E+03  0.25500000920E-02 0. -1.
       -2   -1    0    0    0  501  0.00000000000E+00  0.00000000000E+00 -0.23170817642E+03  0.23170817644E+03  0.25500000920E-02 0.  1.
    10030    2    1    2    0    0  0.00000000000E+00  0.00000000000E+00  0.13749551828E+03  0.60091187116E+03  0.58497013543E+03 0.  0.
        1    1    3    3  502    0  0.25492750342E+03 -0.86257875652E+02  0.18640765954E+03  0.32737786833E+03  0.50400001928E-02 0. -1.
       -1    1    3    3    0  502 -0.25492750342E+03  0.86257875652E+02 -0.48912141253E+02  0.27353400282E+03  0.50400001928E-02 0.  1.
</event>
<event>
 5   0  0.5166903E-02  0.5815581E+03  0.7818609E-02  0.9944423E-01
        1   -1    0    0  501    0  0.00000000000E+00  0.00000000000E+00  0.24028746834E+03  0.24028746839E+03  0.50400001928E-02 0.  1.
       -1   -1    0    0    0  501  0.00000000000E+00  0.00000000000E+00 -0.35188043250E+03  0.35188043254E+03  0.50400001928E-02 0. -1.
    10030    2    1    2    0    0  0.00000000000E+00  0.00000000000E+00 -0.11159296417E+03  0.59216790093E+03  0.58155810822E+03 0.  0.
        2    1    3    3  502    0  0.34607056139E+02  0.27435034704E+03  0.35770169656E+02  0.27882838144E+03  0.25500000920E-02 0.  1.
       -2    1    3    3    0  502 -0.34607056139E+02 -0.27435034704E+03 -0.14736313382E+03  0.31333951949E+03  0.25500000920E-02 0. -1.
</event>
<event>
 5   0  0.5125031E-02  0.5971251E+03  0.7818609E-02  0.9911389E-01
        1   -1    0    0  501    0  0.00000000000E+00  0.00000000000E+00  0.25898061239E+03  0.25898061244E+03  0.50400001928E-02 0.  1.
       -1   -1    0    0    0  501  0.00000000000E+00  0.00000000000E+00 -0.34419404877E+03  0.34419404881E+03  0.50400001928E-02 0. -1.
    10030    2    1    2    0    0  0.00000000000E+00  0.00000000000E+00 -0.85213436378E+02  0.60317466125E+03  0.59712506415E+03 0.  0.
        4    1    3    3  502    0  0.47392281252E+02  0.27164323559E+03  0.73016453049E+02  0.28525267935E+03  0.12699999809E+01 0.  1.
       -4    1    3    3    0  502 -0.47392281252E+02 -0.27164323559E+03 -0.15822988943E+03  0.31792198189E+03  0.12699999809E+01 0. -1.
</event>
<event>
 5   0  0.8699746E-02  0.6563197E+03  0.7818609E-02  0.9794993E-01
        2   -1    0    0  501    0  0.00000000000E+00  0.00000000000E+00  0.28983635134E+03  0.28983635135E+03  0.25500000920E-02 0.  1.
       -2   -1    0    0    0  501  0.00000000000E+00  0.00000000000E+00 -0.37155061208E+03  0.37155061209E+03  0.25500000920E-02 0. -1.
    10030    2    1    2    0    0  0.00000000000E+00  0.00000000000E+00 -0.81714260740E+02  0.66138696343E+03  0.65631965916E+03 0.  0.
        3    1    3    3  502    0  0.25868759000E+03  0.19108438637E+02 -0.24341768655E+03  0.35571980824E+03  0.10100000352E+00 0. -1.
       -3    1    3    3    0  502 -0.25868759000E+03 -0.19108438637E+02  0.16170342581E+03  0.30566715520E+03  0.10100000352E+00 0.  1.
</event>
<event>
 5   0  0.8817544E-02  0.6094131E+03  0.7818609E-02  0.9886067E-01
       -2   -1    0    0    0  501  0.00000000000E+00  0.00000000000E+00  0.19457491612E+03  0.19457491614E+03  0.25500000920E-02 0.  1.
        2   -1    0    0  501    0  0.00000000000E+00  0.00000000000E+00 -0.47717390212E+03  0.47717390213E+03  0.25500000920E-02 0. -1.
    10030    2    1    2    0    0  0.00000000000E+00  0.00000000000E+00 -0.28259898600E+03  0.67174881826E+03  0.60941306841E+03 0.  0.
        5    1    3    3  502    0  0.29517165363E+03  0.75214122530E+02 -0.14831550775E+03  0.33882598656E+03  0.46999998093E+01 0. -1.
       -5    1    3    3    0  502 -0.29517165363E+03 -0.75214122530E+02 -0.13428347825E+03  0.33292283170E+03  0.46999998093E+01 0.  1.
</event>
<event>
 5   0  0.3437375E-02  0.5962433E+03  0.7818609E-02  0.9913231E-01
       -3   -1    0    0    0  501  0.00000000000E+00  0.00000000000E+00  0.98617038686E+02  0.98617090406E+02  0.10100000352E+00 0. -1.
        3   -1    0    0  501    0  0.00000000000E+00  0.00000000000E+00 -0.90122866317E+03  0.90122866883E+03  0.10100000352E+00 0.  1.
    10030    2    1    2    0    0  0.00000000000E+00  0.00000000000E+00 -0.80261162448E+03  0.99984575924E+03  0.59624334169E+03 0.  0.
        2    1    3    3  502    0  0.31708776091E+02 -0.38707844901E+02 -0.89413671582E+03  0.89553571136E+03  0.25500000920E-02 0.  1.
       -2    1    3    3    0  502 -0.31708776091E+02  0.38707844901E+02  0.91525091334E+02  0.10431004788E+03  0.25500000920E-02 0. -1.
</event>
<event>
 5   0  0.5190380E-02  0.6041974E+03  0.7818609E-02  0.9896736E-01
        1   -1    0    0  501    0  0.00000000000E+00  0.00000000000E+00  0.12318817875E+04  0.12318817875E+04  0.50400001928E-02 0.  1.
       -1   -1    0    0    0  501  0.00000000000E+00  0.00000000000E+00 -0.74084719344E+02  0.74084719515E+02  0.50400001928E-02 0. -1.
    10030    2    1    2    0    0  0.00000000000E+00  0.00000000000E+00  0.11577970682E+04  0.13059665070E+04  0.60419737375E+03 0.  0.
        5    1    3    3  502    0  0.29703241624E+02 -0.73661896626E+02  0.12088279227E+04  0.12114435168E+04  0.46999998093E+01 0.  1.
       -5    1    3    3    0  502 -0.29703241624E+02  0.73661896626E+02 -0.51030854542E+02  0.94522990277E+02  0.46999998093E+01 0. -1.
</event>
<event>
 5   0  0.8817544E-02  0.5829236E+03  0.7818609E-02  0.9941482E-01
       -2   -1    0    0    0  501  0.00000000000E+00  0.00000000000E+00  0.28543017399E+03  0.28543017400E+03  0.25500000920E-02 0. -1.
        2   -1    0    0  501    0  0.00000000000E+00  0.00000000000E+00 -0.29762086229E+03  0.29762086231E+03  0.25500000920E-02 0.  1.
    10030    2    1    2    0    0  0.00000000000E+00  0.00000000000E+00 -0.12190688305E+02  0.58305103631E+03  0.58292357823E+03 0.  0.
        5    1    3    3  502    0  0.33205206514E+02 -0.25266572793E+03 -0.14749573090E+03  0.29448197982E+03  0.46999998093E+01 0.  1.
       -5    1    3    3    0  502 -0.33205206514E+02  0.25266572793E+03  0.13530504260E+03  0.28856905648E+03  0.46999998093E+01 0. -1.
</event>
<event>
 5   0  0.8207443E-02  0.6007450E+03  0.7818609E-02  0.9903862E-01
        2   -1    0    0  501    0  0.00000000000E+00  0.00000000000E+00  0.89345136036E+03  0.89345136037E+03  0.25500000920E-02 0.  1.
       -2   -1    0    0    0  501  0.00000000000E+00  0.00000000000E+00 -0.10098326710E+03  0.10098326713E+03  0.25500000920E-02 0. -1.
    10030    2    1    2    0    0  0.00000000000E+00  0.00000000000E+00  0.79246809326E+03  0.99443462750E+03  0.60074499543E+03 0.  0.
        1    1    3    3  502    0  0.12746690516E+03  0.22474622158E+03  0.64980295355E+03  0.69928717598E+03  0.50400001928E-02 0.  1.
       -1    1    3    3    0  502 -0.12746690516E+03 -0.22474622158E+03  0.14266513971E+03  0.29514745152E+03  0.50400001928E-02 0. -1.
</event>
<event>
 5   0  0.5125031E-02  0.6463852E+03  0.7818609E-02  0.9813586E-01
        1   -1    0    0  501    0  0.00000000000E+00  0.00000000000E+00  0.84304157522E+03  0.84304157523E+03  0.50400001928E-02 0. -1.
       -1   -1    0    0    0  501  0.00000000000E+00  0.00000000000E+00 -0.12390071451E+03  0.12390071462E+03  0.50400001928E-02 0.  1.
    10030    2    1    2    0    0  0.00000000000E+00  0.00000000000E+00  0.71914086070E+03  0.96694228985E+03  0.64638519040E+03 0.  0.
        4    1    3    3  502    0  0.95228272429E+02 -0.30771305743E+03  0.32010269557E+03  0.45411793423E+03  0.12699999809E+01 0. -1.
       -4    1    3    3    0  502 -0.95228272429E+02  0.30771305743E+03  0.39903816514E+03  0.51282435562E+03  0.12699999809E+01 0.  1.
</event>
<event>
 5   0  0.3437375E-02  0.6146990E+03  0.7818609E-02  0.9875371E-01
        3   -1    0    0  501    0  0.00000000000E+00  0.00000000000E+00  0.28437447908E+03  0.28437449701E+03  0.10100000352E+00 0.  1.
       -3   -1    0    0    0  501  0.00000000000E+00  0.00000000000E+00 -0.33218070166E+03  0.33218071702E+03  0.10100000352E+00 0. -1.
    10030    2    1    2    0    0  0.00000000000E+00  0.00000000000E+00 -0.47806222589E+02  0.61655521403E+03  0.61469902963E+03 0.  0.
        4    1    3    3  502    0  0.29243102076E+03  0.92932496489E+02 -0.41556273000E+02  0.30964639112E+03  0.12699999809E+01 0. -1.
       -4    1    3    3    0  502 -0.29243102076E+03 -0.92932496489E+02 -0.62499495889E+01  0.30690882291E+03  0.12699999809E+01 0.  1.
</event>
<event>
 5   0  0.5190380E-02  0.5346024E+03  0.7818609E-02  0.1005122E+00
        1   -1    0    0  501    0  0.00000000000E+00  0.00000000000E+00  0.45229421148E+03  0.45229421150E+03  0.50400001928E-02 0. -1.
       -1   -1    0    0    0  501  0.00000000000E+00  0.00000000000E+00 -0.15797224275E+03  0.15797224283E+03  0.50400001928E-02 0.  1.
    10030    2    1    2    0    0  0.00000000000E+00  0.00000000000E+00  0.29432196873E+03  0.61026645434E+03  0.53460239806E+03 0.  0.
        5    1    3    3  502    0  0.10550725636E+03 -0.11800025279E+03  0.39298058566E+03  0.42368817721E+03  0.46999998093E+01 0. -1.
       -5    1    3    3    0  502 -0.10550725636E+03  0.11800025279E+03 -0.98658616934E+02  0.18657827713E+03  0.46999998093E+01 0.  1.
</event>
<event>
 5   0  0.8817544E-02  0.5968847E+03  0.7818609E-02  0.9911891E-01
        2   -1    0    0  501    0  0.00000000000E+00  0.00000000000E+00  0.89722776401E+03  0.89722776401E+03  0.25500000920E-02 0. -1.
       -2   -1    0    0    0  501  0.00000000000E+00  0.00000000000E+00 -0.99270031080E+02  0.99270031113E+02  0.25500000920E-02 0.  1.
    10030    2    1    2    0    0  0.00000000000E+00  0.00000000000E+00  0.79795773293E+03  0.99649779513E+03  0.59688467240E+03 0.  0.
        5    1    3    3  502    0 -0.14105535785E+03  0.14526258108E+03  0.76493004554E+03  0.79128875640E+03  0.46999998093E+01 0. -1.
       -5    1    3    3    0  502  0.14105535785E+03 -0.14526258108E+03  0.33027687392E+02  0.20520903873E+03  0.46999998093E+01 0.  1.
</event>
<event>
 5   0  0.8420604E-02  0.5974736E+03  0.7818609E-02  0.9910661E-01
        2   -1    0    0  501    0  0.00000000000E+00  0.00000000000E+00  0.26858240970E+03  0.26858240971E+03  0.25500000920E-02 0. -1.
       -2   -1    0    0    0  501  0.00000000000E+00  0.00000000000E+00 -0.33227674116E+03  0.33227674117E+03  0.25500000920E-02 0.  1.
    10030    2    1    2    0    0  0.00000000000E+00  0.00000000000E+00 -0.63694331462E+02  0.60085915088E+03  0.59747364070E+03 0.  0.
        2    1    3    3  502    0 -0.78081780024E+02  0.28287675821E+03  0.24395243298E+02  0.29446757480E+03  0.25500000920E-02 0. -1.
       -2    1    3    3    0  502  0.78081780024E+02 -0.28287675821E+03 -0.88089574759E+02  0.30639157608E+03  0.25500000920E-02 0.  1.
</event>
<event>
 5   0  0.8699746E-02  0.5911854E+03  0.7818609E-02  0.9923864E-01
       -2   -1    0    0    0  501  0.00000000000E+00  0.00000000000E+00  0.94609871390E+02  0.94609871424E+02  0.25500000920E-02 0.  1.
        2   -1    0    0  501    0  0.00000000000E+00  0.00000000000E+00 -0.92352981477E+03  0.92352981478E+03  0.25500000920E-02 0. -1.
    10030    2    1    2    0    0  0.00000000000E+00  0.00000000000E+00 -0.82891994338E+03  0.10181396862E+04  0.59118537539E+03 0.  0.
        3    1    3    3  502    0 -0.64561360110E+02  0.12797504729E+03  0.30752130356E+02  0.14659974649E+03  0.10100000352E+00 0.  1.
       -3    1    3    3    0  502  0.64561360110E+02 -0.12797504729E+03 -0.85967207374E+03  0.87153993971E+03  0.10100000352E+00 0. -1.
</event>
<event>
 5   0  0.4987389E-02  0.5868292E+03  0.7818609E-02  0.9933114E-01
       -1   -1    0    0    0  501  0.00000000000E+00  0.00000000000E+00  0.81204845266E+02  0.81204845423E+02  0.50400001928E-02 0. -1.
        1   -1    0    0  501    0  0.00000000000E+00  0.00000000000E+00 -0.10601846741E+04  0.10601846741E+04  0.50400001928E-02 0.  1.
    10030    2    1    2    0    0  0.00000000000E+00  0.00000000000E+00 -0.97897982881E+03  0.11413895195E+04  0.58682921709E+03 0.  0.
        1    1    3    3  502    0 -0.13200190410E+03  0.24649117575E+03 -0.66247273871E+03  0.71906364945E+03  0.50400001928E-02 0.  1.
       -1    1    3    3    0  502  0.13200190410E+03 -0.24649117575E+03 -0.31650709010E+03  0.42232587006E+03  0.50400001928E-02 0. -1.
</event>
<event>
 5   0  0.8699746E-02  0.6002097E+03  0.7818609E-02  0.9904971E-01
       -2   -1    0    0    0  501  0.00000000000E+00  0.00000000000E+00  0.55778841698E+02  0.55778841756E+02  0.25500000920E-02 0. -1.
        2   -1    0    0  501    0  0.00000000000E+00  0.00000000000E+00 -0.16146429702E+04  0.16146429702E+04  0.25500000920E-02 0.  1.
    10030    2    1    2    0    0  0.00000000000E+00  0.00000000000E+00 -0.15588641285E+04  0.16704218120E+04  0.60020967898E+03 0.  0.
        3    1    3    3  502    0  0.45843125939E+02 -0.11092418469E+03 -0.15449372034E+04  0.15495924431E+04  0.10100000352E+00 0.  1.
       -3    1    3    3    0  502 -0.45843125939E+02  0.11092418469E+03 -0.13926925110E+02  0.12082936890E+03  0.10100000352E+00 0. -1.
</event>
<event>
 5   0  0.8817544E-02  0.5890050E+03  0.7818609E-02  0.9928483E-01
       -2   -1    0    0    0  501  0.00000000000E+00  0.00000000000E+00  0.16967527009E+03  0.16967527011E+03  0.25500000920E-02 0.  1.
        2   -1    0    0  501    0  0.00000000000E+00  0.00000000000E+00 -0.51116307093E+03  0.51116307093E+03  0.25500000920E-02 0. -1.
    10030    2    1    2    0    0  0.00000000000E+00  0.00000000000E+00 -0.34148780084E+03  0.68083834104E+03  0.58900503266E+03 0.  0.
        5    1    3    3  502    0 -0.59657549120E+02 -0.10273529734E+03 -0.48218905422E+03  0.49663058554E+03  0.46999998093E+01 0. -1.
       -5    1    3    3    0  502  0.59657549120E+02  0.10273529734E+03  0.14070125338E+03  0.18420775550E+03  0.46999998093E+01 0.  1.
</event>
<event>
 5   0  0.5125031E-02  0.6036705E+03  0.7818609E-02  0.9897820E-01
        1   -1    0    0  501    0  0.00000000000E+00  0.00000000000E+00  0.14936726905E+03  0.14936726913E+03  0.50400001928E-02 0. -1.
       -1   -1    0    0    0  501  0.00000000000E+00  0.00000000000E+00 -0.60993636062E+03  0.60993636064E+03  0.50400001928E-02 0.  1.
    10030    2    1    2    0    0  0.00000000000E+00  0.00000000000E+00 -0.46056909157E+03  0.75930362978E+03  0.60367053438E+03 0.  0.
        4    1    3    3  502    0  0.16249357227E+03 -0.10038360099E+03 -0.52425172734E+03  0.55796282573E+03  0.12699999809E+01 0.  1.
       -4    1    3    3    0  502 -0.16249357227E+03  0.10038360099E+03  0.63682635764E+02  0.20134080405E+03  0.12699999809E+01 0. -1.
</event>
<event>
 5   0  0.5166903E-02  0.5959810E+03  0.7818609E-02  0.9913779E-01
        1   -1    0    0  501    0  0.00000000000E+00  0.00000000000E+00  0.13055238466E+03  0.13055238476E+03  0.50400001928E-02 0. -1.
       -1   -1    0    0    0  501  0.00000000000E+00  0.00000000000E+00 -0.68017398175E+03  0.68017398177E+03  0.50400001928E-02 0.  1.
    10030    2    1    2    0    0  0.00000000000E+00  0.00000000000E+00 -0.54962159708E+03  0.81072636653E+03  0.59598099081E+03 0.  0.
        2    1    3    3  502    0  0.39636431023E+02 -0.16722002510E+02  0.12630599693E+03  0.13343116915E+03  0.25500000920E-02 0. -1.
       -2    1    3    3    0  502 -0.39636431023E+02  0.16722002510E+02 -0.67592759402E+03  0.67729519738E+03  0.25500000920E-02 0.  1.
</event>
<event>
 5   0  0.8575590E-02  0.5930379E+03  0.7818609E-02  0.9919956E-01
        2   -1    0    0  501    0  0.00000000000E+00  0.00000000000E+00  0.78589043024E+03  0.78589043024E+03  0.25500000920E-02 0. -1.
       -2   -1    0    0    0  501  0.00000000000E+00  0.00000000000E+00 -0.11187753176E+03  0.11187753179E+03  0.25500000920E-02 0.  1.
    10030    2    1    2    0    0  0.00000000000E+00  0.00000000000E+00  0.67401289848E+03  0.89776796203E+03  0.59303787934E+03 0.  0.
        4    1    3    3  502    0  0.44043386364E+02 -0.27264251789E+03  0.50039037627E+03  0.57154693947E+03  0.12699999809E+01 0.  1.
       -4    1    3    3    0  502 -0.44043386364E+02  0.27264251789E+03  0.17362252220E+03  0.32622102256E+03  0.12699999809E+01 0. -1.
</event>
<event>
 5   0  0.8575590E-02  0.5964685E+03  0.7818609E-02  0.9912760E-01
        2   -1    0    0  501    0  0.00000000000E+00  0.00000000000E+00  0.20932892053E+04  0.20932892053E+04  0.25500000920E-02 0. -1.
       -2   -1    0    0    0  501  0.00000000000E+00  0.00000000000E+00 -0.42489913362E+02  0.42489913438E+02  0.25500000920E-02 0.  1.
    10030    2    1    2    0    0  0.00000000000E+00  0.00000000000E+00  0.20507992920E+04  0.21357791188E+04  0.59646853080E+03 0.  0.
        4    1    3    3  502    0 -0.19772769435E+03 -0.20095624401E+03  0.67708662875E+03  0.73343545650E+03  0.12699999809E+01 0.  1.
       -4    1    3    3    0  502  0.19772769435E+03  0.20095624401E+03  0.13737126632E+04  0.14023436623E+04  0.12699999809E+01 0. -1.
</event>
<event>
 5   0  0.8420604E-02  0.5908519E+03  0.7818609E-02  0.9924569E-01
        2   -1    0    0  501    0  0.00000000000E+00  0.00000000000E+00  0.62902292402E+03  0.62902292402E+03  0.25500000920E-02 0. -1.
       -2   -1    0    0    0  501  0.00000000000E+00  0.00000000000E+00 -0.13874929525E+03  0.13874929528E+03  0.25500000920E-02 0.  1.
    10030    2    1    2    0    0  0.00000000000E+00  0.00000000000E+00  0.49027362876E+03  0.76777221930E+03  0.59085188471E+03 0.  0.
        2    1    3    3  502    0  0.14917151634E+03 -0.22926947464E+03  0.10008931452E+03  0.29126363346E+03  0.25500000920E-02 0. -1.
       -2    1    3    3    0  502 -0.14917151634E+03  0.22926947464E+03  0.39018431424E+03  0.47650858584E+03  0.25500000920E-02 0.  1.
</event>
<event>
 5   0  0.8207443E-02  0.5905348E+03  0.7818609E-02  0.9925240E-01
        2   -1    0    0  501    0  0.00000000000E+00  0.00000000000E+00  0.13023441135E+04  0.13023441135E+04  0.25500000920E-02 0. -1.
       -2   -1    0    0    0  501  0.00000000000E+00  0.00000000000E+00 -0.66943019588E+02  0.66943019636E+02  0.25500000920E-02 0.  1.
    10030    2    1    2    0    0  0.00000000000E+00  0.00000000000E+00  0.12354010939E+04  0.13692871332E+04  0.59053483398E+03 0.  0.
        1    1    3    3  502    0 -0.19747916891E+03  0.15832334568E+03  0.26514362806E+03  0.36655892769E+03  0.50400001928E-02 0. -1.
       -1    1    3    3    0  502  0.19747916891E+03 -0.15832334568E+03  0.97025746587E+03  0.10027282055E+04  0.50400001928E-02 0.  1.
</event>
<event>
 5   0  0.8575590E-02  0.6026715E+03  0.7818609E-02  0.9899879E-01
        2   -1    0    0  501    0  0.00000000000E+00  0.00000000000E+00  0.11971127766E+04  0.11971127766E+04  0.25500000920E-02 0.  1.
       -2   -1    0    0    0  501  0.00000000000E+00  0.00000000000E+00 -0.75851871608E+02  0.75851871651E+02  0.25500000920E-02 0. -1.
    10030    2    1    2    0    0  0.00000000000E+00  0.00000000000E+00  0.11212609050E+04  0.12729646483E+04  0.60267153463E+03 0.  0.
        4    1    3    3  502    0  0.27436375984E+03  0.11819723497E+03  0.64393732290E+03  0.70986121727E+03  0.12699999809E+01 0. -1.
       -4    1    3    3    0  502 -0.27436375984E+03 -0.11819723497E+03  0.47732358214E+03  0.56310343102E+03  0.12699999809E+01 0.  1.
</event>
<event>
 5   0  0.3437375E-02  0.5860725E+03  0.7818609E-02  0.9934730E-01
        3   -1    0    0  501    0  0.00000000000E+00  0.00000000000E+00  0.96928777702E+02  0.96928830324E+02  0.10100000352E+00 0. -1.
       -3   -1    0    0    0  501  0.00000000000E+00  0.00000000000E+00 -0.88591038658E+03  0.88591039234E+03  0.10100000352E+00 0.  1.
    10030    2    1    2    0    0  0.00000000000E+00  0.00000000000E+00 -0.78898160888E+03  0.98283922266E+03  0.58607248566E+03 0.  0.
        5    1    3    3  502    0  0.23909614376E+03  0.98902911020E+02 -0.62503549792E+03  0.67649110521E+03  0.46999998093E+01 0.  1.
       -5    1    3    3    0  502 -0.23909614376E+03 -0.98902911020E+02 -0.16394611096E+03  0.30634811745E+03  0.46999998093E+01 0. -1.
</event>
<event>
 5   0  0.8699746E-02  0.5951595E+03  0.7818609E-02  0.9915500E-01
        2   -1    0    0  501    0  0.00000000000E+00  0.00000000000E+00  0.11568608129E+04  0.11568608129E+04  0.25500000920E-02 0. -1.
       -2   -1    0    0    0  501  0.00000000000E+00  0.00000000000E+00 -0.76546545386E+02  0.76546545429E+02  0.25500000920E-02 0.  1.
    10030    2    1    2    0    0  0.00000000000E+00  0.00000000000E+00  0.10803142676E+04  0.12334073584E+04  0.59515947023E+03 0.  0.
        3    1    3    3  502    0 -0.20581977497E+03  0.12379452485E+03  0.17605840541E+03  0.29779764350E+03  0.10100000352E+00 0.  1.
       -3    1    3    3    0  502  0.20581977497E+03 -0.12379452485E+03  0.90425586214E+03  0.93560971488E+03  0.10100000352E+00 0. -1.
</event>
<event>
 5   0  0.3437375E-02  0.4723346E+03  0.7818609E-02  0.1021263E+00
        3   -1    0    0  501    0  0.00000000000E+00  0.00000000000E+00  0.36417503265E+03  0.36417504665E+03  0.10100000352E+00 0. -1.
       -3   -1    0    0    0  501  0.00000000000E+00  0.00000000000E+00 -0.15315430801E+03  0.15315434132E+03  0.10100000352E+00 0.  1.
    10030    2    1    2    0    0  0.00000000000E+00  0.00000000000E+00  0.21102072463E+03  0.51732938797E+03  0.47233457361E+03 0.  0.
        4    1    3    3  502    0  0.62016278975E+02  0.17936089931E+03  0.25945982281E+03  0.32146129411E+03  0.12699999809E+01 0. -1.
       -4    1    3    3    0  502 -0.62016278975E+02 -0.17936089931E+03 -0.48439098180E+02  0.19586809385E+03  0.12699999809E+01 0.  1.
</event>
<event>
 5   0  0.4987389E-02  0.5924619E+03  0.7818609E-02  0.9921170E-01
        1   -1    0    0  501    0  0.00000000000E+00  0.00000000000E+00  0.26701312461E+03  0.26701312466E+03  0.50400001928E-02 0. -1.
       -1   -1    0    0    0  501  0.00000000000E+00  0.00000000000E+00 -0.32864595004E+03  0.32864595008E+03  0.50400001928E-02 0.  1.
    10030    2    1    2    0    0  0.00000000000E+00  0.00000000000E+00 -0.61632825427E+02  0.59565907474E+03  0.59246192126E+03 0.  0.
        1    1    3    3  502    0 -0.24403650965E+03  0.10851552231E+03 -0.15966157983E+03  0.31116114269E+03  0.50400001928E-02 0.  1.
       -1    1    3    3    0  502  0.24403650965E+03 -0.10851552231E+03  0.98028754401E+02  0.28449793205E+03  0.50400001928E-02 0. -1.
</event>
<event>
 5   0  0.4987389E-02  0.6042811E+03  0.7818609E-02  0.9896564E-01
        1   -1    0    0  501    0  0.00000000000E+00  0.00000000000E+00  0.79039402745E+03  0.79039402747E+03  0.50400001928E-02 0.  1.
       -1   -1    0    0    0  501  0.00000000000E+00  0.00000000000E+00 -0.11549798498E+03  0.11549798509E+03  0.50400001928E-02 0. -1.
    10030    2    1    2    0    0  0.00000000000E+00  0.00000000000E+00  0.67489604247E+03  0.90589201256E+03  0.60428111858E+03 0.  0.
        1    1    3    3  502    0 -0.16651263233E+03 -0.63830844316E+02 -0.28190881597E+02  0.18054240290E+03  0.50400001928E-02 0. -1.
       -1    1    3    3    0  502  0.16651263233E+03  0.63830844316E+02  0.70308692407E+03  0.72534960966E+03  0.50400001928E-02 0.  1.
</event>
<event>
 5   0  0.5125031E-02  0.6008043E+03  0.7818609E-02  0.9903739E-01
       -1   -1    0    0    0  501  0.00000000000E+00  0.00000000000E+00  0.53485347706E+02  0.53485347943E+02  0.50400001928E-02 0.  1.
        1   -1    0    0  501    0  0.00000000000E+00  0.00000000000E+00 -0.16872179644E+04  0.16872179644E+04  0.50400001928E-02 0. -1.
    10030    2    1    2    0    0  0.00000000000E+00  0.00000000000E+00 -0.16337326167E+04  0.17407033124E+04  0.60080425996E+03 0.  0.
        4    1    3    3  502    0 -0.23804059883E+03  0.11970941372E+03 -0.12188086492E+04  0.12475936064E+04  0.12699999809E+01 0. -1.
       -4    1    3    3    0  502  0.23804059883E+03 -0.11970941372E+03 -0.41492396753E+03  0.49310970600E+03  0.12699999809E+01 0.  1.
</event>
<event>
 5   0  0.4987389E-02  0.5986343E+03  0.7818609E-02  0.9908243E-01
        1   -1    0    0  501    0  0.00000000000E+00  0.00000000000E+00  0.12549078297E+03  0.12549078307E+03  0.50400001928E-02 0.  1.
       -1   -1    0    0    0  501  0.00000000000E+00  0.00000000000E+00 -0.71392302109E+03  0.71392302110E+03  0.50400001928E-02 0. -1.
    10030    2    1    2    0    0  0.00000000000E+00  0.00000000000E+00 -0.58843223812E+03  0.83941380418E+03  0.59863430890E+03 0.  0.
        1    1    3    3  502    0  0.17336263680E+03  0.12410945984E+03  0.35910323451E+00  0.21320856184E+03  0.50400001928E-02 0.  1.
       -1    1    3    3    0  502 -0.17336263680E+03 -0.12410945984E+03 -0.58879134135E+03  0.62620524234E+03  0.50400001928E-02 0. -1.
</event>
<event>
 5   0  0.8207443E-02  0.5999453E+03  0.7818609E-02  0.9905520E-01
        2   -1    0    0  501    0  0.00000000000E+00  0.00000000000E+00  0.13814194185E+04  0.13814194185E+04  0.25500000920E-02 0. -1.
       -2   -1    0    0    0  501  0.00000000000E+00  0.00000000000E+00 -0.65138499373E+02  0.65138499423E+02  0.25500000920E-02 0.  1.
    10030    2    1    2    0    0  0.00000000000E+00  0.00000000000E+00  0.13162809191E+04  0.14465579179E+04  0.59994529071E+03 0.  0.
        1    1    3    3  502    0 -0.17952033849E+03 -0.73472453072E+01  0.12373288053E+04  0.12503056052E+04  0.50400001928E-02 0. -1.
       -1    1    3    3    0  502  0.17952033849E+03  0.73472453072E+01  0.78952113831E+02  0.19625231273E+03  0.50400001928E-02 0.  1.
</event>
<event>
 5   0  0.8575590E-02  0.6089639E+03  0.7818609E-02  0.9886981E-01
        2   -1    0    0  501    0  0.00000000000E+00  0.00000000000E+00  0.61326012772E+03  0.61326012772E+03  0.25500000920E-02 0.  1.
       -2   -1    0    0    0  501  0.00000000000E+00  0.00000000000E+00 -0.15117442900E+03  0.15117442902E+03  0.25500000920E-02 0. -1.
    10030    2    1    2    0    0  0.00000000000E+00  0.00000000000E+00  0.46208569872E+03  0.76443455674E+03  0.60896387296E+03 0.  0.
        4    1    3    3  502    0 -0.17349682318E+03  0.13982168838E+03  0.49151875837E+03  0.53966985734E+03  0.12699999809E+01 0.  1.
       -4    1    3    3    0  502  0.17349682318E+03 -0.13982168838E+03 -0.29433059650E+02  0.22476469940E+03  0.12699999809E+01 0. -1.
</event>
<event>
 5   0  0.8420604E-02  0.6056553E+03  0.7818609E-02  0.9893742E-01
        2   -1    0    0  501    0  0.00000000000E+00  0.00000000000E+00  0.81784223155E+03  0.81784223155E+03  0.25500000920E-02 0. -1.
       -2   -1    0    0    0  501  0.00000000000E+00  0.00000000000E+00 -0.11212992832E+03  0.11212992835E+03  0.25500000920E-02 0.  1.
    10030    2    1    2    0    0  0.00000000000E+00  0.00000000000E+00  0.70571230323E+03  0.92997215990E+03  0.60565531722E+03 0.  0.
        2    1    3    3  502    0  0.23053073156E+02 -0.23942395403E+03  0.70355556317E+02  0.25060961325E+03  0.25500000920E-02 0. -1.
       -2    1    3    3    0  502 -0.23053073156E+02  0.23942395403E+03  0.63535674691E+03  0.67936254665E+03  0.25500000920E-02 0.  1.
</event>
<event>
 5   0  0.5190380E-02  0.5845183E+03  0.7818609E-02  0.9938057E-01
       -1   -1    0    0    0  501  0.00000000000E+00  0.00000000000E+00  0.12418429766E+03  0.12418429776E+03  0.50400001928E-02 0. -1.
        1   -1    0    0  501    0  0.00000000000E+00  0.00000000000E+00 -0.68781161890E+03  0.68781161891E+03  0.50400001928E-02 0.  1.
    10030    2    1    2    0    0  0.00000000000E+00  0.00000000000E+00 -0.56362732124E+03  0.81199591667E+03  0.58451827298E+03 0.  0.
        5    1    3    3  502    0  0.17917433901E+02  0.12322872560E+03  0.85429593021E+02  0.15108493840E+03  0.46999998093E+01 0. -1.
       -5    1    3    3    0  502 -0.17917433901E+02 -0.12322872560E+03 -0.64905691426E+03  0.66091097827E+03  0.46999998093E+01 0.  1.
</event>
<event>
 5   0  0.4881209E-02  0.6037397E+03  0.7818609E-02  0.9897678E-01
        1   -1    0    0  501    0  0.00000000000E+00  0.00000000000E+00  0.43987892758E+03  0.43987892761E+03  0.50400001928E-02 0. -1.
       -1   -1    0    0    0  501  0.00000000000E+00  0.00000000000E+00 -0.20716022943E+03  0.20716022949E+03  0.50400001928E-02 0.  1.
    10030    2    1    2    0    0  0.00000000000E+00  0.00000000000E+00  0.23271869815E+03  0.64703915709E+03  0.60373974388E+03 0.  0.
        3    1    3    3  502    0 -0.29288772649E+03  0.71665549234E+02  0.10096840516E+03  0.31798396236E+03  0.10100000352E+00 0. -1.
       -3    1    3    3    0  502  0.29288772649E+03 -0.71665549234E+02  0.13175029299E+03  0.32905519473E+03  0.10100000352E+00 0.  1.
</event>
<event>
 5   0  0.8207443E-02  0.5995843E+03  0.7818609E-02  0.9906269E-01
        2   -1    0    0  501    0  0.00000000000E+00  0.00000000000E+00  0.24700989740E+03  0.24700989741E+03  0.25500000920E-02 0.  1.
       -2   -1    0    0    0  501  0.00000000000E+00  0.00000000000E+00 -0.36385314825E+03  0.36385314826E+03  0.25500000920E-02 0. -1.
    10030    2    1    2    0    0  0.00000000000E+00  0.00000000000E+00 -0.11684325086E+03  0.61086304567E+03  0.59958428540E+03 0.  0.
        1    1    3    3  502    0 -0.17609280978E+03  0.19673454616E+03 -0.20308621590E+03  0.33310234227E+03  0.50400001928E-02 0. -1.
       -1    1    3    3    0  502  0.17609280978E+03 -0.19673454616E+03  0.86242965046E+02  0.27776070340E+03  0.50400001928E-02 0.  1.
</event>
<event>
 5   0  0.3437375E-02  0.6074028E+03  0.7818609E-02  0.9890166E-01
        3   -1    0    0  501    0  0.00000000000E+00  0.00000000000E+00  0.32546696361E+03  0.32546697928E+03  0.10100000352E+00 0. -1.
       -3   -1    0    0    0  501  0.00000000000E+00  0.00000000000E+00 -0.28339137695E+03  0.28339139495E+03  0.10100000352E+00 0.  1.
    10030    2    1    2    0    0  0.00000000000E+00  0.00000000000E+00  0.42075586666E+02  0.60885837423E+03  0.60740280282E+03 0.  0.
        5    1    3    3  502    0 -0.29451106441E+03 -0.54213469037E+02  0.71522996822E+02  0.30791800265E+03  0.46999998093E+01 0. -1.
       -5    1    3    3    0  502  0.29451106441E+03  0.54213469037E+02 -0.29447410156E+02  0.30094037158E+03  0.46999998093E+01 0.  1.
</event>
<event>
 5   0  0.5125031E-02  0.5949827E+03  0.7818609E-02  0.9915870E-01
       -1   -1    0    0    0  501  0.00000000000E+00  0.00000000000E+00  0.36804908177E+03  0.36804908180E+03  0.50400001928E-02 0. -1.
        1   -1    0    0  501    0  0.00000000000E+00  0.00000000000E+00 -0.24046001975E+03  0.24046001980E+03  0.50400001928E-02 0.  1.
    10030    2    1    2    0    0  0.00000000000E+00  0.00000000000E+00  0.12758906202E+03  0.60850910160E+03  0.59498265352E+03 0.  0.
        4    1    3    3  502    0 -0.20410879987E+03 -0.16670466328E+03 -0.77359941485E+02  0.27465800624E+03  0.12699999809E+01 0.  1.
       -4    1    3    3    0  502  0.20410879987E+03  0.16670466328E+03  0.20494900350E+03  0.33385109537E+03  0.12699999809E+01 0. -1.
</event>
<event>
 5   0  0.4987389E-02  0.6032588E+03  0.7818609E-02  0.9898668E-01
        1   -1    0    0  501    0  0.00000000000E+00  0.00000000000E+00  0.17435372366E+03  0.17435372374E+03  0.50400001928E-02 0. -1.
       -1   -1    0    0    0  501  0.00000000000E+00  0.00000000000E+00 -0.52181441678E+03  0.52181441681E+03  0.50400001928E-02 0.  1.
    10030    2    1    2    0    0  0.00000000000E+00  0.00000000000E+00 -0.34746069312E+03  0.69616814054E+03  0.60325877254E+03 0.  0.
        1    1    3    3  502    0 -0.37816413081E+02 -0.23683687933E+03  0.37357738228E+02  0.24272904470E+03  0.50400001928E-02 0. -1.
       -1    1    3    3    0  502  0.37816413081E+02  0.23683687933E+03 -0.38481843135E+03  0.45343909585E+03  0.50400001928E-02 0.  1.
</event>
<event>
 5   0  0.4987389E-02  0.6015273E+03  0.7818609E-02  0.9902242E-01
        1   -1    0    0  501    0  0.00000000000E+00  0.00000000000E+00  0.88437288007E+03  0.88437288008E+03  0.50400001928E-02 0. -1.
       -1   -1    0    0    0  501  0.00000000000E+00  0.00000000000E+00 -0.10228578926E+03  0.10228578939E+03  0.50400001928E-02 0.  1.
    10030    2    1    2    0    0  0.00000000000E+00  0.00000000000E+00  0.78208709080E+03  0.98665866947E+03  0.60152731645E+03 0.  0.
        1    1    3    3  502    0 -0.18931101036E+03 -0.11209999778E+03  0.54676268418E+02  0.22670368876E+03  0.50400001928E-02 0.  1.
       -1    1    3    3    0  502  0.18931101036E+03  0.11209999778E+03  0.72741082239E+03  0.75995498070E+03  0.50400001928E-02 0. -1.
</event>
<event>
 5   0  0.3437375E-02  0.6026955E+03  0.7818609E-02  0.9899830E-01
       -3   -1    0    0    0  501  0.00000000000E+00  0.00000000000E+00  0.16867937422E+03  0.16867940446E+03  0.10100000352E+00 0. -1.
        3   -1    0    0  501    0  0.00000000000E+00  0.00000000000E+00 -0.53836126301E+03  0.53836127248E+03  0.10100000352E+00 0.  1.
    10030    2    1    2    0    0  0.00000000000E+00  0.00000000000E+00 -0.36968188878E+03  0.70704067694E+03  0.60269546203E+03 0.  0.
        2    1    3    3  502    0 -0.63925796442E+01 -0.89571581853E+02 -0.52230020597E+03  0.52996361999E+03  0.25500000920E-02 0.  1.
       -2    1    3    3    0  502  0.63925796442E+01  0.89571581853E+02  0.15261831719E+03  0.17707705695E+03  0.25500000920E-02 0. -1.
</event>
<event>
 5   0  0.5190380E-02  0.5998887E+03  0.7818609E-02  0.9905637E-01
        1   -1    0    0  501    0  0.00000000000E+00  0.00000000000E+00  0.81783425426E+03  0.81783425428E+03  0.50400001928E-02 0.  1.
       -1   -1    0    0    0  501  0.00000000000E+00  0.00000000000E+00 -0.11000593357E+03  0.11000593368E+03  0.50400001928E-02 0. -1.
    10030    2    1    2    0    0  0.00000000000E+00  0.00000000000E+00  0.70782832070E+03  0.92784018796E+03  0.59988872537E+03 0.  0.
        5    1    3    3  502    0 -0.11895070637E+03 -0.17720781883E+03  0.67979438781E+03  0.71252675830E+03  0.46999998093E+01 0.  1.
       -5    1    3    3    0  502  0.11895070637E+03  0.17720781883E+03  0.28033932884E+02  0.21531342966E+03  0.46999998093E+01 0. -1.
</event>
<event>
 5   0  0.4881209E-02  0.5934916E+03  0.7818609E-02  0.9919002E-01
        1   -1    0    0  501    0  0.00000000000E+00  0.00000000000E+00  0.35632432214E+03  0.35632432217E+03  0.50400001928E-02 0.  1.
       -1   -1    0    0    0  501  0.00000000000E+00  0.00000000000E+00 -0.24712900335E+03  0.24712900340E+03  0.50400001928E-02 0. -1.
    10030    2    1    2    0    0  0.00000000000E+00  0.00000000000E+00  0.10919531879E+03  0.60345332558E+03  0.59349161620E+03 0.  0.
        3    1    3    3  502    0 -0.26873585374E+03  0.66142802301E+02 -0.54270689722E+02  0.28202685572E+03  0.10100000352E+00 0. -1.
       -3    1    3    3    0  502  0.26873585374E+03 -0.66142802301E+02  0.16346600851E+03  0.32142646985E+03  0.10100000352E+00 0.  1.
</event>
<event>
 5   0  0.8575590E-02  0.6043774E+03  0.7818609E-02  0.9896366E-01
       -2   -1    0    0    0  501  0.00000000000E+00  0.00000000000E+00  0.34765891862E+03  0.34765891863E+03  0.25500000920E-02 0.  1.
        2   -1    0    0  501    0  0.00000000000E+00  0.00000000000E+00 -0.26266548415E+03  0.26266548416E+03  0.25500000920E-02 0. -1.
    10030    2    1    2    0    0  0.00000000000E+00  0.00000000000E+00  0.84993434472E+02  0.61032440279E+03  0.60437735956E+03 0.  0.
        4    1    3    3  502    0  0.21728491567E+03 -0.12087447693E+03 -0.13092844450E+03  0.28101111051E+03  0.12699999809E+01 0. -1.
       -4    1    3    3    0  502 -0.21728491567E+03  0.12087447693E+03  0.21592187897E+03  0.32931329228E+03  0.12699999809E+01 0.  1.
</event>
<event>
 5   0  0.8207443E-02  0.5676770E+03  0.7818609E-02  0.9974832E-01
       -2   -1    0    0    0  501  0.00000000000E+00  0.00000000000E+00  0.66449258140E+02  0.66449258189E+02  0.25500000920E-02 0. -1.
        2   -1    0    0  501    0  0.00000000000E+00  0.00000000000E+00 -0.12124182792E+04  0.12124182792E+04  0.25500000920E-02 0.  1.
    10030    2    1    2    0    0  0.00000000000E+00  0.00000000000E+00 -0.11459690211E+04  0.12788675374E+04  0.56767700409E+03 0.  0.
        1    1    3    3  502    0  0.10585286724E+03  0.25358513441E+02 -0.11635315512E+04  0.11686118065E+04  0.50400001928E-02 0.  1.
       -1    1    3    3    0  502 -0.10585286724E+03 -0.25358513441E+02  0.17562530101E+02  0.11025573090E+03  0.50400001928E-02 0. -1.
</event>
<event>
 5   0  0.5125031E-02  0.6016046E+03  0.7818609E-02  0.9902083E-01
       -1   -1    0    0    0  501  0.00000000000E+00  0.00000000000E+00  0.38518963512E+03  0.38518963515E+03  0.50400001928E-02 0.  1.
        1   -1    0    0  501    0  0.00000000000E+00  0.00000000000E+00 -0.23490256993E+03  0.23490256999E+03  0.50400001928E-02 0. -1.
    10030    2    1    2    0    0  0.00000000000E+00  0.00000000000E+00  0.15028706519E+03  0.62009220514E+03  0.60160463837E+03 0.  0.
        4    1    3    3  502    0 -0.26833454461E+03 -0.10985319011E+03  0.15766167020E+03  0.33004540045E+03  0.12699999809E+01 0.  1.
       -4    1    3    3    0  502  0.26833454461E+03  0.10985319011E+03 -0.73746050131E+01  0.29004680469E+03  0.12699999809E+01 0. -1.
</event>
<event>
 5   0  0.8817544E-02  0.5998856E+03  0.7818609E-02  0.9905643E-01
        2   -1    0    0  501    0  0.00000000000E+00  0.00000000000E+00  0.19251400807E+04  0.19251400807E+04  0.25500000920E-02 0. -1.
       -2   -1    0    0    0  501  0.00000000000E+00  0.00000000000E+00 -0.46732023238E+02  0.46732023307E+02  0.25500000920E-02 0.  1.
    10030    2    1    2    0    0  0.00000000000E+00  0.00000000000E+00  0.18784080574E+04  0.19718721040E+04  0.59988562596E+03 0.  0.
        5    1    3    3  502    0  0.19882736609E+03 -0.60591711398E+02  0.16498516203E+04  0.16628999176E+04  0.46999998093E+01 0. -1.
       -5    1    3    3    0  502 -0.19882736609E+03  0.60591711398E+02  0.22855643714E+03  0.30897218638E+03  0.46999998093E+01 0.  1.
</event>
<event>
 5   0  0.5166903E-02  0.6001829E+03  0.7818609E-02  0.9905027E-01
       -1   -1    0    0    0  501  0.00000000000E+00  0.00000000000E+00  0.76241289352E+03  0.76241289354E+03  0.50400001928E-02 0. -1.
        1   -1    0    0  501    0  0.00000000000E+00  0.00000000000E+00 -0.11811825088E+03  0.11811825099E+03  0.50400001928E-02 0.  1.
    10030    2    1    2    0    0  0.00000000000E+00  0.00000000000E+00  0.64429464264E+03  0.88053114453E+03  0.60018289708E+03 0.  0.
        2    1    3    3  502    0  0.48649303260E+02  0.31974828231E+02 -0.10975427947E+03  0.12423826390E+03  0.25500000920E-02 0.  1.
       -2    1    3    3    0  502 -0.48649303260E+02 -0.31974828231E+02  0.75404892211E+03  0.75629288063E+03  0.25500000920E-02 0. -1.
</event>
<event>
 5   0  0.4987389E-02  0.5996828E+03  0.7818609E-02  0.9906064E-01
        1   -1    0    0  501    0  0.00000000000E+00  0.00000000000E+00  0.12397238096E+04  0.12397238096E+04  0.50400001928E-02 0.  1.
       -1   -1    0    0    0  501  0.00000000000E+00  0.00000000000E+00 -0.72520073616E+02  0.72520073791E+02  0.50400001928E-02 0. -1.
    10030    2    1    2    0    0  0.00000000000E+00  0.00000000000E+00  0.11672037360E+04  0.13122438834E+04  0.59968278967E+03 0.  0.
        1    1    3    3  502    0  0.17187628305E+03  0.34895518254E+02  0.11157770164E+04  0.11294766506E+04  0.50400001928E-02 0.  1.
       -1    1    3    3    0  502 -0.17187628305E+03 -0.34895518254E+02  0.51426719542E+02  0.18276723277E+03  0.50400001928E-02 0. -1.
</event>
<event>
 5   0  0.4987389E-02  0.6005609E+03  0.7818609E-02  0.9904243E-01
       -1   -1    0    0    0  501  0.00000000000E+00  0.00000000000E+00  0.10568429299E+03  0.10568429311E+03  0.50400001928E-02 0.  1.
        1   -1    0    0  501    0  0.00000000000E+00  0.00000000000E+00 -0.85318576853E+03  0.85318576855E+03  0.50400001928E-02 0. -1.
    10030    2    1    2    0    0  0.00000000000E+00  0.00000000000E+00 -0.74750147554E+03  0.95887006166E+03  0.60056085389E+03 0.  0.
        1    1    3    3  502    0  0.80048854282E+02  0.28903510883E+03 -0.39739056948E+03  0.49786381466E+03  0.50400001928E-02 0. -1.
       -1    1    3    3    0  502 -0.80048854282E+02 -0.28903510883E+03 -0.35011090606E+03  0.46100624700E+03  0.50400001928E-02 0.  1.
</event>
<event>
 5   0  0.4881209E-02  0.5904413E+03  0.7818609E-02  0.9925438E-01
        1   -1    0    0  501    0  0.00000000000E+00  0.00000000000E+00  0.27019454392E+03  0.27019454397E+03  0.50400001928E-02 0.  1.
       -1   -1    0    0    0  501  0.00000000000E+00  0.00000000000E+00 -0.32256479203E+03  0.32256479207E+03  0.50400001928E-02 0. -1.
    10030    2    1    2    0    0  0.00000000000E+00  0.00000000000E+00 -0.52370248113E+02  0.59275933604E+03  0.59044134982E+03 0.  0.
        3    1    3    3  502    0  0.19009974730E+03  0.11921864932E+03  0.16641233112E+03  0.27936369560E+03  0.10100000352E+00 0.  1.
       -3    1    3    3    0  502 -0.19009974730E+03 -0.11921864932E+03 -0.21878257923E+03  0.31339564044E+03  0.10100000352E+00 0. -1.
</event>
<event>
 5   0  0.3437375E-02  0.6065099E+03  0.7818609E-02  0.9891991E-01
       -3   -1    0    0    0  501  0.00000000000E+00  0.00000000000E+00  0.57722450173E+03  0.57722451057E+03  0.10100000352E+00 0. -1.
        3   -1    0    0  501    0  0.00000000000E+00  0.00000000000E+00 -0.15932022537E+03  0.15932025738E+03  0.10100000352E+00 0.  1.
    10030    2    1    2    0    0  0.00000000000E+00  0.00000000000E+00  0.41790427637E+03  0.73654476795E+03  0.60650986058E+03 0.  0.
        5    1    3    3  502    0 -0.24911390199E+01 -0.22376775621E+03  0.45742430336E+03  0.50925170377E+03  0.46999998093E+01 0. -1.
       -5    1    3    3    0  502  0.24911390199E+01  0.22376775621E+03 -0.39520026992E+02  0.22729306418E+03  0.46999998093E+01 0.  1.
</event>
<event>
 5   0  0.8817544E-02  0.5654492E+03  0.7818609E-02  0.9979800E-01
       -2   -1    0    0    0  501  0.00000000000E+00  0.00000000000E+00  0.27659571426E+03  0.27659571427E+03  0.25500000920E-02 0.  1.
        2   -1    0    0  501    0  0.00000000000E+00  0.00000000000E+00 -0.28898931915E+03  0.28898931916E+03  0.25500000920E-02 0. -1.
    10030    2    1    2    0    0  0.00000000000E+00  0.00000000000E+00 -0.12393604892E+02  0.56558503343E+03  0.56544922725E+03 0.  0.
        5    1    3    3  502    0 -0.27693224588E+03  0.14291805974E+02  0.48728976916E+02  0.28158893393E+03  0.46999998093E+01 0.  1.
       -5    1    3    3    0  502  0.27693224588E+03 -0.14291805974E+02 -0.61122581808E+02  0.28399609950E+03  0.46999998093E+01 0. -1.
</event>
<event>
 5   0  0.8207443E-02  0.6002330E+03  0.7818609E-02  0.9904923E-01
       -2   -1    0    0    0  501  0.00000000000E+00  0.00000000000E+00  0.12137182368E+03  0.12137182371E+03  0.25500000920E-02 0. -1.
        2   -1    0    0  501    0  0.00000000000E+00  0.00000000000E+00 -0.74209895863E+03  0.74209895863E+03  0.25500000920E-02 0.  1.
    10030    2    1    2    0    0  0.00000000000E+00  0.00000000000E+00 -0.62072713495E+03  0.86347078234E+03  0.60023296802E+03 0.  0.
        1    1    3    3  502    0  0.12923548195E+03  0.13526557022E+03 -0.64795432101E+03  0.67442077846E+03  0.50400001928E-02 0.  1.
       -1    1    3    3    0  502 -0.12923548195E+03 -0.13526557022E+03  0.27227186064E+02  0.18905000388E+03  0.50400001928E-02 0. -1.
</event>
<event>
 5   0  0.5125031E-02  0.6563013E+03  0.7818609E-02  0.9795027E-01
        1   -1    0    0  501    0  0.00000000000E+00  0.00000000000E+00  0.79378832352E+03  0.79378832354E+03  0.50400001928E-02 0.  1.
       -1   -1    0    0    0  501  0.00000000000E+00  0.00000000000E+00 -0.13565686957E+03  0.13565686967E+03  0.50400001928E-02 0. -1.
    10030    2    1    2    0    0  0.00000000000E+00  0.00000000000E+00  0.65813145395E+03  0.92944519321E+03  0.65630126961E+03 0.  0.
        4    1    3    3  502    0  0.66213418506E+02 -0.12231673093E+03 -0.91843541185E+02  0.16668067798E+03  0.12699999809E+01 0. -1.
       -4    1    3    3    0  502 -0.66213418506E+02  0.12231673093E+03  0.74997499514E+03  0.76276451522E+03  0.12699999809E+01 0.  1.
</event>
<event>
 5   0  0.4881209E-02  0.5965023E+03  0.7818609E-02  0.9912689E-01
        1   -1    0    0  501    0  0.00000000000E+00  0.00000000000E+00  0.64713397990E+03  0.64713397992E+03  0.50400001928E-02 0.  1.
       -1   -1    0    0    0  501  0.00000000000E+00  0.00000000000E+00 -0.13745800941E+03  0.13745800950E+03  0.50400001928E-02 0. -1.
    10030    2    1    2    0    0  0.00000000000E+00  0.00000000000E+00  0.50967597049E+03  0.78459198942E+03  0.59650230089E+03 0.  0.
        3    1    3    3  502    0 -0.13224607543E+03 -0.61438623446E+02  0.59704903968E+03  0.61459848267E+03  0.10100000352E+00 0.  1.
       -3    1    3    3    0  502  0.13224607543E+03  0.61438623446E+02 -0.87373069187E+02  0.16999350675E+03  0.10100000352E+00 0. -1.
</event>
<event>
 5   0  0.8817544E-02  0.5971669E+03  0.7818609E-02  0.9911301E-01
       -2   -1    0    0    0  501  0.00000000000E+00  0.00000000000E+00  0.88728289397E+02  0.88728289434E+02  0.25500000920E-02 0.  1.
        2   -1    0    0  501    0  0.00000000000E+00  0.00000000000E+00 -0.10047762565E+04  0.10047762565E+04  0.25500000920E-02 0. -1.
    10030    2    1    2    0    0  0.00000000000E+00  0.00000000000E+00 -0.91604796712E+03  0.10935045460E+04  0.59716690628E+03 0.  0.
        5    1    3    3  502    0 -0.97660213041E+02 -0.28202123694E+03 -0.47178729487E+03  0.55828204063E+03  0.46999998093E+01 0. -1.
       -5    1    3    3    0  502  0.97660213041E+02  0.28202123694E+03 -0.44426067225E+03  0.53522250532E+03  0.46999998093E+01 0.  1.
</event>
<event>
 5   0  0.4881209E-02  0.6306841E+03  0.7818609E-02  0.9843715E-01
        1   -1    0    0  501    0  0.00000000000E+00  0.00000000000E+00  0.91533641800E+03  0.91533641801E+03  0.50400001928E-02 0. -1.
       -1   -1    0    0    0  501  0.00000000000E+00  0.00000000000E+00 -0.10863832444E+03  0.10863832455E+03  0.50400001928E-02 0.  1.
    10030    2    1    2    0    0  0.00000000000E+00  0.00000000000E+00  0.80669809356E+03  0.10239747426E+04  0.63068412003E+03 0.  0.
        3    1    3    3  502    0  0.50742966060E+02  0.29886332446E+03  0.54439130513E+03  0.62310194881E+03  0.10100000352E+00 0. -1.
       -3    1    3    3    0  502 -0.50742966060E+02 -0.29886332446E+03  0.26230678843E+03  0.40087279375E+03  0.10100000352E+00 0.  1.
</event>
<event>
 5   0  0.4987389E-02  0.5857516E+03  0.7818609E-02  0.9935416E-01
        1   -1    0    0  501    0  0.00000000000E+00  0.00000000000E+00  0.84285840476E+03  0.84285840478E+03  0.50400001928E-02 0. -1.
       -1   -1    0    0    0  501  0.00000000000E+00  0.00000000000E+00 -0.10176824815E+03  0.10176824828E+03  0.50400001928E-02 0.  1.
    10030    2    1    2    0    0  0.00000000000E+00  0.00000000000E+00  0.74109015661E+03  0.94462665306E+03  0.58575156291E+03 0.  0.
        1    1    3    3  502    0  0.11497894127E+03 -0.22132545940E+03  0.12295300721E+03  0.27806934013E+03  0.50400001928E-02 0. -1.
       -1    1    3    3    0  502 -0.11497894127E+03  0.22132545940E+03  0.61813714940E+03  0.66655731293E+03  0.50400001928E-02 0.  1.
</event>
<event>
 5   0  0.8575590E-02  0.5977401E+03  0.7818609E-02  0.9910106E-01
       -2   -1    0    0    0  501  0.00000000000E+00  0.00000000000E+00  0.12590570828E+03  0.12590570831E+03  0.25500000920E-02 0. -1.
        2   -1    0    0  501    0  0.00000000000E+00  0.00000000000E+00 -0.70944606144E+03  0.70944606145E+03  0.25500000920E-02 0.  1.
    10030    2    1    2    0    0  0.00000000000E+00  0.00000000000E+00 -0.58354035316E+03  0.83535176975E+03  0.59774010695E+03 0.  0.
        4    1    3    3  502    0  0.17997058183E+03  0.19373494059E+03 -0.48641700230E+03  0.55364767728E+03  0.12699999809E+01 0.  1.
       -4    1    3    3    0  502 -0.17997058183E+03 -0.19373494059E+03 -0.97123350859E+02  0.28170409247E+03  0.12699999809E+01 0. -1.
</event>
<event>
 5   0  0.8420604E-02  0.5991517E+03  0.7818609E-02  0.9907168E-01
        2   -1    0    0  501    0  0.00000000000E+00  0.00000000000E+00  0.13431812188E+04  0.13431812188E+04  0.25500000920E-02 0. -1.
       -2   -1    0    0    0  501  0.00000000000E+00  0.00000000000E+00 -0.66815765922E+02  0.66815765971E+02  0.25500000920E-02 0.  1.
    10030    2    1    2    0    0  0.00000000000E+00  0.00000000000E+00  0.12763654528E+04  0.14099969847E+04  0.59915167342E+03 0.  0.
        2    1    3    3  502    0  0.12026169703E+03  0.96868060894E+02  0.12423011603E+04  0.12518620012E+04  0.25500000920E-02 0. -1.
       -2    1    3    3    0  502 -0.12026169703E+03 -0.96868060894E+02  0.34064292496E+02  0.15813498356E+03  0.25500000920E-02 0.  1.
</event>
<event>
 5   0  0.5166903E-02  0.6023078E+03  0.7818609E-02  0.9900630E-01
       -1   -1    0    0    0  501  0.00000000000E+00  0.00000000000E+00  0.19694215780E+03  0.19694215786E+03  0.50400001928E-02 0. -1.
        1   -1    0    0  501    0  0.00000000000E+00  0.00000000000E+00 -0.46050917721E+03  0.46050917724E+03  0.50400001928E-02 0.  1.
    10030    2    1    2    0    0  0.00000000000E+00  0.00000000000E+00 -0.26356701941E+03  0.65745133511E+03  0.60230779865E+03 0.  0.
        2    1    3    3  502    0 -0.21813884417E+03  0.17827273293E+03 -0.24796066998E+03  0.37530016854E+03  0.25500000920E-02 0.  1.
       -2    1    3    3    0  502  0.21813884417E+03 -0.17827273293E+03 -0.15606349429E+02  0.28215116656E+03  0.25500000920E-02 0. -1.
</event>
<event>
 5   0  0.8420604E-02  0.5946594E+03  0.7818609E-02  0.9916548E-01
       -2   -1    0    0    0  501  0.00000000000E+00  0.00000000000E+00  0.13903792645E+03  0.13903792647E+03  0.25500000920E-02 0. -1.
        2   -1    0    0  501    0  0.00000000000E+00  0.00000000000E+00 -0.63583342608E+03  0.63583342609E+03  0.25500000920E-02 0.  1.
    10030    2    1    2    0    0  0.00000000000E+00  0.00000000000E+00 -0.49679549964E+03  0.77487135256E+03  0.59465943578E+03 0.  0.
        2    1    3    3  502    0 -0.21291491931E+03 -0.20423813911E+03 -0.29643387317E+03  0.41823321425E+03  0.25500000920E-02 0.  1.
       -2    1    3    3    0  502  0.21291491931E+03  0.20423813911E+03 -0.20036162647E+03  0.35663813831E+03  0.25500000920E-02 0. -1.
</event>
<event>
 5   0  0.5166903E-02  0.5944145E+03  0.7818609E-02  0.9917062E-01
       -1   -1    0    0    0  501  0.00000000000E+00  0.00000000000E+00  0.23184177966E+03  0.23184177971E+03  0.50400001928E-02 0. -1.
        1   -1    0    0  501    0  0.00000000000E+00  0.00000000000E+00 -0.38100190101E+03  0.38100190104E+03  0.50400001928E-02 0.  1.
    10030    2    1    2    0    0  0.00000000000E+00  0.00000000000E+00 -0.14916012135E+03  0.61284368076E+03  0.59441453149E+03 0.  0.
        2    1    3    3  502    0 -0.28549248826E+03 -0.56348933724E+02 -0.12283230347E+02  0.29125940489E+03  0.25500000920E-02 0. -1.
       -2    1    3    3    0  502  0.28549248826E+03  0.56348933724E+02 -0.13687689100E+03  0.32158427586E+03  0.25500000920E-02 0.  1.
</event>
<event>
 5   0  0.5190380E-02  0.6035381E+03  0.7818609E-02  0.9898093E-01
       -1   -1    0    0    0  501  0.00000000000E+00  0.00000000000E+00  0.23558910604E+03  0.23558910610E+03  0.50400001928E-02 0. -1.
        1   -1    0    0  501    0  0.00000000000E+00  0.00000000000E+00 -0.38653982211E+03  0.38653982215E+03  0.50400001928E-02 0.  1.
    10030    2    1    2    0    0  0.00000000000E+00  0.00000000000E+00 -0.15095071607E+03  0.62212892825E+03  0.60353813854E+03 0.  0.
        5    1    3    3  502    0  0.16570624429E+03  0.25138753750E+03 -0.95785781251E+02  0.31599249879E+03  0.46999998093E+01 0. -1.
       -5    1    3    3    0  502 -0.16570624429E+03 -0.25138753750E+03 -0.55164934819E+02  0.30613642945E+03  0.46999998093E+01 0.  1.
</event>
<event>
 5   0  0.4987389E-02  0.5934532E+03  0.7818609E-02  0.9919082E-01
        1   -1    0    0  501    0  0.00000000000E+00  0.00000000000E+00  0.23881840544E+03  0.23881840550E+03  0.50400001928E-02 0.  1.
       -1   -1    0    0    0  501  0.00000000000E+00  0.00000000000E+00 -0.36867624800E+03  0.36867624803E+03  0.50400001928E-02 0. -1.
    10030    2    1    2    0    0  0.00000000000E+00  0.00000000000E+00 -0.12985784255E+03  0.60749465353E+03  0.59345319512E+03 0.  0.
        1    1    3    3  502    0 -0.18320144912E+03 -0.23072113347E+03 -0.28713011693E+02  0.29600582673E+03  0.50400001928E-02 0.  1.
       -1    1    3    3    0  502  0.18320144912E+03  0.23072113347E+03 -0.10114483086E+03  0.31148882681E+03  0.50400001928E-02 0. -1.
</event>
<event>
 5   0  0.8420604E-02  0.6008977E+03  0.7818609E-02  0.9903545E-01
        2   -1    0    0  501    0  0.00000000000E+00  0.00000000000E+00  0.90266592751E+02  0.90266592787E+02  0.25500000920E-02 0. -1.
       -2   -1    0    0    0  501  0.00000000000E+00  0.00000000000E+00 -0.10000321751E+04  0.10000321751E+04  0.25500000920E-02 0.  1.
    10030    2    1    2    0    0  0.00000000000E+00  0.00000000000E+00 -0.90976558231E+03  0.10902987678E+04  0.60089765220E+03 0.  0.
        2    1    3    3  502    0  0.21703126294E+03  0.16384519480E+03 -0.22307531124E+03  0.35172490876E+03  0.25500000920E-02 0. -1.
       -2    1    3    3    0  502 -0.21703126294E+03 -0.16384519480E+03 -0.68669027106E+03  0.73857385909E+03  0.25500000920E-02 0.  1.
</event>
<event>
 5   0  0.8575590E-02  0.5996252E+03  0.7818609E-02  0.9906184E-01
        2   -1    0    0  501    0  0.00000000000E+00  0.00000000000E+00  0.63896773771E+03  0.63896773771E+03  0.25500000920E-02 0.  1.
       -2   -1    0    0    0  501  0.00000000000E+00  0.00000000000E+00 -0.14067626048E+03  0.14067626050E+03  0.25500000920E-02 0. -1.
    10030    2    1    2    0    0  0.00000000000E+00  0.00000000000E+00  0.49829147723E+03  0.77964399821E+03  0.59962518932E+03 0.  0.
        4    1    3    3  502    0  0.36102282107E+02  0.15166539106E+03 -0.83822557839E+02  0.17701299308E+03  0.12699999809E+01 0. -1.
       -4    1    3    3    0  502 -0.36102282107E+02 -0.15166539106E+03  0.58211403507E+03  0.60263100513E+03  0.12699999809E+01 0.  1.
</event>
<event>
 5   0  0.8207443E-02  0.5993738E+03  0.7818609E-02  0.9906706E-01
       -2   -1    0    0    0  501  0.00000000000E+00  0.00000000000E+00  0.43068930895E+02  0.43068930971E+02  0.25500000920E-02 0.  1.
        2   -1    0    0  501    0  0.00000000000E+00  0.00000000000E+00 -0.20853139461E+04  0.20853139461E+04  0.25500000920E-02 0. -1.
    10030    2    1    2    0    0  0.00000000000E+00  0.00000000000E+00 -0.20422450152E+04  0.21283828770E+04  0.59937381431E+03 0.  0.
        1    1    3    3  502    0  0.19201923111E+03 -0.87472536129E+01 -0.18375796816E+04  0.18476057441E+04  0.50400001928E-02 0. -1.
       -1    1    3    3    0  502 -0.19201923111E+03  0.87472536129E+01 -0.20466533357E+03  0.28077713289E+03  0.50400001928E-02 0.  1.
</event>
<event>
 5   0  0.8207443E-02  0.7572858E+03  0.7818609E-02  0.9623989E-01
       -2   -1    0    0    0  501  0.00000000000E+00  0.00000000000E+00  0.12358882097E+03  0.12358882100E+03  0.25500000920E-02 0.  1.
        2   -1    0    0  501    0  0.00000000000E+00  0.00000000000E+00 -0.11600599548E+04  0.11600599548E+04  0.25500000920E-02 0. -1.
    10030    2    1    2    0    0  0.00000000000E+00  0.00000000000E+00 -0.10364711339E+04  0.12836487758E+04  0.75728579042E+03 0.  0.
        1    1    3    3  502    0 -0.12838983680E+03  0.22846475886E+03 -0.54982142614E+02  0.26777440555E+03  0.50400001928E-02 0.  1.
       -1    1    3    3    0  502  0.12838983680E+03 -0.22846475886E+03 -0.98148899126E+03  0.10158743703E+04  0.50400001928E-02 0. -1.
</event>
<event>
 5   0  0.3437375E-02  0.6102871E+03  0.7818609E-02  0.9884290E-01
       -4   -1    0    0    0  501  0.00000000000E+00  0.00000000000E+00  0.25079276227E+03  0.25079597785E+03  0.12699999809E+01 0. -1.
        4   -1    0    0  501    0  0.00000000000E+00  0.00000000000E+00 -0.37126639468E+03  0.37126856683E+03  0.12699999809E+01 0.  1.
    10030    2    1    2    0    0  0.00000000000E+00  0.00000000000E+00 -0.12047363241E+03  0.62206454468E+03  0.61028714688E+03 0.  0.
        5    1    3    3  502    0  0.20264026124E+03 -0.99267995944E+02  0.14908766217E+03  0.27049294169E+03  0.46999998093E+01 0. -1.
       -5    1    3    3    0  502 -0.20264026124E+03  0.99267995944E+02 -0.26956129458E+03  0.35157160299E+03  0.46999998093E+01 0.  1.
</event>
<event>
 5   0  0.3437375E-02  0.5957839E+03  0.7818609E-02  0.9914192E-01
        4   -1    0    0  501    0  0.00000000000E+00  0.00000000000E+00  0.91758423330E+02  0.91767211748E+02  0.12699999809E+01 0. -1.
       -4   -1    0    0    0  501  0.00000000000E+00  0.00000000000E+00 -0.96704505171E+03  0.96704588564E+03  0.12699999809E+01 0.  1.
    10030    2    1    2    0    0  0.00000000000E+00  0.00000000000E+00 -0.87528662838E+03  0.10588130974E+04  0.59578393179E+03 0.  0.
        2    1    3    3  502    0 -0.24481371997E+02  0.14331066132E+03 -0.89971715587E+03  0.91138808627E+03  0.25500000920E-02 0.  1.
       -2    1    3    3    0  502  0.24481371997E+02 -0.14331066132E+03  0.24430527493E+02  0.14742501112E+03  0.25500000920E-02 0. -1.
</event>
<event>
 5   0  0.8207443E-02  0.5985315E+03  0.7818609E-02  0.9908457E-01
        2   -1    0    0  501    0  0.00000000000E+00  0.00000000000E+00  0.64328587529E+03  0.64328587530E+03  0.25500000920E-02 0.  1.
       -2   -1    0    0    0  501  0.00000000000E+00  0.00000000000E+00 -0.13922269640E+03  0.13922269643E+03  0.25500000920E-02 0. -1.
    10030    2    1    2    0    0  0.00000000000E+00  0.00000000000E+00  0.50406317889E+03  0.78250857172E+03  0.59853151672E+03 0.  0.
        1    1    3    3  502    0 -0.22042124910E+03 -0.19140032152E+03  0.16589926751E+03  0.33577101888E+03  0.50400001928E-02 0. -1.
       -1    1    3    3    0  502  0.22042124910E+03  0.19140032152E+03  0.33816391138E+03  0.44673755284E+03  0.50400001928E-02 0.  1.
</event>
<event>
 5   0  0.8817544E-02  0.6049081E+03  0.7818609E-02  0.9895275E-01
        2   -1    0    0  501    0  0.00000000000E+00  0.00000000000E+00  0.78030597298E+03  0.78030597298E+03  0.25500000920E-02 0. -1.
       -2   -1    0    0    0  501  0.00000000000E+00  0.00000000000E+00 -0.11723408013E+03  0.11723408016E+03  0.25500000920E-02 0.  1.
    10030    2    1    2    0    0  0.00000000000E+00  0.00000000000E+00  0.66307189285E+03  0.89754005314E+03  0.60490810204E+03 0.  0.
        5    1    3    3  502    0  0.30005978539E+03 -0.36804757710E+02  0.34358077117E+03  0.45766833113E+03  0.46999998093E+01 0. -1.
       -5    1    3    3    0  502 -0.30005978539E+03  0.36804757710E+02  0.31949112167E+03  0.43987172201E+03  0.46999998093E+01 0.  1.
</event>
<event>
 5   0  0.8575590E-02  0.5997917E+03  0.7818609E-02  0.9905838E-01
       -2   -1    0    0    0  501  0.00000000000E+00  0.00000000000E+00  0.67415708355E+02  0.67415708403E+02  0.25500000920E-02 0. -1.
        2   -1    0    0  501    0  0.00000000000E+00  0.00000000000E+00 -0.13340738475E+04  0.13340738475E+04  0.25500000920E-02 0.  1.
    10030    2    1    2    0    0  0.00000000000E+00  0.00000000000E+00 -0.12666581391E+04  0.14014895559E+04  0.59979174206E+03 0.  0.
        4    1    3    3  502    0  0.28860158441E+03  0.74427966779E+02 -0.55563758289E+03  0.63052766250E+03  0.12699999809E+01 0. -1.
       -4    1    3    3    0  502 -0.28860158441E+03 -0.74427966779E+02 -0.71102055624E+03  0.77096189339E+03  0.12699999809E+01 0.  1.
</event>
<event>
 5   0  0.4987389E-02  0.6119013E+03  0.7818609E-02  0.9881018E-01
        1   -1    0    0  501    0  0.00000000000E+00  0.00000000000E+00  0.75905629033E+03  0.75905629034E+03  0.50400001928E-02 0. -1.
       -1   -1    0    0    0  501  0.00000000000E+00  0.00000000000E+00 -0.12331866637E+03  0.12331866647E+03  0.50400001928E-02 0.  1.
    10030    2    1    2    0    0  0.00000000000E+00  0.00000000000E+00  0.63573762396E+03  0.88237495681E+03  0.61190133019E+03 0.  0.
        1    1    3    3  502    0  0.76810756108E+02 -0.12855111027E+03  0.70259556104E+03  0.71837720079E+03  0.50400001928E-02 0. -1.
       -1    1    3    3    0  502 -0.76810756108E+02  0.12855111027E+03 -0.66857937074E+02  0.16399775602E+03  0.50400001928E-02 0.  1.
</event>
<event>
 5   0  0.8699746E-02  0.6138119E+03  0.7818609E-02  0.9877158E-01
        2   -1    0    0  501    0  0.00000000000E+00  0.00000000000E+00  0.49237111086E+03  0.49237111086E+03  0.25500000920E-02 0. -1.
       -2   -1    0    0    0  501  0.00000000000E+00  0.00000000000E+00 -0.19130134118E+03  0.19130134120E+03  0.25500000920E-02 0.  1.
    10030    2    1    2    0    0  0.00000000000E+00  0.00000000000E+00  0.30106976967E+03  0.68367245206E+03  0.61381187305E+03 0.  0.
        3    1    3    3  502    0 -0.69100164632E+02 -0.10278040621E+03  0.46330179679E+03  0.47956981740E+03  0.10100000352E+00 0. -1.
       -3    1    3    3    0  502  0.69100164632E+02  0.10278040621E+03 -0.16223202712E+03  0.20410263466E+03  0.10100000352E+00 0.  1.
</event>
<event>
 5   0  0.8207443E-02  0.5990489E+03  0.7818609E-02  0.9907381E-01
       -2   -1    0    0    0  501  0.00000000000E+00  0.00000000000E+00  0.10793116599E+03  0.10793116602E+03  0.25500000920E-02 0. -1.
        2   -1    0    0  501    0  0.00000000000E+00  0.00000000000E+00 -0.83122328844E+03  0.83122328844E+03  0.25500000920E-02 0.  1.
    10030    2    1    2    0    0  0.00000000000E+00  0.00000000000E+00 -0.72329212244E+03  0.93915445447E+03  0.59904890865E+03 0.  0.
        1    1    3    3  502    0  0.38827064238E+02  0.15172167681E+03 -0.76192082084E+03  0.77784982187E+03  0.50400001928E-02 0.  1.
       -1    1    3    3    0  502 -0.38827064238E+02 -0.15172167681E+03  0.38628698397E+02  0.16130463259E+03  0.50400001928E-02 0. -1.
</event>
<event>
 5   0  0.5125031E-02  0.5993241E+03  0.7818609E-02  0.9906809E-01
       -1   -1    0    0    0  501  0.00000000000E+00  0.00000000000E+00  0.10895419251E+03  0.10895419262E+03  0.50400001928E-02 0.  1.
        1   -1    0    0  501    0  0.00000000000E+00  0.00000000000E+00 -0.82417521013E+03  0.82417521015E+03  0.50400001928E-02 0. -1.
    10030    2    1    2    0    0  0.00000000000E+00  0.00000000000E+00 -0.71522101762E+03  0.93312940277E+03  0.59932410119E+03 0.  0.
        4    1    3    3  502    0 -0.12093761657E+03  0.24349885409E+03 -0.55380185357E+03  0.61694060083E+03  0.12699999809E+01 0. -1.
       -4    1    3    3    0  502  0.12093761657E+03 -0.24349885409E+03 -0.16141916406E+03  0.31618880194E+03  0.12699999809E+01 0.  1.
</event>
<event>
 5   0  0.8699746E-02  0.5993237E+03  0.7818609E-02  0.9906810E-01
       -2   -1    0    0    0  501  0.00000000000E+00  0.00000000000E+00  0.19837571175E+03  0.19837571177E+03  0.25500000920E-02 0. -1.
        2   -1    0    0  501    0  0.00000000000E+00  0.00000000000E+00 -0.45266244954E+03  0.45266244955E+03  0.25500000920E-02 0.  1.
    10030    2    1    2    0    0  0.00000000000E+00  0.00000000000E+00 -0.25428673779E+03  0.65103816132E+03  0.59932373762E+03 0.  0.
        3    1    3    3  502    0 -0.36652786614E+02 -0.46626954919E+02 -0.44622319347E+03  0.45014736285E+03  0.10100000352E+00 0.  1.
       -3    1    3    3    0  502  0.36652786614E+02  0.46626954919E+02  0.19193645567E+03  0.20089079847E+03  0.10100000352E+00 0. -1.
</event>
<event>
 5   0  0.8207443E-02  0.5951811E+03  0.7818609E-02  0.9915455E-01
        2   -1    0    0  501    0  0.00000000000E+00  0.00000000000E+00  0.72139763346E+03  0.72139763347E+03  0.25500000920E-02 0. -1.
       -2   -1    0    0    0  501  0.00000000000E+00  0.00000000000E+00 -0.12276187888E+03  0.12276187890E+03  0.25500000920E-02 0.  1.
    10030    2    1    2    0    0  0.00000000000E+00  0.00000000000E+00  0.59863575458E+03  0.84415951237E+03  0.59518107804E+03 0.  0.
        1    1    3    3  502    0 -0.13971824958E+03  0.25958822405E+03  0.35698095872E+03  0.46297153287E+03  0.50400001928E-02 0. -1.
       -1    1    3    3    0  502  0.13971824958E+03 -0.25958822405E+03  0.24165479586E+03  0.38118797950E+03  0.50400001928E-02 0.  1.
</event>
<event>
 5   0  0.5166903E-02  0.5052925E+03  0.7818609E-02  0.1012407E+00
        1   -1    0    0  501    0  0.00000000000E+00  0.00000000000E+00  0.99257803706E+03  0.99257803707E+03  0.50400001928E-02 0.  1.
       -1   -1    0    0    0  501  0.00000000000E+00  0.00000000000E+00 -0.64307408225E+02  0.64307408422E+02  0.50400001928E-02 0. -1.
    10030    2    1    2    0    0  0.00000000000E+00  0.00000000000E+00  0.92827062883E+03  0.10568854455E+04  0.50529247426E+03 0.  0.
        2    1    3    3  502    0 -0.22388653953E+03  0.41636467166E+02  0.69298827078E+03  0.72944603736E+03  0.25500000920E-02 0.  1.
       -2    1    3    3    0  502  0.22388653953E+03 -0.41636467166E+02  0.23528235805E+03  0.32743940813E+03  0.25500000920E-02 0. -1.
</event>
<event>
 5   0  0.8817544E-02  0.5991853E+03  0.7818609E-02  0.9907098E-01
       -2   -1    0    0    0  501  0.00000000000E+00  0.00000000000E+00  0.18292238582E+03  0.18292238583E+03  0.25500000920E-02 0.  1.
        2   -1    0    0  501    0  0.00000000000E+00  0.00000000000E+00 -0.49067679328E+03  0.49067679328E+03  0.25500000920E-02 0. -1.
    10030    2    1    2    0    0  0.00000000000E+00  0.00000000000E+00 -0.30775440746E+03  0.67359917912E+03  0.59918534595E+03 0.  0.
        5    1    3    3  502    0  0.20446431851E+03  0.55700473146E+02 -0.39189138704E+03  0.44554365609E+03  0.46999998093E+01 0. -1.
       -5    1    3    3    0  502 -0.20446431851E+03 -0.55700473146E+02  0.84136979575E+02  0.22805552303E+03  0.46999998093E+01 0.  1.
</event>
<event>
 5   0  0.4987389E-02  0.5965481E+03  0.7818609E-02  0.9912594E-01
       -1   -1    0    0    0  501  0.00000000000E+00  0.00000000000E+00  0.14581204809E+03  0.14581204818E+03  0.50400001928E-02 0. -1.
        1   -1    0    0  501    0  0.00000000000E+00  0.00000000000E+00 -0.61015121600E+03  0.61015121602E+03  0.50400001928E-02 0.  1.
    10030    2    1    2    0    0  0.00000000000E+00  0.00000000000E+00 -0.46433916791E+03  0.75596326420E+03  0.59654806510E+03 0.  0.
        1    1    3    3  502    0  0.12527578631E+03  0.20833187796E+03 -0.45118849606E+03  0.51251073453E+03  0.50400001928E-02 0.  1.
       -1    1    3    3    0  502 -0.12527578631E+03 -0.20833187796E+03 -0.13150671848E+02  0.24345252967E+03  0.50400001928E-02 0. -1.
</event>
<event>
 5   0  0.8207443E-02  0.6013183E+03  0.7818609E-02  0.9902675E-01
        2   -1    0    0  501    0  0.00000000000E+00  0.00000000000E+00  0.74155957369E+03  0.74155957369E+03  0.25500000920E-02 0. -1.
       -2   -1    0    0    0  501  0.00000000000E+00  0.00000000000E+00 -0.12189972770E+03  0.12189972773E+03  0.25500000920E-02 0.  1.
    10030    2    1    2    0    0  0.00000000000E+00  0.00000000000E+00  0.61965984599E+03  0.86345930142E+03  0.60131825225E+03 0.  0.
        1    1    3    3  502    0  0.19044738679E+02  0.25563125114E+03  0.84218171348E+02  0.26981982700E+03  0.50400001928E-02 0.  1.
       -1    1    3    3    0  502 -0.19044738679E+02 -0.25563125114E+03  0.53544167464E+03  0.59363947443E+03  0.50400001928E-02 0. -1.
</event>
<event>
 5   0  0.8420604E-02  0.6045090E+03  0.7818609E-02  0.9896095E-01
        2   -1    0    0  501    0  0.00000000000E+00  0.00000000000E+00  0.41162627879E+03  0.41162627880E+03  0.25500000920E-02 0. -1.
       -2   -1    0    0    0  501  0.00000000000E+00  0.00000000000E+00 -0.22194351012E+03  0.22194351013E+03  0.25500000920E-02 0.  1.
    10030    2    1    2    0    0  0.00000000000E+00  0.00000000000E+00  0.18968276868E+03  0.63356978893E+03  0.60450899473E+03 0.  0.
        2    1    3    3  502    0 -0.11057987489E+03  0.17251739713E+03  0.32771097981E+03  0.38650310133E+03  0.25500000920E-02 0. -1.
       -2    1    3    3    0  502  0.11057987489E+03 -0.17251739713E+03 -0.13802821114E+03  0.24706668760E+03  0.25500000920E-02 0.  1.
</event>
<event>
 5   0  0.5190380E-02  0.6028622E+03  0.7818609E-02  0.9899486E-01
        1   -1    0    0  501    0  0.00000000000E+00  0.00000000000E+00  0.90437161789E+03  0.90437161790E+03  0.50400001928E-02 0. -1.
       -1   -1    0    0    0  501  0.00000000000E+00  0.00000000000E+00 -0.10046834002E+03  0.10046834015E+03  0.50400001928E-02 0.  1.
    10030    2    1    2    0    0  0.00000000000E+00  0.00000000000E+00  0.80390327786E+03  0.10048399581E+04  0.60286222401E+03 0.  0.
        5    1    3    3  502    0 -0.19871697920E+03  0.29102546613E+02  0.77652630372E+03  0.80209138283E+03  0.46999998093E+01 0. -1.
       -5    1    3    3    0  502  0.19871697920E+03 -0.29102546613E+02  0.27376974143E+02  0.20274857522E+03  0.46999998093E+01 0.  1.
</event>
<event>
 5   0  0.4881209E-02  0.6014901E+03  0.7818609E-02  0.9902319E-01
        1   -1    0    0  501    0  0.00000000000E+00  0.00000000000E+00  0.97044989048E+03  0.97044989049E+03  0.50400001928E-02 0. -1.
       -1   -1    0    0    0  501  0.00000000000E+00  0.00000000000E+00 -0.93201702396E+02  0.93201702532E+02  0.50400001928E-02 0.  1.
    10030    2    1    2    0    0  0.00000000000E+00  0.00000000000E+00  0.87724818809E+03  0.10636515930E+04  0.60149008957E+03 0.  0.
        3    1    3    3  502    0  0.19703846629E+03 -0.16193982403E+03  0.15679979151E+03  0.29939079583E+03  0.10100000352E+00 0.  1.
       -3    1    3    3    0  502 -0.19703846629E+03  0.16193982403E+03  0.72044839658E+03  0.76426079720E+03  0.10100000352E+00 0. -1.
</event>
<event>
 5   0  0.8699746E-02  0.5994357E+03  0.7818609E-02  0.9906578E-01
       -2   -1    0    0    0  501  0.00000000000E+00  0.00000000000E+00  0.99482615610E+02  0.99482615643E+02  0.25500000920E-02 0.  1.
        2   -1    0    0  501    0  0.00000000000E+00  0.00000000000E+00 -0.90297968891E+03  0.90297968892E+03  0.25500000920E-02 0. -1.
    10030    2    1    2    0    0  0.00000000000E+00  0.00000000000E+00 -0.80349707330E+03  0.10024623046E+04  0.59943567233E+03 0.  0.
        3    1    3    3  502    0  0.21474354466E+03 -0.94730384409E+02 -0.90036393561E+02  0.25138655109E+03  0.10100000352E+00 0.  1.
       -3    1    3    3    0  502 -0.21474354466E+03  0.94730384409E+02 -0.71346067974E+03  0.75107575347E+03  0.10100000352E+00 0. -1.
</event>
<event>
 5   0  0.8817544E-02  0.5992366E+03  0.7818609E-02  0.9906991E-01
        2   -1    0    0  501    0  0.00000000000E+00  0.00000000000E+00  0.94608441728E+03  0.94608441729E+03  0.25500000920E-02 0. -1.
       -2   -1    0    0    0  501  0.00000000000E+00  0.00000000000E+00 -0.94887011861E+02  0.94887011896E+02  0.25500000920E-02 0.  1.
    10030    2    1    2    0    0  0.00000000000E+00  0.00000000000E+00  0.85119740542E+03  0.10409714292E+04  0.59923659215E+03 0.  0.
        5    1    3    3  502    0  0.21958542904E+03  0.17679325016E+03  0.60169096089E+03  0.66447551976E+03  0.46999998093E+01 0. -1.
       -5    1    3    3    0  502 -0.21958542904E+03 -0.17679325016E+03  0.24950644453E+03  0.37649590942E+03  0.46999998093E+01 0.  1.
</event>
<event>
 5   0  0.5190380E-02  0.5769925E+03  0.7818609E-02  0.9954323E-01
        1   -1    0    0  501    0  0.00000000000E+00  0.00000000000E+00  0.45477255957E+03  0.45477255960E+03  0.50400001928E-02 0. -1.
       -1   -1    0    0    0  501  0.00000000000E+00  0.00000000000E+00 -0.18301475510E+03  0.18301475517E+03  0.50400001928E-02 0.  1.
    10030    2    1    2    0    0  0.00000000000E+00  0.00000000000E+00  0.27175780447E+03  0.63778731477E+03  0.57699250826E+03 0.  0.
        5    1    3    3  502    0 -0.25674770278E+03  0.13124008284E+03  0.12699074884E+03  0.31510646219E+03  0.46999998093E+01 0. -1.
       -5    1    3    3    0  502  0.25674770278E+03 -0.13124008284E+03  0.14476705563E+03  0.32268085258E+03  0.46999998093E+01 0.  1.
</event>
<event>
 5   0  0.8207443E-02  0.6008605E+03  0.7818609E-02  0.9903622E-01
        2   -1    0    0  501    0  0.00000000000E+00  0.00000000000E+00  0.49257816164E+03  0.49257816165E+03  0.25500000920E-02 0. -1.
       -2   -1    0    0    0  501  0.00000000000E+00  0.00000000000E+00 -0.18323658715E+03  0.18323658717E+03  0.25500000920E-02 0.  1.
    10030    2    1    2    0    0  0.00000000000E+00  0.00000000000E+00  0.30934157449E+03  0.67581474882E+03  0.60086052043E+03 0.  0.
        1    1    3    3  502    0  0.21240709705E+03 -0.21082396085E+03  0.18431851166E+03  0.35147806633E+03  0.50400001928E-02 0. -1.
       -1    1    3    3    0  502 -0.21240709705E+03  0.21082396085E+03  0.12502306283E+03  0.32433668249E+03  0.50400001928E-02 0.  1.
</event>
<event>
 5   0  0.5125031E-02  0.5866035E+03  0.7818609E-02  0.9933596E-01
        1   -1    0    0  501    0  0.00000000000E+00  0.00000000000E+00  0.41162153766E+03  0.41162153769E+03  0.50400001928E-02 0. -1.
       -1   -1    0    0    0  501  0.00000000000E+00  0.00000000000E+00 -0.20899274105E+03  0.20899274111E+03  0.50400001928E-02 0.  1.
    10030    2    1    2    0    0  0.00000000000E+00  0.00000000000E+00  0.20262879661E+03  0.62061427880E+03  0.58660348944E+03 0.  0.
        4    1    3    3  502    0 -0.48734389598E+02 -0.26995894585E+03 -0.84884865077E+01  0.27445680985E+03  0.12699999809E+01 0. -1.
       -4    1    3    3    0  502  0.48734389598E+02  0.26995894585E+03  0.21111728312E+03  0.34615746894E+03  0.12699999809E+01 0.  1.
</event>
<event>
 5   0  0.8699746E-02  0.6083096E+03  0.7818609E-02  0.9888315E-01
       -2   -1    0    0    0  501  0.00000000000E+00  0.00000000000E+00  0.76808414469E+02  0.76808414511E+02  0.25500000920E-02 0.  1.
        2   -1    0    0  501    0  0.00000000000E+00  0.00000000000E+00 -0.12044271343E+04  0.12044271343E+04  0.25500000920E-02 0. -1.
    10030    2    1    2    0    0  0.00000000000E+00  0.00000000000E+00 -0.11276187198E+04  0.12812355488E+04  0.60830958749E+03 0.  0.
        3    1    3    3  502    0 -0.17463206000E+03  0.15549865824E+03 -0.15412904208E+03  0.28005706723E+03  0.10100000352E+00 0.  1.
       -3    1    3    3    0  502  0.17463206000E+03 -0.15549865824E+03 -0.97348967775E+03  0.10011784816E+04  0.10100000352E+00 0. -1.
</event>
<event>
 5   0  0.3437375E-02  0.5915797E+03  0.7818609E-02  0.9923031E-01
       -3   -1    0    0    0  501  0.00000000000E+00  0.00000000000E+00  0.48901275175E+03  0.48901276218E+03  0.10100000352E+00 0.  1.
        3   -1    0    0  501    0  0.00000000000E+00  0.00000000000E+00 -0.17891479963E+03  0.17891482814E+03  0.10100000352E+00 0. -1.
    10030    2    1    2    0    0  0.00000000000E+00  0.00000000000E+00  0.31009795212E+03  0.66792759032E+03  0.59157968694E+03 0.  0.
        1    1    3    3  502    0 -0.10664885532E+02 -0.20219233191E+02  0.48801395257E+03  0.48854905087E+03  0.50400001928E-02 0.  1.
       -1    1    3    3    0  502  0.10664885532E+02  0.20219233191E+02 -0.17791600045E+03  0.17937853945E+03  0.50400001928E-02 0. -1.
</event>
<event>
 5   0  0.8575590E-02  0.5996235E+03  0.7818609E-02  0.9906187E-01
       -2   -1    0    0    0  501  0.00000000000E+00  0.00000000000E+00  0.29950285170E+03  0.29950285171E+03  0.25500000920E-02 0.  1.
        2   -1    0    0  501    0  0.00000000000E+00  0.00000000000E+00 -0.30012099922E+03  0.30012099923E+03  0.25500000920E-02 0. -1.
    10030    2    1    2    0    0  0.00000000000E+00  0.00000000000E+00 -0.61814752087E+00  0.59962385095E+03  0.59962353233E+03 0.  0.
        4    1    3    3  502    0 -0.35046879001E+02  0.23080301841E+03  0.18780579222E+03  0.29961799934E+03  0.12699999809E+01 0. -1.
       -4    1    3    3    0  502  0.35046879001E+02 -0.23080301841E+03 -0.18842393974E+03  0.30000585161E+03  0.12699999809E+01 0.  1.
</event>
<event>
 5   0  0.8420604E-02  0.6048310E+03  0.7818609E-02  0.9895434E-01
       -2   -1    0    0    0  501  0.00000000000E+00  0.00000000000E+00  0.13476432938E+03  0.13476432941E+03  0.25500000920E-02 0. -1.
        2   -1    0    0  501    0  0.00000000000E+00  0.00000000000E+00 -0.67863019056E+03  0.67863019056E+03  0.25500000920E-02 0.  1.
    10030    2    1    2    0    0  0.00000000000E+00  0.00000000000E+00 -0.54386586117E+03  0.81339451997E+03  0.60483102613E+03 0.  0.
        2    1    3    3  502    0 -0.43312723641E+02 -0.25029169547E+03 -0.49263748822E+03  0.55426854471E+03  0.25500000920E-02 0.  1.
       -2    1    3    3    0  502  0.43312723641E+02  0.25029169547E+03 -0.51228372952E+02  0.25912597526E+03  0.25500000920E-02 0. -1.
</event>
<event>
 5   0  0.8420604E-02  0.6195681E+03  0.7818609E-02  0.9865620E-01
       -2   -1    0    0    0  501  0.00000000000E+00  0.00000000000E+00  0.41429545717E+02  0.41429545796E+02  0.25500000920E-02 0. -1.
        2   -1    0    0  501    0  0.00000000000E+00  0.00000000000E+00 -0.23163703663E+04  0.23163703663E+04  0.25500000920E-02 0.  1.
    10030    2    1    2    0    0  0.00000000000E+00  0.00000000000E+00 -0.22749408206E+04  0.23577999121E+04  0.61956814664E+03 0.  0.
        2    1    3    3  502    0 -0.51802440868E+02 -0.18110844673E+03 -0.20733767916E+04  0.20819162045E+04  0.25500000920E-02 0.  1.
       -2    1    3    3    0  502  0.51802440868E+02  0.18110844673E+03 -0.20156402893E+03  0.27588370760E+03  0.25500000920E-02 0. -1.
</event>
<event>
 5   0  0.8207443E-02  0.5931644E+03  0.7818609E-02  0.9919690E-01
       -2   -1    0    0    0  501  0.00000000000E+00  0.00000000000E+00  0.61412368468E+02  0.61412368521E+02  0.25500000920E-02 0. -1.
        2   -1    0    0  501    0  0.00000000000E+00  0.00000000000E+00 -0.14323008365E+04  0.14323008365E+04  0.25500000920E-02 0.  1.
    10030    2    1    2    0    0  0.00000000000E+00  0.00000000000E+00 -0.13708884681E+04  0.14937132051E+04  0.59316435082E+03 0.  0.
        1    1    3    3  502    0  0.30255565391E+02  0.16022272226E+03 -0.61586825709E+02  0.17429761069E+03  0.50400001928E-02 0. -1.
       -1    1    3    3    0  502 -0.30255565391E+02 -0.16022272226E+03 -0.13093016424E+04  0.13194155944E+04  0.50400001928E-02 0.  1.
</event>
<event>
 5   0  0.5190380E-02  0.6129061E+03  0.7818609E-02  0.9878986E-01
       -1   -1    0    0    0  501  0.00000000000E+00  0.00000000000E+00  0.85385974353E+03  0.85385974354E+03  0.50400001928E-02 0. -1.
        1   -1    0    0  501    0  0.00000000000E+00  0.00000000000E+00 -0.10998699642E+03  0.10998699654E+03  0.50400001928E-02 0.  1.
    10030    2    1    2    0    0  0.00000000000E+00  0.00000000000E+00  0.74387274711E+03  0.96384674008E+03  0.61290608945E+03 0.  0.
        5    1    3    3  502    0 -0.28361538465E+03 -0.10111160401E+03  0.28255964927E+03  0.41294465521E+03  0.46999998093E+01 0.  1.
       -5    1    3    3    0  502  0.28361538465E+03  0.10111160401E+03  0.46131309784E+03  0.55090208487E+03  0.46999998093E+01 0. -1.
</event>
<event>
 5   0  0.4987389E-02  0.6026255E+03  0.7818609E-02  0.9899974E-01
        1   -1    0    0  501    0  0.00000000000E+00  0.00000000000E+00  0.37855213519E+03  0.37855213522E+03  0.50400001928E-02 0. -1.
       -1   -1    0    0    0  501  0.00000000000E+00  0.00000000000E+00 -0.23983317134E+03  0.23983317140E+03  0.50400001928E-02 0.  1.
    10030    2    1    2    0    0  0.00000000000E+00  0.00000000000E+00  0.13871896385E+03  0.61838530662E+03  0.60262545292E+03 0.  0.
        1    1    3    3  502    0 -0.25246067843E+03  0.34400839449E+02 -0.95686936532E+02  0.27216870091E+03  0.50400001928E-02 0.  1.
       -1    1    3    3    0  502  0.25246067843E+03 -0.34400839449E+02  0.23440590038E+03  0.34621660570E+03  0.50400001928E-02 0. -1.
</event>
<event>
 5   0  0.8207443E-02  0.5954821E+03  0.7818609E-02  0.9914824E-01
        2   -1    0    0  501    0  0.00000000000E+00  0.00000000000E+00  0.62983625355E+03  0.62983625356E+03  0.25500000920E-02 0. -1.
       -2   -1    0    0    0  501  0.00000000000E+00  0.00000000000E+00 -0.14075042887E+03  0.14075042889E+03  0.25500000920E-02 0.  1.
    10030    2    1    2    0    0  0.00000000000E+00  0.00000000000E+00  0.48908582468E+03  0.77058668245E+03  0.59548206629E+03 0.  0.
        1    1    3    3  502    0 -0.16025852059E+03  0.64195688610E+02  0.55845692801E+03  0.58453230906E+03  0.50400001928E-02 0. -1.
       -1    1    3    3    0  502  0.16025852059E+03 -0.64195688610E+02 -0.69371103335E+02  0.18605437340E+03  0.50400001928E-02 0.  1.
</event>
<event>
 5   0  0.5166903E-02  0.5992126E+03  0.7818609E-02  0.9907041E-01
        1   -1    0    0  501    0  0.00000000000E+00  0.00000000000E+00  0.59297464242E+03  0.59297464245E+03  0.50400001928E-02 0. -1.
       -1   -1    0    0    0  501  0.00000000000E+00  0.00000000000E+00 -0.15137904413E+03  0.15137904421E+03  0.50400001928E-02 0.  1.
    10030    2    1    2    0    0  0.00000000000E+00  0.00000000000E+00  0.44159559829E+03  0.74435368666E+03  0.59921259868E+03 0.  0.
        2    1    3    3  502    0 -0.22989829038E+03  0.15034051141E+03  0.36938950581E+03  0.46033042513E+03  0.25500000920E-02 0. -1.
       -2    1    3    3    0  502  0.22989829038E+03 -0.15034051141E+03  0.72206092481E+02  0.28402326153E+03  0.25500000920E-02 0.  1.
</event>
<event>
 5   0  0.4881209E-02  0.5711990E+03  0.7818609E-02  0.9967029E-01
       -1   -1    0    0    0  501  0.00000000000E+00  0.00000000000E+00  0.45963478067E+02  0.45963478343E+02  0.50400001928E-02 0.  1.
        1   -1    0    0  501    0  0.00000000000E+00  0.00000000000E+00 -0.17746059386E+04  0.17746059386E+04  0.50400001928E-02 0. -1.
    10030    2    1    2    0    0  0.00000000000E+00  0.00000000000E+00 -0.17286424605E+04  0.18205694169E+04  0.57119895446E+03 0.  0.
        3    1    3    3  502    0 -0.16037893404E+03  0.17834866787E+03 -0.13584766885E+04  0.13794885187E+04  0.10100000352E+00 0. -1.
       -3    1    3    3    0  502  0.16037893404E+03 -0.17834866787E+03 -0.37016577199E+03  0.44108089821E+03  0.10100000352E+00 0.  1.
</event>
<event>
 5   0  0.5125031E-02  0.5942631E+03  0.7818609E-02  0.9917380E-01
        1   -1    0    0  501    0  0.00000000000E+00  0.00000000000E+00  0.48316013346E+03  0.48316013348E+03  0.50400001928E-02 0. -1.
       -1   -1    0    0    0  501  0.00000000000E+00  0.00000000000E+00 -0.18272855435E+03  0.18272855442E+03  0.50400001928E-02 0.  1.
    10030    2    1    2    0    0  0.00000000000E+00  0.00000000000E+00  0.30043157910E+03  0.66588868790E+03  0.59426308227E+03 0.  0.
        4    1    3    3  502    0  0.13495934947E+03 -0.24478454255E+03  0.26311725509E+03  0.38388253556E+03  0.12699999809E+01 0.  1.
       -4    1    3    3    0  502 -0.13495934947E+03  0.24478454255E+03  0.37314324015E+02  0.28200615234E+03  0.12699999809E+01 0. -1.
</event>
<event>
 5   0  0.8207443E-02  0.6077943E+03  0.7818609E-02  0.9889366E-01
        2   -1    0    0  501    0  0.00000000000E+00  0.00000000000E+00  0.58513798775E+03  0.58513798775E+03  0.25500000920E-02 0.  1.
       -2   -1    0    0    0  501  0.00000000000E+00  0.00000000000E+00 -0.15783198278E+03  0.15783198280E+03  0.25500000920E-02 0. -1.
    10030    2    1    2    0    0  0.00000000000E+00  0.00000000000E+00  0.42730600496E+03  0.74296997056E+03  0.60779433633E+03 0.  0.
        1    1    3    3  502    0 -0.88560362177E+02  0.28001444362E+03  0.11816096315E+03  0.31656443203E+03  0.50400001928E-02 0. -1.
       -1    1    3    3    0  502  0.88560362177E+02 -0.28001444362E+03  0.30914504181E+03  0.42640553853E+03  0.50400001928E-02 0.  1.
</event>
<event>
 5   0  0.5166903E-02  0.5722267E+03  0.7818609E-02  0.9964763E-01
       -1   -1    0    0    0  501  0.00000000000E+00  0.00000000000E+00  0.29726784662E+03  0.29726784666E+03  0.50400001928E-02 0.  1.
        1   -1    0    0  501    0  0.00000000000E+00  0.00000000000E+00 -0.27537737215E+03  0.27537737219E+03  0.50400001928E-02 0. -1.
    10030    2    1    2    0    0  0.00000000000E+00  0.00000000000E+00  0.21890474470E+02  0.57264521885E+03  0.57222666296E+03 0.  0.
        2    1    3    3  502    0  0.83856212211E+02 -0.57957070388E+01 -0.26274225292E+03  0.27586037414E+03  0.25500000920E-02 0. -1.
       -2    1    3    3    0  502 -0.83856212211E+02  0.57957070388E+01  0.28463272739E+03  0.29678484471E+03  0.25500000920E-02 0.  1.
</event>
<event>
 5   0  0.4881209E-02  0.6027355E+03  0.7818609E-02  0.9899747E-01
       -1   -1    0    0    0  501  0.00000000000E+00  0.00000000000E+00  0.67782706247E+02  0.67782706434E+02  0.50400001928E-02 0. -1.
        1   -1    0    0  501    0  0.00000000000E+00  0.00000000000E+00 -0.13399067987E+04  0.13399067987E+04  0.50400001928E-02 0.  1.
    10030    2    1    2    0    0  0.00000000000E+00  0.00000000000E+00 -0.12721240924E+04  0.14076895051E+04  0.60273546128E+03 0.  0.
        3    1    3    3  502    0  0.29906021200E+03  0.53939905268E+01 -0.55004729200E+03  0.62611351940E+03  0.10100000352E+00 0. -1.
       -3    1    3    3    0  502 -0.29906021200E+03 -0.53939905268E+01 -0.72207680042E+03  0.78157598572E+03  0.10100000352E+00 0.  1.
</event>
<event>
 5   0  0.5190380E-02  0.5881429E+03  0.7818609E-02  0.9930316E-01
        1   -1    0    0  501    0  0.00000000000E+00  0.00000000000E+00  0.14295687349E+04  0.14295687349E+04  0.50400001928E-02 0.  1.
       -1   -1    0    0    0  501  0.00000000000E+00  0.00000000000E+00 -0.60492388989E+02  0.60492389199E+02  0.50400001928E-02 0. -1.
    10030    2    1    2    0    0  0.00000000000E+00  0.00000000000E+00  0.13690763459E+04  0.14900611241E+04  0.58814293555E+03 0.  0.
        5    1    3    3  502    0 -0.27930301962E+03  0.42697678801E+02  0.47836234641E+03  0.55559508007E+03  0.46999998093E+01 0. -1.
       -5    1    3    3    0  502  0.27930301962E+03 -0.42697678801E+02  0.89071399949E+03  0.93446604402E+03  0.46999998093E+01 0.  1.
</event>
<event>
 5   0  0.8207443E-02  0.6077527E+03  0.7818609E-02  0.9889451E-01
       -2   -1    0    0    0  501  0.00000000000E+00  0.00000000000E+00  0.85174284766E+02  0.85174284804E+02  0.25500000920E-02 0.  1.
        2   -1    0    0  501    0  0.00000000000E+00  0.00000000000E+00 -0.10841397693E+04  0.10841397693E+04  0.25500000920E-02 0. -1.
    10030    2    1    2    0    0  0.00000000000E+00  0.00000000000E+00 -0.99896548454E+03  0.11693140541E+04  0.60775267819E+03 0.  0.
        1    1    3    3  502    0 -0.13582581298E+03  0.25723017626E+03 -0.66858457508E+03  0.72912368574E+03  0.50400001928E-02 0.  1.
       -1    1    3    3    0  502  0.13582581298E+03 -0.25723017626E+03 -0.33038090946E+03  0.44019036838E+03  0.50400001928E-02 0. -1.
</event>
<event>
 5   0  0.5190380E-02  0.5987344E+03  0.7818609E-02  0.9908035E-01
        1   -1    0    0  501    0  0.00000000000E+00  0.00000000000E+00  0.16457880120E+03  0.16457880128E+03  0.50400001928E-02 0.  1.
       -1   -1    0    0    0  501  0.00000000000E+00  0.00000000000E+00 -0.54454594638E+03  0.54454594640E+03  0.50400001928E-02 0. -1.
    10030    2    1    2    0    0  0.00000000000E+00  0.00000000000E+00 -0.37996714518E+03  0.70912474768E+03  0.59873439551E+03 0.  0.
        5    1    3    3  502    0  0.11005453669E+03 -0.41071978694E+02 -0.51606212678E+03  0.52928358861E+03  0.46999998093E+01 0. -1.
       -5    1    3    3    0  502 -0.11005453669E+03  0.41071978694E+02  0.13609498160E+03  0.17984115907E+03  0.46999998093E+01 0.  1.
</event>
<event>
 5   0  0.4881209E-02  0.5973023E+03  0.7818609E-02  0.9911019E-01
       -1   -1    0    0    0  501  0.00000000000E+00  0.00000000000E+00  0.26900880877E+03  0.26900880882E+03  0.50400001928E-02 0.  1.
        1   -1    0    0  501    0  0.00000000000E+00  0.00000000000E+00 -0.33155980422E+03  0.33155980426E+03  0.50400001928E-02 0. -1.
    10030    2    1    2    0    0  0.00000000000E+00  0.00000000000E+00 -0.62550995446E+02  0.60056861308E+03  0.59730229531E+03 0.  0.
        3    1    3    3  502    0 -0.21446047273E+02  0.12182799134E+03  0.24203906111E+03  0.27181778772E+03  0.10100000352E+00 0.  1.
       -3    1    3    3    0  502  0.21446047273E+02 -0.12182799134E+03 -0.30459005656E+03  0.32875082536E+03  0.10100000352E+00 0. -1.
</event>
<event>
 5   0  0.3437375E-02  0.5949664E+03  0.7818609E-02  0.9915905E-01
        3   -1    0    0  501    0  0.00000000000E+00  0.00000000000E+00  0.82439456292E+02  0.82439518162E+02  0.10100000352E+00 0. -1.
       -3   -1    0    0    0  501  0.00000000000E+00  0.00000000000E+00 -0.10734690682E+04  0.10734690729E+04  0.10100000352E+00 0.  1.
    10030    2    1    2    0    0  0.00000000000E+00  0.00000000000E+00 -0.99102961190E+03  0.11559085911E+04  0.59496636823E+03 0.  0.
        4    1    3    3  502    0 -0.84203445015E+02 -0.16478761915E+03 -0.94802540264E+03  0.96591871114E+03  0.12699999809E+01 0.  1.
       -4    1    3    3    0  502  0.84203445015E+02  0.16478761915E+03 -0.43004209263E+02  0.18998987997E+03  0.12699999809E+01 0. -1.
</event>
<event>
 5   0  0.8420604E-02  0.5998171E+03  0.7818609E-02  0.9905786E-01
       -2   -1    0    0    0  501  0.00000000000E+00  0.00000000000E+00  0.47053471267E+02  0.47053471336E+02  0.25500000920E-02 0.  1.
        2   -1    0    0  501    0  0.00000000000E+00  0.00000000000E+00 -0.19115515463E+04  0.19115515463E+04  0.25500000920E-02 0. -1.
    10030    2    1    2    0    0  0.00000000000E+00  0.00000000000E+00 -0.18644980750E+04  0.19586050176E+04  0.59981709154E+03 0.  0.
        2    1    3    3  502    0  0.16966165046E+02 -0.33821289420E+02  0.39228025394E+02  0.54502920630E+02  0.25500000920E-02 0.  1.
       -2    1    3    3    0  502 -0.16966165046E+02  0.33821289420E+02 -0.19037261004E+04  0.19041020970E+04  0.25500000920E-02 0. -1.
</event>
<event>
 5   0  0.5166903E-02  0.5925118E+03  0.7818609E-02  0.9921065E-01
       -1   -1    0    0    0  501  0.00000000000E+00  0.00000000000E+00  0.17641117024E+03  0.17641117032E+03  0.50400001928E-02 0. -1.
        1   -1    0    0  501    0  0.00000000000E+00  0.00000000000E+00 -0.49751701290E+03  0.49751701292E+03  0.50400001928E-02 0.  1.
    10030    2    1    2    0    0  0.00000000000E+00  0.00000000000E+00 -0.32110584265E+03  0.67392818324E+03  0.59251180071E+03 0.  0.
        2    1    3    3  502    0 -0.16154548627E+03  0.18188047487E+03  0.31767103459E+02  0.24532957454E+03  0.25500000920E-02 0. -1.
       -2    1    3    3    0  502  0.16154548627E+03 -0.18188047487E+03 -0.35287294611E+03  0.42859860870E+03  0.25500000920E-02 0.  1.
</event>
<event>
 5   0  0.8817544E-02  0.5821268E+03  0.7818609E-02  0.9943197E-01
       -2   -1    0    0    0  501  0.00000000000E+00  0.00000000000E+00  0.33435865327E+02  0.33435865424E+02  0.25500000920E-02 0. -1.
        2   -1    0    0  501    0  0.00000000000E+00  0.00000000000E+00 -0.25337429936E+04  0.25337429936E+04  0.25500000920E-02 0.  1.
    10030    2    1    2    0    0  0.00000000000E+00  0.00000000000E+00 -0.25003071282E+04  0.25671788590E+04  0.58212675469E+03 0.  0.
        5    1    3    3  502    0 -0.13659640913E+03  0.15242627767E+03 -0.33776894001E+03  0.39497125965E+03  0.46999998093E+01 0. -1.
       -5    1    3    3    0  502  0.13659640913E+03 -0.15242627767E+03 -0.21625381882E+04  0.21722075993E+04  0.46999998093E+01 0.  1.
</event>
<event>
 5   0  0.8575590E-02  0.5994889E+03  0.7818609E-02  0.9906467E-01
        2   -1    0    0  501    0  0.00000000000E+00  0.00000000000E+00  0.79611193583E+03  0.79611193583E+03  0.25500000920E-02 0. -1.
       -2   -1    0    0    0  501  0.00000000000E+00  0.00000000000E+00 -0.11285690929E+03  0.11285690931E+03  0.25500000920E-02 0.  1.
    10030    2    1    2    0    0  0.00000000000E+00  0.00000000000E+00  0.68325502655E+03  0.90896884515E+03  0.59948889077E+03 0.  0.
        4    1    3    3  502    0  0.42426515264E+02  0.54322726335E+02  0.78392830371E+03  0.78695372548E+03  0.12699999809E+01 0. -1.
       -4    1    3    3    0  502 -0.42426515264E+02 -0.54322726335E+02 -0.10067327716E+03  0.12201511967E+03  0.12699999809E+01 0.  1.
</event>
<event>
 5   0  0.8575590E-02  0.6044102E+03  0.7818609E-02  0.9896298E-01
       -2   -1    0    0    0  501  0.00000000000E+00  0.00000000000E+00  0.87679101148E+02  0.87679101185E+02  0.25500000920E-02 0.  1.
        2   -1    0    0  501    0  0.00000000000E+00  0.00000000000E+00 -0.10416154753E+04  0.10416154753E+04  0.25500000920E-02 0. -1.
    10030    2    1    2    0    0  0.00000000000E+00  0.00000000000E+00 -0.95393637420E+03  0.11292945765E+04  0.60441015426E+03 0.  0.
        4    1    3    3  502    0  0.20903944794E+03  0.12098405591E+03 -0.13759494666E+03  0.27797232744E+03  0.12699999809E+01 0.  1.
       -4    1    3    3    0  502 -0.20903944794E+03 -0.12098405591E+03 -0.81634142754E+03  0.85132224909E+03  0.12699999809E+01 0. -1.
</event>
<event>
 5   0  0.5190380E-02  0.5911106E+03  0.7818609E-02  0.9924022E-01
       -1   -1    0    0    0  501  0.00000000000E+00  0.00000000000E+00  0.10472901235E+03  0.10472901247E+03  0.50400001928E-02 0. -1.
        1   -1    0    0  501    0  0.00000000000E+00  0.00000000000E+00 -0.83408534623E+03  0.83408534624E+03  0.50400001928E-02 0.  1.
    10030    2    1    2    0    0  0.00000000000E+00  0.00000000000E+00 -0.72935633388E+03  0.93881435871E+03  0.59111059740E+03 0.  0.
        5    1    3    3  502    0 -0.24750123897E+03  0.98890481509E+02 -0.16194091801E+03  0.31190245518E+03  0.46999998093E+01 0. -1.
       -5    1    3    3    0  502  0.24750123897E+03 -0.98890481509E+02 -0.56741541587E+03  0.62691190353E+03  0.46999998093E+01 0.  1.
</event>
<event>
 5   0  0.5190380E-02  0.6044105E+03  0.7818609E-02  0.9896298E-01
       -1   -1    0    0    0  501  0.00000000000E+00  0.00000000000E+00  0.71999197453E+02  0.71999197629E+02  0.50400001928E-02 0. -1.
        1   -1    0    0  501    0  0.00000000000E+00  0.00000000000E+00 -0.12684589735E+04  0.12684589736E+04  0.50400001928E-02 0.  1.
    10030    2    1    2    0    0  0.00000000000E+00  0.00000000000E+00 -0.11964597761E+04  0.13404581712E+04  0.60441054995E+03 0.  0.
        5    1    3    3  502    0 -0.28189741425E+03  0.19293900895E+01 -0.83951186002E+03  0.88559140003E+03  0.46999998093E+01 0. -1.
       -5    1    3    3    0  502  0.28189741425E+03 -0.19293900895E+01 -0.35694791607E+03  0.45486677115E+03  0.46999998093E+01 0.  1.
</event>
<event>
 5   0  0.5190380E-02  0.6075485E+03  0.7818609E-02  0.9889868E-01
       -1   -1    0    0    0  501  0.00000000000E+00  0.00000000000E+00  0.45928437414E+03  0.45928437416E+03  0.50400001928E-02 0.  1.
        1   -1    0    0  501    0  0.00000000000E+00  0.00000000000E+00 -0.20091864616E+03  0.20091864622E+03  0.50400001928E-02 0. -1.
    10030    2    1    2    0    0  0.00000000000E+00  0.00000000000E+00  0.25836572798E+03  0.66020302039E+03  0.60754849908E+03 0.  0.
        5    1    3    3  502    0 -0.10527361130E+03  0.77629001183E+02 -0.16870650657E+03  0.21352463656E+03  0.46999998093E+01 0. -1.
       -5    1    3    3    0  502  0.10527361130E+03 -0.77629001183E+02  0.42707223455E+03  0.44667838383E+03  0.46999998093E+01 0.  1.
</event>
<event>
 5   0  0.8575590E-02  0.5915715E+03  0.7818609E-02  0.9923049E-01
        2   -1    0    0  501    0  0.00000000000E+00  0.00000000000E+00  0.43682295420E+03  0.43682295421E+03  0.25500000920E-02 0. -1.
       -2   -1    0    0    0  501  0.00000000000E+00  0.00000000000E+00 -0.20028526328E+03  0.20028526329E+03  0.25500000920E-02 0.  1.
    10030    2    1    2    0    0  0.00000000000E+00  0.00000000000E+00  0.23653769092E+03  0.63710821750E+03  0.59157146785E+03 0.  0.
        4    1    3    3  502    0  0.20035771709E+03 -0.21627894669E+03  0.92606294503E+02  0.30902643295E+03  0.12699999809E+01 0.  1.
       -4    1    3    3    0  502 -0.20035771709E+03  0.21627894669E+03  0.14393139642E+03  0.32808178455E+03  0.12699999809E+01 0. -1.
</event>
<event>
 5   0  0.8817544E-02  0.5969531E+03  0.7818609E-02  0.9911748E-01
       -2   -1    0    0    0  501  0.00000000000E+00  0.00000000000E+00  0.32894887053E+03  0.32894887054E+03  0.25500000920E-02 0. -1.
        2   -1    0    0  501    0  0.00000000000E+00  0.00000000000E+00 -0.27082701147E+03  0.27082701148E+03  0.25500000920E-02 0.  1.
    10030    2    1    2    0    0  0.00000000000E+00  0.00000000000E+00  0.58121859061E+02  0.59977588202E+03  0.59695306193E+03 0.  0.
        5    1    3    3  502    0 -0.24304522726E+03  0.16823738406E+03  0.70381424287E+02  0.30389214332E+03  0.46999998093E+01 0.  1.
       -5    1    3    3    0  502  0.24304522726E+03 -0.16823738406E+03 -0.12259565226E+02  0.29588373870E+03  0.46999998093E+01 0. -1.
</event>
<event>
 5   0  0.4881209E-02  0.5944330E+03  0.7818609E-02  0.9917024E-01
       -1   -1    0    0    0  501  0.00000000000E+00  0.00000000000E+00  0.37743952134E+03  0.37743952137E+03  0.50400001928E-02 0.  1.
        1   -1    0    0  501    0  0.00000000000E+00  0.00000000000E+00 -0.23404448788E+03  0.23404448793E+03  0.50400001928E-02 0. -1.
    10030    2    1    2    0    0  0.00000000000E+00  0.00000000000E+00  0.14339503346E+03  0.61148400930E+03  0.59443297184E+03 0.  0.
        3    1    3    3  502    0  0.28828851275E+03  0.41665564342E+02  0.10915024789E+02  0.29148830818E+03  0.10100000352E+00 0.  1.
       -3    1    3    3    0  502 -0.28828851275E+03 -0.41665564342E+02  0.13248000867E+03  0.31999570112E+03  0.10100000352E+00 0. -1.
</event>
<event>
 5   0  0.8575590E-02  0.6036333E+03  0.7818609E-02  0.9897897E-01
        2   -1    0    0  501    0  0.00000000000E+00  0.00000000000E+00  0.15473949933E+04  0.15473949933E+04  0.25500000920E-02 0.  1.
       -2   -1    0    0    0  501  0.00000000000E+00  0.00000000000E+00 -0.58868803448E+02  0.58868803503E+02  0.25500000920E-02 0. -1.
    10030    2    1    2    0    0  0.00000000000E+00  0.00000000000E+00  0.14885261898E+04  0.16062637968E+04  0.60363330512E+03 0.  0.
        4    1    3    3  502    0 -0.92304752587E+02  0.28483518163E+03  0.84525577084E+03  0.89672190733E+03  0.12699999809E+01 0.  1.
       -4    1    3    3    0  502  0.92304752587E+02 -0.28483518163E+03  0.64327041899E+03  0.70954188945E+03  0.12699999809E+01 0. -1.
</event>
<event>
 5   0  0.8207443E-02  0.6198649E+03  0.7818609E-02  0.9865029E-01
       -2   -1    0    0    0  501  0.00000000000E+00  0.00000000000E+00  0.58302046112E+02  0.58302046167E+02  0.25500000920E-02 0. -1.
        2   -1    0    0  501    0  0.00000000000E+00  0.00000000000E+00 -0.16475942457E+04  0.16475942457E+04  0.25500000920E-02 0.  1.
    10030    2    1    2    0    0  0.00000000000E+00  0.00000000000E+00 -0.15892921996E+04  0.17058962919E+04  0.61986487475E+03 0.  0.
        1    1    3    3  502    0  0.86838812237E+02 -0.21897188803E+03 -0.24033982090E+03  0.33653067705E+03  0.50400001928E-02 0. -1.
       -1    1    3    3    0  502 -0.86838812237E+02  0.21897188803E+03 -0.13489523787E+04  0.13693656149E+04  0.50400001928E-02 0.  1.
</event>
<event>
 5   0  0.3437375E-02  0.5999330E+03  0.7818609E-02  0.9905545E-01
       -3   -1    0    0    0  501  0.00000000000E+00  0.00000000000E+00  0.20327852746E+03  0.20327855255E+03  0.10100000352E+00 0.  1.
        3   -1    0    0  501    0  0.00000000000E+00  0.00000000000E+00 -0.44264329993E+03  0.44264331145E+03  0.10100000352E+00 0. -1.
    10030    2    1    2    0    0  0.00000000000E+00  0.00000000000E+00 -0.23936477247E+03  0.64592186400E+03  0.59993296300E+03 0.  0.
        4    1    3    3  502    0  0.24089485933E+03 -0.16412638711E+03 -0.19589320377E+03  0.35120302445E+03  0.12699999809E+01 0.  1.
       -4    1    3    3    0  502 -0.24089485933E+03  0.16412638711E+03 -0.43471568706E+02  0.29471883955E+03  0.12699999809E+01 0. -1.
</event>
<event>
 5   0  0.4987389E-02  0.6039635E+03  0.7818609E-02  0.9897217E-01
       -1   -1    0    0    0  501  0.00000000000E+00  0.00000000000E+00  0.15550732982E+03  0.15550732990E+03  0.50400001928E-02 0. -1.
        1   -1    0    0  501    0  0.00000000000E+00  0.00000000000E+00 -0.58642237877E+03  0.58642237879E+03  0.50400001928E-02 0.  1.
    10030    2    1    2    0    0  0.00000000000E+00  0.00000000000E+00 -0.43091504895E+03  0.74192970869E+03  0.60396350322E+03 0.  0.
        1    1    3    3  502    0 -0.15820361085E+03  0.12596452049E+03 -0.49095994476E+03  0.53097750451E+03  0.50400001928E-02 0.  1.
       -1    1    3    3    0  502  0.15820361085E+03 -0.12596452049E+03  0.60044895813E+02  0.21095220418E+03  0.50400001928E-02 0. -1.
</event>
<event>
 5   0  0.8699746E-02  0.6050400E+03  0.7818609E-02  0.9895005E-01
        2   -1    0    0  501    0  0.00000000000E+00  0.00000000000E+00  0.19899479757E+03  0.19899479759E+03  0.25500000920E-02 0.  1.
       -2   -1    0    0    0  501  0.00000000000E+00  0.00000000000E+00 -0.45990317604E+03  0.45990317605E+03  0.25500000920E-02 0. -1.
    10030    2    1    2    0    0  0.00000000000E+00  0.00000000000E+00 -0.26090837847E+03  0.65889797363E+03  0.60503996373E+03 0.  0.
        3    1    3    3  502    0 -0.52455486157E+02  0.19598999090E+03 -0.37482763228E+03  0.42621522577E+03  0.10100000352E+00 0. -1.
       -3    1    3    3    0  502  0.52455486157E+02 -0.19598999090E+03  0.11391925381E+03  0.23268274786E+03  0.10100000352E+00 0.  1.
</event>
<event>
 5   0  0.4881209E-02  0.5994815E+03  0.7818609E-02  0.9906482E-01
        1   -1    0    0  501    0  0.00000000000E+00  0.00000000000E+00  0.24203169000E+03  0.24203169005E+03  0.50400001928E-02 0.  1.
       -1   -1    0    0    0  501  0.00000000000E+00  0.00000000000E+00 -0.37120967266E+03  0.37120967270E+03  0.50400001928E-02 0. -1.
    10030    2    1    2    0    0  0.00000000000E+00  0.00000000000E+00 -0.12917798266E+03  0.61324136275E+03  0.59948145741E+03 0.  0.
        3    1    3    3  502    0  0.27876405597E+03 -0.32448174751E+02  0.43099402315E+02  0.28393635136E+03  0.10100000352E+00 0. -1.
       -3    1    3    3    0  502 -0.27876405597E+03  0.32448174751E+02 -0.17227738498E+03  0.32930501138E+03  0.10100000352E+00 0.  1.
</event>
<event>
 5   0  0.5190380E-02  0.5996871E+03  0.7818609E-02  0.9906055E-01
       -1   -1    0    0    0  501  0.00000000000E+00  0.00000000000E+00  0.18662108810E+03  0.18662108817E+03  0.50400001928E-02 0. -1.
        1   -1    0    0  501    0  0.00000000000E+00  0.00000000000E+00 -0.48175777966E+03  0.48175777969E+03  0.50400001928E-02 0.  1.
    10030    2    1    2    0    0  0.00000000000E+00  0.00000000000E+00 -0.29513669156E+03  0.66837886786E+03  0.59968712200E+03 0.  0.
        5    1    3    3  502    0  0.14991097400E+03 -0.50218477671E+01  0.14175360374E+03  0.20643326586E+03  0.46999998093E+01 0. -1.
       -5    1    3    3    0  502 -0.14991097400E+03  0.50218477671E+01 -0.43689029530E+03  0.46194560200E+03  0.46999998093E+01 0.  1.
</event>
<event>
 5   0  0.3437375E-02  0.5968471E+03  0.7818609E-02  0.9911969E-01
        3   -1    0    0  501    0  0.00000000000E+00  0.00000000000E+00  0.36513734836E+03  0.36513736233E+03  0.10100000352E+00 0.  1.
       -3   -1    0    0    0  501  0.00000000000E+00  0.00000000000E+00 -0.24389889697E+03  0.24389891788E+03  0.10100000352E+00 0. -1.
    10030    2    1    2    0    0  0.00000000000E+00  0.00000000000E+00  0.12123845139E+03  0.60903628021E+03  0.59684707297E+03 0.  0.
        4    1    3    3  502    0  0.20957248845E+03  0.17035308719E+03 -0.68914949123E+02  0.27873228257E+03  0.12699999809E+01 0. -1.
       -4    1    3    3    0  502 -0.20957248845E+03 -0.17035308719E+03  0.19015340051E+03  0.33030399764E+03  0.12699999809E+01 0.  1.
</event>
<event>
 5   0  0.4987389E-02  0.5955976E+03  0.7818609E-02  0.9914582E-01
        1   -1    0    0  501    0  0.00000000000E+00  0.00000000000E+00  0.22801464746E+04  0.22801464746E+04  0.50400001928E-02 0.  1.
       -1   -1    0    0    0  501  0.00000000000E+00  0.00000000000E+00 -0.38894043550E+02  0.38894043877E+02  0.50400001928E-02 0. -1.
    10030    2    1    2    0    0  0.00000000000E+00  0.00000000000E+00  0.22412524310E+04  0.23190405185E+04  0.59559757108E+03 0.  0.
        1    1    3    3  502    0  0.88905788371E+01 -0.26564667231E+03  0.16435478442E+04  0.16649014124E+04  0.50400001928E-02 0.  1.
       -1    1    3    3    0  502 -0.88905788371E+01  0.26564667231E+03  0.59770458684E+03  0.65413910604E+03  0.50400001928E-02 0. -1.
</event>
<event>
 5   0  0.4987389E-02  0.5910440E+03  0.7818609E-02  0.9924163E-01
       -1   -1    0    0    0  501  0.00000000000E+00  0.00000000000E+00  0.35409939278E+03  0.35409939282E+03  0.50400001928E-02 0. -1.
        1   -1    0    0  501    0  0.00000000000E+00  0.00000000000E+00 -0.24663481395E+03  0.24663481400E+03  0.50400001928E-02 0.  1.
    10030    2    1    2    0    0  0.00000000000E+00  0.00000000000E+00  0.10746457883E+03  0.60073420681E+03  0.59104395059E+03 0.  0.
        1    1    3    3  502    0 -0.99390258740E+02  0.27830435631E+03  0.52487637968E+02  0.30014444929E+03  0.50400001928E-02 0. -1.
       -1    1    3    3    0  502  0.99390258740E+02 -0.27830435631E+03  0.54976940866E+02  0.30058975752E+03  0.50400001928E-02 0.  1.
</event>
<event>
 5   0  0.3437375E-02  0.5796389E+03  0.7818609E-02  0.9948573E-01
       -3   -1    0    0    0  501  0.00000000000E+00  0.00000000000E+00  0.17187703424E+03  0.17187706392E+03  0.10100000352E+00 0. -1.
        3   -1    0    0  501    0  0.00000000000E+00  0.00000000000E+00 -0.48869409418E+03  0.48869410462E+03  0.10100000352E+00 0.  1.
    10030    2    1    2    0    0  0.00000000000E+00  0.00000000000E+00 -0.31681705994E+03  0.66057116854E+03  0.57963886967E+03 0.  0.
        4    1    3    3  502    0  0.64655622526E+01  0.27316128002E+03 -0.48301587264E+02  0.27747710650E+03  0.12699999809E+01 0. -1.
       -4    1    3    3    0  502 -0.64655622526E+01 -0.27316128002E+03 -0.26851547268E+03  0.38309406204E+03  0.12699999809E+01 0.  1.
</event>
<event>
 5   0  0.8699746E-02  0.6051600E+03  0.7818609E-02  0.9894758E-01
       -2   -1    0    0    0  501  0.00000000000E+00  0.00000000000E+00  0.64670884954E+02  0.64670885005E+02  0.25500000920E-02 0.  1.
        2   -1    0    0  501    0  0.00000000000E+00  0.00000000000E+00 -0.14157014814E+04  0.14157014814E+04  0.25500000920E-02 0. -1.
    10030    2    1    2    0    0  0.00000000000E+00  0.00000000000E+00 -0.13510305964E+04  0.14803723664E+04  0.60516003725E+03 0.  0.
        3    1    3    3  502    0  0.12102531127E+03 -0.73722080397E+02 -0.13295043497E+04  0.13370354884E+04  0.10100000352E+00 0. -1.
       -3    1    3    3    0  502 -0.12102531127E+03  0.73722080397E+02 -0.21526246753E+02  0.14333687804E+03  0.10100000352E+00 0.  1.
</event>
<event>
 5   0  0.3437375E-02  0.6044662E+03  0.7818609E-02  0.9896183E-01
       -3   -1    0    0    0  501  0.00000000000E+00  0.00000000000E+00  0.58098676974E+03  0.58098677852E+03  0.10100000352E+00 0.  1.
        3   -1    0    0  501    0  0.00000000000E+00  0.00000000000E+00 -0.15722361553E+03  0.15722364797E+03  0.10100000352E+00 0. -1.
    10030    2    1    2    0    0  0.00000000000E+00  0.00000000000E+00  0.42376315421E+03  0.73821042649E+03  0.60446622976E+03 0.  0.
        4    1    3    3  502    0  0.18832508435E+03 -0.57700547417E+01 -0.76717462966E+02  0.20343749150E+03  0.12699999809E+01 0. -1.
       -4    1    3    3    0  502 -0.18832508435E+03  0.57700547417E+01  0.50048061718E+03  0.53477293499E+03  0.12699999809E+01 0.  1.
</event>
<event>
 5   0  0.4987389E-02  0.6002013E+03  0.7818609E-02  0.9904988E-01
       -1   -1    0    0    0  501  0.00000000000E+00  0.00000000000E+00  0.10442760595E+03  0.10442760607E+03  0.50400001928E-02 0.  1.
        1   -1    0    0  501    0  0.00000000000E+00  0.00000000000E+00 -0.86241957858E+03  0.86241957860E+03  0.50400001928E-02 0. -1.
    10030    2    1    2    0    0  0.00000000000E+00  0.00000000000E+00 -0.75799197264E+03  0.96684718467E+03  0.60020133948E+03 0.  0.
        1    1    3    3  502    0  0.27805925631E+03 -0.11285738412E+03 -0.37483482700E+03  0.48016131323E+03  0.50400001928E-02 0.  1.
       -1    1    3    3    0  502 -0.27805925631E+03  0.11285738412E+03 -0.38315714564E+03  0.48668587143E+03  0.50400001928E-02 0. -1.
</event>
<event>
 5   0  0.5166903E-02  0.5760737E+03  0.7818609E-02  0.9956328E-01
       -1   -1    0    0    0  501  0.00000000000E+00  0.00000000000E+00  0.93925291313E+03  0.93925291314E+03  0.50400001928E-02 0.  1.
        1   -1    0    0  501    0  0.00000000000E+00  0.00000000000E+00 -0.88331085619E+02  0.88331085763E+02  0.50400001928E-02 0. -1.
    10030    2    1    2    0    0  0.00000000000E+00  0.00000000000E+00  0.85092182751E+03  0.10275839989E+04  0.57607370906E+03 0.  0.
        2    1    3    3  502    0 -0.18158099067E+03  0.29177810735E+02  0.30033565565E+02  0.18634649414E+03  0.25500000920E-02 0. -1.
       -2    1    3    3    0  502  0.18158099067E+03 -0.29177810735E+02  0.82088826194E+03  0.84123750476E+03  0.25500000920E-02 0.  1.
</event>
<event>
 5   0  0.4881209E-02  0.5969403E+03  0.7818609E-02  0.9911774E-01
        1   -1    0    0  501    0  0.00000000000E+00  0.00000000000E+00  0.18427953881E+04  0.18427953881E+04  0.50400001928E-02 0. -1.
       -1   -1    0    0    0  501  0.00000000000E+00  0.00000000000E+00 -0.48342011365E+02  0.48342011628E+02  0.50400001928E-02 0.  1.
    10030    2    1    2    0    0  0.00000000000E+00  0.00000000000E+00  0.17944533767E+04  0.18911373997E+04  0.59694031812E+03 0.  0.
        3    1    3    3  502    0 -0.85687869577E+02  0.20583876461E+03  0.26860666219E+03  0.34908674736E+03  0.10100000352E+00 0.  1.
       -3    1    3    3    0  502  0.85687869577E+02 -0.20583876461E+03  0.15258467145E+04  0.15420506523E+04  0.10100000352E+00 0. -1.
</event>
<event>
 5   0  0.8575590E-02  0.6008556E+03  0.7818609E-02  0.9903633E-01
        2   -1    0    0  501    0  0.00000000000E+00  0.00000000000E+00  0.22166560602E+04  0.22166560602E+04  0.25500000920E-02 0. -1.
       -2   -1    0    0    0  501  0.00000000000E+00  0.00000000000E+00 -0.40717579525E+02  0.40717579604E+02  0.25500000920E-02 0.  1.
    10030    2    1    2    0    0  0.00000000000E+00  0.00000000000E+00  0.21759384806E+04  0.22573736398E+04  0.60085562159E+03 0.  0.
        4    1    3    3  502    0 -0.16709925844E+03 -0.17329965722E+03  0.41276252220E+03  0.47783830529E+03  0.12699999809E+01 0.  1.
       -4    1    3    3    0  502  0.16709925844E+03  0.17329965722E+03  0.17631759584E+04  0.17795353345E+04  0.12699999809E+01 0. -1.
</event>
<event>
 5   0  0.8699746E-02  0.6109642E+03  0.7818609E-02  0.9882916E-01
        2   -1    0    0  501    0  0.00000000000E+00  0.00000000000E+00  0.58354573107E+03  0.58354573107E+03  0.25500000920E-02 0. -1.
       -2   -1    0    0    0  501  0.00000000000E+00  0.00000000000E+00 -0.15991773916E+03  0.15991773918E+03  0.25500000920E-02 0.  1.
    10030    2    1    2    0    0  0.00000000000E+00  0.00000000000E+00  0.42362799191E+03  0.74346347026E+03  0.61096420196E+03 0.  0.
        3    1    3    3  502    0 -0.27856475634E+02 -0.20725988699E+02  0.58113678866E+03  0.58217310757E+03  0.10100000352E+00 0. -1.
       -3    1    3    3    0  502  0.27856475634E+02  0.20725988699E+02 -0.15750879675E+03  0.16129036269E+03  0.10100000352E+00 0.  1.
</event>
<event>
 5   0  0.3437375E-02  0.6497942E+03  0.7818609E-02  0.9807165E-01
        3   -1    0    0  501    0  0.00000000000E+00  0.00000000000E+00  0.27653942162E+03  0.27653944007E+03  0.10100000352E+00 0. -1.
       -3   -1    0    0    0  501  0.00000000000E+00  0.00000000000E+00 -0.38171087978E+03  0.38171089314E+03  0.10100000352E+00 0.  1.
    10030    2    1    2    0    0  0.00000000000E+00  0.00000000000E+00 -0.10517145816E+03  0.65825033321E+03  0.64979417169E+03 0.  0.
        3    1    3    3  502    0 -0.17227339756E+03  0.79412781259E+02 -0.31978636763E+03  0.37181695020E+03  0.10100000352E+00 0.  1.
       -3    1    3    3    0  502  0.17227339756E+03 -0.79412781259E+02  0.21461490947E+03  0.28643338301E+03  0.10100000352E+00 0. -1.
</event>
<event>
 5   0  0.5125031E-02  0.5854917E+03  0.7818609E-02  0.9935972E-01
        1   -1    0    0  501    0  0.00000000000E+00  0.00000000000E+00  0.32081478703E+03  0.32081478707E+03  0.50400001928E-02 0.  1.
       -1   -1    0    0    0  501  0.00000000000E+00  0.00000000000E+00 -0.26713274541E+03  0.26713274545E+03  0.50400001928E-02 0. -1.
    10030    2    1    2    0    0  0.00000000000E+00  0.00000000000E+00  0.53682041623E+02  0.58794753252E+03  0.58549170738E+03 0.  0.
        4    1    3    3  502    0 -0.11455640406E+03 -0.16066399752E+03 -0.19031224703E+03  0.27414677471E+03  0.12699999809E+01 0. -1.
       -4    1    3    3    0  502  0.11455640406E+03  0.16066399752E+03  0.24399428866E+03  0.31380075782E+03  0.12699999809E+01 0.  1.
</event>
<event>
 5   0  0.5166903E-02  0.5868442E+03  0.7818609E-02  0.9933082E-01
       -1   -1    0    0    0  501  0.00000000000E+00  0.00000000000E+00  0.18211152953E+03  0.18211152960E+03  0.50400001928E-02 0.  1.
        1   -1    0    0  501    0  0.00000000000E+00  0.00000000000E+00 -0.47276817174E+03  0.47276817176E+03  0.50400001928E-02 0. -1.
    10030    2    1    2    0    0  0.00000000000E+00  0.00000000000E+00 -0.29065664221E+03  0.65487970136E+03  0.58684422089E+03 0.  0.
        2    1    3    3  502    0  0.55378047652E+02  0.20354841814E+03  0.82272660114E+02  0.22642322606E+03  0.25500000920E-02 0.  1.
       -2    1    3    3    0  502 -0.55378047652E+02 -0.20354841814E+03 -0.37292930232E+03  0.42845647530E+03  0.25500000920E-02 0. -1.
</event>
<event>
 5   0  0.5166903E-02  0.5969024E+03  0.7818609E-02  0.9911854E-01
       -1   -1    0    0    0  501  0.00000000000E+00  0.00000000000E+00  0.17422716537E+03  0.17422716545E+03  0.50400001928E-02 0. -1.
        1   -1    0    0  501    0  0.00000000000E+00  0.00000000000E+00 -0.51124694400E+03  0.51124694403E+03  0.50400001928E-02 0.  1.
    10030    2    1    2    0    0  0.00000000000E+00  0.00000000000E+00 -0.33701977863E+03  0.68547410947E+03  0.59690235681E+03 0.  0.
        2    1    3    3  502    0 -0.12296767202E+03  0.20433440839E+03  0.37558973289E+02  0.24142136462E+03  0.25500000920E-02 0. -1.
       -2    1    3    3    0  502  0.12296767202E+03 -0.20433440839E+03 -0.37457875192E+03  0.44405274485E+03  0.25500000920E-02 0.  1.
</event>
<event>
 5   0  0.4987389E-02  0.6098121E+03  0.7818609E-02  0.9885256E-01
       -1   -1    0    0    0  501  0.00000000000E+00  0.00000000000E+00  0.10867099521E+04  0.10867099521E+04  0.50400001928E-02 0. -1.
        1   -1    0    0  501    0  0.00000000000E+00  0.00000000000E+00 -0.85549695879E+02  0.85549696028E+02  0.50400001928E-02 0.  1.
    10030    2    1    2    0    0  0.00000000000E+00  0.00000000000E+00  0.10011602562E+04  0.11722596481E+04  0.60981212189E+03 0.  0.
        1    1    3    3  502    0 -0.88394527075E+02  0.11356476577E+03  0.10173155097E+04  0.10274441079E+04  0.50400001928E-02 0. -1.
       -1    1    3    3    0  502  0.88394527075E+02 -0.11356476577E+03 -0.16155253569E+02  0.14481554021E+03  0.50400001928E-02 0.  1.
</event>
<event>
 5   0  0.5190380E-02  0.5678721E+03  0.7818609E-02  0.9974398E-01
       -1   -1    0    0    0  501  0.00000000000E+00  0.00000000000E+00  0.95817605440E+02  0.95817605573E+02  0.50400001928E-02 0. -1.
        1   -1    0    0  501    0  0.00000000000E+00  0.00000000000E+00 -0.84138696059E+03  0.84138696061E+03  0.50400001928E-02 0.  1.
    10030    2    1    2    0    0  0.00000000000E+00  0.00000000000E+00 -0.74556935515E+03  0.93720456618E+03  0.56787211195E+03 0.  0.
        5    1    3    3  502    0 -0.11480408355E+02  0.25682504218E+03 -0.17400680092E+03  0.31046957795E+03  0.46999998093E+01 0. -1.
       -5    1    3    3    0  502  0.11480408355E+02 -0.25682504218E+03 -0.57156255424E+03  0.62673498823E+03  0.46999998093E+01 0.  1.
</event>
<event>
 5   0  0.5125031E-02  0.6017573E+03  0.7818609E-02  0.9901767E-01
        1   -1    0    0  501    0  0.00000000000E+00  0.00000000000E+00  0.84202262358E+03  0.84202262360E+03  0.50400001928E-02 0. -1.
       -1   -1    0    0    0  501  0.00000000000E+00  0.00000000000E+00 -0.10751249005E+03  0.10751249017E+03  0.50400001928E-02 0.  1.
    10030    2    1    2    0    0  0.00000000000E+00  0.00000000000E+00  0.73451013353E+03  0.94953511377E+03  0.60175725672E+03 0.  0.
        4    1    3    3  502    0 -0.18913829392E+03  0.22439517010E+03  0.47192178434E+03  0.55573219272E+03  0.12699999809E+01 0.  1.
       -4    1    3    3    0  502  0.18913829392E+03 -0.22439517010E+03  0.26258834920E+03  0.39380292105E+03  0.12699999809E+01 0. -1.
</event>
<event>
 5   0  0.8575590E-02  0.6014275E+03  0.7818609E-02  0.9902449E-01
       -2   -1    0    0    0  501  0.00000000000E+00  0.00000000000E+00  0.10267520671E+03  0.10267520674E+03  0.25500000920E-02 0. -1.
        2   -1    0    0  501    0  0.00000000000E+00  0.00000000000E+00 -0.88072638800E+03  0.88072638801E+03  0.25500000920E-02 0.  1.
    10030    2    1    2    0    0  0.00000000000E+00  0.00000000000E+00 -0.77805118130E+03  0.98340159474E+03  0.60142751502E+03 0.  0.
        4    1    3    3  502    0  0.24212914253E+03 -0.15146334919E+03 -0.23512091609E+03  0.36993394801E+03  0.12699999809E+01 0. -1.
       -4    1    3    3    0  502 -0.24212914253E+03  0.15146334919E+03 -0.54293026521E+03  0.61346764673E+03  0.12699999809E+01 0.  1.
</event>
<event>
 5   0  0.5190380E-02  0.6139663E+03  0.7818609E-02  0.9876847E-01
       -1   -1    0    0    0  501  0.00000000000E+00  0.00000000000E+00  0.15283873056E+03  0.15283873065E+03  0.50400001928E-02 0.  1.
        1   -1    0    0  501    0  0.00000000000E+00  0.00000000000E+00 -0.61658874808E+03  0.61658874810E+03  0.50400001928E-02 0. -1.
    10030    2    1    2    0    0  0.00000000000E+00  0.00000000000E+00 -0.46375001752E+03  0.76942747875E+03  0.61396625828E+03 0.  0.
        5    1    3    3  502    0 -0.41786231199E+02 -0.17145979293E+02  0.14860622630E+03  0.15538974940E+03  0.46999998093E+01 0.  1.
       -5    1    3    3    0  502  0.41786231199E+02  0.17145979293E+02 -0.61235624382E+03  0.61403772935E+03  0.46999998093E+01 0. -1.
</event>
<event>
 5   0  0.8575590E-02  0.5917770E+03  0.7818609E-02  0.9922615E-01
       -2   -1    0    0    0  501  0.00000000000E+00  0.00000000000E+00  0.17403930468E+03  0.17403930470E+03  0.25500000920E-02 0. -1.
        2   -1    0    0  501    0  0.00000000000E+00  0.00000000000E+00 -0.50304729438E+03  0.50304729439E+03  0.25500000920E-02 0.  1.
    10030    2    1    2    0    0  0.00000000000E+00  0.00000000000E+00 -0.32900798970E+03  0.67708659908E+03  0.59177698956E+03 0.  0.
        4    1    3    3  502    0 -0.10205780519E+03  0.21709107463E+03  0.33683452234E+02  0.24224062033E+03  0.12699999809E+01 0. -1.
       -4    1    3    3    0  502  0.10205780519E+03 -0.21709107463E+03 -0.36269144194E+03  0.43484597875E+03  0.12699999809E+01 0.  1.
</event>
<event>
 5   0  0.4987389E-02  0.6153766E+03  0.7818609E-02  0.9874008E-01
        1   -1    0    0  501    0  0.00000000000E+00  0.00000000000E+00  0.60869924610E+03  0.60869924612E+03  0.50400001928E-02 0. -1.
       -1   -1    0    0    0  501  0.00000000000E+00  0.00000000000E+00 -0.15553181313E+03  0.15553181321E+03  0.50400001928E-02 0.  1.
    10030    2    1    2    0    0  0.00000000000E+00  0.00000000000E+00  0.45316743297E+03  0.76423105933E+03  0.61537662430E+03 0.  0.
        1    1    3    3  502    0 -0.45877151418E+02 -0.24200240336E+03 -0.24172592241E+01  0.24632441905E+03  0.50400001928E-02 0.  1.
       -1    1    3    3    0  502  0.45877151418E+02  0.24200240336E+03  0.45558469219E+03  0.51790664028E+03  0.50400001928E-02 0. -1.
</event>
<event>
 5   0  0.5125031E-02  0.5982691E+03  0.7818609E-02  0.9909004E-01
        1   -1    0    0  501    0  0.00000000000E+00  0.00000000000E+00  0.52348355486E+03  0.52348355488E+03  0.50400001928E-02 0. -1.
       -1   -1    0    0    0  501  0.00000000000E+00  0.00000000000E+00 -0.17093466406E+03  0.17093466414E+03  0.50400001928E-02 0.  1.
    10030    2    1    2    0    0  0.00000000000E+00  0.00000000000E+00  0.35254889080E+03  0.69441821902E+03  0.59826912214E+03 0.  0.
        4    1    3    3  502    0 -0.81761545263E+02  0.21443919286E+03 -0.46421279831E+02  0.23414881132E+03  0.12699999809E+01 0.  1.
       -4    1    3    3    0  502  0.81761545263E+02 -0.21443919286E+03  0.39897017063E+03  0.46026940771E+03  0.12699999809E+01 0. -1.
</event>
<event>
 5   0  0.8575590E-02  0.7049547E+03  0.7818609E-02  0.9708796E-01
       -2   -1    0    0    0  501  0.00000000000E+00  0.00000000000E+00  0.23304974582E+03  0.23304974583E+03  0.25500000920E-02 0.  1.
        2   -1    0    0  501    0  0.00000000000E+00  0.00000000000E+00 -0.53310634677E+03  0.53310634678E+03  0.25500000920E-02 0. -1.
    10030    2    1    2    0    0  0.00000000000E+00  0.00000000000E+00 -0.30005660095E+03  0.76615609261E+03  0.70495474640E+03 0.  0.
        4    1    3    3  502    0  0.27431701199E+03  0.12408452722E+03 -0.34922092697E+03  0.46108964605E+03  0.12699999809E+01 0. -1.
       -4    1    3    3    0  502 -0.27431701199E+03 -0.12408452722E+03  0.49164326022E+02  0.30506644656E+03  0.12699999809E+01 0.  1.
</event>
<event>
 5   0  0.8575590E-02  0.6015208E+03  0.7818609E-02  0.9902256E-01
       -2   -1    0    0    0  501  0.00000000000E+00  0.00000000000E+00  0.10208965436E+03  0.10208965439E+03  0.25500000920E-02 0.  1.
        2   -1    0    0  501    0  0.00000000000E+00  0.00000000000E+00 -0.88605275975E+03  0.88605275975E+03  0.25500000920E-02 0. -1.
    10030    2    1    2    0    0  0.00000000000E+00  0.00000000000E+00 -0.78396310539E+03  0.98814241414E+03  0.60152080596E+03 0.  0.
        4    1    3    3  502    0 -0.20337486427E+02 -0.29965773170E+03 -0.36617235366E+03  0.47359494825E+03  0.12699999809E+01 0.  1.
       -4    1    3    3    0  502  0.20337486427E+02  0.29965773170E+03 -0.41779075174E+03  0.51454746590E+03  0.12699999809E+01 0. -1.
</event>
<event>
 5   0  0.8817544E-02  0.6005665E+03  0.7818609E-02  0.9904231E-01
       -2   -1    0    0    0  501  0.00000000000E+00  0.00000000000E+00  0.98803612317E+02  0.98803612350E+02  0.25500000920E-02 0. -1.
        2   -1    0    0  501    0  0.00000000000E+00  0.00000000000E+00 -0.91261882566E+03  0.91261882566E+03  0.25500000920E-02 0.  1.
    10030    2    1    2    0    0  0.00000000000E+00  0.00000000000E+00 -0.81381521334E+03  0.10114224380E+04  0.60056652142E+03 0.  0.
        5    1    3    3  502    0 -0.18396050319E+03 -0.23581916302E+03 -0.45133127212E+03  0.54145558596E+03  0.46999998093E+01 0.  1.
       -5    1    3    3    0  502  0.18396050319E+03  0.23581916302E+03 -0.36248394123E+03  0.46996685205E+03  0.46999998093E+01 0. -1.
</event>
<event>
 5   0  0.8207443E-02  0.6068314E+03  0.7818609E-02  0.9891334E-01
       -2   -1    0    0    0  501  0.00000000000E+00  0.00000000000E+00  0.11599457198E+04  0.11599457198E+04  0.25500000920E-02 0. -1.
        2   -1    0    0  501    0  0.00000000000E+00  0.00000000000E+00 -0.79366707934E+02  0.79366707975E+02  0.25500000920E-02 0.  1.
    10030    2    1    2    0    0  0.00000000000E+00  0.00000000000E+00  0.10805790119E+04  0.12393124278E+04  0.60683135446E+03 0.  0.
        1    1    3    3  502    0 -0.28242032491E+03  0.45249960757E+02  0.33350266385E+03  0.43935501100E+03  0.50400001928E-02 0.  1.
       -1    1    3    3    0  502  0.28242032491E+03 -0.45249960757E+02  0.74707634801E+03  0.79995741678E+03  0.50400001928E-02 0. -1.
</event>
<event>
 5   0  0.5190380E-02  0.7030892E+03  0.7818609E-02  0.9711964E-01
        1   -1    0    0  501    0  0.00000000000E+00  0.00000000000E+00  0.10013566318E+04  0.10013566318E+04  0.50400001928E-02 0.  1.
       -1   -1    0    0    0  501  0.00000000000E+00  0.00000000000E+00 -0.12341616747E+03  0.12341616757E+03  0.50400001928E-02 0. -1.
    10030    2    1    2    0    0  0.00000000000E+00  0.00000000000E+00  0.87794046432E+03  0.11247727994E+04  0.70308917736E+03 0.  0.
        5    1    3    3  502    0  0.64349454004E+02  0.34080246445E+03  0.53051130592E+03  0.63383870796E+03  0.46999998093E+01 0.  1.
       -5    1    3    3    0  502 -0.64349454004E+02 -0.34080246445E+03  0.34742915840E+03  0.49093409141E+03  0.46999998093E+01 0. -1.
</event>
<event>
 5   0  0.8817544E-02  0.6304177E+03  0.7818609E-02  0.9844234E-01
       -2   -1    0    0    0  501  0.00000000000E+00  0.00000000000E+00  0.45100924562E+03  0.45100924563E+03  0.25500000920E-02 0. -1.
        2   -1    0    0  501    0  0.00000000000E+00  0.00000000000E+00 -0.22029842288E+03  0.22029842290E+03  0.25500000920E-02 0.  1.
    10030    2    1    2    0    0  0.00000000000E+00  0.00000000000E+00  0.23071082273E+03  0.67130766852E+03  0.63041772032E+03 0.  0.
        5    1    3    3  502    0  0.22470076105E+02 -0.41876482875E+02 -0.21642375633E+03  0.22163004408E+03  0.46999998093E+01 0.  1.
       -5    1    3    3    0  502 -0.22470076105E+02  0.41876482875E+02  0.44713457906E+03  0.44967762445E+03  0.46999998093E+01 0. -1.
</event>
<event>
 5   0  0.3437375E-02  0.5987626E+03  0.7818609E-02  0.9907977E-01
        4   -1    0    0  501    0  0.00000000000E+00  0.00000000000E+00  0.80020050325E+02  0.80030127790E+02  0.12699999809E+01 0.  1.
       -4   -1    0    0    0  501  0.00000000000E+00  0.00000000000E+00 -0.11200027265E+04  0.11200034465E+04  0.12699999809E+01 0. -1.
    10030    2    1    2    0    0  0.00000000000E+00  0.00000000000E+00 -0.10399826761E+04  0.12000335743E+04  0.59876256794E+03 0.  0.
        1    1    3    3  502    0 -0.13169304541E+03 -0.11781670004E+03 -0.10043476447E+04  0.10197735163E+04  0.50400001928E-02 0. -1.
       -1    1    3    3    0  502  0.13169304541E+03  0.11781670004E+03 -0.35635031378E+02  0.18026005798E+03  0.50400001928E-02 0.  1.
</event>
<event>
 5   0  0.8817544E-02  0.6011953E+03  0.7818609E-02  0.9902929E-01
        2   -1    0    0  501    0  0.00000000000E+00  0.00000000000E+00  0.60359891593E+03  0.60359891594E+03  0.25500000920E-02 0.  1.
       -2   -1    0    0    0  501  0.00000000000E+00  0.00000000000E+00 -0.14970032856E+03  0.14970032858E+03  0.25500000920E-02 0. -1.
    10030    2    1    2    0    0  0.00000000000E+00  0.00000000000E+00  0.45389858738E+03  0.75329924451E+03  0.60119532946E+03 0.  0.
        5    1    3    3  502    0 -0.29244440723E+03 -0.62762168691E+02  0.18990521427E+03  0.35432880428E+03  0.46999998093E+01 0. -1.
       -5    1    3    3    0  502  0.29244440723E+03  0.62762168691E+02  0.26399337311E+03  0.39897044023E+03  0.46999998093E+01 0.  1.
</event>
<event>
 5   0  0.4987389E-02  0.5946878E+03  0.7818609E-02  0.9916489E-01
       -1   -1    0    0    0  501  0.00000000000E+00  0.00000000000E+00  0.28428963989E+03  0.28428963993E+03  0.50400001928E-02 0.  1.
        1   -1    0    0  501    0  0.00000000000E+00  0.00000000000E+00 -0.31099762272E+03  0.31099762277E+03  0.50400001928E-02 0. -1.
    10030    2    1    2    0    0  0.00000000000E+00  0.00000000000E+00 -0.26707982835E+02  0.59528726270E+03  0.59468782465E+03 0.  0.
        1    1    3    3  502    0  0.20440674915E+03 -0.36103226804E+02  0.19976397112E+03  0.28808194367E+03  0.50400001928E-02 0.  1.
       -1    1    3    3    0  502 -0.20440674915E+03  0.36103226804E+02 -0.22647195396E+03  0.30720531903E+03  0.50400001928E-02 0. -1.
</event>
<event>
 5   0  0.5166903E-02  0.5950072E+03  0.7818609E-02  0.9915819E-01
       -1   -1    0    0    0  501  0.00000000000E+00  0.00000000000E+00  0.42379332745E+03  0.42379332748E+03  0.50400001928E-02 0.  1.
        1   -1    0    0  501    0  0.00000000000E+00  0.00000000000E+00 -0.20884802205E+03  0.20884802212E+03  0.50400001928E-02 0. -1.
    10030    2    1    2    0    0  0.00000000000E+00  0.00000000000E+00  0.21494530540E+03  0.63264134960E+03  0.59500722089E+03 0.  0.
        2    1    3    3  502    0  0.28726275013E+03  0.31024424955E+02  0.18285096208E+03  0.34193109963E+03  0.25500000920E-02 0. -1.
       -2    1    3    3    0  502 -0.28726275013E+03 -0.31024424955E+02  0.32094343321E+02  0.29071024997E+03  0.25500000920E-02 0.  1.
</event>
<event>
 5   0  0.4881209E-02  0.5970672E+03  0.7818609E-02  0.9911509E-01
        1   -1    0    0  501    0  0.00000000000E+00  0.00000000000E+00  0.51705984751E+03  0.51705984754E+03  0.50400001928E-02 0.  1.
       -1   -1    0    0    0  501  0.00000000000E+00  0.00000000000E+00 -0.17236365500E+03  0.17236365507E+03  0.50400001928E-02 0. -1.
    10030    2    1    2    0    0  0.00000000000E+00  0.00000000000E+00  0.34469619251E+03  0.68942350261E+03  0.59706724982E+03 0.  0.
        3    1    3    3  502    0  0.36020287627E+02 -0.23614312427E+02  0.51345334367E+03  0.51525667701E+03  0.10100000352E+00 0.  1.
       -3    1    3    3    0  502 -0.36020287627E+02  0.23614312427E+02 -0.16875715116E+03  0.17416682560E+03  0.10100000352E+00 0. -1.
</event>
<event>
 5   0  0.3437375E-02  0.6019375E+03  0.7818609E-02  0.9901395E-01
        3   -1    0    0  501    0  0.00000000000E+00  0.00000000000E+00  0.61866702779E+03  0.61866703603E+03  0.10100000352E+00 0. -1.
       -3   -1    0    0    0  501  0.00000000000E+00  0.00000000000E+00 -0.14641503915E+03  0.14641507399E+03  0.10100000352E+00 0.  1.
    10030    2    1    2    0    0  0.00000000000E+00  0.00000000000E+00  0.47225198864E+03  0.76508211002E+03  0.60193745048E+03 0.  0.
        3    1    3    3  502    0 -0.10528737296E+03  0.20195335897E+03  0.48620491905E+03  0.53690392401E+03  0.10100000352E+00 0. -1.
       -3    1    3    3    0  502  0.10528737296E+03 -0.20195335897E+03 -0.13952930414E+02  0.22817818601E+03  0.10100000352E+00 0.  1.
</event>
<event>
 5   0  0.4881209E-02  0.5953801E+03  0.7818609E-02  0.9915038E-01
       -1   -1    0    0    0  501  0.00000000000E+00  0.00000000000E+00  0.32971808492E+03  0.32971808496E+03  0.50400001928E-02 0. -1.
        1   -1    0    0  501    0  0.00000000000E+00  0.00000000000E+00 -0.26877310381E+03  0.26877310386E+03  0.50400001928E-02 0.  1.
    10030    2    1    2    0    0  0.00000000000E+00  0.00000000000E+00  0.60944981107E+02  0.59849118882E+03  0.59538005708E+03 0.  0.
        3    1    3    3  502    0  0.18962307444E+03 -0.81352874428E+02  0.24617275203E+03  0.32121057670E+03  0.10100000352E+00 0. -1.
       -3    1    3    3    0  502 -0.18962307444E+03  0.81352874428E+02 -0.18522777092E+03  0.27728061213E+03  0.10100000352E+00 0.  1.
</event>
<event>
 5   0  0.8420604E-02  0.5858717E+03  0.7818609E-02  0.9935159E-01
        2   -1    0    0  501    0  0.00000000000E+00  0.00000000000E+00  0.25998995436E+03  0.25998995437E+03  0.25500000920E-02 0.  1.
       -2   -1    0    0    0  501  0.00000000000E+00  0.00000000000E+00 -0.33005664320E+03  0.33005664321E+03  0.25500000920E-02 0. -1.
    10030    2    1    2    0    0  0.00000000000E+00  0.00000000000E+00 -0.70066688843E+02  0.59004659759E+03  0.58587169793E+03 0.  0.
        2    1    3    3  502    0  0.82339536493E+02  0.27855575783E+03  0.31618610972E+01  0.29048770518E+03  0.25500000920E-02 0.  1.
       -2    1    3    3    0  502 -0.82339536493E+02 -0.27855575783E+03 -0.73228549940E+02  0.29955889241E+03  0.25500000920E-02 0. -1.
</event>
<event>
 5   0  0.4881209E-02  0.6097809E+03  0.7818609E-02  0.9885319E-01
       -1   -1    0    0    0  501  0.00000000000E+00  0.00000000000E+00  0.15268624848E+03  0.15268624857E+03  0.50400001928E-02 0. -1.
        1   -1    0    0  501    0  0.00000000000E+00  0.00000000000E+00 -0.60881834242E+03  0.60881834244E+03  0.50400001928E-02 0.  1.
    10030    2    1    2    0    0  0.00000000000E+00  0.00000000000E+00 -0.45613209394E+03  0.76150459101E+03  0.60978090738E+03 0.  0.
        3    1    3    3  502    0  0.20217556906E+03  0.82127535083E+02 -0.49397395401E+03  0.54002793464E+03  0.10100000352E+00 0.  1.
       -3    1    3    3    0  502 -0.20217556906E+03 -0.82127535083E+02  0.37841860075E+02  0.22147665637E+03  0.10100000352E+00 0. -1.
</event>
<event>
 5   0  0.5166903E-02  0.6037183E+03  0.7818609E-02  0.9897722E-01
        1   -1    0    0  501    0  0.00000000000E+00  0.00000000000E+00  0.18225863316E+04  0.18225863316E+04  0.50400001928E-02 0.  1.
       -1   -1    0    0    0  501  0.00000000000E+00  0.00000000000E+00 -0.49994305931E+02  0.49994306185E+02  0.50400001928E-02 0. -1.
    10030    2    1    2    0    0  0.00000000000E+00  0.00000000000E+00  0.17725920257E+04  0.18725806378E+04  0.60371827499E+03 0.  0.
        2    1    3    3  502    0  0.52513254651E+02  0.13621898924E+03  0.66791028488E+02  0.16054375240E+03  0.25500000920E-02 0. -1.
       -2    1    3    3    0  502 -0.52513254651E+02 -0.13621898924E+03  0.17058009972E+04  0.17120368854E+04  0.25500000920E-02 0.  1.
</event>
<event>
 5   0  0.4987389E-02  0.5909928E+03  0.7818609E-02  0.9924271E-01
        1   -1    0    0  501    0  0.00000000000E+00  0.00000000000E+00  0.82193015257E+03  0.82193015259E+03  0.50400001928E-02 0. -1.
       -1   -1    0    0    0  501  0.00000000000E+00  0.00000000000E+00 -0.10623544585E+03  0.10623544597E+03  0.50400001928E-02 0.  1.
    10030    2    1    2    0    0  0.00000000000E+00  0.00000000000E+00  0.71569470672E+03  0.92816559856E+03  0.59099277925E+03 0.  0.
        1    1    3    3  502    0 -0.44923049271E+02  0.23379235125E+03  0.63276079968E+03  0.67606447436E+03  0.50400001928E-02 0.  1.
       -1    1    3    3    0  502  0.44923049271E+02 -0.23379235125E+03  0.82933907043E+02  0.25210112420E+03  0.50400001928E-02 0. -1.
</event>
<event>
 5   0  0.8207443E-02  0.6073564E+03  0.7818609E-02  0.9890260E-01
        2   -1    0    0  501    0  0.00000000000E+00  0.00000000000E+00  0.24525101711E+03  0.24525101712E+03  0.25500000920E-02 0.  1.
       -2   -1    0    0    0  501  0.00000000000E+00  0.00000000000E+00 -0.37602477137E+03  0.37602477138E+03  0.25500000920E-02 0. -1.
    10030    2    1    2    0    0  0.00000000000E+00  0.00000000000E+00 -0.13077375427E+03  0.62127578850E+03  0.60735642795E+03 0.  0.
        1    1    3    3  502    0  0.17802693811E+02  0.16276221218E+03 -0.32700598354E+03  0.36570669520E+03  0.50400001928E-02 0. -1.
       -1    1    3    3    0  502 -0.17802693811E+02 -0.16276221218E+03  0.19623222927E+03  0.25556909330E+03  0.50400001928E-02 0.  1.
</event>
<event>
 5   0  0.8420604E-02  0.6023694E+03  0.7818609E-02  0.9900502E-01
       -2   -1    0    0    0  501  0.00000000000E+00  0.00000000000E+00  0.13975196103E+03  0.13975196106E+03  0.25500000920E-02 0. -1.
        2   -1    0    0  501    0  0.00000000000E+00  0.00000000000E+00 -0.64909454208E+03  0.64909454209E+03  0.25500000920E-02 0.  1.
    10030    2    1    2    0    0  0.00000000000E+00  0.00000000000E+00 -0.50934258105E+03  0.78884650314E+03  0.60236943868E+03 0.  0.
        2    1    3    3  502    0 -0.21705795266E+03 -0.20664031609E+03 -0.21543084643E+03  0.36908647313E+03  0.25500000920E-02 0. -1.
       -2    1    3    3    0  502  0.21705795266E+03  0.20664031609E+03 -0.29391173461E+03  0.41976003001E+03  0.25500000920E-02 0.  1.
</event>
<event>
 5   0  0.3437375E-02  0.5880381E+03  0.7818609E-02  0.9930539E-01
       -3   -1    0    0    0  501  0.00000000000E+00  0.00000000000E+00  0.85967821889E+03  0.85967822483E+03  0.10100000352E+00 0. -1.
        3   -1    0    0  501    0  0.00000000000E+00  0.00000000000E+00 -0.10055758079E+03  0.10055763152E+03  0.10100000352E+00 0.  1.
    10030    2    1    2    0    0  0.00000000000E+00  0.00000000000E+00  0.75912063810E+03  0.96023585634E+03  0.58803805711E+03 0.  0.
        3    1    3    3  502    0 -0.98136546201E+02 -0.70071584179E+02  0.81744138698E+03  0.82628762544E+03  0.10100000352E+00 0. -1.
       -3    1    3    3    0  502  0.98136546201E+02  0.70071584179E+02 -0.58320748881E+02  0.13394823090E+03  0.10100000352E+00 0.  1.
</event>
<event>
 5   0  0.4881209E-02  0.6051060E+03  0.7818609E-02  0.9894869E-01
        1   -1    0    0  501    0  0.00000000000E+00  0.00000000000E+00  0.98438051275E+03  0.98438051277E+03  0.50400001928E-02 0. -1.
       -1   -1    0    0    0  501  0.00000000000E+00  0.00000000000E+00 -0.92990786466E+02  0.92990786603E+02  0.50400001928E-02 0.  1.
    10030    2    1    2    0    0  0.00000000000E+00  0.00000000000E+00  0.89138972629E+03  0.10773712994E+04  0.60510600111E+03 0.  0.
        3    1    3    3  502    0 -0.19612266588E+03 -0.12837997600E+03  0.78628471323E+03  0.82048106545E+03  0.10100000352E+00 0. -1.
       -3    1    3    3    0  502  0.19612266588E+03  0.12837997600E+03  0.10510501306E+03  0.25689023392E+03  0.10100000352E+00 0.  1.
</event>
<event>
 5   0  0.8207443E-02  0.6047426E+03  0.7818609E-02  0.9895615E-01
        2   -1    0    0  501    0  0.00000000000E+00  0.00000000000E+00  0.11374347728E+04  0.11374347728E+04  0.25500000920E-02 0.  1.
       -2   -1    0    0    0  501  0.00000000000E+00  0.00000000000E+00 -0.80381221051E+02  0.80381221091E+02  0.25500000920E-02 0. -1.
    10030    2    1    2    0    0  0.00000000000E+00  0.00000000000E+00  0.10570535517E+04  0.12178159939E+04  0.60474257641E+03 0.  0.
        1    1    3    3  502    0  0.18339291215E+03  0.18859810683E+02  0.45893376847E+02  0.18998645938E+03  0.50400001928E-02 0. -1.
       -1    1    3    3    0  502 -0.18339291215E+03 -0.18859810683E+02  0.10111601749E+04  0.10278295345E+04  0.50400001928E-02 0.  1.
</event>
<event>
 5   0  0.4987389E-02  0.6000313E+03  0.7818609E-02  0.9905341E-01
       -1   -1    0    0    0  501  0.00000000000E+00  0.00000000000E+00  0.88692015844E+02  0.88692015987E+02  0.50400001928E-02 0. -1.
        1   -1    0    0  501    0  0.00000000000E+00  0.00000000000E+00 -0.10148534398E+04  0.10148534398E+04  0.50400001928E-02 0.  1.
    10030    2    1    2    0    0  0.00000000000E+00  0.00000000000E+00 -0.92616142395E+03  0.11035454558E+04  0.60003132401E+03 0.  0.
        1    1    3    3  502    0  0.29082988630E+03 -0.36223507086E+02 -0.34509933079E+03  0.45275568839E+03  0.50400001928E-02 0. -1.
       -1    1    3    3    0  502 -0.29082988630E+03  0.36223507086E+02 -0.58106209316E+03  0.65078976741E+03  0.50400001928E-02 0.  1.
</event>
<event>
 5   0  0.4881209E-02  0.6019454E+03  0.7818609E-02  0.9901378E-01
        1   -1    0    0  501    0  0.00000000000E+00  0.00000000000E+00  0.94938952983E+03  0.94938952984E+03  0.50400001928E-02 0.  1.
       -1   -1    0    0    0  501  0.00000000000E+00  0.00000000000E+00 -0.95413497916E+02  0.95413498049E+02  0.50400001928E-02 0. -1.
    10030    2    1    2    0    0  0.00000000000E+00  0.00000000000E+00  0.85397603192E+03  0.10448030279E+04  0.60194543275E+03 0.  0.
        3    1    3    3  502    0  0.27039591746E+03 -0.75570904793E+02  0.23876421753E+03  0.36855566148E+03  0.10100000352E+00 0. -1.
       -3    1    3    3    0  502 -0.27039591746E+03  0.75570904793E+02  0.61521181438E+03  0.67624736642E+03  0.10100000352E+00 0.  1.
</event>
<event>
 5   0  0.8575590E-02  0.5952379E+03  0.7818609E-02  0.9915336E-01
        2   -1    0    0  501    0  0.00000000000E+00  0.00000000000E+00  0.14791632574E+03  0.14791632576E+03  0.25500000920E-02 0.  1.
       -2   -1    0    0    0  501  0.00000000000E+00  0.00000000000E+00 -0.59883199726E+03  0.59883199727E+03  0.25500000920E-02 0. -1.
    10030    2    1    2    0    0  0.00000000000E+00  0.00000000000E+00 -0.45091567152E+03  0.74674832303E+03  0.59523786433E+03 0.  0.
        4    1    3    3  502    0 -0.65868660450E+02  0.10241957020E+03  0.11522934179E+03  0.16765399757E+03  0.12699999809E+01 0.  1.
       -4    1    3    3    0  502  0.65868660450E+02 -0.10241957020E+03 -0.56614501331E+03  0.57909432547E+03  0.12699999809E+01 0. -1.
</event>
<event>
 5   0  0.8817544E-02  0.5937127E+03  0.7818609E-02  0.9918537E-01
        2   -1    0    0  501    0  0.00000000000E+00  0.00000000000E+00  0.86950553000E+03  0.86950553000E+03  0.25500000920E-02 0.  1.
       -2   -1    0    0    0  501  0.00000000000E+00  0.00000000000E+00 -0.10134920477E+03  0.10134920480E+03  0.25500000920E-02 0. -1.
    10030    2    1    2    0    0  0.00000000000E+00  0.00000000000E+00  0.76815632522E+03  0.97085473480E+03  0.59371270502E+03 0.  0.
        5    1    3    3  502    0  0.39845245366E+02 -0.40246489131E+02  0.86052765733E+03  0.86240208864E+03  0.46999998093E+01 0.  1.
       -5    1    3    3    0  502 -0.39845245366E+02  0.40246489131E+02 -0.92371332106E+02  0.10845264616E+03  0.46999998093E+01 0. -1.
</event>
<event>
 5   0  0.5190380E-02  0.5987636E+03  0.7818609E-02  0.9907974E-01
       -1   -1    0    0    0  501  0.00000000000E+00  0.00000000000E+00  0.66971686583E+02  0.66971686773E+02  0.50400001928E-02 0. -1.
        1   -1    0    0  501    0  0.00000000000E+00  0.00000000000E+00 -0.13383188979E+04  0.13383188979E+04  0.50400001928E-02 0.  1.
    10030    2    1    2    0    0  0.00000000000E+00  0.00000000000E+00 -0.12713472113E+04  0.14052905847E+04  0.59876363923E+03 0.  0.
        5    1    3    3  502    0 -0.16900002400E+03 -0.18148180254E+03 -0.10291754643E+04  0.10586410530E+04  0.46999998093E+01 0.  1.
       -5    1    3    3    0  502  0.16900002400E+03  0.18148180254E+03 -0.24217174700E+03  0.34664953167E+03  0.46999998093E+01 0. -1.
</event>
<event>
 5   0  0.8207443E-02  0.6027946E+03  0.7818609E-02  0.9899625E-01
       -2   -1    0    0    0  501  0.00000000000E+00  0.00000000000E+00  0.41663623392E+03  0.41663623393E+03  0.25500000920E-02 0.  1.
        2   -1    0    0  501    0  0.00000000000E+00  0.00000000000E+00 -0.21803275209E+03  0.21803275211E+03  0.25500000920E-02 0. -1.
    10030    2    1    2    0    0  0.00000000000E+00  0.00000000000E+00  0.19860348183E+03  0.63466898604E+03  0.60279464069E+03 0.  0.
        1    1    3    3  502    0 -0.19136226934E+03  0.20813354869E+03  0.20923170674E+03  0.35173427377E+03  0.50400001928E-02 0.  1.
       -1    1    3    3    0  502  0.19136226934E+03 -0.20813354869E+03 -0.10628224902E+02  0.28293471227E+03  0.50400001928E-02 0. -1.
</event>
<event>
 5   0  0.8817544E-02  0.5774710E+03  0.7818609E-02  0.9953281E-01
       -2   -1    0    0    0  501  0.00000000000E+00  0.00000000000E+00  0.13212722494E+03  0.13212722497E+03  0.25500000920E-02 0. -1.
        2   -1    0    0  501    0  0.00000000000E+00  0.00000000000E+00 -0.63096912409E+03  0.63096912409E+03  0.25500000920E-02 0.  1.
    10030    2    1    2    0    0  0.00000000000E+00  0.00000000000E+00 -0.49884189914E+03  0.76309634906E+03  0.57747103616E+03 0.  0.
        5    1    3    3  502    0 -0.19166396266E+03  0.21128830971E+03 -0.19079455854E+03  0.34322365590E+03  0.46999998093E+01 0.  1.
       -5    1    3    3    0  502  0.19166396266E+03 -0.21128830971E+03 -0.30804734061E+03  0.41987269316E+03  0.46999998093E+01 0. -1.
</event>
<event>
 5   0  0.8575590E-02  0.6031531E+03  0.7818609E-02  0.9898886E-01
        2   -1    0    0  501    0  0.00000000000E+00  0.00000000000E+00  0.74074355282E+03  0.74074355282E+03  0.25500000920E-02 0.  1.
       -2   -1    0    0    0  501  0.00000000000E+00  0.00000000000E+00 -0.12277991389E+03  0.12277991392E+03  0.25500000920E-02 0. -1.
    10030    2    1    2    0    0  0.00000000000E+00  0.00000000000E+00  0.61796363892E+03  0.86352346674E+03  0.60315314686E+03 0.  0.
        4    1    3    3  502    0  0.11551312767E+03 -0.27398726370E+03  0.23690529395E+03  0.38018158100E+03  0.12699999809E+01 0. -1.
       -4    1    3    3    0  502 -0.11551312767E+03  0.27398726370E+03  0.38105834498E+03  0.48334188574E+03  0.12699999809E+01 0.  1.
</event>
<event>
 5   0  0.4881209E-02  0.5974585E+03  0.7818609E-02  0.9910693E-01
        1   -1    0    0  501    0  0.00000000000E+00  0.00000000000E+00  0.82117372748E+03  0.82117372749E+03  0.50400001928E-02 0.  1.
       -1   -1    0    0    0  501  0.00000000000E+00  0.00000000000E+00 -0.10867271191E+03  0.10867271202E+03  0.50400001928E-02 0. -1.
    10030    2    1    2    0    0  0.00000000000E+00  0.00000000000E+00  0.71250101557E+03  0.92984643952E+03  0.59745853738E+03 0.  0.
        3    1    3    3  502    0 -0.47776972128E+02 -0.27975425147E+03  0.21113446922E+03  0.35372709053E+03  0.10100000352E+00 0.  1.
       -3    1    3    3    0  502  0.47776972128E+02  0.27975425147E+03  0.50136654635E+03  0.57611934899E+03  0.10100000352E+00 0. -1.
</event>
<event>
 5   0  0.4881209E-02  0.5951901E+03  0.7818609E-02  0.9915436E-01
       -1   -1    0    0    0  501  0.00000000000E+00  0.00000000000E+00  0.81328428226E+03  0.81328428227E+03  0.50400001928E-02 0. -1.
        1   -1    0    0  501    0  0.00000000000E+00  0.00000000000E+00 -0.10889526724E+03  0.10889526736E+03  0.50400001928E-02 0.  1.
    10030    2    1    2    0    0  0.00000000000E+00  0.00000000000E+00  0.70438901501E+03  0.92217954963E+03  0.59519008501E+03 0.  0.
        3    1    3    3  502    0  0.15397919300E+03 -0.62918475430E+02  0.73453362747E+03  0.75313211756E+03  0.10100000352E+00 0. -1.
       -3    1    3    3    0  502 -0.15397919300E+03  0.62918475430E+02 -0.30144612452E+02  0.16904743207E+03  0.10100000352E+00 0.  1.
</event>
<event>
 5   0  0.8699746E-02  0.6128249E+03  0.7818609E-02  0.9879150E-01
        2   -1    0    0  501    0  0.00000000000E+00  0.00000000000E+00  0.73308215040E+03  0.73308215040E+03  0.25500000920E-02 0.  1.
       -2   -1    0    0    0  501  0.00000000000E+00  0.00000000000E+00 -0.12807375360E+03  0.12807375363E+03  0.25500000920E-02 0. -1.
    10030    2    1    2    0    0  0.00000000000E+00  0.00000000000E+00  0.60500839679E+03  0.86115590403E+03  0.61282487780E+03 0.  0.
        3    1    3    3  502    0 -0.59721052739E+02  0.22896570576E+02  0.72359721585E+03  0.72641847311E+03  0.10100000352E+00 0.  1.
       -3    1    3    3    0  502  0.59721052739E+02 -0.22896570576E+02 -0.11858881906E+03  0.13473743092E+03  0.10100000352E+00 0. -1.
</event>
<event>
 5   0  0.8575590E-02  0.5996155E+03  0.7818609E-02  0.9906204E-01
       -2   -1    0    0    0  501  0.00000000000E+00  0.00000000000E+00  0.14458124153E+03  0.14458124155E+03  0.25500000920E-02 0.  1.
        2   -1    0    0  501    0  0.00000000000E+00  0.00000000000E+00 -0.62168981091E+03  0.62168981092E+03  0.25500000920E-02 0. -1.
    10030    2    1    2    0    0  0.00000000000E+00  0.00000000000E+00 -0.47710856938E+03  0.76627105247E+03  0.59961549253E+03 0.  0.
        4    1    3    3  502    0  0.94604446828E+02 -0.11045237857E+03  0.96483128043E+02  0.17452889786E+03  0.12699999809E+01 0.  1.
       -4    1    3    3    0  502 -0.94604446828E+02  0.11045237857E+03 -0.57359169742E+03  0.59174215461E+03  0.12699999809E+01 0. -1.
</event>
<event>
 5   0  0.5166903E-02  0.5900415E+03  0.7818609E-02  0.9926285E-01
       -1   -1    0    0    0  501  0.00000000000E+00  0.00000000000E+00  0.49032085546E+02  0.49032085805E+02  0.50400001928E-02 0.  1.
        1   -1    0    0  501    0  0.00000000000E+00  0.00000000000E+00 -0.17751081485E+04  0.17751081485E+04  0.50400001928E-02 0. -1.
    10030    2    1    2    0    0  0.00000000000E+00  0.00000000000E+00 -0.17260760630E+04  0.18241402343E+04  0.59004154035E+03 0.  0.
        2    1    3    3  502    0  0.23253640080E+03 -0.13092719369E+03 -0.47416453669E+03  0.54410211873E+03  0.25500000920E-02 0.  1.
       -2    1    3    3    0  502 -0.23253640080E+03  0.13092719369E+03 -0.12519115263E+04  0.12800381156E+04  0.25500000920E-02 0. -1.
</event>
<event>
 5   0  0.4987389E-02  0.5940943E+03  0.7818609E-02  0.9917735E-01
       -1   -1    0    0    0  501  0.00000000000E+00  0.00000000000E+00  0.48000444426E+02  0.48000444691E+02  0.50400001928E-02 0.  1.
        1   -1    0    0  501    0  0.00000000000E+00  0.00000000000E+00 -0.18382540781E+04  0.18382540781E+04  0.50400001928E-02 0. -1.
    10030    2    1    2    0    0  0.00000000000E+00  0.00000000000E+00 -0.17902536336E+04  0.18862545227E+04  0.59409431228E+03 0.  0.
        1    1    3    3  502    0  0.78614712349E+02 -0.81948667132E+02 -0.17666140695E+04  0.17702601864E+04  0.50400001928E-02 0. -1.
       -1    1    3    3    0  502 -0.78614712349E+02  0.81948667132E+02 -0.23639564122E+02  0.11599433633E+03  0.50400001928E-02 0.  1.
</event>
<event>
 5   0  0.5166903E-02  0.5967810E+03  0.7818609E-02  0.9912107E-01
        1   -1    0    0  501    0  0.00000000000E+00  0.00000000000E+00  0.15358144406E+04  0.15358144406E+04  0.50400001928E-02 0.  1.
       -1   -1    0    0    0  501  0.00000000000E+00  0.00000000000E+00 -0.57973735993E+02  0.57973736212E+02  0.50400001928E-02 0. -1.
    10030    2    1    2    0    0  0.00000000000E+00  0.00000000000E+00  0.14778407046E+04  0.15937881768E+04  0.59678103554E+03 0.  0.
        2    1    3    3  502    0 -0.90946270137E+02 -0.11550634889E+03  0.45458274531E+02  0.15388110805E+03  0.25500000920E-02 0. -1.
       -2    1    3    3    0  502  0.90946270137E+02  0.11550634889E+03  0.14323824301E+04  0.14399070688E+04  0.25500000920E-02 0.  1.
</event>
<event>
 5   0  0.5190380E-02  0.6037434E+03  0.7818609E-02  0.9897670E-01
        1   -1    0    0  501    0  0.00000000000E+00  0.00000000000E+00  0.13563575786E+04  0.13563575786E+04  0.50400001928E-02 0. -1.
       -1   -1    0    0    0  501  0.00000000000E+00  0.00000000000E+00 -0.67184729747E+02  0.67184729936E+02  0.50400001928E-02 0.  1.
    10030    2    1    2    0    0  0.00000000000E+00  0.00000000000E+00  0.12891728489E+04  0.14235423086E+04  0.60374338092E+03 0.  0.
        5    1    3    3  502    0 -0.92472583936E+02 -0.13835702684E+03  0.12383299212E+04  0.12494706597E+04  0.46999998093E+01 0. -1.
       -5    1    3    3    0  502  0.92472583936E+02  0.13835702684E+03  0.50842927675E+02  0.17407164889E+03  0.46999998093E+01 0.  1.
</event>
<event>
 5   0  0.8575590E-02  0.6013044E+03  0.7818609E-02  0.9902704E-01
       -2   -1    0    0    0  501  0.00000000000E+00  0.00000000000E+00  0.75313117653E+02  0.75313117696E+02  0.25500000920E-02 0. -1.
        2   -1    0    0  501    0  0.00000000000E+00  0.00000000000E+00 -0.12002124278E+04  0.12002124278E+04  0.25500000920E-02 0.  1.
    10030    2    1    2    0    0  0.00000000000E+00  0.00000000000E+00 -0.11248993102E+04  0.12755255455E+04  0.60130438154E+03 0.  0.
        4    1    3    3  502    0 -0.55322646872E+02 -0.18979686808E+02 -0.11880223546E+04  0.11894618749E+04  0.12699999809E+01 0.  1.
       -4    1    3    3    0  502  0.55322646872E+02  0.18979686808E+02  0.63123044447E+02  0.86063670666E+02  0.12699999809E+01 0. -1.
</event>
<event>
 5   0  0.8575590E-02  0.6029297E+03  0.7818609E-02  0.9899346E-01
       -2   -1    0    0    0  501  0.00000000000E+00  0.00000000000E+00  0.10081461172E+03  0.10081461175E+03  0.25500000920E-02 0. -1.
        2   -1    0    0  501    0  0.00000000000E+00  0.00000000000E+00 -0.90146714427E+03  0.90146714428E+03  0.25500000920E-02 0.  1.
    10030    2    1    2    0    0  0.00000000000E+00  0.00000000000E+00 -0.80065253255E+03  0.10022817560E+04  0.60292971446E+03 0.  0.
        4    1    3    3  502    0 -0.97684837355E+02 -0.12379114481E+03 -0.82743401645E+03  0.84232727574E+03  0.12699999809E+01 0.  1.
       -4    1    3    3    0  502  0.97684837355E+02  0.12379114481E+03  0.26781483897E+02  0.15995448028E+03  0.12699999809E+01 0. -1.
</event>
<event>
 5   0  0.8817544E-02  0.6031935E+03  0.7818609E-02  0.9898803E-01
        2   -1    0    0  501    0  0.00000000000E+00  0.00000000000E+00  0.19252201267E+04  0.19252201267E+04  0.25500000920E-02 0.  1.
       -2   -1    0    0    0  501  0.00000000000E+00  0.00000000000E+00 -0.47246849423E+02  0.47246849492E+02  0.25500000920E-02 0. -1.
    10030    2    1    2    0    0  0.00000000000E+00  0.00000000000E+00  0.18779732773E+04  0.19724669762E+04  0.60319345323E+03 0.  0.
        5    1    3    3  502    0  0.70672337379E+02  0.19929131860E+03  0.16420596768E+04  0.16556248612E+04  0.46999998093E+01 0.  1.
       -5    1    3    3    0  502 -0.70672337379E+02 -0.19929131860E+03  0.23591360054E+03  0.31684211503E+03  0.46999998093E+01 0. -1.
</event>
<event>
 5   0  0.3437375E-02  0.5988062E+03  0.7818609E-02  0.9907886E-01
       -3   -1    0    0    0  501  0.00000000000E+00  0.00000000000E+00  0.47201608355E+03  0.47201609436E+03  0.10100000352E+00 0.  1.
        3   -1    0    0  501    0  0.00000000000E+00  0.00000000000E+00 -0.18991347086E+03  0.18991349772E+03  0.10100000352E+00 0. -1.
    10030    2    1    2    0    0  0.00000000000E+00  0.00000000000E+00  0.28210261269E+03  0.66192959208E+03  0.59880622975E+03 0.  0.
        4    1    3    3  502    0 -0.12396859229E+02  0.27682043460E+03  0.26639476641E+03  0.38438394816E+03  0.12699999809E+01 0.  1.
       -4    1    3    3    0  502  0.12396859229E+02 -0.27682043460E+03  0.15707846278E+02  0.27754564393E+03  0.12699999809E+01 0. -1.
</event>
<event>
 5   0  0.4881209E-02  0.6094438E+03  0.7818609E-02  0.9886005E-01
       -1   -1    0    0    0  501  0.00000000000E+00  0.00000000000E+00  0.16656884007E+03  0.16656884015E+03  0.50400001928E-02 0.  1.
        1   -1    0    0  501    0  0.00000000000E+00  0.00000000000E+00 -0.55745980182E+03  0.55745980185E+03  0.50400001928E-02 0. -1.
    10030    2    1    2    0    0  0.00000000000E+00  0.00000000000E+00 -0.39089096175E+03  0.72402864200E+03  0.60944378777E+03 0.  0.
        3    1    3    3  502    0  0.29207940282E+03  0.70739960698E+02 -0.13556074757E+03  0.32968355445E+03  0.10100000352E+00 0.  1.
       -3    1    3    3    0  502 -0.29207940282E+03 -0.70739960698E+02 -0.25533021419E+03  0.39434508754E+03  0.10100000352E+00 0. -1.
</event>
<event>
 5   0  0.5166903E-02  0.6062466E+03  0.7818609E-02  0.9892530E-01
       -1   -1    0    0    0  501  0.00000000000E+00  0.00000000000E+00  0.62975470128E+02  0.62975470330E+02  0.50400001928E-02 0. -1.
        1   -1    0    0  501    0  0.00000000000E+00  0.00000000000E+00 -0.14590401546E+04  0.14590401546E+04  0.50400001928E-02 0.  1.
    10030    2    1    2    0    0  0.00000000000E+00  0.00000000000E+00 -0.13960646845E+04  0.15220156249E+04  0.60624661593E+03 0.  0.
        2    1    3    3  502    0 -0.72877466021E+02 -0.90704600425E+02  0.46778139649E+01  0.11644883658E+03  0.25500000920E-02 0. -1.
       -2    1    3    3    0  502  0.72877466021E+02  0.90704600425E+02 -0.14007424984E+04  0.14055667884E+04  0.25500000920E-02 0.  1.
</event>
<event>
 5   0  0.8207443E-02  0.5994811E+03  0.7818609E-02  0.9906483E-01
        2   -1    0    0  501    0  0.00000000000E+00  0.00000000000E+00  0.46088500538E+03  0.46088500539E+03  0.25500000920E-02 0.  1.
       -2   -1    0    0    0  501  0.00000000000E+00  0.00000000000E+00 -0.19493889026E+03  0.19493889028E+03  0.25500000920E-02 0. -1.
    10030    2    1    2    0    0  0.00000000000E+00  0.00000000000E+00  0.26594611512E+03  0.65582389567E+03  0.59948114731E+03 0.  0.
        1    1    3    3  502    0  0.25342889131E+02 -0.18288278974E+03  0.39129282826E+03  0.43266436678E+03  0.50400001928E-02 0.  1.
       -1    1    3    3    0  502 -0.25342889131E+02  0.18288278974E+03 -0.12534671314E+03  0.22315952888E+03  0.50400001928E-02 0. -1.
</event>
<event>
 5   0  0.5166903E-02  0.5978962E+03  0.7818609E-02  0.9909780E-01
        1   -1    0    0  501    0  0.00000000000E+00  0.00000000000E+00  0.14441260559E+04  0.14441260559E+04  0.50400001928E-02 0.  1.
       -1   -1    0    0    0  501  0.00000000000E+00  0.00000000000E+00 -0.61885156672E+02  0.61885156877E+02  0.50400001928E-02 0. -1.
    10030    2    1    2    0    0  0.00000000000E+00  0.00000000000E+00  0.13822408992E+04  0.15060112128E+04  0.59789620298E+03 0.  0.
        2    1    3    3  502    0  0.65743629954E+02 -0.21059907541E+02  0.14237736146E+04  0.14254462636E+04  0.25500000920E-02 0.  1.
       -2    1    3    3    0  502 -0.65743629954E+02  0.21059907541E+02 -0.41532715414E+02  0.80564949211E+02  0.25500000920E-02 0. -1.
</event>
<event>
 5   0  0.8575590E-02  0.5999724E+03  0.7818609E-02  0.9905463E-01
       -2   -1    0    0    0  501  0.00000000000E+00  0.00000000000E+00  0.89573216542E+02  0.89573216579E+02  0.25500000920E-02 0. -1.
        2   -1    0    0  501    0  0.00000000000E+00  0.00000000000E+00 -0.10046723526E+04  0.10046723526E+04  0.25500000920E-02 0.  1.
    10030    2    1    2    0    0  0.00000000000E+00  0.00000000000E+00 -0.91509913610E+03  0.10942455692E+04  0.59997244676E+03 0.  0.
        4    1    3    3  502    0  0.18803049632E+03 -0.23321033988E+03 -0.48624752943E+03  0.57112240627E+03  0.12699999809E+01 0.  1.
       -4    1    3    3    0  502 -0.18803049632E+03  0.23321033988E+03 -0.42885160667E+03  0.52312316295E+03  0.12699999809E+01 0. -1.
</event>
<event>
 5   0  0.5190380E-02  0.5983967E+03  0.7818609E-02  0.9908738E-01
        1   -1    0    0  501    0  0.00000000000E+00  0.00000000000E+00  0.39925962261E+03  0.39925962264E+03  0.50400001928E-02 0. -1.
       -1   -1    0    0    0  501  0.00000000000E+00  0.00000000000E+00 -0.22421414698E+03  0.22421414703E+03  0.50400001928E-02 0.  1.
    10030    2    1    2    0    0  0.00000000000E+00  0.00000000000E+00  0.17504547563E+03  0.62347376967E+03  0.59839671033E+03 0.  0.
        5    1    3    3  502    0 -0.26251930371E+03 -0.14322398488E+03  0.96119012351E+02  0.31415036081E+03  0.46999998093E+01 0.  1.
       -5    1    3    3    0  502  0.26251930371E+03  0.14322398488E+03  0.78926463283E+02  0.30932340886E+03  0.46999998093E+01 0. -1.
</event>
<event>
 5   0  0.8420604E-02  0.6008022E+03  0.7818609E-02  0.9903743E-01
        2   -1    0    0  501    0  0.00000000000E+00  0.00000000000E+00  0.14197859162E+04  0.14197859162E+04  0.25500000920E-02 0.  1.
       -2   -1    0    0    0  501  0.00000000000E+00  0.00000000000E+00 -0.63559459984E+02  0.63559460035E+02  0.25500000920E-02 0. -1.
    10030    2    1    2    0    0  0.00000000000E+00  0.00000000000E+00  0.13562264562E+04  0.14833453762E+04  0.60080221759E+03 0.  0.
        2    1    3    3  502    0 -0.16036429902E+03  0.24138339788E+03  0.87342775095E+03  0.92024925390E+03  0.25500000920E-02 0. -1.
       -2    1    3    3    0  502  0.16036429902E+03 -0.24138339788E+03  0.48279870523E+03  0.56309612230E+03  0.25500000920E-02 0.  1.
</event>
<event>
 5   0  0.5125031E-02  0.6038009E+03  0.7818609E-02  0.9897552E-01
        1   -1    0    0  501    0  0.00000000000E+00  0.00000000000E+00  0.49994782069E+03  0.49994782071E+03  0.50400001928E-02 0.  1.
       -1   -1    0    0    0  501  0.00000000000E+00  0.00000000000E+00 -0.18230680536E+03  0.18230680543E+03  0.50400001928E-02 0. -1.
    10030    2    1    2    0    0  0.00000000000E+00  0.00000000000E+00  0.31764101532E+03  0.68225462615E+03  0.60380092769E+03 0.  0.
        4    1    3    3  502    0  0.11593048627E+03 -0.20174995942E+03 -0.58524555737E+02  0.23993678395E+03  0.12699999809E+01 0. -1.
       -4    1    3    3    0  502 -0.11593048627E+03  0.20174995942E+03  0.37616557106E+03  0.44231784219E+03  0.12699999809E+01 0.  1.
</event>
<event>
 5   0  0.8575590E-02  0.5976270E+03  0.7818609E-02  0.9910342E-01
        2   -1    0    0  501    0  0.00000000000E+00  0.00000000000E+00  0.72685361702E+03  0.72685361703E+03  0.25500000920E-02 0.  1.
       -2   -1    0    0    0  501  0.00000000000E+00  0.00000000000E+00 -0.12284386808E+03  0.12284386810E+03  0.25500000920E-02 0. -1.
    10030    2    1    2    0    0  0.00000000000E+00  0.00000000000E+00  0.60400974894E+03  0.84969748513E+03  0.59762700694E+03 0.  0.
        4    1    3    3  502    0  0.11819800426E+03  0.26812324956E+03  0.21877208473E+03  0.36568248950E+03  0.12699999809E+01 0.  1.
       -4    1    3    3    0  502 -0.11819800426E+03 -0.26812324956E+03  0.38523766421E+03  0.48401499563E+03  0.12699999809E+01 0. -1.
</event>
<event>
 5   0  0.4881209E-02  0.6264811E+03  0.7818609E-02  0.9851940E-01
       -1   -1    0    0    0  501  0.00000000000E+00  0.00000000000E+00  0.84311511239E+02  0.84311511389E+02  0.50400001928E-02 0. -1.
        1   -1    0    0  501    0  0.00000000000E+00  0.00000000000E+00 -0.11637750359E+04  0.11637750359E+04  0.50400001928E-02 0.  1.
    10030    2    1    2    0    0  0.00000000000E+00  0.00000000000E+00 -0.10794635247E+04  0.12480865473E+04  0.62648106794E+03 0.  0.
        3    1    3    3  502    0 -0.12548685288E+03  0.20614981365E+02 -0.11100340582E+04  0.11172947455E+04  0.10100000352E+00 0.  1.
       -3    1    3    3    0  502  0.12548685288E+03 -0.20614981365E+02  0.30570533537E+02  0.13079180183E+03  0.10100000352E+00 0. -1.
</event>
<event>
 5   0  0.8817544E-02  0.6247606E+03  0.7818609E-02  0.9855327E-01
        2   -1    0    0  501    0  0.00000000000E+00  0.00000000000E+00  0.92501541461E+03  0.92501541461E+03  0.25500000920E-02 0. -1.
       -2   -1    0    0    0  501  0.00000000000E+00  0.00000000000E+00 -0.10549170590E+03  0.10549170594E+03  0.25500000920E-02 0.  1.
    10030    2    1    2    0    0  0.00000000000E+00  0.00000000000E+00  0.81952370870E+03  0.10305071205E+04  0.62476060725E+03 0.  0.
        5    1    3    3  502    0 -0.72154278071E+02  0.69180301998E+02  0.89786107609E+03  0.90342058643E+03  0.46999998093E+01 0. -1.
       -5    1    3    3    0  502  0.72154278071E+02 -0.69180301998E+02 -0.78337367382E+02  0.12708653412E+03  0.46999998093E+01 0.  1.
</event>
<event>
 5   0  0.8817544E-02  0.5968611E+03  0.7818609E-02  0.9911940E-01
       -2   -1    0    0    0  501  0.00000000000E+00  0.00000000000E+00  0.25220308742E+03  0.25220308744E+03  0.25500000920E-02 0. -1.
        2   -1    0    0  501    0  0.00000000000E+00  0.00000000000E+00 -0.35313122456E+03  0.35313122457E+03  0.25500000920E-02 0.  1.
    10030    2    1    2    0    0  0.00000000000E+00  0.00000000000E+00 -0.10092813714E+03  0.60533431201E+03  0.59686107297E+03 0.  0.
        5    1    3    3  502    0  0.29045172454E+03 -0.11410382963E+02  0.17919347818E+02  0.29126550457E+03  0.46999998093E+01 0. -1.
       -5    1    3    3    0  502 -0.29045172454E+03  0.11410382963E+02 -0.11884748496E+03  0.31406880744E+03  0.46999998093E+01 0.  1.
</event>
<event>
 5   0  0.8207443E-02  0.6004364E+03  0.7818609E-02  0.9904501E-01
       -2   -1    0    0    0  501  0.00000000000E+00  0.00000000000E+00  0.67989440364E+02  0.67989440412E+02  0.25500000920E-02 0.  1.
        2   -1    0    0  501    0  0.00000000000E+00  0.00000000000E+00 -0.13256611743E+04  0.13256611743E+04  0.25500000920E-02 0. -1.
    10030    2    1    2    0    0  0.00000000000E+00  0.00000000000E+00 -0.12576717339E+04  0.13936506147E+04  0.60043637927E+03 0.  0.
        1    1    3    3  502    0  0.13904255273E+03  0.23824379514E+03 -0.90384043199E+03  0.94499759995E+03  0.50400001928E-02 0. -1.
       -1    1    3    3    0  502 -0.13904255273E+03 -0.23824379514E+03 -0.35383130195E+03  0.44865301477E+03  0.50400001928E-02 0.  1.
</event>
<event>
 5   0  0.5166903E-02  0.5813746E+03  0.7818609E-02  0.9944820E-01
       -1   -1    0    0    0  501  0.00000000000E+00  0.00000000000E+00  0.21394181902E+03  0.21394181908E+03  0.50400001928E-02 0. -1.
        1   -1    0    0  501    0  0.00000000000E+00  0.00000000000E+00 -0.39496298841E+03  0.39496298844E+03  0.50400001928E-02 0.  1.
    10030    2    1    2    0    0  0.00000000000E+00  0.00000000000E+00 -0.18102116939E+03  0.60890480752E+03  0.58137457879E+03 0.  0.
        2    1    3    3  502    0  0.28102401009E+03 -0.91420512339E+01 -0.16776688025E+03  0.32741991000E+03  0.25500000920E-02 0.  1.
       -2    1    3    3    0  502 -0.28102401009E+03  0.91420512339E+01 -0.13254289143E+02  0.28148489753E+03  0.25500000920E-02 0. -1.
</event>
<event>
 5   0  0.4881209E-02  0.6029335E+03  0.7818609E-02  0.9899339E-01
        1   -1    0    0  501    0  0.00000000000E+00  0.00000000000E+00  0.85088446979E+03  0.85088446980E+03  0.50400001928E-02 0. -1.
       -1   -1    0    0    0  501  0.00000000000E+00  0.00000000000E+00 -0.10680911219E+03  0.10680911230E+03  0.50400001928E-02 0.  1.
    10030    2    1    2    0    0  0.00000000000E+00  0.00000000000E+00  0.74407535760E+03  0.95769358211E+03  0.60293354478E+03 0.  0.
        3    1    3    3  502    0 -0.16415287601E+03  0.14531107766E+03  0.70072591184E+03  0.73421951059E+03  0.10100000352E+00 0. -1.
       -3    1    3    3    0  502  0.16415287601E+03 -0.14531107766E+03  0.43349445757E+02  0.22347407152E+03  0.10100000352E+00 0.  1.
</event>
<event>
 5   0  0.4987389E-02  0.6223070E+03  0.7818609E-02  0.9860177E-01
       -1   -1    0    0    0  501  0.00000000000E+00  0.00000000000E+00  0.22536186238E+03  0.22536186244E+03  0.50400001928E-02 0. -1.
        1   -1    0    0  501    0  0.00000000000E+00  0.00000000000E+00 -0.42960469920E+03  0.42960469923E+03  0.50400001928E-02 0.  1.
    10030    2    1    2    0    0  0.00000000000E+00  0.00000000000E+00 -0.20424283682E+03  0.65496656167E+03  0.62230704681E+03 0.  0.
        1    1    3    3  502    0 -0.24828555892E+03 -0.17909033834E+03 -0.16069696563E+03  0.34574930636E+03  0.50400001928E-02 0.  1.
       -1    1    3    3    0  502  0.24828555892E+03  0.17909033834E+03 -0.43545871191E+02  0.30921725531E+03  0.50400001928E-02 0. -1.
</event>
<event>
 5   0  0.8575590E-02  0.6029676E+03  0.7818609E-02  0.9899268E-01
       -2   -1    0    0    0  501  0.00000000000E+00  0.00000000000E+00  0.14014627529E+03  0.14014627531E+03  0.25500000920E-02 0.  1.
        2   -1    0    0  501    0  0.00000000000E+00  0.00000000000E+00 -0.64855431159E+03  0.64855431160E+03  0.25500000920E-02 0. -1.
    10030    2    1    2    0    0  0.00000000000E+00  0.00000000000E+00 -0.50840803631E+03  0.78870058691E+03  0.60296756497E+03 0.  0.
        4    1    3    3  502    0 -0.49099325858E+02 -0.73255986283E+02  0.12289417846E+03  0.15126723150E+03  0.12699999809E+01 0.  1.
       -4    1    3    3    0  502  0.49099325858E+02  0.73255986283E+02 -0.63130221476E+03  0.63743335541E+03  0.12699999809E+01 0. -1.
</event>
<event>
 5   0  0.5190380E-02  0.6067430E+03  0.7818609E-02  0.9891514E-01
        1   -1    0    0  501    0  0.00000000000E+00  0.00000000000E+00  0.70744842828E+03  0.70744842830E+03  0.50400001928E-02 0. -1.
       -1   -1    0    0    0  501  0.00000000000E+00  0.00000000000E+00 -0.13009324428E+03  0.13009324437E+03  0.50400001928E-02 0.  1.
    10030    2    1    2    0    0  0.00000000000E+00  0.00000000000E+00  0.57735518401E+03  0.83754167267E+03  0.60674298098E+03 0.  0.
        5    1    3    3  502    0  0.21490000497E+03 -0.45799135283E+02  0.57734935501E+03  0.61776527958E+03  0.46999998093E+01 0. -1.
       -5    1    3    3    0  502 -0.21490000497E+03  0.45799135283E+02  0.58289939424E-02  0.21977639309E+03  0.46999998093E+01 0.  1.
</event>
<event>
 5   0  0.5125031E-02  0.5973046E+03  0.7818609E-02  0.9911014E-01
       -1   -1    0    0    0  501  0.00000000000E+00  0.00000000000E+00  0.80520822102E+02  0.80520822260E+02  0.50400001928E-02 0.  1.
        1   -1    0    0  501    0  0.00000000000E+00  0.00000000000E+00 -0.11077035630E+04  0.11077035630E+04  0.50400001928E-02 0. -1.
    10030    2    1    2    0    0  0.00000000000E+00  0.00000000000E+00 -0.10271827409E+04  0.11882243852E+04  0.59730461788E+03 0.  0.
        4    1    3    3  502    0  0.25362192260E+03 -0.14877828854E+03 -0.40960293220E+03  0.50421744687E+03  0.12699999809E+01 0.  1.
       -4    1    3    3    0  502 -0.25362192260E+03  0.14877828854E+03 -0.61757980866E+03  0.68400693836E+03  0.12699999809E+01 0. -1.
</event>
<event>
 5   0  0.5166903E-02  0.5727527E+03  0.7818609E-02  0.9963606E-01
        1   -1    0    0  501    0  0.00000000000E+00  0.00000000000E+00  0.71173599148E+03  0.71173599149E+03  0.50400001928E-02 0. -1.
       -1   -1    0    0    0  501  0.00000000000E+00  0.00000000000E+00 -0.11522730381E+03  0.11522730392E+03  0.50400001928E-02 0.  1.
    10030    2    1    2    0    0  0.00000000000E+00  0.00000000000E+00  0.59650868767E+03  0.82696329541E+03  0.57275271932E+03 0.  0.
        2    1    3    3  502    0  0.25311758919E+03  0.45243331135E+02  0.11621625433E+03  0.28217315738E+03  0.25500000920E-02 0.  1.
       -2    1    3    3    0  502 -0.25311758919E+03 -0.45243331135E+02  0.48029243334E+03  0.54479013804E+03  0.25500000920E-02 0. -1.
</event>
<event>
 5   0  0.8699746E-02  0.5979713E+03  0.7818609E-02  0.9909624E-01
       -2   -1    0    0    0  501  0.00000000000E+00  0.00000000000E+00  0.22278164239E+03  0.22278164240E+03  0.25500000920E-02 0. -1.
        2   -1    0    0  501    0  0.00000000000E+00  0.00000000000E+00 -0.40125570343E+03  0.40125570344E+03  0.25500000920E-02 0.  1.
    10030    2    1    2    0    0  0.00000000000E+00  0.00000000000E+00 -0.17847406104E+03  0.62403734584E+03  0.59797125227E+03 0.  0.
        3    1    3    3  502    0 -0.10368643981E+03 -0.17200632240E+03  0.14190207484E+03  0.24591311838E+03  0.10100000352E+00 0. -1.
       -3    1    3    3    0  502  0.10368643981E+03  0.17200632240E+03 -0.32037613588E+03  0.37812422746E+03  0.10100000352E+00 0.  1.
</event>
<event>
 5   0  0.8575590E-02  0.5991516E+03  0.7818609E-02  0.9907168E-01
       -2   -1    0    0    0  501  0.00000000000E+00  0.00000000000E+00  0.10319863410E+03  0.10319863414E+03  0.25500000920E-02 0. -1.
        2   -1    0    0  501    0  0.00000000000E+00  0.00000000000E+00 -0.86963985809E+03  0.86963985809E+03  0.25500000920E-02 0.  1.
    10030    2    1    2    0    0  0.00000000000E+00  0.00000000000E+00 -0.76644122399E+03  0.97283849223E+03  0.59915155189E+03 0.  0.
        4    1    3    3  502    0  0.16606982080E+02 -0.25430903539E+03 -0.63889514642E+03  0.68784990976E+03  0.12699999809E+01 0.  1.
       -4    1    3    3    0  502 -0.16606982080E+02  0.25430903539E+03 -0.12754607757E+03  0.28498858247E+03  0.12699999809E+01 0. -1.
</event>
<event>
 5   0  0.8207443E-02  0.5927676E+03  0.7818609E-02  0.9920526E-01
        2   -1    0    0  501    0  0.00000000000E+00  0.00000000000E+00  0.32177881412E+03  0.32177881413E+03  0.25500000920E-02 0.  1.
       -2   -1    0    0    0  501  0.00000000000E+00  0.00000000000E+00 -0.27299301275E+03  0.27299301276E+03  0.25500000920E-02 0. -1.
    10030    2    1    2    0    0  0.00000000000E+00  0.00000000000E+00  0.48785801373E+02  0.59477182689E+03  0.59276763714E+03 0.  0.
        1    1    3    3  502    0  0.15249754485E+03  0.25039214045E+03  0.68032972711E+02  0.30096546410E+03  0.50400001928E-02 0. -1.
       -1    1    3    3    0  502 -0.15249754485E+03 -0.25039214045E+03 -0.19247171338E+02  0.29380636278E+03  0.50400001928E-02 0.  1.
</event>
<event>
 5   0  0.8699746E-02  0.5964643E+03  0.7818609E-02  0.9912769E-01
       -2   -1    0    0    0  501  0.00000000000E+00  0.00000000000E+00  0.15383218393E+03  0.15383218395E+03  0.25500000920E-02 0. -1.
        2   -1    0    0  501    0  0.00000000000E+00  0.00000000000E+00 -0.57817818741E+03  0.57817818742E+03  0.25500000920E-02 0.  1.
    10030    2    1    2    0    0  0.00000000000E+00  0.00000000000E+00 -0.42434600348E+03  0.73201037137E+03  0.59646429325E+03 0.  0.
        3    1    3    3  502    0  0.11006839827E+03 -0.26231078431E+03 -0.32208140169E+03  0.42971902376E+03  0.10100000352E+00 0.  1.
       -3    1    3    3    0  502 -0.11006839827E+03  0.26231078431E+03 -0.10226460179E+03  0.30229134761E+03  0.10100000352E+00 0. -1.
</event>
<event>
 5   0  0.5190380E-02  0.5868051E+03  0.7818609E-02  0.9933166E-01
        1   -1    0    0  501    0  0.00000000000E+00  0.00000000000E+00  0.20519009432E+03  0.20519009438E+03  0.50400001928E-02 0. -1.
       -1   -1    0    0    0  501  0.00000000000E+00  0.00000000000E+00 -0.41953800109E+03  0.41953800112E+03  0.50400001928E-02 0.  1.
    10030    2    1    2    0    0  0.00000000000E+00  0.00000000000E+00 -0.21434790677E+03  0.62472809550E+03  0.58680505125E+03 0.  0.
        5    1    3    3  502    0  0.61739004016E+02 -0.10753965163E+03  0.17587747012E+03  0.21524742922E+03  0.46999998093E+01 0. -1.
       -5    1    3    3    0  502 -0.61739004016E+02  0.10753965163E+03 -0.39022537689E+03  0.40948066628E+03  0.46999998093E+01 0.  1.
</event>
<event>
 5   0  0.5125031E-02  0.5973372E+03  0.7818609E-02  0.9910946E-01
        1   -1    0    0  501    0  0.00000000000E+00  0.00000000000E+00  0.24584585935E+03  0.24584585940E+03  0.50400001928E-02 0.  1.
       -1   -1    0    0    0  501  0.00000000000E+00  0.00000000000E+00 -0.36284094623E+03  0.36284094626E+03  0.50400001928E-02 0. -1.
    10030    2    1    2    0    0  0.00000000000E+00  0.00000000000E+00 -0.11699508688E+03  0.60868680567E+03  0.59733723895E+03 0.  0.
        4    1    3    3  502    0  0.35379104549E+02  0.20651571616E+03 -0.27538166476E+03  0.34603048457E+03  0.12699999809E+01 0. -1.
       -4    1    3    3    0  502 -0.35379104549E+02 -0.20651571616E+03  0.15838657788E+03  0.26265632110E+03  0.12699999809E+01 0.  1.
</event>
<event>
 5   0  0.3437375E-02  0.6188615E+03  0.7818609E-02  0.9867029E-01
        3   -1    0    0  501    0  0.00000000000E+00  0.00000000000E+00  0.37806724202E+03  0.37806725551E+03  0.10100000352E+00 0. -1.
       -3   -1    0    0    0  501  0.00000000000E+00  0.00000000000E+00 -0.25325489723E+03  0.25325491737E+03  0.10100000352E+00 0.  1.
    10030    2    1    2    0    0  0.00000000000E+00  0.00000000000E+00  0.12481234480E+03  0.63132217288E+03  0.61886150677E+03 0.  0.
        3    1    3    3  502    0  0.10657706026E+03  0.55561527484E+02  0.35328170587E+03  0.37316715693E+03  0.10100000352E+00 0. -1.
       -3    1    3    3    0  502 -0.10657706026E+03 -0.55561527484E+02 -0.22846936107E+03  0.25815501595E+03  0.10100000352E+00 0.  1.
</event>
<event>
 5   0  0.4881209E-02  0.6013266E+03  0.7818609E-02  0.9902658E-01
        1   -1    0    0  501    0  0.00000000000E+00  0.00000000000E+00  0.89490171390E+03  0.89490171391E+03  0.50400001928E-02 0. -1.
       -1   -1    0    0    0  501  0.00000000000E+00  0.00000000000E+00 -0.10101491070E+03  0.10101491083E+03  0.50400001928E-02 0.  1.
    10030    2    1    2    0    0  0.00000000000E+00  0.00000000000E+00  0.79388680319E+03  0.99591662474E+03  0.60132658943E+03 0.  0.
        3    1    3    3  502    0  0.20426297177E+03 -0.21547438843E+03  0.31845575767E+03  0.43539252806E+03  0.10100000352E+00 0.  1.
       -3    1    3    3    0  502 -0.20426297177E+03  0.21547438843E+03  0.47543104553E+03  0.56052409668E+03  0.10100000352E+00 0. -1.
</event>
<event>
 5   0  0.4987389E-02  0.5972619E+03  0.7818609E-02  0.9911103E-01
       -1   -1    0    0    0  501  0.00000000000E+00  0.00000000000E+00  0.15559609047E+03  0.15559609055E+03  0.50400001928E-02 0. -1.
        1   -1    0    0  501    0  0.00000000000E+00  0.00000000000E+00 -0.57315342249E+03  0.57315342251E+03  0.50400001928E-02 0.  1.
    10030    2    1    2    0    0  0.00000000000E+00  0.00000000000E+00 -0.41755733202E+03  0.72874951306E+03  0.59726185820E+03 0.  0.
        1    1    3    3  502    0  0.20108350439E+03 -0.13750701511E+03  0.19851239622E+01  0.24361177247E+03  0.50400001928E-02 0. -1.
       -1    1    3    3    0  502 -0.20108350439E+03  0.13750701511E+03 -0.41954245598E+03  0.48513774059E+03  0.50400001928E-02 0.  1.
</event>
<event>
 5   0  0.8575590E-02  0.6277452E+03  0.7818609E-02  0.9849459E-01
       -2   -1    0    0    0  501  0.00000000000E+00  0.00000000000E+00  0.21633430411E+03  0.21633430413E+03  0.25500000920E-02 0.  1.
        2   -1    0    0  501    0  0.00000000000E+00  0.00000000000E+00 -0.45538776938E+03  0.45538776939E+03  0.25500000920E-02 0. -1.
    10030    2    1    2    0    0  0.00000000000E+00  0.00000000000E+00 -0.23905346527E+03  0.67172207352E+03  0.62774515912E+03 0.  0.
        4    1    3    3  502    0  0.93565313084E+02  0.15557241899E+03  0.15445161376E+03  0.23835720936E+03  0.12699999809E+01 0.  1.
       -4    1    3    3    0  502 -0.93565313084E+02 -0.15557241899E+03 -0.39350507903E+03  0.43336486416E+03  0.12699999809E+01 0. -1.
</event>
<event>
 5   0  0.8207443E-02  0.6013283E+03  0.7818609E-02  0.9902654E-01
       -2   -1    0    0    0  501  0.00000000000E+00  0.00000000000E+00  0.16115015837E+03  0.16115015839E+03  0.25500000920E-02 0.  1.
        2   -1    0    0  501    0  0.00000000000E+00  0.00000000000E+00 -0.56096091702E+03  0.56096091703E+03  0.25500000920E-02 0. -1.
    10030    2    1    2    0    0  0.00000000000E+00  0.00000000000E+00 -0.39981075865E+03  0.72211107541E+03  0.60132833170E+03 0.  0.
        1    1    3    3  502    0  0.23901132489E+03 -0.36757410295E+02 -0.41445781087E+03  0.47984663972E+03  0.50400001928E-02 0. -1.
       -1    1    3    3    0  502 -0.23901132489E+03  0.36757410295E+02  0.14647052214E+02  0.24226443569E+03  0.50400001928E-02 0.  1.
</event>
<event>
 5   0  0.8420604E-02  0.6023216E+03  0.7818609E-02  0.9900601E-01
       -2   -1    0    0    0  501  0.00000000000E+00  0.00000000000E+00  0.82400129221E+02  0.82400129260E+02  0.25500000920E-02 0.  1.
        2   -1    0    0  501    0  0.00000000000E+00  0.00000000000E+00 -0.11006998963E+04  0.11006998963E+04  0.25500000920E-02 0. -1.
    10030    2    1    2    0    0  0.00000000000E+00  0.00000000000E+00 -0.10182997670E+04  0.11831000255E+04  0.60232155436E+03 0.  0.
        2    1    3    3  502    0 -0.22646254755E+03  0.19399879301E+03 -0.59195103069E+03  0.66281735031E+03  0.25500000920E-02 0. -1.
       -2    1    3    3    0  502  0.22646254755E+03 -0.19399879301E+03 -0.42634873635E+03  0.52028267521E+03  0.25500000920E-02 0.  1.
</event>
<event>
 5   0  0.4987389E-02  0.6123104E+03  0.7818609E-02  0.9880190E-01
       -1   -1    0    0    0  501  0.00000000000E+00  0.00000000000E+00  0.14391574630E+04  0.14391574630E+04  0.50400001928E-02 0. -1.
        1   -1    0    0  501    0  0.00000000000E+00  0.00000000000E+00 -0.65129089619E+02  0.65129089814E+02  0.50400001928E-02 0.  1.
    10030    2    1    2    0    0  0.00000000000E+00  0.00000000000E+00  0.13740283734E+04  0.15042865528E+04  0.61231042956E+03 0.  0.
        1    1    3    3  502    0  0.29438327006E+03  0.28100655565E+02  0.49232857232E+03  0.57431574912E+03  0.50400001928E-02 0.  1.
       -1    1    3    3    0  502 -0.29438327006E+03 -0.28100655565E+02  0.88169980107E+03  0.92997080372E+03  0.50400001928E-02 0. -1.
</event>
<event>
 5   0  0.8699746E-02  0.6001703E+03  0.7818609E-02  0.9905053E-01
        2   -1    0    0  501    0  0.00000000000E+00  0.00000000000E+00  0.67133232935E+03  0.67133232936E+03  0.25500000920E-02 0.  1.
       -2   -1    0    0    0  501  0.00000000000E+00  0.00000000000E+00 -0.13413789808E+03  0.13413789811E+03  0.25500000920E-02 0. -1.
    10030    2    1    2    0    0  0.00000000000E+00  0.00000000000E+00  0.53719443127E+03  0.80547022747E+03  0.60017033444E+03 0.  0.
        3    1    3    3  502    0 -0.14178596666E+02 -0.59747492314E+02  0.66281008255E+03  0.66564856431E+03  0.10100000352E+00 0.  1.
       -3    1    3    3    0  502  0.14178596666E+02  0.59747492314E+02 -0.12561565128E+03  0.13982166316E+03  0.10100000352E+00 0. -1.
</event>
<event>
 5   0  0.8817544E-02  0.6106448E+03  0.7818609E-02  0.9883564E-01
       -2   -1    0    0    0  501  0.00000000000E+00  0.00000000000E+00  0.67053553125E+02  0.67053553173E+02  0.25500000920E-02 0.  1.
        2   -1    0    0  501    0  0.00000000000E+00  0.00000000000E+00 -0.13902583735E+04  0.13902583735E+04  0.25500000920E-02 0. -1.
    10030    2    1    2    0    0  0.00000000000E+00  0.00000000000E+00 -0.13232048204E+04  0.14573119267E+04  0.61064478625E+03 0.  0.
        5    1    3    3  502    0  0.15502537002E+03  0.26219153496E+03 -0.61255347085E+03  0.68412068453E+03  0.46999998093E+01 0. -1.
       -5    1    3    3    0  502 -0.15502537002E+03 -0.26219153496E+03 -0.71065134954E+03  0.77319124216E+03  0.46999998093E+01 0.  1.
</event>
<event>
 5   0  0.8207443E-02  0.6060525E+03  0.7818609E-02  0.9892928E-01
        2   -1    0    0  501    0  0.00000000000E+00  0.00000000000E+00  0.17827758705E+04  0.17827758705E+04  0.25500000920E-02 0.  1.
       -2   -1    0    0    0  501  0.00000000000E+00  0.00000000000E+00 -0.51506699410E+02  0.51506699473E+02  0.25500000920E-02 0. -1.
    10030    2    1    2    0    0  0.00000000000E+00  0.00000000000E+00  0.17312691711E+04  0.18342825700E+04  0.60605247607E+03 0.  0.
        1    1    3    3  502    0 -0.12420614606E+03 -0.25795050674E+03  0.56511111527E+03  0.63349522751E+03  0.50400001928E-02 0. -1.
       -1    1    3    3    0  502  0.12420614606E+03  0.25795050674E+03  0.11661580559E+04  0.12007873425E+04  0.50400001928E-02 0.  1.
</event>
<event>
 5   0  0.4987389E-02  0.6062716E+03  0.7818609E-02  0.9892479E-01
       -1   -1    0    0    0  501  0.00000000000E+00  0.00000000000E+00  0.11226303329E+03  0.11226303340E+03  0.50400001928E-02 0. -1.
        1   -1    0    0  501    0  0.00000000000E+00  0.00000000000E+00 -0.81853577551E+03  0.81853577553E+03  0.50400001928E-02 0.  1.
    10030    2    1    2    0    0  0.00000000000E+00  0.00000000000E+00 -0.70627274222E+03  0.93079880893E+03  0.60627158625E+03 0.  0.
        1    1    3    3  502    0 -0.86235394690E+02  0.28954442397E+03 -0.39132737316E+03  0.49437802314E+03  0.50400001928E-02 0. -1.
       -1    1    3    3    0  502  0.86235394690E+02 -0.28954442397E+03 -0.31494536907E+03  0.43642078579E+03  0.50400001928E-02 0.  1.
</event>
<event>
 5   0  0.5125031E-02  0.5931725E+03  0.7818609E-02  0.9919673E-01
        1   -1    0    0  501    0  0.00000000000E+00  0.00000000000E+00  0.53156245847E+03  0.53156245850E+03  0.50400001928E-02 0.  1.
       -1   -1    0    0    0  501  0.00000000000E+00  0.00000000000E+00 -0.16548083503E+03  0.16548083511E+03  0.50400001928E-02 0. -1.
    10030    2    1    2    0    0  0.00000000000E+00  0.00000000000E+00  0.36608162344E+03  0.69704329361E+03  0.59317248599E+03 0.  0.
        4    1    3    3  502    0 -0.18144828982E+03 -0.21825901958E+03  0.81945059192E+02  0.29542695735E+03  0.12699999809E+01 0.  1.
       -4    1    3    3    0  502  0.18144828982E+03  0.21825901958E+03  0.28413656425E+03  0.40161633625E+03  0.12699999809E+01 0. -1.
</event>
<event>
 5   0  0.4881209E-02  0.5998439E+03  0.7818609E-02  0.9905730E-01
       -1   -1    0    0    0  501  0.00000000000E+00  0.00000000000E+00  0.99001270280E+02  0.99001270409E+02  0.50400001928E-02 0.  1.
        1   -1    0    0  501    0  0.00000000000E+00  0.00000000000E+00 -0.90860642805E+03  0.90860642806E+03  0.50400001928E-02 0. -1.
    10030    2    1    2    0    0  0.00000000000E+00  0.00000000000E+00 -0.80960515777E+03  0.10076076985E+04  0.59984394848E+03 0.  0.
        3    1    3    3  502    0 -0.27556210895E+03 -0.94835117739E+02 -0.52387781293E+03  0.59947989835E+03  0.10100000352E+00 0. -1.
       -3    1    3    3    0  502  0.27556210895E+03  0.94835117739E+02 -0.28572734484E+03  0.40812780012E+03  0.10100000352E+00 0.  1.
</event>
<event>
 5   0  0.8575590E-02  0.6150189E+03  0.7818609E-02  0.9874727E-01
       -2   -1    0    0    0  501  0.00000000000E+00  0.00000000000E+00  0.72138235442E+02  0.72138235487E+02  0.25500000920E-02 0. -1.
        2   -1    0    0  501    0  0.00000000000E+00  0.00000000000E+00 -0.13108452727E+04  0.13108452727E+04  0.25500000920E-02 0.  1.
    10030    2    1    2    0    0  0.00000000000E+00  0.00000000000E+00 -0.12387070372E+04  0.13829835082E+04  0.61501891009E+03 0.  0.
        4    1    3    3  502    0 -0.20583780783E+02  0.28127049228E+03 -0.89497721481E+03  0.93836166258E+03  0.12699999809E+01 0.  1.
       -4    1    3    3    0  502  0.20583780783E+02 -0.28127049228E+03 -0.34372982243E+03  0.44462184560E+03  0.12699999809E+01 0. -1.
</event>
<event>
 5   0  0.8817544E-02  0.5968261E+03  0.7818609E-02  0.9912013E-01
       -2   -1    0    0    0  501  0.00000000000E+00  0.00000000000E+00  0.42688808956E+02  0.42688809032E+02  0.25500000920E-02 0.  1.
        2   -1    0    0  501    0  0.00000000000E+00  0.00000000000E+00 -0.20860352978E+04  0.20860352978E+04  0.25500000920E-02 0. -1.
    10030    2    1    2    0    0  0.00000000000E+00  0.00000000000E+00 -0.20433464889E+04  0.21287241068E+04  0.59682614684E+03 0.  0.
        5    1    3    3  502    0  0.88128868766E+02 -0.26805701219E+03 -0.13676105603E+04  0.13964247183E+04  0.46999998093E+01 0. -1.
       -5    1    3    3    0  502 -0.88128868766E+02  0.26805701219E+03 -0.67573592857E+03  0.73229938854E+03  0.46999998093E+01 0.  1.
</event>
<event>
 5   0  0.8420604E-02  0.5844072E+03  0.7818609E-02  0.9938295E-01
       -2   -1    0    0    0  501  0.00000000000E+00  0.00000000000E+00  0.41240496231E+03  0.41240496232E+03  0.25500000920E-02 0.  1.
        2   -1    0    0  501    0  0.00000000000E+00  0.00000000000E+00 -0.20703664276E+03  0.20703664278E+03  0.25500000920E-02 0. -1.
    10030    2    1    2    0    0  0.00000000000E+00  0.00000000000E+00  0.20536831955E+03  0.61944160510E+03  0.58440718293E+03 0.  0.
        2    1    3    3  502    0 -0.26572835292E+02  0.23220410177E+03 -0.83209435178E+02  0.24809004527E+03  0.25500000920E-02 0. -1.
       -2    1    3    3    0  502  0.26572835292E+02 -0.23220410177E+03  0.28857775473E+03  0.37135155983E+03  0.25500000920E-02 0.  1.
</event>
<event>
 5   0  0.8699746E-02  0.6024696E+03  0.7818609E-02  0.9900296E-01
        2   -1    0    0  501    0  0.00000000000E+00  0.00000000000E+00  0.79644568907E+03  0.79644568908E+03  0.25500000920E-02 0. -1.
       -2   -1    0    0    0  501  0.00000000000E+00  0.00000000000E+00 -0.11393419633E+03  0.11393419636E+03  0.25500000920E-02 0.  1.
    10030    2    1    2    0    0  0.00000000000E+00  0.00000000000E+00  0.68251149274E+03  0.91037988544E+03  0.60246958271E+03 0.  0.
        3    1    3    3  502    0  0.75562463612E+02  0.21148211914E+03  0.64463315905E+03  0.68263188658E+03  0.10100000352E+00 0. -1.
       -3    1    3    3    0  502 -0.75562463612E+02 -0.21148211914E+03  0.37878333687E+02  0.22774799886E+03  0.10100000352E+00 0.  1.
</event>
<event>
 5   0  0.8420604E-02  0.6001618E+03  0.7818609E-02  0.9905071E-01
        2   -1    0    0  501    0  0.00000000000E+00  0.00000000000E+00  0.45312992253E+03  0.45312992254E+03  0.25500000920E-02 0.  1.
       -2   -1    0    0    0  501  0.00000000000E+00  0.00000000000E+00 -0.19872564459E+03  0.19872564461E+03  0.25500000920E-02 0. -1.
    10030    2    1    2    0    0  0.00000000000E+00  0.00000000000E+00  0.25440427794E+03  0.65185556715E+03  0.60016176469E+03 0.  0.
        2    1    3    3  502    0 -0.22192219409E+03  0.19182484561E+03  0.58489265762E+02  0.29911072505E+03  0.25500000920E-02 0.  1.
       -2    1    3    3    0  502  0.22192219409E+03 -0.19182484561E+03  0.19591501218E+03  0.35274484210E+03  0.25500000920E-02 0. -1.
</event>
<event>
 5   0  0.8699746E-02  0.6031029E+03  0.7818609E-02  0.9898989E-01
       -2   -1    0    0    0  501  0.00000000000E+00  0.00000000000E+00  0.10425751068E+03  0.10425751071E+03  0.25500000920E-02 0.  1.
        2   -1    0    0  501    0  0.00000000000E+00  0.00000000000E+00 -0.87219868200E+03  0.87219868200E+03  0.25500000920E-02 0. -1.
    10030    2    1    2    0    0  0.00000000000E+00  0.00000000000E+00 -0.76794117132E+03  0.97645619271E+03  0.60310285498E+03 0.  0.
        3    1    3    3  502    0 -0.47762632970E+01  0.17737117256E+03  0.10792897226E+02  0.17776344500E+03  0.10100000352E+00 0.  1.
       -3    1    3    3    0  502  0.47762632970E+01 -0.17737117256E+03 -0.77873406854E+03  0.79869274772E+03  0.10100000352E+00 0. -1.
</event>
<event>
 5   0  0.8699746E-02  0.5825699E+03  0.7818609E-02  0.9942243E-01
       -2   -1    0    0    0  501  0.00000000000E+00  0.00000000000E+00  0.85124195284E+02  0.85124195322E+02  0.25500000920E-02 0. -1.
        2   -1    0    0  501    0  0.00000000000E+00  0.00000000000E+00 -0.99674257900E+03  0.99674257900E+03  0.25500000920E-02 0.  1.
    10030    2    1    2    0    0  0.00000000000E+00  0.00000000000E+00 -0.91161838372E+03  0.10818667743E+04  0.58256985835E+03 0.  0.
        3    1    3    3  502    0  0.26270904536E+03  0.75558956968E+02 -0.64264173701E+03  0.69836495533E+03  0.10100000352E+00 0.  1.
       -3    1    3    3    0  502 -0.26270904536E+03 -0.75558956968E+02 -0.26897664671E+03  0.38350181899E+03  0.10100000352E+00 0. -1.
</event>
<event>
 5   0  0.8575590E-02  0.5871307E+03  0.7818609E-02  0.9932471E-01
       -2   -1    0    0    0  501  0.00000000000E+00  0.00000000000E+00  0.33062225466E+03  0.33062225467E+03  0.25500000920E-02 0.  1.
        2   -1    0    0  501    0  0.00000000000E+00  0.00000000000E+00 -0.26066185132E+03  0.26066185133E+03  0.25500000920E-02 0. -1.
    10030    2    1    2    0    0  0.00000000000E+00  0.00000000000E+00  0.69960403342E+02  0.59128410600E+03  0.58713068049E+03 0.  0.
        4    1    3    3  502    0 -0.22049933001E+03  0.40414783022E+02 -0.15590135595E+03  0.27305705430E+03  0.12699999809E+01 0. -1.
       -4    1    3    3    0  502  0.22049933001E+03 -0.40414783022E+02  0.22586175929E+03  0.31822705169E+03  0.12699999809E+01 0.  1.
</event>
<event>
 5   0  0.4881209E-02  0.6019575E+03  0.7818609E-02  0.9901353E-01
       -1   -1    0    0    0  501  0.00000000000E+00  0.00000000000E+00  0.44802122332E+03  0.44802122335E+03  0.50400001928E-02 0.  1.
        1   -1    0    0  501    0  0.00000000000E+00  0.00000000000E+00 -0.20219623088E+03  0.20219623094E+03  0.50400001928E-02 0. -1.
    10030    2    1    2    0    0  0.00000000000E+00  0.00000000000E+00  0.24582499244E+03  0.65021745430E+03  0.60195748268E+03 0.  0.
        3    1    3    3  502    0  0.92596630948E+02 -0.10049865366E+03 -0.16675499749E+03  0.21559534976E+03  0.10100000352E+00 0. -1.
       -3    1    3    3    0  502 -0.92596630948E+02  0.10049865366E+03  0.41257998993E+03  0.43462210453E+03  0.10100000352E+00 0.  1.
</event>
<event>
 5   0  0.5166903E-02  0.5303553E+03  0.7818609E-02  0.1006146E+00
        1   -1    0    0  501    0  0.00000000000E+00  0.00000000000E+00  0.13089754921E+03  0.13089754931E+03  0.50400001928E-02 0.  1.
       -1   -1    0    0    0  501  0.00000000000E+00  0.00000000000E+00 -0.53720778267E+03  0.53720778269E+03  0.50400001928E-02 0. -1.
    10030    2    1    2    0    0  0.00000000000E+00  0.00000000000E+00 -0.40631023346E+03  0.66810533200E+03  0.53035528548E+03 0.  0.
        2    1    3    3  502    0 -0.10590699224E+03 -0.83285567094E+02 -0.49087739660E+03  0.50903182139E+03  0.25500000920E-02 0. -1.
       -2    1    3    3    0  502  0.10590699224E+03  0.83285567094E+02  0.84567163136E+02  0.15907351061E+03  0.25500000920E-02 0.  1.
</event>
<event>
 5   0  0.3437375E-02  0.5987589E+03  0.7818609E-02  0.9907984E-01
        3   -1    0    0  501    0  0.00000000000E+00  0.00000000000E+00  0.40824344857E+03  0.40824346106E+03  0.10100000352E+00 0. -1.
       -3   -1    0    0    0  501  0.00000000000E+00  0.00000000000E+00 -0.21954557978E+03  0.21954560301E+03  0.10100000352E+00 0.  1.
    10030    2    1    2    0    0  0.00000000000E+00  0.00000000000E+00  0.18869786879E+03  0.62778906407E+03  0.59875890247E+03 0.  0.
        5    1    3    3  502    0  0.85220805116E+02  0.13808494477E+03  0.35809198480E+03  0.39316917119E+03  0.46999998093E+01 0. -1.
       -5    1    3    3    0  502 -0.85220805116E+02 -0.13808494477E+03 -0.16939411601E+03  0.23461989288E+03  0.46999998093E+01 0.  1.
</event>
<event>
 5   0  0.3437375E-02  0.6127257E+03  0.7818609E-02  0.9879350E-01
       -3   -1    0    0    0  501  0.00000000000E+00  0.00000000000E+00  0.21644622063E+03  0.21644624419E+03  0.10100000352E+00 0.  1.
        3   -1    0    0  501    0  0.00000000000E+00  0.00000000000E+00 -0.43363285469E+03  0.43363286645E+03  0.10100000352E+00 0. -1.
    10030    2    1    2    0    0  0.00000000000E+00  0.00000000000E+00 -0.21718663406E+03  0.65007911064E+03  0.61272572664E+03 0.  0.
        5    1    3    3  502    0 -0.73671611027E+01 -0.17550782995E+03  0.15766147070E+03  0.23608579538E+03  0.46999998093E+01 0.  1.
       -5    1    3    3    0  502  0.73671611027E+01  0.17550782995E+03 -0.37484810477E+03  0.41399331526E+03  0.46999998093E+01 0. -1.
</event>
<event>
 5   0  0.5166903E-02  0.6060035E+03  0.7818609E-02  0.9893028E-01
       -1   -1    0    0    0  501  0.00000000000E+00  0.00000000000E+00  0.99275420820E+02  0.99275420948E+02  0.50400001928E-02 0. -1.
        1   -1    0    0  501    0  0.00000000000E+00  0.00000000000E+00 -0.92480159343E+03  0.92480159345E+03  0.50400001928E-02 0.  1.
    10030    2    1    2    0    0  0.00000000000E+00  0.00000000000E+00 -0.82552617261E+03  0.10240770144E+04  0.60600352288E+03 0.  0.
        2    1    3    3  502    0  0.29982705515E+03 -0.19843429880E+02 -0.34687826596E+03  0.45892761533E+03  0.25500000920E-02 0. -1.
       -2    1    3    3    0  502 -0.29982705515E+03  0.19843429880E+02 -0.47864790665E+03  0.56514939906E+03  0.25500000920E-02 0.  1.
</event>
<event>
 5   0  0.4881209E-02  0.6018381E+03  0.7818609E-02  0.9901600E-01
        1   -1    0    0  501    0  0.00000000000E+00  0.00000000000E+00  0.82546272011E+03  0.82546272012E+03  0.50400001928E-02 0. -1.
       -1   -1    0    0    0  501  0.00000000000E+00  0.00000000000E+00 -0.10969879068E+03  0.10969879080E+03  0.50400001928E-02 0.  1.
    10030    2    1    2    0    0  0.00000000000E+00  0.00000000000E+00  0.71576392943E+03  0.93516151092E+03  0.60183805865E+03 0.  0.
        3    1    3    3  502    0 -0.21524556409E+03  0.10821628475E+03  0.77712347283E+02  0.25314153407E+03  0.10100000352E+00 0.  1.
       -3    1    3    3    0  502  0.21524556409E+03 -0.10821628475E+03  0.63805158214E+03  0.68201997685E+03  0.10100000352E+00 0. -1.
</event>
<event>
 5   0  0.8207443E-02  0.5934950E+03  0.7818609E-02  0.9918995E-01
       -2   -1    0    0    0  501  0.00000000000E+00  0.00000000000E+00  0.34648860205E+02  0.34648860299E+02  0.25500000920E-02 0.  1.
        2   -1    0    0  501    0  0.00000000000E+00  0.00000000000E+00 -0.25414708535E+04  0.25414708536E+04  0.25500000920E-02 0. -1.
    10030    2    1    2    0    0  0.00000000000E+00  0.00000000000E+00 -0.25068219933E+04  0.25761197138E+04  0.59349496524E+03 0.  0.
        1    1    3    3  502    0  0.28551995424E+03  0.71657928707E+02 -0.10908521675E+04  0.11298738665E+04  0.50400001928E-02 0.  1.
       -1    1    3    3    0  502 -0.28551995424E+03 -0.71657928707E+02 -0.14159698259E+04  0.14462458473E+04  0.50400001928E-02 0. -1.
</event>
<event>
 5   0  0.4881209E-02  0.4511491E+03  0.7818609E-02  0.1027380E+00
        1   -1    0    0  501    0  0.00000000000E+00  0.00000000000E+00  0.96225575067E+03  0.96225575068E+03  0.50400001928E-02 0.  1.
       -1   -1    0    0    0  501  0.00000000000E+00  0.00000000000E+00 -0.52879778535E+02  0.52879778775E+02  0.50400001928E-02 0. -1.
    10030    2    1    2    0    0  0.00000000000E+00  0.00000000000E+00  0.90937597213E+03  0.10151355295E+04  0.45114907123E+03 0.  0.
        3    1    3    3  502    0 -0.14130695294E+03 -0.89385857454E+02  0.79538760774E+03  0.81277238094E+03  0.10100000352E+00 0.  1.
       -3    1    3    3    0  502  0.14130695294E+03  0.89385857454E+02  0.11398836439E+03  0.20236314852E+03  0.10100000352E+00 0. -1.
</event>
<event>
 5   0  0.8699746E-02  0.5985085E+03  0.7818609E-02  0.9908505E-01
        2   -1    0    0  501    0  0.00000000000E+00  0.00000000000E+00  0.94538186595E+03  0.94538186595E+03  0.25500000920E-02 0. -1.
       -2   -1    0    0    0  501  0.00000000000E+00  0.00000000000E+00 -0.94726902781E+02  0.94726902816E+02  0.25500000920E-02 0.  1.
    10030    2    1    2    0    0  0.00000000000E+00  0.00000000000E+00  0.85065496317E+03  0.10401087688E+04  0.59850846653E+03 0.  0.
        3    1    3    3  502    0 -0.15900608794E+03  0.18340687129E+03  0.72948365008E+03  0.76880909358E+03  0.10100000352E+00 0. -1.
       -3    1    3    3    0  502  0.15900608794E+03 -0.18340687129E+03  0.12117131309E+03  0.27129967519E+03  0.10100000352E+00 0.  1.
</event>
<event>
 5   0  0.4987389E-02  0.5979600E+03  0.7818609E-02  0.9909647E-01
        1   -1    0    0  501    0  0.00000000000E+00  0.00000000000E+00  0.29630763776E+03  0.29630763781E+03  0.50400001928E-02 0.  1.
       -1   -1    0    0    0  501  0.00000000000E+00  0.00000000000E+00 -0.30167646951E+03  0.30167646956E+03  0.50400001928E-02 0. -1.
    10030    2    1    2    0    0  0.00000000000E+00  0.00000000000E+00 -0.53688317487E+01  0.59798410736E+03  0.59796000561E+03 0.  0.
        1    1    3    3  502    0  0.56527496571E+02  0.16170765303E+03  0.24236488447E+03  0.29679194761E+03  0.50400001928E-02 0.  1.
       -1    1    3    3    0  502 -0.56527496571E+02 -0.16170765303E+03 -0.24773371622E+03  0.30119215975E+03  0.50400001928E-02 0. -1.
</event>
<event>
 5   0  0.8575590E-02  0.5950827E+03  0.7818609E-02  0.9915661E-01
       -2   -1    0    0    0  501  0.00000000000E+00  0.00000000000E+00  0.10449418453E+03  0.10449418456E+03  0.25500000920E-02 0. -1.
        2   -1    0    0  501    0  0.00000000000E+00  0.00000000000E+00 -0.84723243925E+03  0.84723243926E+03  0.25500000920E-02 0.  1.
    10030    2    1    2    0    0  0.00000000000E+00  0.00000000000E+00 -0.74273825472E+03  0.95172662382E+03  0.59508272658E+03 0.  0.
        4    1    3    3  502    0 -0.13656520287E+03 -0.52780946104E+02 -0.78563071762E+03  0.79915775681E+03  0.12699999809E+01 0.  1.
       -4    1    3    3    0  502  0.13656520287E+03  0.52780946104E+02  0.42892462900E+02  0.15256886701E+03  0.12699999809E+01 0. -1.
</event>
<event>
 5   0  0.8575590E-02  0.5983179E+03  0.7818609E-02  0.9908902E-01
       -2   -1    0    0    0  501  0.00000000000E+00  0.00000000000E+00  0.16126596773E+03  0.16126596775E+03  0.25500000920E-02 0.  1.
        2   -1    0    0  501    0  0.00000000000E+00  0.00000000000E+00 -0.55495952217E+03  0.55495952217E+03  0.25500000920E-02 0. -1.
    10030    2    1    2    0    0  0.00000000000E+00  0.00000000000E+00 -0.39369355444E+03  0.71622548993E+03  0.59831792353E+03 0.  0.
        4    1    3    3  502    0 -0.59418697192E+02  0.32101467095E+02  0.15201788358E+03  0.16634943821E+03  0.12699999809E+01 0.  1.
       -4    1    3    3    0  502  0.59418697192E+02 -0.32101467095E+02 -0.54571143802E+03  0.54987605171E+03  0.12699999809E+01 0. -1.
</event>
<event>
 5   0  0.4881209E-02  0.5924094E+03  0.7818609E-02  0.9921280E-01
       -1   -1    0    0    0  501  0.00000000000E+00  0.00000000000E+00  0.90359741063E+02  0.90359741203E+02  0.50400001928E-02 0. -1.
        1   -1    0    0  501    0  0.00000000000E+00  0.00000000000E+00 -0.97097708688E+03  0.97097708690E+03  0.50400001928E-02 0.  1.
    10030    2    1    2    0    0  0.00000000000E+00  0.00000000000E+00 -0.88061734582E+03  0.10613368281E+04  0.59240944702E+03 0.  0.
        3    1    3    3  502    0 -0.19714941035E+03  0.13466568716E+03 -0.12622578933E+03  0.27006609819E+03  0.10100000352E+00 0. -1.
       -3    1    3    3    0  502  0.19714941035E+03 -0.13466568716E+03 -0.75439155650E+03  0.79127072991E+03  0.10100000352E+00 0.  1.
</event>
<event>
 5   0  0.4881209E-02  0.6124629E+03  0.7818609E-02  0.9879882E-01
       -1   -1    0    0    0  501  0.00000000000E+00  0.00000000000E+00  0.26555633650E+03  0.26555633654E+03  0.50400001928E-02 0.  1.
        1   -1    0    0  501    0  0.00000000000E+00  0.00000000000E+00 -0.35313676203E+03  0.35313676207E+03  0.50400001928E-02 0. -1.
    10030    2    1    2    0    0  0.00000000000E+00  0.00000000000E+00 -0.87580425538E+02  0.61869309861E+03  0.61246291262E+03 0.  0.
        3    1    3    3  502    0  0.57990894198E+02  0.29535911093E+03  0.13154721378E+02  0.30128558730E+03  0.10100000352E+00 0.  1.
       -3    1    3    3    0  502 -0.57990894198E+02 -0.29535911093E+03 -0.10073514692E+03  0.31740751132E+03  0.10100000352E+00 0. -1.
</event>
<event>
 5   0  0.5166903E-02  0.5804281E+03  0.7818609E-02  0.9946865E-01
       -1   -1    0    0    0  501  0.00000000000E+00  0.00000000000E+00  0.96542579262E+02  0.96542579393E+02  0.50400001928E-02 0. -1.
        1   -1    0    0  501    0  0.00000000000E+00  0.00000000000E+00 -0.87240459313E+03  0.87240459314E+03  0.50400001928E-02 0.  1.
    10030    2    1    2    0    0  0.00000000000E+00  0.00000000000E+00 -0.77586201387E+03  0.96894717254E+03  0.58042808220E+03 0.  0.
        2    1    3    3  502    0 -0.43176351058E+01 -0.10950368913E+03  0.60673731915E+02  0.12526372842E+03  0.25500000920E-02 0. -1.
       -2    1    3    3    0  502  0.43176351058E+01  0.10950368913E+03 -0.83653574578E+03  0.84368344412E+03  0.25500000920E-02 0.  1.
</event>
<event>
 5   0  0.8575590E-02  0.5968229E+03  0.7818609E-02  0.9912019E-01
       -2   -1    0    0    0  501  0.00000000000E+00  0.00000000000E+00  0.15690943990E+03  0.15690943992E+03  0.25500000920E-02 0.  1.
        2   -1    0    0  501    0  0.00000000000E+00  0.00000000000E+00 -0.56752100892E+03  0.56752100893E+03  0.25500000920E-02 0. -1.
    10030    2    1    2    0    0  0.00000000000E+00  0.00000000000E+00 -0.41061156902E+03  0.72443044885E+03  0.59682293405E+03 0.  0.
        4    1    3    3  502    0 -0.27115058408E+03 -0.11134940061E+03 -0.27317577744E+03  0.40068434776E+03  0.12699999809E+01 0. -1.
       -4    1    3    3    0  502  0.27115058408E+03  0.11134940061E+03 -0.13743579159E+03  0.32374610109E+03  0.12699999809E+01 0.  1.
</event>
<event>
 5   0  0.4881209E-02  0.5899454E+03  0.7818609E-02  0.9926489E-01
       -1   -1    0    0    0  501  0.00000000000E+00  0.00000000000E+00  0.11848525859E+03  0.11848525869E+03  0.50400001928E-02 0. -1.
        1   -1    0    0  501    0  0.00000000000E+00  0.00000000000E+00 -0.73434354482E+03  0.73434354483E+03  0.50400001928E-02 0.  1.
    10030    2    1    2    0    0  0.00000000000E+00  0.00000000000E+00 -0.61585828623E+03  0.85282880353E+03  0.58994536985E+03 0.  0.
        3    1    3    3  502    0 -0.20011754675E+03  0.98606747521E+02 -0.28966240967E+02  0.22496527841E+03  0.10100000352E+00 0. -1.
       -3    1    3    3    0  502  0.20011754675E+03 -0.98606747521E+02 -0.58689204526E+03  0.62786352511E+03  0.10100000352E+00 0.  1.
</event>
<event>
 5   0  0.8420604E-02  0.6008498E+03  0.7818609E-02  0.9903645E-01
       -2   -1    0    0    0  501  0.00000000000E+00  0.00000000000E+00  0.56085355323E+02  0.56085355381E+02  0.25500000920E-02 0.  1.
        2   -1    0    0  501    0  0.00000000000E+00  0.00000000000E+00 -0.16092458636E+04  0.16092458636E+04  0.25500000920E-02 0. -1.
    10030    2    1    2    0    0  0.00000000000E+00  0.00000000000E+00 -0.15531605083E+04  0.16653312190E+04  0.60084981855E+03 0.  0.
        2    1    3    3  502    0 -0.21492623613E+03  0.17779841042E+03 -0.46732878825E+03  0.54424420811E+03  0.25500000920E-02 0.  1.
       -2    1    3    3    0  502  0.21492623613E+03 -0.17779841042E+03 -0.10858317201E+04  0.11210870109E+04  0.25500000920E-02 0. -1.
</event>
<event>
 5   0  0.8575590E-02  0.5975707E+03  0.7818609E-02  0.9910459E-01
        2   -1    0    0  501    0  0.00000000000E+00  0.00000000000E+00  0.28498532464E+03  0.28498532465E+03  0.25500000920E-02 0. -1.
       -2   -1    0    0    0  501  0.00000000000E+00  0.00000000000E+00 -0.31325364327E+03  0.31325364328E+03  0.25500000920E-02 0.  1.
    10030    2    1    2    0    0  0.00000000000E+00  0.00000000000E+00 -0.28268318625E+02  0.59823896793E+03  0.59757071959E+03 0.  0.
        4    1    3    3  502    0 -0.13373401697E+02 -0.16518355620E+03 -0.26302155172E+03  0.31088004870E+03  0.12699999809E+01 0.  1.
       -4    1    3    3    0  502  0.13373401697E+02  0.16518355620E+03  0.23475323310E+03  0.28735891923E+03  0.12699999809E+01 0. -1.
</event>
<event>
 5   0  0.5190380E-02  0.6052381E+03  0.7818609E-02  0.9894598E-01
       -1   -1    0    0    0  501  0.00000000000E+00  0.00000000000E+00  0.12220368563E+03  0.12220368574E+03  0.50400001928E-02 0.  1.
        1   -1    0    0  501    0  0.00000000000E+00  0.00000000000E+00 -0.74939066086E+03  0.74939066087E+03  0.50400001928E-02 0. -1.
    10030    2    1    2    0    0  0.00000000000E+00  0.00000000000E+00 -0.62718697522E+03  0.87159434661E+03  0.60523813756E+03 0.  0.
        5    1    3    3  502    0 -0.69112434591E+02  0.23862216640E+03 -0.56235391697E+03  0.61480166301E+03  0.46999998093E+01 0. -1.
       -5    1    3    3    0  502  0.69112434591E+02 -0.23862216640E+03 -0.64833058258E+02  0.25679268360E+03  0.46999998093E+01 0.  1.
</event>
<event>
 5   0  0.3437375E-02  0.6057895E+03  0.7818609E-02  0.9893467E-01
        4   -1    0    0  501    0  0.00000000000E+00  0.00000000000E+00  0.69755887683E+03  0.69756003293E+03  0.12699999809E+01 0.  1.
       -4   -1    0    0    0  501  0.00000000000E+00  0.00000000000E+00 -0.13151896564E+03  0.13152509732E+03  0.12699999809E+01 0. -1.
    10030    2    1    2    0    0  0.00000000000E+00  0.00000000000E+00  0.56603991118E+03  0.82908513024E+03  0.60578954443E+03 0.  0.
        4    1    3    3  502    0 -0.16111874441E+03 -0.22487192511E+03  0.45184693068E+03  0.52980552486E+03  0.12699999809E+01 0.  1.
       -4    1    3    3    0  502  0.16111874441E+03  0.22487192511E+03  0.11419298050E+03  0.29927960539E+03  0.12699999809E+01 0. -1.
</event>
<event>
 5   0  0.8420604E-02  0.5916305E+03  0.7818609E-02  0.9922924E-01
       -2   -1    0    0    0  501  0.00000000000E+00  0.00000000000E+00  0.40058135613E+03  0.40058135614E+03  0.25500000920E-02 0. -1.
        2   -1    0    0  501    0  0.00000000000E+00  0.00000000000E+00 -0.21844918068E+03  0.21844918069E+03  0.25500000920E-02 0.  1.
    10030    2    1    2    0    0  0.00000000000E+00  0.00000000000E+00  0.18213217545E+03  0.61903053683E+03  0.59163052338E+03 0.  0.
        2    1    3    3  502    0  0.18422195072E+03  0.23081625000E+03  0.10896998262E+03  0.31478298161E+03  0.25500000920E-02 0. -1.
       -2    1    3    3    0  502 -0.18422195072E+03 -0.23081625000E+03  0.73162192837E+02  0.30424755522E+03  0.25500000920E-02 0.  1.
</event>
<event>
 5   0  0.8699746E-02  0.6429136E+03  0.7818609E-02  0.9820168E-01
       -2   -1    0    0    0  501  0.00000000000E+00  0.00000000000E+00  0.61934196849E+03  0.61934196849E+03  0.25500000920E-02 0. -1.
        2   -1    0    0  501    0  0.00000000000E+00  0.00000000000E+00 -0.16684558561E+03  0.16684558563E+03  0.25500000920E-02 0.  1.
    10030    2    1    2    0    0  0.00000000000E+00  0.00000000000E+00  0.45249638288E+03  0.78618755412E+03  0.64291359741E+03 0.  0.
        3    1    3    3  502    0 -0.20826061715E+03  0.11449354073E+03 -0.38445272837E+02  0.24074738779E+03  0.10100000352E+00 0.  1.
       -3    1    3    3    0  502  0.20826061715E+03 -0.11449354073E+03  0.49094165572E+03  0.54544016633E+03  0.10100000352E+00 0. -1.
</event>
<event>
 5   0  0.8817544E-02  0.6033531E+03  0.7818609E-02  0.9898474E-01
       -2   -1    0    0    0  501  0.00000000000E+00  0.00000000000E+00  0.12389024887E+03  0.12389024890E+03  0.25500000920E-02 0.  1.
        2   -1    0    0  501    0  0.00000000000E+00  0.00000000000E+00 -0.73459153840E+03  0.73459153841E+03  0.25500000920E-02 0. -1.
    10030    2    1    2    0    0  0.00000000000E+00  0.00000000000E+00 -0.61070128953E+03  0.85848178731E+03  0.60335305925E+03 0.  0.
        5    1    3    3  502    0 -0.64797796381E+02 -0.10446993618E+03 -0.69727821779E+03  0.70804782676E+03  0.46999998093E+01 0. -1.
       -5    1    3    3    0  502  0.64797796381E+02  0.10446993618E+03  0.86576928255E+02  0.15043396055E+03  0.46999998093E+01 0.  1.
</event>
<event>
 5   0  0.5166903E-02  0.5815669E+03  0.7818609E-02  0.9944404E-01
       -1   -1    0    0    0  501  0.00000000000E+00  0.00000000000E+00  0.29377254745E+03  0.29377254750E+03  0.50400001928E-02 0. -1.
        1   -1    0    0  501    0  0.00000000000E+00  0.00000000000E+00 -0.28782480265E+03  0.28782480270E+03  0.50400001928E-02 0.  1.
    10030    2    1    2    0    0  0.00000000000E+00  0.00000000000E+00  0.59477447997E+01  0.58159735019E+03  0.58156693689E+03 0.  0.
        2    1    3    3  502    0 -0.13127167567E+03 -0.15009916303E+01  0.26244942231E+03  0.29345221943E+03  0.25500000920E-02 0. -1.
       -2    1    3    3    0  502  0.13127167567E+03  0.15009916303E+01 -0.25650167751E+03  0.28814513076E+03  0.25500000920E-02 0.  1.
</event>
<event>
 5   0  0.8420604E-02  0.6047422E+03  0.7818609E-02  0.9895616E-01
        2   -1    0    0  501    0  0.00000000000E+00  0.00000000000E+00  0.15426512147E+04  0.15426512147E+04  0.25500000920E-02 0.  1.
       -2   -1    0    0    0  501  0.00000000000E+00  0.00000000000E+00 -0.59266981381E+02  0.59266981436E+02  0.25500000920E-02 0. -1.
    10030    2    1    2    0    0  0.00000000000E+00  0.00000000000E+00  0.14833842333E+04  0.16019181962E+04  0.60474219587E+03 0.  0.
        2    1    3    3  502    0  0.60570253690E+02  0.29341470244E+03  0.84985589171E+03  0.90111929284E+03  0.25500000920E-02 0.  1.
       -2    1    3    3    0  502 -0.60570253690E+02 -0.29341470244E+03  0.63352834163E+03  0.70079890332E+03  0.25500000920E-02 0. -1.
</event>
<event>
 5   0  0.3437375E-02  0.6019831E+03  0.7818609E-02  0.9901300E-01
        4   -1    0    0  501    0  0.00000000000E+00  0.00000000000E+00  0.49083377304E+03  0.49083541606E+03  0.12699999809E+01 0. -1.
       -4   -1    0    0    0  501  0.00000000000E+00  0.00000000000E+00 -0.18457142852E+03  0.18457579778E+03  0.12699999809E+01 0.  1.
    10030    2    1    2    0    0  0.00000000000E+00  0.00000000000E+00  0.30626234452E+03  0.67541121385E+03  0.60198312611E+03 0.  0.
        3    1    3    3  502    0 -0.10544310238E+03  0.17794524049E+03 -0.92202775445E+02  0.22645997097E+03  0.10100000352E+00 0.  1.
       -3    1    3    3    0  502  0.10544310238E+03 -0.17794524049E+03  0.39846511996E+03  0.44895124288E+03  0.10100000352E+00 0. -1.
</event>
<event>
 5   0  0.8817544E-02  0.6052781E+03  0.7818609E-02  0.9894516E-01
        2   -1    0    0  501    0  0.00000000000E+00  0.00000000000E+00  0.10871491096E+04  0.10871491096E+04  0.25500000920E-02 0.  1.
       -2   -1    0    0    0  501  0.00000000000E+00  0.00000000000E+00 -0.84248238429E+02  0.84248238468E+02  0.25500000920E-02 0. -1.
    10030    2    1    2    0    0  0.00000000000E+00  0.00000000000E+00  0.10029008711E+04  0.11713973480E+04  0.60527810935E+03 0.  0.
        5    1    3    3  502    0 -0.22410017467E+02 -0.10462533186E+03  0.10492463130E+04  0.10546983381E+04  0.46999998093E+01 0.  1.
       -5    1    3    3    0  502  0.22410017467E+02  0.10462533186E+03 -0.46345441869E+02  0.11669900998E+03  0.46999998093E+01 0. -1.
</event>
<event>
 5   0  0.5125031E-02  0.5986042E+03  0.7818609E-02  0.9908306E-01
       -1   -1    0    0    0  501  0.00000000000E+00  0.00000000000E+00  0.14214398611E+03  0.14214398620E+03  0.50400001928E-02 0.  1.
        1   -1    0    0  501    0  0.00000000000E+00  0.00000000000E+00 -0.63021831690E+03  0.63021831692E+03  0.50400001928E-02 0. -1.
    10030    2    1    2    0    0  0.00000000000E+00  0.00000000000E+00 -0.48807433079E+03  0.77236230311E+03  0.59860418884E+03 0.  0.
        4    1    3    3  502    0  0.23780723605E+03 -0.13748623298E+03 -0.39738634781E+03  0.48308619118E+03  0.12699999809E+01 0. -1.
       -4    1    3    3    0  502 -0.23780723605E+03  0.13748623298E+03 -0.90687982974E+02  0.28927611193E+03  0.12699999809E+01 0.  1.
</event>
<event>
 5   0  0.5166903E-02  0.5937235E+03  0.7818609E-02  0.9918514E-01
        1   -1    0    0  501    0  0.00000000000E+00  0.00000000000E+00  0.71334722975E+03  0.71334722977E+03  0.50400001928E-02 0.  1.
       -1   -1    0    0    0  501  0.00000000000E+00  0.00000000000E+00 -0.12353998670E+03  0.12353998680E+03  0.50400001928E-02 0. -1.
    10030    2    1    2    0    0  0.00000000000E+00  0.00000000000E+00  0.58980724305E+03  0.83688721657E+03  0.59372352935E+03 0.  0.
        2    1    3    3  502    0 -0.27936817280E+03 -0.45449104682E+02  0.16871314331E+03  0.32950921356E+03  0.25500000920E-02 0.  1.
       -2    1    3    3    0  502  0.27936817280E+03  0.45449104682E+02  0.42109409975E+03  0.50737800301E+03  0.25500000920E-02 0. -1.
</event>
<event>
 5   0  0.4987389E-02  0.6053082E+03  0.7818609E-02  0.9894454E-01
        1   -1    0    0  501    0  0.00000000000E+00  0.00000000000E+00  0.54880660027E+03  0.54880660029E+03  0.50400001928E-02 0.  1.
       -1   -1    0    0    0  501  0.00000000000E+00  0.00000000000E+00 -0.16690668923E+03  0.16690668930E+03  0.50400001928E-02 0. -1.
    10030    2    1    2    0    0  0.00000000000E+00  0.00000000000E+00  0.38189991104E+03  0.71571328959E+03  0.60530816189E+03 0.  0.
        1    1    3    3  502    0 -0.67798176225E+02  0.82890049023E+02  0.52565782347E+03  0.53645456502E+03  0.50400001928E-02 0.  1.
       -1    1    3    3    0  502  0.67798176225E+02 -0.82890049023E+02 -0.14375791243E+03  0.17925872458E+03  0.50400001928E-02 0. -1.
</event>
<event>
 5   0  0.8817544E-02  0.5953964E+03  0.7818609E-02  0.9915003E-01
       -2   -1    0    0    0  501  0.00000000000E+00  0.00000000000E+00  0.26202331442E+03  0.26202331443E+03  0.25500000920E-02 0.  1.
        2   -1    0    0  501    0  0.00000000000E+00  0.00000000000E+00 -0.33823033116E+03  0.33823033117E+03  0.25500000920E-02 0. -1.
    10030    2    1    2    0    0  0.00000000000E+00  0.00000000000E+00 -0.76207016735E+02  0.60025364560E+03  0.59539644747E+03 0.  0.
        5    1    3    3  502    0 -0.23062888565E+03  0.16838496513E+03  0.46599536286E+02  0.28937309163E+03  0.46999998093E+01 0. -1.
       -5    1    3    3    0  502  0.23062888565E+03 -0.16838496513E+03 -0.12280655302E+03  0.31088055398E+03  0.46999998093E+01 0.  1.
</event>
<event>
 5   0  0.5190380E-02  0.6025747E+03  0.7818609E-02  0.9900079E-01
        1   -1    0    0  501    0  0.00000000000E+00  0.00000000000E+00  0.47783741420E+03  0.47783741423E+03  0.50400001928E-02 0. -1.
       -1   -1    0    0    0  501  0.00000000000E+00  0.00000000000E+00 -0.18996850369E+03  0.18996850376E+03  0.50400001928E-02 0.  1.
    10030    2    1    2    0    0  0.00000000000E+00  0.00000000000E+00  0.28786891051E+03  0.66780591798E+03  0.60257467127E+03 0.  0.
        5    1    3    3  502    0  0.24789522168E+03 -0.13001972690E+03  0.26731853404E+03  0.38708972984E+03  0.46999998093E+01 0. -1.
       -5    1    3    3    0  502 -0.24789522168E+03  0.13001972690E+03  0.20550376476E+02  0.28071618814E+03  0.46999998093E+01 0.  1.
</event>
<event>
 5   0  0.4881209E-02  0.5579945E+03  0.7818609E-02  0.9996603E-01
        1   -1    0    0  501    0  0.00000000000E+00  0.00000000000E+00  0.27438650383E+03  0.27438650387E+03  0.50400001928E-02 0.  1.
       -1   -1    0    0    0  501  0.00000000000E+00  0.00000000000E+00 -0.28368543068E+03  0.28368543073E+03  0.50400001928E-02 0. -1.
    10030    2    1    2    0    0  0.00000000000E+00  0.00000000000E+00 -0.92989268541E+01  0.55807193460E+03  0.55799445709E+03 0.  0.
        3    1    3    3  502    0 -0.10147744355E+03  0.23103421435E+03 -0.12368264143E+03  0.28101936898E+03  0.10100000352E+00 0.  1.
       -3    1    3    3    0  502  0.10147744355E+03 -0.23103421435E+03  0.11438371458E+03  0.27705256561E+03  0.10100000352E+00 0. -1.
</event>
<event>
 5   0  0.8207443E-02  0.5877297E+03  0.7818609E-02  0.9931195E-01
        2   -1    0    0  501    0  0.00000000000E+00  0.00000000000E+00  0.44997490790E+03  0.44997490791E+03  0.25500000920E-02 0.  1.
       -2   -1    0    0    0  501  0.00000000000E+00  0.00000000000E+00 -0.19191413407E+03  0.19191413408E+03  0.25500000920E-02 0. -1.
    10030    2    1    2    0    0  0.00000000000E+00  0.00000000000E+00  0.25806077384E+03  0.64188904199E+03  0.58772968211E+03 0.  0.
        1    1    3    3  502    0 -0.22641939732E+03  0.65920583372E+02  0.32053160879E+03  0.39793439039E+03  0.50400001928E-02 0.  1.
       -1    1    3    3    0  502  0.22641939732E+03 -0.65920583372E+02 -0.62470834952E+02  0.24395465161E+03  0.50400001928E-02 0. -1.
</event>
<event>
 5   0  0.4987389E-02  0.5940259E+03  0.7818609E-02  0.9917879E-01
        1   -1    0    0  501    0  0.00000000000E+00  0.00000000000E+00  0.12628706054E+04  0.12628706054E+04  0.50400001928E-02 0. -1.
       -1   -1    0    0    0  501  0.00000000000E+00  0.00000000000E+00 -0.69854093482E+02  0.69854093664E+02  0.50400001928E-02 0.  1.
    10030    2    1    2    0    0  0.00000000000E+00  0.00000000000E+00  0.11930165119E+04  0.13327246991E+04  0.59402586291E+03 0.  0.
        1    1    3    3  502    0 -0.70794733973E+01 -0.44329083154E+02 -0.62199066451E+02  0.76706651925E+02  0.50400001928E-02 0.  1.
       -1    1    3    3    0  502  0.70794733973E+01  0.44329083154E+02  0.12552155784E+04  0.12560180471E+04  0.50400001928E-02 0. -1.
</event>
<event>
 5   0  0.8699746E-02  0.6091010E+03  0.7818609E-02  0.9886702E-01
        2   -1    0    0  501    0  0.00000000000E+00  0.00000000000E+00  0.23319798397E+04  0.23319798397E+04  0.25500000920E-02 0. -1.
       -2   -1    0    0    0  501  0.00000000000E+00  0.00000000000E+00 -0.39773504872E+02  0.39773504954E+02  0.25500000920E-02 0.  1.
    10030    2    1    2    0    0  0.00000000000E+00  0.00000000000E+00  0.22922063348E+04  0.23717533446E+04  0.60910101498E+03 0.  0.
        3    1    3    3  502    0  0.18390211835E+03 -0.20358613787E+03  0.16609722706E+04  0.16834774126E+04  0.10100000352E+00 0. -1.
       -3    1    3    3    0  502 -0.18390211835E+03  0.20358613787E+03  0.63123406418E+03  0.68827593206E+03  0.10100000352E+00 0.  1.
</event>
<event>
 5   0  0.4987389E-02  0.5981259E+03  0.7818609E-02  0.9909302E-01
        1   -1    0    0  501    0  0.00000000000E+00  0.00000000000E+00  0.11534295715E+04  0.11534295715E+04  0.50400001928E-02 0.  1.
       -1   -1    0    0    0  501  0.00000000000E+00  0.00000000000E+00 -0.77541489778E+02  0.77541489942E+02  0.50400001928E-02 0. -1.
    10030    2    1    2    0    0  0.00000000000E+00  0.00000000000E+00  0.10758880817E+04  0.12309710614E+04  0.59812589789E+03 0.  0.
        1    1    3    3  502    0  0.56009791996E+01 -0.79612616050E+02  0.11311083469E+04  0.11339204699E+04  0.50400001928E-02 0.  1.
       -1    1    3    3    0  502 -0.56009791996E+01  0.79612616050E+02 -0.55220265201E+02  0.97050591532E+02  0.50400001928E-02 0. -1.
</event>
<event>
 5   0  0.5125031E-02  0.6024002E+03  0.7818609E-02  0.9900439E-01
        1   -1    0    0  501    0  0.00000000000E+00  0.00000000000E+00  0.25741134804E+03  0.25741134809E+03  0.50400001928E-02 0.  1.
       -1   -1    0    0    0  501  0.00000000000E+00  0.00000000000E+00 -0.35243778670E+03  0.35243778674E+03  0.50400001928E-02 0. -1.
    10030    2    1    2    0    0  0.00000000000E+00  0.00000000000E+00 -0.95026438661E+02  0.60984913483E+03  0.60240015207E+03 0.  0.
        4    1    3    3  502    0  0.29569520425E+03  0.45415889182E+01  0.10321061511E+02  0.29591285382E+03  0.12699999809E+01 0.  1.
       -4    1    3    3    0  502 -0.29569520425E+03 -0.45415889182E+01 -0.10534750017E+03  0.31393628101E+03  0.12699999809E+01 0. -1.
</event>
<event>
 5   0  0.8207443E-02  0.6908853E+03  0.7818609E-02  0.9732948E-01
       -2   -1    0    0    0  501  0.00000000000E+00  0.00000000000E+00  0.12574962713E+03  0.12574962715E+03  0.25500000920E-02 0. -1.
        2   -1    0    0  501    0  0.00000000000E+00  0.00000000000E+00 -0.94895413664E+03  0.94895413665E+03  0.25500000920E-02 0.  1.
    10030    2    1    2    0    0  0.00000000000E+00  0.00000000000E+00 -0.82320450952E+03  0.10747037638E+04  0.69088531279E+03 0.  0.
        1    1    3    3  502    0 -0.20977956412E+03  0.22619895268E+02  0.13865842851E+02  0.21145067228E+03  0.50400001928E-02 0. -1.
       -1    1    3    3    0  502  0.20977956412E+03 -0.22619895268E+02 -0.83707035237E+03  0.86325309152E+03  0.50400001928E-02 0.  1.
</event>
<event>
 5   0  0.4987389E-02  0.5831050E+03  0.7818609E-02  0.9941091E-01
       -1   -1    0    0    0  501  0.00000000000E+00  0.00000000000E+00  0.36222675770E+03  0.36222675774E+03  0.50400001928E-02 0. -1.
        1   -1    0    0  501    0  0.00000000000E+00  0.00000000000E+00 -0.23466754935E+03  0.23466754940E+03  0.50400001928E-02 0.  1.
    10030    2    1    2    0    0  0.00000000000E+00  0.00000000000E+00  0.12755920836E+03  0.59689430714E+03  0.58310501821E+03 0.  0.
        1    1    3    3  502    0  0.27670192399E+03 -0.86968207815E+02  0.33492046403E+02  0.29197455558E+03  0.50400001928E-02 0.  1.
       -1    1    3    3    0  502 -0.27670192399E+03  0.86968207815E+02  0.94067161953E+02  0.30491975156E+03  0.50400001928E-02 0. -1.
</event>
<event>
 5   0  0.4987389E-02  0.5879023E+03  0.7818609E-02  0.9930828E-01
       -1   -1    0    0    0  501  0.00000000000E+00  0.00000000000E+00  0.76017403470E+02  0.76017403637E+02  0.50400001928E-02 0. -1.
        1   -1    0    0  501    0  0.00000000000E+00  0.00000000000E+00 -0.11366775447E+04  0.11366775447E+04  0.50400001928E-02 0.  1.
    10030    2    1    2    0    0  0.00000000000E+00  0.00000000000E+00 -0.10606601413E+04  0.12126949484E+04  0.58790228998E+03 0.  0.
        1    1    3    3  502    0 -0.75804584192E+02 -0.24081535182E+03 -0.84090164717E+03  0.87798288644E+03  0.50400001928E-02 0.  1.
       -1    1    3    3    0  502  0.75804584192E+02  0.24081535182E+03 -0.21975849410E+03  0.33471206194E+03  0.50400001928E-02 0. -1.
</event>
<event>
 5   0  0.8699746E-02  0.5972571E+03  0.7818609E-02  0.9911113E-01
       -2   -1    0    0    0  501  0.00000000000E+00  0.00000000000E+00  0.78816727623E+02  0.78816727664E+02  0.25500000920E-02 0. -1.
        2   -1    0    0  501    0  0.00000000000E+00  0.00000000000E+00 -0.11314732596E+04  0.11314732596E+04  0.25500000920E-02 0.  1.
    10030    2    1    2    0    0  0.00000000000E+00  0.00000000000E+00 -0.10526565320E+04  0.12102899873E+04  0.59725712969E+03 0.  0.
        3    1    3    3  502    0 -0.11374498529E+03 -0.17778698298E+03 -0.95443842763E+03  0.97749621755E+03  0.10100000352E+00 0.  1.
       -3    1    3    3    0  502  0.11374498529E+03  0.17778698298E+03 -0.98218104340E+02  0.23279376971E+03  0.10100000352E+00 0. -1.
</event>
<event>
 5   0  0.8817544E-02  0.6011371E+03  0.7818609E-02  0.9903050E-01
        2   -1    0    0  501    0  0.00000000000E+00  0.00000000000E+00  0.11656327578E+04  0.11656327578E+04  0.25500000920E-02 0. -1.
       -2   -1    0    0    0  501  0.00000000000E+00  0.00000000000E+00 -0.77504205469E+02  0.77504205511E+02  0.25500000920E-02 0.  1.
    10030    2    1    2    0    0  0.00000000000E+00  0.00000000000E+00  0.10881285524E+04  0.12431369633E+04  0.60113705855E+03 0.  0.
        5    1    3    3  502    0  0.45098135286E+01  0.64540766419E+02 -0.62855836980E+02  0.90326049336E+02  0.46999998093E+01 0.  1.
       -5    1    3    3    0  502 -0.45098135286E+01 -0.64540766419E+02  0.11509843893E+04  0.11528109140E+04  0.46999998093E+01 0. -1.
</event>
<event>
 5   0  0.3437375E-02  0.6092460E+03  0.7818609E-02  0.9886407E-01
       -3   -1    0    0    0  501  0.00000000000E+00  0.00000000000E+00  0.18783104506E+03  0.18783107222E+03  0.10100000352E+00 0.  1.
        3   -1    0    0  501    0  0.00000000000E+00  0.00000000000E+00 -0.49403518446E+03  0.49403519478E+03  0.10100000352E+00 0. -1.
    10030    2    1    2    0    0  0.00000000000E+00  0.00000000000E+00 -0.30620413939E+03  0.68186626700E+03  0.60924595287E+03 0.  0.
        1    1    3    3  502    0  0.20900612007E+03  0.14881115479E+03 -0.33689194362E+03  0.42346723571E+03  0.50400001928E-02 0. -1.
       -1    1    3    3    0  502 -0.20900612007E+03 -0.14881115479E+03  0.30687804221E+02  0.25839903129E+03  0.50400001928E-02 0.  1.
</event>
<event>
 5   0  0.8420604E-02  0.6000138E+03  0.7818609E-02  0.9905377E-01
       -2   -1    0    0    0  501  0.00000000000E+00  0.00000000000E+00  0.96617497379E+03  0.96617497379E+03  0.25500000920E-02 0.  1.
        2   -1    0    0  501    0  0.00000000000E+00  0.00000000000E+00 -0.93155105350E+02  0.93155105385E+02  0.25500000920E-02 0. -1.
    10030    2    1    2    0    0  0.00000000000E+00  0.00000000000E+00  0.87301986844E+03  0.10593300792E+04  0.60001377148E+03 0.  0.
        2    1    3    3  502    0 -0.28766077387E+03 -0.16514404109E+02  0.28897960393E+03  0.40808168038E+03  0.25500000920E-02 0. -1.
       -2    1    3    3    0  502  0.28766077387E+03  0.16514404109E+02  0.58404026451E+03  0.65124839880E+03  0.25500000920E-02 0.  1.
</event>
<event>
 5   0  0.8420604E-02  0.5917936E+03  0.7818609E-02  0.9922579E-01
       -2   -1    0    0    0  501  0.00000000000E+00  0.00000000000E+00  0.22038158625E+03  0.22038158626E+03  0.25500000920E-02 0.  1.
        2   -1    0    0  501    0  0.00000000000E+00  0.00000000000E+00 -0.39728786207E+03  0.39728786208E+03  0.25500000920E-02 0. -1.
    10030    2    1    2    0    0  0.00000000000E+00  0.00000000000E+00 -0.17690627583E+03  0.61766944834E+03  0.59179364392E+03 0.  0.
        2    1    3    3  502    0 -0.15017544275E+03  0.17461014584E+03  0.10544816153E+03  0.25329958826E+03  0.25500000920E-02 0.  1.
       -2    1    3    3    0  502  0.15017544275E+03 -0.17461014584E+03 -0.28235443736E+03  0.36436986008E+03  0.25500000920E-02 0. -1.
</event>
<event>
 5   0  0.8699746E-02  0.6073421E+03  0.7818609E-02  0.9890290E-01
        2   -1    0    0  501    0  0.00000000000E+00  0.00000000000E+00  0.53980724243E+03  0.53980724244E+03  0.25500000920E-02 0.  1.
       -2   -1    0    0    0  501  0.00000000000E+00  0.00000000000E+00 -0.17083153341E+03  0.17083153343E+03  0.25500000920E-02 0. -1.
    10030    2    1    2    0    0  0.00000000000E+00  0.00000000000E+00  0.36897570902E+03  0.71063877586E+03  0.60734207488E+03 0.  0.
        3    1    3    3  502    0  0.20665345700E+03 -0.13081953748E+03  0.39509147173E+03  0.46466835906E+03  0.10100000352E+00 0.  1.
       -3    1    3    3    0  502 -0.20665345700E+03  0.13081953748E+03 -0.26115762715E+02  0.24597041680E+03  0.10100000352E+00 0. -1.
</event>
<event>
 5   0  0.5166903E-02  0.5850836E+03  0.7818609E-02  0.9936845E-01
        1   -1    0    0  501    0  0.00000000000E+00  0.00000000000E+00  0.75555195943E+03  0.75555195945E+03  0.50400001928E-02 0.  1.
       -1   -1    0    0    0  501  0.00000000000E+00  0.00000000000E+00 -0.11326910717E+03  0.11326910728E+03  0.50400001928E-02 0. -1.
    10030    2    1    2    0    0  0.00000000000E+00  0.00000000000E+00  0.64228285226E+03  0.86882106673E+03  0.58508356983E+03 0.  0.
        2    1    3    3  502    0 -0.26242496966E+02 -0.34640680253E+01 -0.11148714400E+03  0.11458643767E+03  0.25500000920E-02 0. -1.
       -2    1    3    3    0  502  0.26242496966E+02  0.34640680253E+01  0.75376999626E+03  0.75423462906E+03  0.25500000920E-02 0.  1.
</event>
<event>
 5   0  0.8207443E-02  0.6309236E+03  0.7818609E-02  0.9843248E-01
        2   -1    0    0  501    0  0.00000000000E+00  0.00000000000E+00  0.12778755447E+04  0.12778755447E+04  0.25500000920E-02 0.  1.
       -2   -1    0    0    0  501  0.00000000000E+00  0.00000000000E+00 -0.77876231550E+02  0.77876231592E+02  0.25500000920E-02 0. -1.
    10030    2    1    2    0    0  0.00000000000E+00  0.00000000000E+00  0.11999993131E+04  0.13557517763E+04  0.63092355112E+03 0.  0.
        1    1    3    3  502    0  0.23883043100E+03  0.13460625550E+03  0.26463435095E+03  0.38103826385E+03  0.50400001928E-02 0. -1.
       -1    1    3    3    0  502 -0.23883043100E+03 -0.13460625550E+03  0.93536496219E+03  0.97471351243E+03  0.50400001928E-02 0.  1.
</event>
<event>
 5   0  0.4987389E-02  0.6030075E+03  0.7818609E-02  0.9899186E-01
        1   -1    0    0  501    0  0.00000000000E+00  0.00000000000E+00  0.19259377227E+03  0.19259377233E+03  0.50400001928E-02 0. -1.
       -1   -1    0    0    0  501  0.00000000000E+00  0.00000000000E+00 -0.47200122934E+03  0.47200122937E+03  0.50400001928E-02 0.  1.
    10030    2    1    2    0    0  0.00000000000E+00  0.00000000000E+00 -0.27940745707E+03  0.66459500170E+03  0.60300745370E+03 0.  0.
        1    1    3    3  502    0 -0.24199896366E+03 -0.10859047914E+03  0.18286731597E+02  0.26587552567E+03  0.50400001928E-02 0. -1.
       -1    1    3    3    0  502  0.24199896366E+03  0.10859047914E+03 -0.29769418867E+03  0.39871947603E+03  0.50400001928E-02 0.  1.
</event>
<event>
 5   0  0.4881209E-02  0.6014877E+03  0.7818609E-02  0.9902324E-01
       -1   -1    0    0    0  501  0.00000000000E+00  0.00000000000E+00  0.87453579563E+03  0.87453579564E+03  0.50400001928E-02 0. -1.
        1   -1    0    0  501    0  0.00000000000E+00  0.00000000000E+00 -0.10342271569E+03  0.10342271581E+03  0.50400001928E-02 0.  1.
    10030    2    1    2    0    0  0.00000000000E+00  0.00000000000E+00  0.77111307994E+03  0.97795851145E+03  0.60148771231E+03 0.  0.
        3    1    3    3  502    0 -0.42400261619E+02  0.25851324623E+03  0.62572767305E+03  0.67835242440E+03  0.10100000352E+00 0. -1.
       -3    1    3    3    0  502  0.42400261619E+02 -0.25851324623E+03  0.14538540688E+03  0.29960608705E+03  0.10100000352E+00 0.  1.
</event>
<event>
 5   0  0.5125031E-02  0.6077688E+03  0.7818609E-02  0.9889418E-01
       -1   -1    0    0    0  501  0.00000000000E+00  0.00000000000E+00  0.22129476958E+03  0.22129476964E+03  0.50400001928E-02 0. -1.
        1   -1    0    0  501    0  0.00000000000E+00  0.00000000000E+00 -0.41729742348E+03  0.41729742351E+03  0.50400001928E-02 0.  1.
    10030    2    1    2    0    0  0.00000000000E+00  0.00000000000E+00 -0.19600265389E+03  0.63859219315E+03  0.60776882844E+03 0.  0.
        4    1    3    3  502    0  0.21047134281E+03  0.21761550569E+03 -0.12558996254E+03  0.32776385714E+03  0.12699999809E+01 0. -1.
       -4    1    3    3    0  502 -0.21047134281E+03 -0.21761550569E+03 -0.70412691350E+02  0.31082833600E+03  0.12699999809E+01 0.  1.
</event>
<event>
 5   0  0.8575590E-02  0.6056167E+03  0.7818609E-02  0.9893821E-01
        2   -1    0    0  501    0  0.00000000000E+00  0.00000000000E+00  0.13694979557E+04  0.13694979557E+04  0.25500000920E-02 0.  1.
       -2   -1    0    0    0  501  0.00000000000E+00  0.00000000000E+00 -0.66953661215E+02  0.66953661264E+02  0.25500000920E-02 0. -1.
    10030    2    1    2    0    0  0.00000000000E+00  0.00000000000E+00  0.13025442945E+04  0.14364516170E+04  0.60561671773E+03 0.  0.
        4    1    3    3  502    0  0.34506103993E+02  0.26606510869E+03  0.31827831050E+03  0.41627395920E+03  0.12699999809E+01 0. -1.
       -4    1    3    3    0  502 -0.34506103993E+02 -0.26606510869E+03  0.98426598398E+03  0.10201776578E+04  0.12699999809E+01 0.  1.
</event>
<event>
 5   0  0.4881209E-02  0.6032966E+03  0.7818609E-02  0.9898590E-01
        1   -1    0    0  501    0  0.00000000000E+00  0.00000000000E+00  0.25829783781E+03  0.25829783786E+03  0.50400001928E-02 0.  1.
       -1   -1    0    0    0  501  0.00000000000E+00  0.00000000000E+00 -0.35227433088E+03  0.35227433091E+03  0.50400001928E-02 0. -1.
    10030    2    1    2    0    0  0.00000000000E+00  0.00000000000E+00 -0.93976493062E+02  0.61057216878E+03  0.60329660370E+03 0.  0.
        3    1    3    3  502    0  0.50486389983E+02 -0.48655705354E+02 -0.34391254284E+03  0.35098732250E+03  0.10100000352E+00 0. -1.
       -3    1    3    3    0  502 -0.50486389983E+02  0.48655705354E+02  0.24993604977E+03  0.25958484627E+03  0.10100000352E+00 0.  1.
</event>
<event>
 5   0  0.8817544E-02  0.5991793E+03  0.7818609E-02  0.9907110E-01
        2   -1    0    0  501    0  0.00000000000E+00  0.00000000000E+00  0.16187129910E+04  0.16187129910E+04  0.25500000920E-02 0.  1.
       -2   -1    0    0    0  501  0.00000000000E+00  0.00000000000E+00 -0.55447725241E+02  0.55447725300E+02  0.25500000920E-02 0. -1.
    10030    2    1    2    0    0  0.00000000000E+00  0.00000000000E+00  0.15632652657E+04  0.16741607163E+04  0.59917928275E+03 0.  0.
        5    1    3    3  502    0  0.15396137998E+03 -0.15745392571E+03  0.13490187673E+04  0.13668831588E+04  0.46999998093E+01 0.  1.
       -5    1    3    3    0  502 -0.15396137998E+03  0.15745392571E+03  0.21424649842E+03  0.30727755748E+03  0.46999998093E+01 0. -1.
</event>
<event>
 5   0  0.4881209E-02  0.6211473E+03  0.7818609E-02  0.9862478E-01
       -1   -1    0    0    0  501  0.00000000000E+00  0.00000000000E+00  0.33044352675E+03  0.33044352679E+03  0.50400001928E-02 0. -1.
        1   -1    0    0  501    0  0.00000000000E+00  0.00000000000E+00 -0.29189853912E+03  0.29189853917E+03  0.50400001928E-02 0.  1.
    10030    2    1    2    0    0  0.00000000000E+00  0.00000000000E+00  0.38544987625E+02  0.62234206595E+03  0.62114726996E+03 0.  0.
        3    1    3    3  502    0  0.16265420826E+02 -0.14873481616E+02 -0.29111395324E+03  0.29194713278E+03  0.10100000352E+00 0.  1.
       -3    1    3    3    0  502 -0.16265420826E+02  0.14873481616E+02  0.32965894086E+03  0.33039493317E+03  0.10100000352E+00 0. -1.
</event>
<event>
 5   0  0.8207443E-02  0.6086422E+03  0.7818609E-02  0.9887637E-01
       -2   -1    0    0    0  501  0.00000000000E+00  0.00000000000E+00  0.12854632998E+03  0.12854633001E+03  0.25500000920E-02 0. -1.
        2   -1    0    0  501    0  0.00000000000E+00  0.00000000000E+00 -0.72045097202E+03  0.72045097202E+03  0.25500000920E-02 0.  1.
    10030    2    1    2    0    0  0.00000000000E+00  0.00000000000E+00 -0.59190464204E+03  0.84899730203E+03  0.60864218847E+03 0.  0.
        1    1    3    3  502    0 -0.16592212996E+03  0.12765139039E+02 -0.65136063315E+03  0.67228251236E+03  0.50400001928E-02 0.  1.
       -1    1    3    3    0  502  0.16592212996E+03 -0.12765139039E+02  0.59455991110E+02  0.17671478967E+03  0.50400001928E-02 0. -1.
</event>
<event>
 5   0  0.4881209E-02  0.5960593E+03  0.7818609E-02  0.9913616E-01
       -1   -1    0    0    0  501  0.00000000000E+00  0.00000000000E+00  0.13499171481E+03  0.13499171490E+03  0.50400001928E-02 0. -1.
        1   -1    0    0  501    0  0.00000000000E+00  0.00000000000E+00 -0.65797879660E+03  0.65797879662E+03  0.50400001928E-02 0.  1.
    10030    2    1    2    0    0  0.00000000000E+00  0.00000000000E+00 -0.52298708179E+03  0.79297051152E+03  0.59605934639E+03 0.  0.
        3    1    3    3  502    0 -0.19232998317E+03 -0.21945831724E+03 -0.34207506930E+03  0.44963111399E+03  0.10100000352E+00 0.  1.
       -3    1    3    3    0  502  0.19232998317E+03  0.21945831724E+03 -0.18091201250E+03  0.34333939753E+03  0.10100000352E+00 0. -1.
</event>
<event>
 5   0  0.8817544E-02  0.6028947E+03  0.7818609E-02  0.9899419E-01
       -2   -1    0    0    0  501  0.00000000000E+00  0.00000000000E+00  0.23302041013E+03  0.23302041014E+03  0.25500000920E-02 0. -1.
        2   -1    0    0  501    0  0.00000000000E+00  0.00000000000E+00 -0.38996804434E+03  0.38996804435E+03  0.25500000920E-02 0.  1.
    10030    2    1    2    0    0  0.00000000000E+00  0.00000000000E+00 -0.15694763422E+03  0.62298845449E+03  0.60289472924E+03 0.  0.
        5    1    3    3  502    0 -0.90302962754E+01  0.68750644494E+02  0.22462851856E+03  0.23513455450E+03  0.46999998093E+01 0. -1.
       -5    1    3    3    0  502  0.90302962754E+01 -0.68750644494E+02 -0.38157615278E+03  0.38785389999E+03  0.46999998093E+01 0.  1.
</event>
<event>
 5   0  0.8699746E-02  0.5989696E+03  0.7818609E-02  0.9907546E-01
       -2   -1    0    0    0  501  0.00000000000E+00  0.00000000000E+00  0.24649915530E+03  0.24649915532E+03  0.25500000920E-02 0. -1.
        2   -1    0    0  501    0  0.00000000000E+00  0.00000000000E+00 -0.36385979498E+03  0.36385979499E+03  0.25500000920E-02 0.  1.
    10030    2    1    2    0    0  0.00000000000E+00  0.00000000000E+00 -0.11736063968E+03  0.61035895030E+03  0.59896955555E+03 0.  0.
        3    1    3    3  502    0 -0.96462825819E+02  0.15912802117E+03  0.18043956963E+03  0.25920118128E+03  0.10100000352E+00 0. -1.
       -3    1    3    3    0  502  0.96462825819E+02 -0.15912802117E+03 -0.29780020930E+03  0.35115776903E+03  0.10100000352E+00 0.  1.
</event>
<event>
 5   0  0.3437375E-02  0.6006255E+03  0.7818609E-02  0.9904109E-01
       -3   -1    0    0    0  501  0.00000000000E+00  0.00000000000E+00  0.44698825936E+03  0.44698827077E+03  0.10100000352E+00 0.  1.
        3   -1    0    0  501    0  0.00000000000E+00  0.00000000000E+00 -0.20176757336E+03  0.20176759864E+03  0.10100000352E+00 0. -1.
    10030    2    1    2    0    0  0.00000000000E+00  0.00000000000E+00  0.24522068600E+03  0.64875586940E+03  0.60062550166E+03 0.  0.
        4    1    3    3  502    0  0.89738516863E+02 -0.11839688550E+03 -0.15929279212E+03  0.21782247457E+03  0.12699999809E+01 0. -1.
       -4    1    3    3    0  502 -0.89738516863E+02  0.11839688550E+03  0.40451347812E+03  0.43093339484E+03  0.12699999809E+01 0.  1.
</event>
<event>
 5   0  0.8699746E-02  0.6041727E+03  0.7818609E-02  0.9896787E-01
        2   -1    0    0  501    0  0.00000000000E+00  0.00000000000E+00  0.61035545002E+03  0.61035545002E+03  0.25500000920E-02 0.  1.
       -2   -1    0    0    0  501  0.00000000000E+00  0.00000000000E+00 -0.14951313300E+03  0.14951313303E+03  0.25500000920E-02 0. -1.
    10030    2    1    2    0    0  0.00000000000E+00  0.00000000000E+00  0.46084231701E+03  0.75986858305E+03  0.60417267594E+03 0.  0.
        3    1    3    3  502    0  0.16407119404E+03  0.16854911142E+03 -0.79720305565E+01  0.23535446278E+03  0.10100000352E+00 0. -1.
       -3    1    3    3    0  502 -0.16407119404E+03 -0.16854911142E+03  0.46881434757E+03  0.52451412027E+03  0.10100000352E+00 0.  1.
</event>
<event>
 5   0  0.5125031E-02  0.5941080E+03  0.7818609E-02  0.9917706E-01
       -1   -1    0    0    0  501  0.00000000000E+00  0.00000000000E+00  0.42834562873E+02  0.42834563170E+02  0.50400001928E-02 0. -1.
        1   -1    0    0  501    0  0.00000000000E+00  0.00000000000E+00 -0.20600440163E+04  0.20600440163E+04  0.50400001928E-02 0.  1.
    10030    2    1    2    0    0  0.00000000000E+00  0.00000000000E+00 -0.20172094535E+04  0.21028785795E+04  0.59410802135E+03 0.  0.
        4    1    3    3  502    0 -0.15873752634E+02 -0.11832459653E+03 -0.45827381138E+02  0.12788451012E+03  0.12699999809E+01 0. -1.
       -4    1    3    3    0  502  0.15873752634E+02  0.11832459653E+03 -0.19713820723E+04  0.19749940694E+04  0.12699999809E+01 0.  1.
</event>
<event>
 5   0  0.5125031E-02  0.6106495E+03  0.7818609E-02  0.9883555E-01
        1   -1    0    0  501    0  0.00000000000E+00  0.00000000000E+00  0.78321434369E+03  0.78321434370E+03  0.50400001928E-02 0.  1.
       -1   -1    0    0    0  501  0.00000000000E+00  0.00000000000E+00 -0.11902640725E+03  0.11902640736E+03  0.50400001928E-02 0. -1.
    10030    2    1    2    0    0  0.00000000000E+00  0.00000000000E+00  0.66418793643E+03  0.90224075106E+03  0.61064945589E+03 0.  0.
        4    1    3    3  502    0  0.24886990394E+03  0.14048718504E+03  0.49087440166E+03  0.56800719128E+03  0.12699999809E+01 0. -1.
       -4    1    3    3    0  502 -0.24886990394E+03 -0.14048718504E+03  0.17331353478E+03  0.33423355978E+03  0.12699999809E+01 0.  1.
</event>
<event>
 5   0  0.4987389E-02  0.6091371E+03  0.7818609E-02  0.9886629E-01
       -1   -1    0    0    0  501  0.00000000000E+00  0.00000000000E+00  0.83702361431E+02  0.83702361582E+02  0.50400001928E-02 0.  1.
        1   -1    0    0  501    0  0.00000000000E+00  0.00000000000E+00 -0.11082364640E+04  0.11082364640E+04  0.50400001928E-02 0. -1.
    10030    2    1    2    0    0  0.00000000000E+00  0.00000000000E+00 -0.10245341026E+04  0.11919388256E+04  0.60913712466E+03 0.  0.
        1    1    3    3  502    0  0.11215627808E+03 -0.96678900290E+02  0.85274968035E+01  0.14831911104E+03  0.50400001928E-02 0.  1.
       -1    1    3    3    0  502 -0.11215627808E+03  0.96678900290E+02 -0.10330615994E+04  0.10436197146E+04  0.50400001928E-02 0. -1.
</event>
<event>
 5   0  0.5190380E-02  0.6176153E+03  0.7818609E-02  0.9869519E-01
       -1   -1    0    0    0  501  0.00000000000E+00  0.00000000000E+00  0.47774287409E+03  0.47774287412E+03  0.50400001928E-02 0. -1.
        1   -1    0    0  501    0  0.00000000000E+00  0.00000000000E+00 -0.19960978098E+03  0.19960978104E+03  0.50400001928E-02 0.  1.
    10030    2    1    2    0    0  0.00000000000E+00  0.00000000000E+00  0.27813309312E+03  0.67735265516E+03  0.61761525399E+03 0.  0.
        5    1    3    3  502    0  0.13081077884E+03  0.21482555276E+03 -0.57361911964E+02  0.25801929563E+03  0.46999998093E+01 0.  1.
       -5    1    3    3    0  502 -0.13081077884E+03 -0.21482555276E+03  0.33549500508E+03  0.41933335952E+03  0.46999998093E+01 0. -1.
</event>
<event>
 5   0  0.4881209E-02  0.5998804E+03  0.7818609E-02  0.9905654E-01
        1   -1    0    0  501    0  0.00000000000E+00  0.00000000000E+00  0.41540732415E+03  0.41540732418E+03  0.50400001928E-02 0. -1.
       -1   -1    0    0    0  501  0.00000000000E+00  0.00000000000E+00 -0.21656846879E+03  0.21656846884E+03  0.50400001928E-02 0.  1.
    10030    2    1    2    0    0  0.00000000000E+00  0.00000000000E+00  0.19883885536E+03  0.63197579302E+03  0.59988041522E+03 0.  0.
        3    1    3    3  502    0  0.24806952673E+03 -0.95400544338E+02  0.24586908665E+03  0.36206542492E+03  0.10100000352E+00 0. -1.
       -3    1    3    3    0  502 -0.24806952673E+03  0.95400544338E+02 -0.47030231285E+02  0.26991036810E+03  0.10100000352E+00 0.  1.
</event>
<event>
 5   0  0.5166903E-02  0.5977967E+03  0.7818609E-02  0.9909988E-01
        1   -1    0    0  501    0  0.00000000000E+00  0.00000000000E+00  0.73272357223E+03  0.73272357225E+03  0.50400001928E-02 0.  1.
       -1   -1    0    0    0  501  0.00000000000E+00  0.00000000000E+00 -0.12192897422E+03  0.12192897432E+03  0.50400001928E-02 0. -1.
    10030    2    1    2    0    0  0.00000000000E+00  0.00000000000E+00  0.61079459802E+03  0.85465254657E+03  0.59779673334E+03 0.  0.
        2    1    3    3  502    0  0.26407186650E+03  0.63340711225E+02  0.48393014236E+03  0.55491835351E+03  0.25500000920E-02 0.  1.
       -2    1    3    3    0  502 -0.26407186650E+03 -0.63340711225E+02  0.12686445566E+03  0.29973419306E+03  0.25500000920E-02 0. -1.
</event>
<event>
 5   0  0.5166903E-02  0.5815964E+03  0.7818609E-02  0.9944341E-01
       -1   -1    0    0    0  501  0.00000000000E+00  0.00000000000E+00  0.20054264960E+03  0.20054264966E+03  0.50400001928E-02 0. -1.
        1   -1    0    0  501    0  0.00000000000E+00  0.00000000000E+00 -0.42167387939E+03  0.42167387942E+03  0.50400001928E-02 0.  1.
    10030    2    1    2    0    0  0.00000000000E+00  0.00000000000E+00 -0.22113122979E+03  0.62221652908E+03  0.58159641357E+03 0.  0.
        2    1    3    3  502    0  0.27377822033E+02 -0.18975197106E+03  0.12335646053E+03  0.22797405997E+03  0.25500000920E-02 0. -1.
       -2    1    3    3    0  502 -0.27377822033E+02  0.18975197106E+03 -0.34448769032E+03  0.39424246911E+03  0.25500000920E-02 0.  1.
</event>
<event>
 5   0  0.8420604E-02  0.5882977E+03  0.7818609E-02  0.9929987E-01
       -2   -1    0    0    0  501  0.00000000000E+00  0.00000000000E+00  0.70706944522E+02  0.70706944568E+02  0.25500000920E-02 0.  1.
        2   -1    0    0  501    0  0.00000000000E+00  0.00000000000E+00 -0.12236922553E+04  0.12236922553E+04  0.25500000920E-02 0. -1.
    10030    2    1    2    0    0  0.00000000000E+00  0.00000000000E+00 -0.11529853108E+04  0.12943991998E+04  0.58829768124E+03 0.  0.
        2    1    3    3  502    0 -0.16728521159E+03  0.15641976344E+02 -0.11077255882E+04  0.11203950162E+04  0.25500000920E-02 0. -1.
       -2    1    3    3    0  502  0.16728521159E+03 -0.15641976344E+02 -0.45259722504E+02  0.17400418365E+03  0.25500000920E-02 0.  1.
</event>
<event>
 5   0  0.4881209E-02  0.6413469E+03  0.7818609E-02  0.9823153E-01
        1   -1    0    0  501    0  0.00000000000E+00  0.00000000000E+00  0.54329644039E+03  0.54329644041E+03  0.50400001928E-02 0.  1.
       -1   -1    0    0    0  501  0.00000000000E+00  0.00000000000E+00 -0.18927322388E+03  0.18927322395E+03  0.50400001928E-02 0. -1.
    10030    2    1    2    0    0  0.00000000000E+00  0.00000000000E+00  0.35402321651E+03  0.73256966436E+03  0.64134692275E+03 0.  0.
        3    1    3    3  502    0  0.58528995950E+02  0.17508397389E+03  0.47651155067E+03  0.51102182870E+03  0.10100000352E+00 0.  1.
       -3    1    3    3    0  502 -0.58528995950E+02 -0.17508397389E+03 -0.12248833417E+03  0.22154783567E+03  0.10100000352E+00 0. -1.
</event>
<event>
 5   0  0.4987389E-02  0.5957146E+03  0.7818609E-02  0.9914337E-01
        1   -1    0    0  501    0  0.00000000000E+00  0.00000000000E+00  0.55155006909E+03  0.55155006911E+03  0.50400001928E-02 0.  1.
       -1   -1    0    0    0  501  0.00000000000E+00  0.00000000000E+00 -0.16085390352E+03  0.16085390360E+03  0.50400001928E-02 0. -1.
    10030    2    1    2    0    0  0.00000000000E+00  0.00000000000E+00  0.39069616557E+03  0.71240397271E+03  0.59571463516E+03 0.  0.
        1    1    3    3  502    0 -0.86696156927E+02  0.10772572056E+03  0.51083853121E+03  0.52922307157E+03  0.50400001928E-02 0.  1.
       -1    1    3    3    0  502  0.86696156927E+02 -0.10772572056E+03 -0.12014236564E+03  0.18318090114E+03  0.50400001928E-02 0. -1.
</event>
<event>
 5   0  0.8420604E-02  0.6042440E+03  0.7818609E-02  0.9896640E-01
       -2   -1    0    0    0  501  0.00000000000E+00  0.00000000000E+00  0.37133919003E+02  0.37133919090E+02  0.25500000920E-02 0. -1.
        2   -1    0    0  501    0  0.00000000000E+00  0.00000000000E+00 -0.24580680289E+04  0.24580680289E+04  0.25500000920E-02 0.  1.
    10030    2    1    2    0    0  0.00000000000E+00  0.00000000000E+00 -0.24209341099E+04  0.24952019479E+04  0.60424398780E+03 0.  0.
        2    1    3    3  502    0 -0.83587113431E+02 -0.17772150608E+03 -0.21584995567E+04  0.21674159904E+04  0.25500000920E-02 0.  1.
       -2    1    3    3    0  502  0.83587113431E+02  0.17772150608E+03 -0.26243455314E+03  0.32778595752E+03  0.25500000920E-02 0. -1.
</event>
<event>
 5   0  0.5166903E-02  0.5894505E+03  0.7818609E-02  0.9927538E-01
        1   -1    0    0  501    0  0.00000000000E+00  0.00000000000E+00  0.46929296157E+03  0.46929296160E+03  0.50400001928E-02 0.  1.
       -1   -1    0    0    0  501  0.00000000000E+00  0.00000000000E+00 -0.18509330088E+03  0.18509330095E+03  0.50400001928E-02 0. -1.
    10030    2    1    2    0    0  0.00000000000E+00  0.00000000000E+00  0.28419966068E+03  0.65438626255E+03  0.58945053523E+03 0.  0.
        2    1    3    3  502    0  0.22985476080E+03 -0.14808556234E+03  0.19979671033E+02  0.27415640079E+03  0.25500000920E-02 0. -1.
       -2    1    3    3    0  502 -0.22985476080E+03  0.14808556234E+03  0.26421998965E+03  0.38022986176E+03  0.25500000920E-02 0.  1.
</event>
<event>
 5   0  0.4881209E-02  0.5999277E+03  0.7818609E-02  0.9905556E-01
        1   -1    0    0  501    0  0.00000000000E+00  0.00000000000E+00  0.34678532633E+03  0.34678532637E+03  0.50400001928E-02 0.  1.
       -1   -1    0    0    0  501  0.00000000000E+00  0.00000000000E+00 -0.25946401791E+03  0.25946401796E+03  0.50400001928E-02 0. -1.
    10030    2    1    2    0    0  0.00000000000E+00  0.00000000000E+00  0.87321308421E+02  0.60624934432E+03  0.59992770947E+03 0.  0.
        3    1    3    3  502    0 -0.21532296114E+03  0.78619633356E+02 -0.15185489372E+03  0.27496353084E+03  0.10100000352E+00 0. -1.
       -3    1    3    3    0  502  0.21532296114E+03 -0.78619633356E+02  0.23917620214E+03  0.33128581348E+03  0.10100000352E+00 0.  1.
</event>
<event>
 5   0  0.8207443E-02  0.6285507E+03  0.7818609E-02  0.9847881E-01
        2   -1    0    0  501    0  0.00000000000E+00  0.00000000000E+00  0.45609179017E+03  0.45609179017E+03  0.25500000920E-02 0.  1.
       -2   -1    0    0    0  501  0.00000000000E+00  0.00000000000E+00 -0.21655509390E+03  0.21655509392E+03  0.25500000920E-02 0. -1.
    10030    2    1    2    0    0  0.00000000000E+00  0.00000000000E+00  0.23953669626E+03  0.67264688409E+03  0.62855071539E+03 0.  0.
        1    1    3    3  502    0 -0.24215017218E+03 -0.16285180194E+03  0.24462197477E+03  0.38078514394E+03  0.50400001928E-02 0.  1.
       -1    1    3    3    0  502  0.24215017218E+03  0.16285180194E+03 -0.50852785072E+01  0.29186174015E+03  0.50400001928E-02 0. -1.
</event>
<event>
 5   0  0.8420604E-02  0.5822722E+03  0.7818609E-02  0.9942884E-01
        2   -1    0    0  501    0  0.00000000000E+00  0.00000000000E+00  0.13105543861E+04  0.13105543861E+04  0.25500000920E-02 0.  1.
       -2   -1    0    0    0  501  0.00000000000E+00  0.00000000000E+00 -0.64675086165E+02  0.64675086215E+02  0.25500000920E-02 0. -1.
    10030    2    1    2    0    0  0.00000000000E+00  0.00000000000E+00  0.12458792999E+04  0.13752294723E+04  0.58227216275E+03 0.  0.
        2    1    3    3  502    0 -0.53410673979E+02 -0.28418625819E+03  0.70288301176E+03  0.76003885273E+03  0.25500000920E-02 0. -1.
       -2    1    3    3    0  502  0.53410673979E+02  0.28418625819E+03  0.54299628814E+03  0.61519061954E+03  0.25500000920E-02 0.  1.
</event>
<event>
 5   0  0.8575590E-02  0.6006290E+03  0.7818609E-02  0.9904102E-01
        2   -1    0    0  501    0  0.00000000000E+00  0.00000000000E+00  0.14759916579E+04  0.14759916579E+04  0.25500000920E-02 0. -1.
       -2   -1    0    0    0  501  0.00000000000E+00  0.00000000000E+00 -0.61103861839E+02  0.61103861892E+02  0.25500000920E-02 0.  1.
    10030    2    1    2    0    0  0.00000000000E+00  0.00000000000E+00  0.14148877960E+04  0.15370955198E+04  0.60062897160E+03 0.  0.
        4    1    3    3  502    0 -0.16808559930E+03 -0.24873633278E+03  0.68686775932E+03  0.74960753973E+03  0.12699999809E+01 0.  1.
       -4    1    3    3    0  502  0.16808559930E+03  0.24873633278E+03  0.72802003673E+03  0.78748798004E+03  0.12699999809E+01 0. -1.
</event>
<event>
 5   0  0.8817544E-02  0.6919102E+03  0.7818609E-02  0.9731168E-01
       -2   -1    0    0    0  501  0.00000000000E+00  0.00000000000E+00  0.16127986422E+03  0.16127986424E+03  0.25500000920E-02 0.  1.
        2   -1    0    0  501    0  0.00000000000E+00  0.00000000000E+00 -0.74209477811E+03  0.74209477812E+03  0.25500000920E-02 0. -1.
    10030    2    1    2    0    0  0.00000000000E+00  0.00000000000E+00 -0.58081491390E+03  0.90337464236E+03  0.69191024002E+03 0.  0.
        5    1    3    3  502    0 -0.85103127284E+02  0.58837394003E+02 -0.72137904842E+03  0.72877582472E+03  0.46999998093E+01 0. -1.
       -5    1    3    3    0  502  0.85103127284E+02 -0.58837394003E+02  0.14056413452E+03  0.17459881763E+03  0.46999998093E+01 0.  1.
</event>
<event>
 5   0  0.8575590E-02  0.5979266E+03  0.7818609E-02  0.9909717E-01
        2   -1    0    0  501    0  0.00000000000E+00  0.00000000000E+00  0.35607749568E+03  0.35607749569E+03  0.25500000920E-02 0.  1.
       -2   -1    0    0    0  501  0.00000000000E+00  0.00000000000E+00 -0.25101010355E+03  0.25101010357E+03  0.25500000920E-02 0. -1.
    10030    2    1    2    0    0  0.00000000000E+00  0.00000000000E+00  0.10506739213E+03  0.60708759926E+03  0.59792658101E+03 0.  0.
        4    1    3    3  502    0 -0.96210112729E+01  0.45210284592E+02 -0.24735740313E+03  0.25164226886E+03  0.12699999809E+01 0. -1.
       -4    1    3    3    0  502  0.96210112729E+01 -0.45210284592E+02  0.35242479526E+03  0.35544533040E+03  0.12699999809E+01 0.  1.
</event>
<event>
 5   0  0.8207443E-02  0.5757701E+03  0.7818609E-02  0.9956991E-01
       -2   -1    0    0    0  501  0.00000000000E+00  0.00000000000E+00  0.53819724532E+02  0.53819724593E+02  0.25500000920E-02 0.  1.
        2   -1    0    0  501    0  0.00000000000E+00  0.00000000000E+00 -0.15399151274E+04  0.15399151274E+04  0.25500000920E-02 0. -1.
    10030    2    1    2    0    0  0.00000000000E+00  0.00000000000E+00 -0.14860954029E+04  0.15937348520E+04  0.57577012083E+03 0.  0.
        1    1    3    3  502    0 -0.30445180015E+02  0.23731413229E+03 -0.11862130870E+04  0.12101018115E+04  0.50400001928E-02 0. -1.
       -1    1    3    3    0  502  0.30445180015E+02 -0.23731413229E+03 -0.29988231585E+03  0.38363304049E+03  0.50400001928E-02 0.  1.
</event>
<event>
 5   0  0.5166903E-02  0.6055067E+03  0.7818609E-02  0.9894047E-01
       -1   -1    0    0    0  501  0.00000000000E+00  0.00000000000E+00  0.97828525398E+03  0.97828525400E+03  0.50400001928E-02 0.  1.
        1   -1    0    0  501    0  0.00000000000E+00  0.00000000000E+00 -0.93694130420E+02  0.93694130556E+02  0.50400001928E-02 0. -1.
    10030    2    1    2    0    0  0.00000000000E+00  0.00000000000E+00  0.88459112356E+03  0.10719793846E+04  0.60550668454E+03 0.  0.
        2    1    3    3  502    0  0.28205506914E+02 -0.23894150815E+02  0.97427492570E+03  0.97497595453E+03  0.25500000920E-02 0.  1.
       -2    1    3    3    0  502 -0.28205506914E+02  0.23894150815E+02 -0.89683802136E+02  0.97003430020E+02  0.25500000920E-02 0. -1.
</event>
<event>
 5   0  0.8420604E-02  0.6001051E+03  0.7818609E-02  0.9905188E-01
       -2   -1    0    0    0  501  0.00000000000E+00  0.00000000000E+00  0.48679587965E+03  0.48679587965E+03  0.25500000920E-02 0. -1.
        2   -1    0    0  501    0  0.00000000000E+00  0.00000000000E+00 -0.18494722181E+03  0.18494722183E+03  0.25500000920E-02 0.  1.
    10030    2    1    2    0    0  0.00000000000E+00  0.00000000000E+00  0.30184865784E+03  0.67174310148E+03  0.60010514258E+03 0.  0.
        2    1    3    3  502    0  0.15288921317E+03  0.12897475126E+02  0.43956287239E+03  0.46557166490E+03  0.25500000920E-02 0. -1.
       -2    1    3    3    0  502 -0.15288921317E+03 -0.12897475126E+02 -0.13771421455E+03  0.20617143658E+03  0.25500000920E-02 0.  1.
</event>
<event>
 5   0  0.8699746E-02  0.6070394E+03  0.7818609E-02  0.9890908E-01
       -2   -1    0    0    0  501  0.00000000000E+00  0.00000000000E+00  0.34068487011E+03  0.34068487012E+03  0.25500000920E-02 0. -1.
        2   -1    0    0  501    0  0.00000000000E+00  0.00000000000E+00 -0.27040885154E+03  0.27040885156E+03  0.25500000920E-02 0.  1.
    10030    2    1    2    0    0  0.00000000000E+00  0.00000000000E+00  0.70276018565E+02  0.61109372167E+03  0.60703938742E+03 0.  0.
        3    1    3    3  502    0 -0.25841988680E+03 -0.15919110514E+03  0.36390676583E+02  0.30569091807E+03  0.10100000352E+00 0.  1.
       -3    1    3    3    0  502  0.25841988680E+03  0.15919110514E+03  0.33885341983E+02  0.30540280360E+03  0.10100000352E+00 0. -1.
</event>
<event>
 5   0  0.8817544E-02  0.6136158E+03  0.7818609E-02  0.9877553E-01
       -2   -1    0    0    0  501  0.00000000000E+00  0.00000000000E+00  0.14199506993E+03  0.14199506995E+03  0.25500000920E-02 0.  1.
        2   -1    0    0  501    0  0.00000000000E+00  0.00000000000E+00 -0.66291792308E+03  0.66291792309E+03  0.25500000920E-02 0. -1.
    10030    2    1    2    0    0  0.00000000000E+00  0.00000000000E+00 -0.52092285315E+03  0.80491299304E+03  0.61361576530E+03 0.  0.
        5    1    3    3  502    0 -0.21217527052E+02 -0.16715387669E+03 -0.59673742405E+03  0.62008728838E+03  0.46999998093E+01 0. -1.
       -5    1    3    3    0  502  0.21217527052E+02  0.16715387669E+03  0.75814570897E+02  0.18482570466E+03  0.46999998093E+01 0.  1.
</event>
<event>
 5   0  0.8207443E-02  0.5928813E+03  0.7818609E-02  0.9920286E-01
       -2   -1    0    0    0  501  0.00000000000E+00  0.00000000000E+00  0.23647679916E+03  0.23647679917E+03  0.25500000920E-02 0. -1.
        2   -1    0    0  501    0  0.00000000000E+00  0.00000000000E+00 -0.37160967054E+03  0.37160967055E+03  0.25500000920E-02 0.  1.
    10030    2    1    2    0    0  0.00000000000E+00  0.00000000000E+00 -0.13513287138E+03  0.60808646971E+03  0.59288132179E+03 0.  0.
        1    1    3    3  502    0  0.28362785702E+03  0.85602101314E+02 -0.78055360820E+02  0.30637415100E+03  0.50400001928E-02 0.  1.
       -1    1    3    3    0  502 -0.28362785702E+03 -0.85602101314E+02 -0.57077510561E+02  0.30171231871E+03  0.50400001928E-02 0. -1.
</event>
<event>
 5   0  0.4987389E-02  0.6003096E+03  0.7818609E-02  0.9904764E-01
        1   -1    0    0  501    0  0.00000000000E+00  0.00000000000E+00  0.39247141425E+03  0.39247141429E+03  0.50400001928E-02 0.  1.
       -1   -1    0    0    0  501  0.00000000000E+00  0.00000000000E+00 -0.22955275547E+03  0.22955275553E+03  0.50400001928E-02 0. -1.
    10030    2    1    2    0    0  0.00000000000E+00  0.00000000000E+00  0.16291865878E+03  0.62202416981E+03  0.60030956885E+03 0.  0.
        1    1    3    3  502    0 -0.92267228497E+02 -0.16364607255E+03 -0.16110154649E+03  0.24748128580E+03  0.50400001928E-02 0. -1.
       -1    1    3    3    0  502  0.92267228497E+02  0.16364607255E+03  0.32402020527E+03  0.37454288401E+03  0.50400001928E-02 0.  1.
</event>
<event>
 5   0  0.8420604E-02  0.5980566E+03  0.7818609E-02  0.9909446E-01
       -2   -1    0    0    0  501  0.00000000000E+00  0.00000000000E+00  0.12812416870E+03  0.12812416872E+03  0.25500000920E-02 0. -1.
        2   -1    0    0  501    0  0.00000000000E+00  0.00000000000E+00 -0.69790043038E+03  0.69790043038E+03  0.25500000920E-02 0.  1.
    10030    2    1    2    0    0  0.00000000000E+00  0.00000000000E+00 -0.56977626168E+03  0.82602459910E+03  0.59805656083E+03 0.  0.
        2    1    3    3  502    0  0.22635045333E+03 -0.93174949190E+02 -0.52212111897E+03  0.57665116124E+03  0.25500000920E-02 0.  1.
       -2    1    3    3    0  502 -0.22635045333E+03  0.93174949190E+02 -0.47655142716E+02  0.24937343787E+03  0.25500000920E-02 0. -1.
</event>
<event>
 5   0  0.4881209E-02  0.5992736E+03  0.7818609E-02  0.9906914E-01
        1   -1    0    0  501    0  0.00000000000E+00  0.00000000000E+00  0.16275731495E+03  0.16275731503E+03  0.50400001928E-02 0.  1.
       -1   -1    0    0    0  501  0.00000000000E+00  0.00000000000E+00 -0.55163249257E+03  0.55163249259E+03  0.50400001928E-02 0. -1.
    10030    2    1    2    0    0  0.00000000000E+00  0.00000000000E+00 -0.38887517762E+03  0.71438980762E+03  0.59927363822E+03 0.  0.
        3    1    3    3  502    0 -0.14972379635E+03 -0.16311898132E+03 -0.43510219493E+03  0.48819970042E+03  0.10100000352E+00 0. -1.
       -3    1    3    3    0  502  0.14972379635E+03  0.16311898132E+03  0.46227017312E+02  0.22619010719E+03  0.10100000352E+00 0.  1.
</event>
<event>
 5   0  0.8817544E-02  0.5120009E+03  0.7818609E-02  0.1010693E+00
        2   -1    0    0  501    0  0.00000000000E+00  0.00000000000E+00  0.18052251891E+04  0.18052251891E+04  0.25500000920E-02 0. -1.
       -2   -1    0    0    0  501  0.00000000000E+00  0.00000000000E+00 -0.36303630468E+02  0.36303630557E+02  0.25500000920E-02 0.  1.
    10030    2    1    2    0    0  0.00000000000E+00  0.00000000000E+00  0.17689215587E+04  0.18415288197E+04  0.51200089165E+03 0.  0.
        5    1    3    3  502    0 -0.18617932666E+03  0.11677007727E+03  0.13563888025E+04  0.13740853926E+04  0.46999998093E+01 0. -1.
       -5    1    3    3    0  502  0.18617932666E+03 -0.11677007727E+03  0.41253275615E+03  0.46744342707E+03  0.46999998093E+01 0.  1.
</event>
<event>
 5   0  0.5166903E-02  0.6005120E+03  0.7818609E-02  0.9904344E-01
       -1   -1    0    0    0  501  0.00000000000E+00  0.00000000000E+00  0.19705344815E+03  0.19705344822E+03  0.50400001928E-02 0. -1.
        1   -1    0    0  501    0  0.00000000000E+00  0.00000000000E+00 -0.45750869336E+03  0.45750869339E+03  0.50400001928E-02 0.  1.
    10030    2    1    2    0    0  0.00000000000E+00  0.00000000000E+00 -0.26045524521E+03  0.65456214161E+03  0.60051200027E+03 0.  0.
        2    1    3    3  502    0 -0.41639578725E+02  0.13297587198E+03  0.15967571332E+03  0.21192633266E+03  0.25500000920E-02 0. -1.
       -2    1    3    3    0  502  0.41639578725E+02 -0.13297587198E+03 -0.42013095853E+03  0.44263580895E+03  0.25500000920E-02 0.  1.
</event>
<event>
 5   0  0.8575590E-02  0.6075836E+03  0.7818609E-02  0.9889796E-01
       -2   -1    0    0    0  501  0.00000000000E+00  0.00000000000E+00  0.76805711644E+02  0.76805711686E+02  0.25500000920E-02 0. -1.
        2   -1    0    0  501    0  0.00000000000E+00  0.00000000000E+00 -0.12015962024E+04  0.12015962024E+04  0.25500000920E-02 0.  1.
    10030    2    1    2    0    0  0.00000000000E+00  0.00000000000E+00 -0.11247904908E+04  0.12784019141E+04  0.60758357932E+03 0.  0.
        4    1    3    3  502    0 -0.20910493265E+03  0.94364965106E+02 -0.98140871877E+03  0.10078662142E+04  0.12699999809E+01 0.  1.
       -4    1    3    3    0  502  0.20910493265E+03 -0.94364965106E+02 -0.14338177203E+03  0.27053569995E+03  0.12699999809E+01 0. -1.
</event>
<event>
 5   0  0.4987389E-02  0.6033362E+03  0.7818609E-02  0.9898509E-01
       -1   -1    0    0    0  501  0.00000000000E+00  0.00000000000E+00  0.95377845108E+02  0.95377845241E+02  0.50400001928E-02 0. -1.
        1   -1    0    0  501    0  0.00000000000E+00  0.00000000000E+00 -0.95413827028E+03  0.95413827030E+03  0.50400001928E-02 0.  1.
    10030    2    1    2    0    0  0.00000000000E+00  0.00000000000E+00 -0.85876042518E+03  0.10495161155E+04  0.60333623207E+03 0.  0.
        1    1    3    3  502    0 -0.26306488611E+03  0.46684715729E+02 -0.18571648437E+03  0.32538163682E+03  0.50400001928E-02 0. -1.
       -1    1    3    3    0  502  0.26306488611E+03 -0.46684715729E+02 -0.67304394081E+03  0.72413447872E+03  0.50400001928E-02 0.  1.
</event>
<event>
 5   0  0.8207443E-02  0.5997641E+03  0.7818609E-02  0.9905896E-01
        2   -1    0    0  501    0  0.00000000000E+00  0.00000000000E+00  0.29150591065E+03  0.29150591067E+03  0.25500000920E-02 0. -1.
       -2   -1    0    0    0  501  0.00000000000E+00  0.00000000000E+00 -0.30849890079E+03  0.30849890080E+03  0.25500000920E-02 0.  1.
    10030    2    1    2    0    0  0.00000000000E+00  0.00000000000E+00 -0.16992990137E+02  0.60000481147E+03  0.59976413036E+03 0.  0.
        1    1    3    3  502    0 -0.24274168990E+03  0.16417429694E+02  0.16689126494E+03  0.29503517477E+03  0.50400001928E-02 0. -1.
       -1    1    3    3    0  502  0.24274168990E+03 -0.16417429694E+02 -0.18388425507E+03  0.30496963669E+03  0.50400001928E-02 0.  1.
</event>
<event>
 5   0  0.5125031E-02  0.5938968E+03  0.7818609E-02  0.9918150E-01
       -1   -1    0    0    0  501  0.00000000000E+00  0.00000000000E+00  0.22331990283E+03  0.22331990289E+03  0.50400001928E-02 0. -1.
        1   -1    0    0  501    0  0.00000000000E+00  0.00000000000E+00 -0.39485221457E+03  0.39485221461E+03  0.50400001928E-02 0.  1.
    10030    2    1    2    0    0  0.00000000000E+00  0.00000000000E+00 -0.17153231174E+03  0.61817211750E+03  0.59389682006E+03 0.  0.
        4    1    3    3  502    0  0.69274757360E+02 -0.23739064376E+03  0.85341205121E+02  0.26160665883E+03  0.12699999809E+01 0. -1.
       -4    1    3    3    0  502 -0.69274757360E+02  0.23739064376E+03 -0.25687351686E+03  0.35656545867E+03  0.12699999809E+01 0.  1.
</event>
<event>
 5   0  0.5190380E-02  0.6317525E+03  0.7818609E-02  0.9841635E-01
       -1   -1    0    0    0  501  0.00000000000E+00  0.00000000000E+00  0.55577019018E+02  0.55577019246E+02  0.50400001928E-02 0. -1.
        1   -1    0    0  501    0  0.00000000000E+00  0.00000000000E+00 -0.17953067263E+04  0.17953067263E+04  0.50400001928E-02 0.  1.
    10030    2    1    2    0    0  0.00000000000E+00  0.00000000000E+00 -0.17397297073E+04  0.18508837455E+04  0.63175247142E+03 0.  0.
        5    1    3    3  502    0  0.10223019202E+03 -0.63033514251E+02 -0.17256934743E+04  0.17298740686E+04  0.46999998093E+01 0.  1.
       -5    1    3    3    0  502 -0.10223019202E+03  0.63033514251E+02 -0.14036233002E+02  0.12100967694E+03  0.46999998093E+01 0. -1.
</event>
<event>
 5   0  0.8699746E-02  0.5869511E+03  0.7818609E-02  0.9932854E-01
       -2   -1    0    0    0  501  0.00000000000E+00  0.00000000000E+00  0.64188703602E+02  0.64188703653E+02  0.25500000920E-02 0. -1.
        2   -1    0    0  501    0  0.00000000000E+00  0.00000000000E+00 -0.13417923665E+04  0.13417923665E+04  0.25500000920E-02 0.  1.
    10030    2    1    2    0    0  0.00000000000E+00  0.00000000000E+00 -0.12776036629E+04  0.14059810702E+04  0.58695114805E+03 0.  0.
        3    1    3    3  502    0 -0.28048375729E+03 -0.65816967346E+02 -0.77270626527E+03  0.82466841450E+03  0.10100000352E+00 0.  1.
       -3    1    3    3    0  502  0.28048375729E+03  0.65816967346E+02 -0.50489739767E+03  0.58131265569E+03  0.10100000352E+00 0. -1.
</event>
<event>
 5   0  0.4881209E-02  0.5708901E+03  0.7818609E-02  0.9967711E-01
        1   -1    0    0  501    0  0.00000000000E+00  0.00000000000E+00  0.13754032022E+03  0.13754032032E+03  0.50400001928E-02 0.  1.
       -1   -1    0    0    0  501  0.00000000000E+00  0.00000000000E+00 -0.59239988713E+03  0.59239988715E+03  0.50400001928E-02 0. -1.
    10030    2    1    2    0    0  0.00000000000E+00  0.00000000000E+00 -0.45485956691E+03  0.72994020747E+03  0.57089007775E+03 0.  0.
        3    1    3    3  502    0 -0.95922348550E+02 -0.23941903244E+03 -0.71062198001E+02  0.26753021555E+03  0.10100000352E+00 0.  1.
       -3    1    3    3    0  502  0.95922348550E+02  0.23941903244E+03 -0.38379736891E+03  0.46240999192E+03  0.10100000352E+00 0. -1.
</event>
<event>
 5   0  0.8207443E-02  0.6095851E+03  0.7818609E-02  0.9885717E-01
       -2   -1    0    0    0  501  0.00000000000E+00  0.00000000000E+00  0.96587409664E+02  0.96587409697E+02  0.25500000920E-02 0.  1.
        2   -1    0    0  501    0  0.00000000000E+00  0.00000000000E+00 -0.96180757994E+03  0.96180757994E+03  0.25500000920E-02 0. -1.
    10030    2    1    2    0    0  0.00000000000E+00  0.00000000000E+00 -0.86522017028E+03  0.10583949896E+04  0.60958511386E+03 0.  0.
        1    1    3    3  502    0  0.14769309426E+03 -0.41566401300E+02 -0.88986680507E+03  0.90299720188E+03  0.50400001928E-02 0. -1.
       -1    1    3    3    0  502 -0.14769309426E+03  0.41566401300E+02  0.24646634792E+02  0.15539778776E+03  0.50400001928E-02 0.  1.
</event>
<event>
 5   0  0.5125031E-02  0.6049835E+03  0.7818609E-02  0.9895120E-01
        1   -1    0    0  501    0  0.00000000000E+00  0.00000000000E+00  0.20056604871E+03  0.20056604877E+03  0.50400001928E-02 0.  1.
       -1   -1    0    0    0  501  0.00000000000E+00  0.00000000000E+00 -0.45621514551E+03  0.45621514553E+03  0.50400001928E-02 0. -1.
    10030    2    1    2    0    0  0.00000000000E+00  0.00000000000E+00 -0.25564909680E+03  0.65678119431E+03  0.60498353407E+03 0.  0.
        4    1    3    3  502    0 -0.68689859851E+02  0.52915172604E+02 -0.44243168104E+03  0.45084999460E+03  0.12699999809E+01 0. -1.
       -4    1    3    3    0  502  0.68689859851E+02 -0.52915172604E+02  0.18678258424E+03  0.20593119971E+03  0.12699999809E+01 0.  1.
</event>
<event>
 5   0  0.8699746E-02  0.5903842E+03  0.7818609E-02  0.9925559E-01
        2   -1    0    0  501    0  0.00000000000E+00  0.00000000000E+00  0.61678024970E+03  0.61678024971E+03  0.25500000920E-02 0.  1.
       -2   -1    0    0    0  501  0.00000000000E+00  0.00000000000E+00 -0.14127944240E+03  0.14127944242E+03  0.25500000920E-02 0. -1.
    10030    2    1    2    0    0  0.00000000000E+00  0.00000000000E+00  0.47550080730E+03  0.75805969213E+03  0.59038417923E+03 0.  0.
        3    1    3    3  502    0  0.70208500839E+02  0.10194732790E+03  0.58184583125E+03  0.59486727327E+03  0.10100000352E+00 0.  1.
       -3    1    3    3    0  502 -0.70208500839E+02 -0.10194732790E+03 -0.10634502395E+03  0.16319241887E+03  0.10100000352E+00 0. -1.
</event>
<event>
 5   0  0.5125031E-02  0.5931528E+03  0.7818609E-02  0.9919714E-01
        1   -1    0    0  501    0  0.00000000000E+00  0.00000000000E+00  0.32629445350E+03  0.32629445354E+03  0.50400001928E-02 0.  1.
       -1   -1    0    0    0  501  0.00000000000E+00  0.00000000000E+00 -0.26956502625E+03  0.26956502630E+03  0.50400001928E-02 0. -1.
    10030    2    1    2    0    0  0.00000000000E+00  0.00000000000E+00  0.56729427243E+02  0.59585947984E+03  0.59315284017E+03 0.  0.
        4    1    3    3  502    0  0.11955240568E+03  0.10890331246E+03  0.27810171845E+03  0.32170621361E+03  0.12699999809E+01 0.  1.
       -4    1    3    3    0  502 -0.11955240568E+03 -0.10890331246E+03 -0.22137229121E+03  0.27415326623E+03  0.12699999809E+01 0. -1.
</event>
<event>
 5   0  0.5190380E-02  0.5974934E+03  0.7818609E-02  0.9910620E-01
       -1   -1    0    0    0  501  0.00000000000E+00  0.00000000000E+00  0.18746641174E+03  0.18746641181E+03  0.50400001928E-02 0.  1.
        1   -1    0    0  501    0  0.00000000000E+00  0.00000000000E+00 -0.47608308071E+03  0.47608308074E+03  0.50400001928E-02 0. -1.
    10030    2    1    2    0    0  0.00000000000E+00  0.00000000000E+00 -0.28861666897E+03  0.66354949255E+03  0.59749338695E+03 0.  0.
        5    1    3    3  502    0 -0.24905062774E+03 -0.12801314096E+03 -0.28821695286E+02  0.28154282011E+03  0.46999998093E+01 0.  1.
       -5    1    3    3    0  502  0.24905062774E+03  0.12801314096E+03 -0.25979497369E+03  0.38200667244E+03  0.46999998093E+01 0. -1.
</event>
<event>
 5   0  0.5125031E-02  0.5994008E+03  0.7818609E-02  0.9906650E-01
       -1   -1    0    0    0  501  0.00000000000E+00  0.00000000000E+00  0.76634654478E+02  0.76634654644E+02  0.50400001928E-02 0.  1.
        1   -1    0    0  501    0  0.00000000000E+00  0.00000000000E+00 -0.11720588464E+04  0.11720588464E+04  0.50400001928E-02 0. -1.
    10030    2    1    2    0    0  0.00000000000E+00  0.00000000000E+00 -0.10954241919E+04  0.12486935010E+04  0.59940078355E+03 0.  0.
        4    1    3    3  502    0  0.27646639342E+03  0.10992809338E+03 -0.62284907781E+03  0.69026113829E+03  0.12699999809E+01 0.  1.
       -4    1    3    3    0  502 -0.27646639342E+03 -0.10992809338E+03 -0.47257511410E+03  0.55843236275E+03  0.12699999809E+01 0. -1.
</event>
<event>
 5   0  0.4881209E-02  0.6024411E+03  0.7818609E-02  0.9900354E-01
       -1   -1    0    0    0  501  0.00000000000E+00  0.00000000000E+00  0.76934210387E+02  0.76934210552E+02  0.50400001928E-02 0.  1.
        1   -1    0    0  501    0  0.00000000000E+00  0.00000000000E+00 -0.11793690507E+04  0.11793690507E+04  0.50400001928E-02 0. -1.
    10030    2    1    2    0    0  0.00000000000E+00  0.00000000000E+00 -0.11024348403E+04  0.12563032613E+04  0.60244112337E+03 0.  0.
        3    1    3    3  502    0  0.10224301428E+03 -0.10161667061E+02 -0.11416965746E+04  0.11463105914E+04  0.10100000352E+00 0. -1.
       -3    1    3    3    0  502 -0.10224301428E+03  0.10161667061E+02  0.39261734227E+02  0.10999266986E+03  0.10100000352E+00 0.  1.
</event>
<event>
 5   0  0.8420604E-02  0.6084065E+03  0.7818609E-02  0.9888117E-01
       -2   -1    0    0    0  501  0.00000000000E+00  0.00000000000E+00  0.61521652971E+03  0.61521652971E+03  0.25500000920E-02 0. -1.
        2   -1    0    0  501    0  0.00000000000E+00  0.00000000000E+00 -0.15041796146E+03  0.15041796148E+03  0.25500000920E-02 0.  1.
    10030    2    1    2    0    0  0.00000000000E+00  0.00000000000E+00  0.46479856825E+03  0.76563449120E+03  0.60840649657E+03 0.  0.
        2    1    3    3  502    0 -0.20710528462E+03 -0.19943054365E+03  0.10734900439E+03  0.30690218215E+03  0.25500000920E-02 0.  1.
       -2    1    3    3    0  502  0.20710528462E+03  0.19943054365E+03  0.35744956386E+03  0.45873230905E+03  0.25500000920E-02 0. -1.
</event>
<event>
 5   0  0.8575590E-02  0.6056372E+03  0.7818609E-02  0.9893779E-01
       -2   -1    0    0    0  501  0.00000000000E+00  0.00000000000E+00  0.11051893480E+03  0.11051893483E+03  0.25500000920E-02 0. -1.
        2   -1    0    0  501    0  0.00000000000E+00  0.00000000000E+00 -0.82971405168E+03  0.82971405169E+03  0.25500000920E-02 0.  1.
    10030    2    1    2    0    0  0.00000000000E+00  0.00000000000E+00 -0.71919511688E+03  0.94023298652E+03  0.60563722871E+03 0.  0.
        4    1    3    3  502    0 -0.20784245530E+03 -0.96415468998E+02 -0.66698276813E+03  0.70523900542E+03  0.12699999809E+01 0.  1.
       -4    1    3    3    0  502  0.20784245530E+03  0.96415468998E+02 -0.52212348750E+02  0.23499398110E+03  0.12699999809E+01 0. -1.
</event>
<event>
 5   0  0.8817544E-02  0.6128775E+03  0.7818609E-02  0.9879044E-01
        2   -1    0    0  501    0  0.00000000000E+00  0.00000000000E+00  0.18351521614E+04  0.18351521614E+04  0.25500000920E-02 0. -1.
       -2   -1    0    0    0  501  0.00000000000E+00  0.00000000000E+00 -0.51169983356E+02  0.51169983419E+02  0.25500000920E-02 0.  1.
    10030    2    1    2    0    0  0.00000000000E+00  0.00000000000E+00  0.17839821781E+04  0.18863221449E+04  0.61287749385E+03 0.  0.
        5    1    3    3  502    0  0.30593943102E+03  0.87454173690E+01  0.93629425909E+03  0.98506063132E+03  0.46999998093E+01 0.  1.
       -5    1    3    3    0  502 -0.30593943102E+03 -0.87454173690E+01  0.84768791899E+03  0.90126151353E+03  0.46999998093E+01 0. -1.
</event>
<event>
 5   0  0.8817544E-02  0.6020358E+03  0.7818609E-02  0.9901191E-01
        2   -1    0    0  501    0  0.00000000000E+00  0.00000000000E+00  0.30371519782E+03  0.30371519783E+03  0.25500000920E-02 0.  1.
       -2   -1    0    0    0  501  0.00000000000E+00  0.00000000000E+00 -0.29834454476E+03  0.29834454477E+03  0.25500000920E-02 0. -1.
    10030    2    1    2    0    0  0.00000000000E+00  0.00000000000E+00  0.53706530614E+01  0.60205974260E+03  0.60203578776E+03 0.  0.
        5    1    3    3  502    0 -0.26725068040E+03 -0.10962483987E+03  0.87241341593E+02  0.30178415030E+03  0.46999998093E+01 0. -1.
       -5    1    3    3    0  502  0.26725068040E+03  0.10962483987E+03 -0.81870688532E+02  0.30027559230E+03  0.46999998093E+01 0.  1.
</event>
<event>
 5   0  0.5166903E-02  0.6047833E+03  0.7818609E-02  0.9895532E-01
       -1   -1    0    0    0  501  0.00000000000E+00  0.00000000000E+00  0.30716689699E+03  0.30716689703E+03  0.50400001928E-02 0. -1.
        1   -1    0    0  501    0  0.00000000000E+00  0.00000000000E+00 -0.29769060589E+03  0.29769060593E+03  0.50400001928E-02 0.  1.
    10030    2    1    2    0    0  0.00000000000E+00  0.00000000000E+00  0.94762911023E+01  0.60485750296E+03  0.60478326597E+03 0.  0.
        2    1    3    3  502    0 -0.70804630856E+02 -0.95379902232E+02 -0.27337885115E+03  0.29807149773E+03  0.25500000920E-02 0.  1.
       -2    1    3    3    0  502  0.70804630856E+02  0.95379902232E+02  0.28285514225E+03  0.30678600523E+03  0.25500000920E-02 0. -1.
</event>
<event>
 5   0  0.5125031E-02  0.5945651E+03  0.7818609E-02  0.9916746E-01
        1   -1    0    0  501    0  0.00000000000E+00  0.00000000000E+00  0.32469644770E+03  0.32469644774E+03  0.50400001928E-02 0. -1.
       -1   -1    0    0    0  501  0.00000000000E+00  0.00000000000E+00 -0.27218319639E+03  0.27218319643E+03  0.50400001928E-02 0.  1.
    10030    2    1    2    0    0  0.00000000000E+00  0.00000000000E+00  0.52513251309E+02  0.59687964417E+03  0.59456510834E+03 0.  0.
        4    1    3    3  502    0  0.99575670334E+02 -0.11884124217E+02 -0.25468768611E+03  0.27372244499E+03  0.12699999809E+01 0.  1.
       -4    1    3    3    0  502 -0.99575670334E+02  0.11884124217E+02  0.30720093742E+03  0.32315719918E+03  0.12699999809E+01 0. -1.
</event>
<event>
 5   0  0.8699746E-02  0.5947708E+03  0.7818609E-02  0.9916315E-01
        2   -1    0    0  501    0  0.00000000000E+00  0.00000000000E+00  0.46720302958E+03  0.46720302959E+03  0.25500000920E-02 0. -1.
       -2   -1    0    0    0  501  0.00000000000E+00  0.00000000000E+00 -0.18929256875E+03  0.18929256877E+03  0.25500000920E-02 0.  1.
    10030    2    1    2    0    0  0.00000000000E+00  0.00000000000E+00  0.27791046083E+03  0.65649559836E+03  0.59477075115E+03 0.  0.
        3    1    3    3  502    0 -0.29597802425E+02  0.29552897378E+03  0.12241152936E+03  0.32124445050E+03  0.10100000352E+00 0.  1.
       -3    1    3    3    0  502  0.29597802425E+02 -0.29552897378E+03  0.15549893147E+03  0.33525114787E+03  0.10100000352E+00 0. -1.
</event>
<event>
 5   0  0.8207443E-02  0.5940724E+03  0.7818609E-02  0.9917781E-01
        2   -1    0    0  501    0  0.00000000000E+00  0.00000000000E+00  0.40558569708E+03  0.40558569708E+03  0.25500000920E-02 0.  1.
       -2   -1    0    0    0  501  0.00000000000E+00  0.00000000000E+00 -0.21753851641E+03  0.21753851643E+03  0.25500000920E-02 0. -1.
    10030    2    1    2    0    0  0.00000000000E+00  0.00000000000E+00  0.18804718066E+03  0.62312421351E+03  0.59407242261E+03 0.  0.
        1    1    3    3  502    0 -0.29493798478E+03  0.18694368235E+02  0.62685848475E+02  0.30210496502E+03  0.50400001928E-02 0.  1.
       -1    1    3    3    0  502  0.29493798478E+03 -0.18694368235E+02  0.12536133219E+03  0.32101924849E+03  0.50400001928E-02 0. -1.
</event>
<event>
 5   0  0.5190380E-02  0.6119775E+03  0.7818609E-02  0.9880864E-01
       -1   -1    0    0    0  501  0.00000000000E+00  0.00000000000E+00  0.17043023465E+03  0.17043023472E+03  0.50400001928E-02 0.  1.
        1   -1    0    0  501    0  0.00000000000E+00  0.00000000000E+00 -0.54936907873E+03  0.54936907875E+03  0.50400001928E-02 0. -1.
    10030    2    1    2    0    0  0.00000000000E+00  0.00000000000E+00 -0.37893884408E+03  0.71979931347E+03  0.61197745394E+03 0.  0.
        5    1    3    3  502    0  0.19131935798E+03  0.10931934071E+03  0.60184738531E+02  0.22846905205E+03  0.46999998093E+01 0.  1.
       -5    1    3    3    0  502 -0.19131935798E+03 -0.10931934071E+03 -0.43912358261E+03  0.49133026143E+03  0.46999998093E+01 0. -1.
</event>
<event>
 5   0  0.8817544E-02  0.6087612E+03  0.7818609E-02  0.9887394E-01
       -2   -1    0    0    0  501  0.00000000000E+00  0.00000000000E+00  0.13910640983E+03  0.13910640985E+03  0.25500000920E-02 0. -1.
        2   -1    0    0  501    0  0.00000000000E+00  0.00000000000E+00 -0.66601935611E+03  0.66601935611E+03  0.25500000920E-02 0.  1.
    10030    2    1    2    0    0  0.00000000000E+00  0.00000000000E+00 -0.52691294628E+03  0.80512576596E+03  0.60876123896E+03 0.  0.
        5    1    3    3  502    0 -0.11466518565E+03  0.66430458901E+02  0.98898001424E+02  0.16542072226E+03  0.46999998093E+01 0. -1.
       -5    1    3    3    0  502  0.11466518565E+03 -0.66430458901E+02 -0.62581094770E+03  0.63970504370E+03  0.46999998093E+01 0.  1.
</event>
<event>
 5   0  0.4881209E-02  0.5943420E+03  0.7818609E-02  0.9917215E-01
       -1   -1    0    0    0  501  0.00000000000E+00  0.00000000000E+00  0.25362842158E+03  0.25362842163E+03  0.50400001928E-02 0.  1.
        1   -1    0    0  501    0  0.00000000000E+00  0.00000000000E+00 -0.34818896562E+03  0.34818896566E+03  0.50400001928E-02 0. -1.
    10030    2    1    2    0    0  0.00000000000E+00  0.00000000000E+00 -0.94560544039E+02  0.60181738729E+03  0.59434204896E+03 0.  0.
        3    1    3    3  502    0  0.12206911104E+03 -0.44822746465E+02  0.22328957139E+03  0.25839541282E+03  0.10100000352E+00 0.  1.
       -3    1    3    3    0  502 -0.12206911104E+03  0.44822746465E+02 -0.31785011543E+03  0.34342197448E+03  0.10100000352E+00 0. -1.
</event>
<event>
 5   0  0.5190380E-02  0.5976568E+03  0.7818609E-02  0.9910279E-01
        1   -1    0    0  501    0  0.00000000000E+00  0.00000000000E+00  0.76429401170E+03  0.76429401172E+03  0.50400001928E-02 0. -1.
       -1   -1    0    0    0  501  0.00000000000E+00  0.00000000000E+00 -0.11683778315E+03  0.11683778326E+03  0.50400001928E-02 0.  1.
    10030    2    1    2    0    0  0.00000000000E+00  0.00000000000E+00  0.64745622855E+03  0.88113179498E+03  0.59765681811E+03 0.  0.
        5    1    3    3  502    0 -0.28481695132E+03  0.35042863859E+02  0.44643850426E+03  0.53073357360E+03  0.46999998093E+01 0. -1.
       -5    1    3    3    0  502  0.28481695132E+03 -0.35042863859E+02  0.20101772430E+03  0.35039822138E+03  0.46999998093E+01 0.  1.
</event>
<event>
 5   0  0.8420604E-02  0.5952330E+03  0.7818609E-02  0.9915346E-01
       -2   -1    0    0    0  501  0.00000000000E+00  0.00000000000E+00  0.10644987165E+03  0.10644987168E+03  0.25500000920E-02 0. -1.
        2   -1    0    0  501    0  0.00000000000E+00  0.00000000000E+00 -0.83208725958E+03  0.83208725958E+03  0.25500000920E-02 0.  1.
    10030    2    1    2    0    0  0.00000000000E+00  0.00000000000E+00 -0.72563738793E+03  0.93853713126E+03  0.59523300311E+03 0.  0.
        2    1    3    3  502    0 -0.26077424305E+03 -0.39482536867E+02 -0.58023672226E+03  0.63736702959E+03  0.25500000920E-02 0.  1.
       -2    1    3    3    0  502  0.26077424305E+03  0.39482536867E+02 -0.14540066568E+03  0.30117010167E+03  0.25500000920E-02 0. -1.
</event>
<event>
 5   0  0.4987389E-02  0.6105097E+03  0.7818609E-02  0.9883838E-01
        1   -1    0    0  501    0  0.00000000000E+00  0.00000000000E+00  0.99698113927E+02  0.99698114055E+02  0.50400001928E-02 0.  1.
       -1   -1    0    0    0  501  0.00000000000E+00  0.00000000000E+00 -0.93462685306E+03  0.93462685307E+03  0.50400001928E-02 0. -1.
    10030    2    1    2    0    0  0.00000000000E+00  0.00000000000E+00 -0.83492873913E+03  0.10343249671E+04  0.61050973636E+03 0.  0.
        1    1    3    3  502    0  0.18014055843E+03  0.43048948252E+02 -0.63750910307E+01  0.18532262288E+03  0.50400001928E-02 0.  1.
       -1    1    3    3    0  502 -0.18014055843E+03 -0.43048948252E+02 -0.82855364810E+03  0.84900234425E+03  0.50400001928E-02 0. -1.
</event>
<event>
 5   0  0.8699746E-02  0.6669320E+03  0.7818609E-02  0.9775516E-01
       -2   -1    0    0    0  501  0.00000000000E+00  0.00000000000E+00  0.38244008548E+03  0.38244008549E+03  0.25500000920E-02 0.  1.
        2   -1    0    0  501    0  0.00000000000E+00  0.00000000000E+00 -0.29076339648E+03  0.29076339649E+03  0.25500000920E-02 0. -1.
    10030    2    1    2    0    0  0.00000000000E+00  0.00000000000E+00  0.91676689001E+02  0.67320348199E+03  0.66693201517E+03 0.  0.
        3    1    3    3  502    0  0.21236072916E+03 -0.20813008121E+03 -0.10652594334E+03  0.31585280875E+03  0.10100000352E+00 0.  1.
       -3    1    3    3    0  502 -0.21236072916E+03  0.20813008121E+03  0.19820263234E+03  0.35735067323E+03  0.10100000352E+00 0. -1.
</event>
<event>
 5   0  0.8420604E-02  0.6298861E+03  0.7818609E-02  0.9845271E-01
       -2   -1    0    0    0  501  0.00000000000E+00  0.00000000000E+00  0.85795854304E+02  0.85795854342E+02  0.25500000920E-02 0.  1.
        2   -1    0    0  501    0  0.00000000000E+00  0.00000000000E+00 -0.11561062308E+04  0.11561062308E+04  0.25500000920E-02 0. -1.
    10030    2    1    2    0    0  0.00000000000E+00  0.00000000000E+00 -0.10703103765E+04  0.12419020851E+04  0.62988609053E+03 0.  0.
        2    1    3    3  502    0 -0.25434396253E+03 -0.54180760643E+02 -0.18487746392E+03  0.31907065483E+03  0.25500000920E-02 0.  1.
       -2    1    3    3    0  502  0.25434396253E+03  0.54180760643E+02 -0.88543291255E+03  0.92283143030E+03  0.25500000920E-02 0. -1.
</event>
<event>
 5   0  0.4987389E-02  0.5953306E+03  0.7818609E-02  0.9915141E-01
        1   -1    0    0  501    0  0.00000000000E+00  0.00000000000E+00  0.13388954766E+03  0.13388954775E+03  0.50400001928E-02 0.  1.
       -1   -1    0    0    0  501  0.00000000000E+00  0.00000000000E+00 -0.66177413907E+03  0.66177413909E+03  0.50400001928E-02 0. -1.
    10030    2    1    2    0    0  0.00000000000E+00  0.00000000000E+00 -0.52788459141E+03  0.79566368684E+03  0.59533063142E+03 0.  0.
        1    1    3    3  502    0 -0.17330407421E+02  0.27968581174E+03 -0.39812751300E+03  0.48685728191E+03  0.50400001928E-02 0. -1.
       -1    1    3    3    0  502  0.17330407421E+02 -0.27968581174E+03 -0.12975707841E+03  0.30880640494E+03  0.50400001928E-02 0.  1.
</event>
<event>
 5   0  0.8817544E-02  0.6005528E+03  0.7818609E-02  0.9904260E-01
       -2   -1    0    0    0  501  0.00000000000E+00  0.00000000000E+00  0.24388516873E+03  0.24388516874E+03  0.25500000920E-02 0. -1.
        2   -1    0    0  501    0  0.00000000000E+00  0.00000000000E+00 -0.36970640680E+03  0.36970640681E+03  0.25500000920E-02 0.  1.
    10030    2    1    2    0    0  0.00000000000E+00  0.00000000000E+00 -0.12582123807E+03  0.61359157555E+03  0.60055277673E+03 0.  0.
        5    1    3    3  502    0  0.20044130374E+03  0.13486517468E+03 -0.24504621145E+03  0.34414396309E+03  0.46999998093E+01 0.  1.
       -5    1    3    3    0  502 -0.20044130374E+03 -0.13486517468E+03  0.11922497338E+03  0.26944761246E+03  0.46999998093E+01 0. -1.
</event>
<event>
 5   0  0.8420604E-02  0.6114015E+03  0.7818609E-02  0.9882030E-01
        2   -1    0    0  501    0  0.00000000000E+00  0.00000000000E+00  0.23876864655E+03  0.23876864656E+03  0.25500000920E-02 0. -1.
       -2   -1    0    0    0  501  0.00000000000E+00  0.00000000000E+00 -0.39139542405E+03  0.39139542406E+03  0.25500000920E-02 0.  1.
    10030    2    1    2    0    0  0.00000000000E+00  0.00000000000E+00 -0.15262677750E+03  0.63016407062E+03  0.61140152329E+03 0.  0.
        2    1    3    3  502    0  0.19406621770E+03  0.23421804938E+03 -0.44828211236E+02  0.30745627337E+03  0.25500000920E-02 0. -1.
       -2    1    3    3    0  502 -0.19406621770E+03 -0.23421804938E+03 -0.10779856627E+03  0.32270779725E+03  0.25500000920E-02 0.  1.
</event>
<event>
 5   0  0.8817544E-02  0.6957822E+03  0.7818609E-02  0.9724473E-01
       -2   -1    0    0    0  501  0.00000000000E+00  0.00000000000E+00  0.33713843426E+03  0.33713843427E+03  0.25500000920E-02 0.  1.
        2   -1    0    0  501    0  0.00000000000E+00  0.00000000000E+00 -0.35898670262E+03  0.35898670263E+03  0.25500000920E-02 0. -1.
    10030    2    1    2    0    0  0.00000000000E+00  0.00000000000E+00 -0.21848268360E+02  0.69612513690E+03  0.69578219249E+03 0.  0.
        5    1    3    3  502    0 -0.12789773691E+02  0.32435893634E+03 -0.13602106573E+03  0.35198880410E+03  0.46999998093E+01 0. -1.
       -5    1    3    3    0  502  0.12789773691E+02 -0.32435893634E+03  0.11417279737E+03  0.34413633280E+03  0.46999998093E+01 0.  1.
</event>
<event>
 5   0  0.5125031E-02  0.6047329E+03  0.7818609E-02  0.9895635E-01
       -1   -1    0    0    0  501  0.00000000000E+00  0.00000000000E+00  0.14073249334E+04  0.14073249334E+04  0.50400001928E-02 0.  1.
        1   -1    0    0  501    0  0.00000000000E+00  0.00000000000E+00 -0.64964008194E+02  0.64964008390E+02  0.50400001928E-02 0. -1.
    10030    2    1    2    0    0  0.00000000000E+00  0.00000000000E+00  0.13423609252E+04  0.14722889418E+04  0.60473289527E+03 0.  0.
        4    1    3    3  502    0 -0.18549791109E+03  0.22746203103E+03  0.49434988417E+03  0.57491901295E+03  0.12699999809E+01 0. -1.
       -4    1    3    3    0  502  0.18549791109E+03 -0.22746203103E+03  0.84801104103E+03  0.89736992884E+03  0.12699999809E+01 0.  1.
</event>
<event>
 5   0  0.8575590E-02  0.5997446E+03  0.7818609E-02  0.9905936E-01
        2   -1    0    0  501    0  0.00000000000E+00  0.00000000000E+00  0.50365453087E+03  0.50365453088E+03  0.25500000920E-02 0.  1.
       -2   -1    0    0    0  501  0.00000000000E+00  0.00000000000E+00 -0.17854182832E+03  0.17854182834E+03  0.25500000920E-02 0. -1.
    10030    2    1    2    0    0  0.00000000000E+00  0.00000000000E+00  0.32511270256E+03  0.68219635922E+03  0.59974461495E+03 0.  0.
        4    1    3    3  502    0  0.49746609606E+02  0.53931321825E+02 -0.16817110106E+03  0.18348418126E+03  0.12699999809E+01 0. -1.
       -4    1    3    3    0  502 -0.49746609606E+02 -0.53931321825E+02  0.49328380361E+03  0.49871217796E+03  0.12699999809E+01 0.  1.
</event>
<event>
 5   0  0.8699746E-02  0.5984471E+03  0.7818609E-02  0.9908633E-01
        2   -1    0    0  501    0  0.00000000000E+00  0.00000000000E+00  0.59078012724E+03  0.59078012724E+03  0.25500000920E-02 0.  1.
       -2   -1    0    0    0  501  0.00000000000E+00  0.00000000000E+00 -0.15155340906E+03  0.15155340909E+03  0.25500000920E-02 0. -1.
    10030    2    1    2    0    0  0.00000000000E+00  0.00000000000E+00  0.43922671817E+03  0.74233353633E+03  0.59844713150E+03 0.  0.
        3    1    3    3  502    0  0.18462066872E+03  0.18025675908E+03  0.40756020219E+03  0.48237186809E+03  0.10100000352E+00 0. -1.
       -3    1    3    3    0  502 -0.18462066872E+03 -0.18025675908E+03  0.31666515977E+02  0.25996166823E+03  0.10100000352E+00 0.  1.
</event>
<event>
 5   0  0.8817544E-02  0.6007923E+03  0.7818609E-02  0.9903764E-01
        2   -1    0    0  501    0  0.00000000000E+00  0.00000000000E+00  0.23323635671E+03  0.23323635672E+03  0.25500000920E-02 0. -1.
       -2   -1    0    0    0  501  0.00000000000E+00  0.00000000000E+00 -0.38689441911E+03  0.38689441912E+03  0.25500000920E-02 0.  1.
    10030    2    1    2    0    0  0.00000000000E+00  0.00000000000E+00 -0.15365806240E+03  0.62013077584E+03  0.60079229272E+03 0.  0.
        5    1    3    3  502    0  0.39897102832E+02  0.84953672336E+02 -0.37133181622E+03  0.38303826571E+03  0.46999998093E+01 0.  1.
       -5    1    3    3    0  502 -0.39897102832E+02 -0.84953672336E+02  0.21767375382E+03  0.23709251013E+03  0.46999998093E+01 0. -1.
</event>
<event>
 5   0  0.8699746E-02  0.6004962E+03  0.7818609E-02  0.9904377E-01
       -2   -1    0    0    0  501  0.00000000000E+00  0.00000000000E+00  0.12345150299E+03  0.12345150302E+03  0.25500000920E-02 0.  1.
        2   -1    0    0  501    0  0.00000000000E+00  0.00000000000E+00 -0.73023756084E+03  0.73023756084E+03  0.25500000920E-02 0. -1.
    10030    2    1    2    0    0  0.00000000000E+00  0.00000000000E+00 -0.60678605785E+03  0.85368906386E+03  0.60049620961E+03 0.  0.
        3    1    3    3  502    0 -0.26602819108E+03  0.59655929347E+02 -0.12458783111E+03  0.29975317549E+03  0.10100000352E+00 0. -1.
       -3    1    3    3    0  502  0.26602819108E+03 -0.59655929347E+02 -0.48219822674E+03  0.55393588837E+03  0.10100000352E+00 0.  1.
</event>
<event>
 5   0  0.4987389E-02  0.6008168E+03  0.7818609E-02  0.9903713E-01
       -1   -1    0    0    0  501  0.00000000000E+00  0.00000000000E+00  0.12215008976E+03  0.12215008987E+03  0.50400001928E-02 0. -1.
        1   -1    0    0  501    0  0.00000000000E+00  0.00000000000E+00 -0.73880578822E+03  0.73880578824E+03  0.50400001928E-02 0.  1.
    10030    2    1    2    0    0  0.00000000000E+00  0.00000000000E+00 -0.61665569846E+03  0.86095587811E+03  0.60081675543E+03 0.  0.
        1    1    3    3  502    0  0.24756820539E+03 -0.83134435321E+01 -0.55187499387E+03  0.60491746424E+03  0.50400001928E-02 0.  1.
       -1    1    3    3    0  502 -0.24756820539E+03  0.83134435321E+01 -0.64780704590E+02  0.25603841386E+03  0.50400001928E-02 0. -1.
</event>
<event>
 5   0  0.4881209E-02  0.5967103E+03  0.7818609E-02  0.9912255E-01
       -1   -1    0    0    0  501  0.00000000000E+00  0.00000000000E+00  0.13787188091E+03  0.13787188101E+03  0.50400001928E-02 0.  1.
        1   -1    0    0  501    0  0.00000000000E+00  0.00000000000E+00 -0.64564131124E+03  0.64564131126E+03  0.50400001928E-02 0. -1.
    10030    2    1    2    0    0  0.00000000000E+00  0.00000000000E+00 -0.50776943033E+03  0.78351319227E+03  0.59671025472E+03 0.  0.
        3    1    3    3  502    0 -0.17842370691E+03 -0.45883989946E+02 -0.56203437276E+03  0.59145837223E+03  0.10100000352E+00 0. -1.
       -3    1    3    3    0  502  0.17842370691E+03  0.45883989946E+02  0.54264942430E+02  0.19205482004E+03  0.10100000352E+00 0.  1.
</event>
<event>
 5   0  0.8575590E-02  0.7473271E+03  0.7818609E-02  0.9639553E-01
       -2   -1    0    0    0  501  0.00000000000E+00  0.00000000000E+00  0.46639319993E+03  0.46639319994E+03  0.25500000920E-02 0.  1.
        2   -1    0    0  501    0  0.00000000000E+00  0.00000000000E+00 -0.29937069729E+03  0.29937069730E+03  0.25500000920E-02 0. -1.
    10030    2    1    2    0    0  0.00000000000E+00  0.00000000000E+00  0.16702250264E+03  0.76576389724E+03  0.74732712377E+03 0.  0.
        4    1    3    3  502    0  0.79270400059E+02  0.35343562996E+03  0.17754843019E+03  0.40339261125E+03  0.12699999809E+01 0. -1.
       -4    1    3    3    0  502 -0.79270400059E+02 -0.35343562996E+03 -0.10525927546E+02  0.36237128598E+03  0.12699999809E+01 0.  1.
</event>
<event>
 5   0  0.5190380E-02  0.7140763E+03  0.7818609E-02  0.9693458E-01
       -1   -1    0    0    0  501  0.00000000000E+00  0.00000000000E+00  0.22636433523E+03  0.22636433529E+03  0.50400001928E-02 0. -1.
        1   -1    0    0  501    0  0.00000000000E+00  0.00000000000E+00 -0.56314625956E+03  0.56314625958E+03  0.50400001928E-02 0.  1.
    10030    2    1    2    0    0  0.00000000000E+00  0.00000000000E+00 -0.33678192432E+03  0.78951059487E+03  0.71407626684E+03 0.  0.
        5    1    3    3  502    0  0.15598399317E+03 -0.22122613455E+03  0.88969246672E+02  0.28497302606E+03  0.46999998093E+01 0. -1.
       -5    1    3    3    0  502 -0.15598399317E+03  0.22122613455E+03 -0.42575117099E+03  0.50453756880E+03  0.46999998093E+01 0.  1.
</event>
<event>
 5   0  0.5190380E-02  0.5995615E+03  0.7818609E-02  0.9906316E-01
       -1   -1    0    0    0  501  0.00000000000E+00  0.00000000000E+00  0.27440986662E+03  0.27440986666E+03  0.50400001928E-02 0. -1.
        1   -1    0    0  501    0  0.00000000000E+00  0.00000000000E+00 -0.32749734332E+03  0.32749734336E+03  0.50400001928E-02 0.  1.
    10030    2    1    2    0    0  0.00000000000E+00  0.00000000000E+00 -0.53087476699E+02  0.60190721002E+03  0.59956151419E+03 0.  0.
        5    1    3    3  502    0  0.18682981002E+01  0.12782913350E+03 -0.29871812340E+03  0.32495905150E+03  0.46999998093E+01 0.  1.
       -5    1    3    3    0  502 -0.18682981002E+01 -0.12782913350E+03  0.24563064670E+03  0.27694815852E+03  0.46999998093E+01 0. -1.
</event>
<event>
 5   0  0.4881209E-02  0.6004159E+03  0.7818609E-02  0.9904544E-01
       -1   -1    0    0    0  501  0.00000000000E+00  0.00000000000E+00  0.56638726012E+02  0.56638726237E+02  0.50400001928E-02 0.  1.
        1   -1    0    0  501    0  0.00000000000E+00  0.00000000000E+00 -0.15912225376E+04  0.15912225376E+04  0.50400001928E-02 0. -1.
    10030    2    1    2    0    0  0.00000000000E+00  0.00000000000E+00 -0.15345838116E+04  0.16478612638E+04  0.60041591425E+03 0.  0.
        3    1    3    3  502    0  0.18672252552E+03 -0.23187381322E+03 -0.66120796626E+03  0.72513912572E+03  0.10100000352E+00 0.  1.
       -3    1    3    3    0  502 -0.18672252552E+03  0.23187381322E+03 -0.87337584529E+03  0.92272213810E+03  0.10100000352E+00 0. -1.
</event>
<event>
 5   0  0.3437375E-02  0.5991843E+03  0.7818609E-02  0.9907100E-01
       -3   -1    0    0    0  501  0.00000000000E+00  0.00000000000E+00  0.84916430854E+03  0.84916431455E+03  0.10100000352E+00 0. -1.
        3   -1    0    0  501    0  0.00000000000E+00  0.00000000000E+00 -0.10569852884E+03  0.10569857710E+03  0.10100000352E+00 0.  1.
    10030    2    1    2    0    0  0.00000000000E+00  0.00000000000E+00  0.74346577970E+03  0.95486289165E+03  0.59918425902E+03 0.  0.
        5    1    3    3  502    0 -0.20132514030E+03 -0.22134025646E+03  0.34863755826E+03  0.45944919009E+03  0.46999998093E+01 0. -1.
       -5    1    3    3    0  502  0.20132514030E+03  0.22134025646E+03  0.39482822144E+03  0.49541370156E+03  0.46999998093E+01 0.  1.
</event>
<event>
 5   0  0.5190380E-02  0.6084340E+03  0.7818609E-02  0.9888061E-01
       -1   -1    0    0    0  501  0.00000000000E+00  0.00000000000E+00  0.96507798816E+02  0.96507798948E+02  0.50400001928E-02 0. -1.
        1   -1    0    0  501    0  0.00000000000E+00  0.00000000000E+00 -0.95896894184E+03  0.95896894185E+03  0.50400001928E-02 0.  1.
    10030    2    1    2    0    0  0.00000000000E+00  0.00000000000E+00 -0.86246114302E+03  0.10554767408E+04  0.60843399572E+03 0.  0.
        5    1    3    3  502    0  0.19789195568E+03  0.86212482129E+02 -0.80301673374E+03  0.83153579771E+03  0.46999998093E+01 0.  1.
       -5    1    3    3    0  502 -0.19789195568E+03 -0.86212482129E+02 -0.59444409278E+02  0.22394094309E+03  0.46999998093E+01 0. -1.
</event>
<event>
 5   0  0.4987389E-02  0.6034830E+03  0.7818609E-02  0.9898206E-01
       -1   -1    0    0    0  501  0.00000000000E+00  0.00000000000E+00  0.57742699111E+03  0.57742699113E+03  0.50400001928E-02 0. -1.
        1   -1    0    0  501    0  0.00000000000E+00  0.00000000000E+00 -0.15767867376E+03  0.15767867384E+03  0.50400001928E-02 0.  1.
    10030    2    1    2    0    0  0.00000000000E+00  0.00000000000E+00  0.41974831735E+03  0.73510566497E+03  0.60348296476E+03 0.  0.
        1    1    3    3  502    0  0.19799959445E+03  0.88017055982E+02  0.46566775836E+03  0.51361201578E+03  0.50400001928E-02 0. -1.
       -1    1    3    3    0  502 -0.19799959445E+03 -0.88017055982E+02 -0.45919441007E+02  0.22149364920E+03  0.50400001928E-02 0.  1.
</event>
<event>
 5   0  0.8207443E-02  0.5993993E+03  0.7818609E-02  0.9906653E-01
        2   -1    0    0  501    0  0.00000000000E+00  0.00000000000E+00  0.48063797964E+03  0.48063797965E+03  0.25500000920E-02 0. -1.
       -2   -1    0    0    0  501  0.00000000000E+00  0.00000000000E+00 -0.18687634943E+03  0.18687634944E+03  0.25500000920E-02 0.  1.
    10030    2    1    2    0    0  0.00000000000E+00  0.00000000000E+00  0.29376163022E+03  0.66751432909E+03  0.59939926940E+03 0.  0.
        1    1    3    3  502    0  0.16908787995E+03  0.24736161401E+03  0.13971605853E+03  0.33060407782E+03  0.50400001928E-02 0. -1.
       -1    1    3    3    0  502 -0.16908787995E+03 -0.24736161401E+03  0.15404557169E+03  0.33691025127E+03  0.50400001928E-02 0.  1.
</event>
<event>
 5   0  0.5166903E-02  0.6088677E+03  0.7818609E-02  0.9887177E-01
       -1   -1    0    0    0  501  0.00000000000E+00  0.00000000000E+00  0.17668925348E+03  0.17668925356E+03  0.50400001928E-02 0. -1.
        1   -1    0    0  501    0  0.00000000000E+00  0.00000000000E+00 -0.52453649431E+03  0.52453649434E+03  0.50400001928E-02 0.  1.
    10030    2    1    2    0    0  0.00000000000E+00  0.00000000000E+00 -0.34784724083E+03  0.70122574789E+03  0.60886767573E+03 0.  0.
        2    1    3    3  502    0 -0.12051347021E+03 -0.13405409775E+03  0.10861807478E+03  0.21045637030E+03  0.25500000920E-02 0. -1.
       -2    1    3    3    0  502  0.12051347021E+03  0.13405409775E+03 -0.45646531560E+03  0.49076937759E+03  0.25500000920E-02 0.  1.
</event>
<event>
 5   0  0.4881209E-02  0.6185213E+03  0.7818609E-02  0.9867708E-01
        1   -1    0    0  501    0  0.00000000000E+00  0.00000000000E+00  0.15510345148E+04  0.15510345148E+04  0.50400001928E-02 0.  1.
       -1   -1    0    0    0  501  0.00000000000E+00  0.00000000000E+00 -0.61663456104E+02  0.61663456310E+02  0.50400001928E-02 0. -1.
    10030    2    1    2    0    0  0.00000000000E+00  0.00000000000E+00  0.14893710587E+04  0.16126979711E+04  0.61852129758E+03 0.  0.
        3    1    3    3  502    0 -0.29515096778E+03  0.89858971670E+02  0.80020482971E+03  0.85762259081E+03  0.10100000352E+00 0. -1.
       -3    1    3    3    0  502  0.29515096778E+03 -0.89858971670E+02  0.68916622895E+03  0.75507538027E+03  0.10100000352E+00 0.  1.
</event>
<event>
 5   0  0.3437375E-02  0.5828504E+03  0.7818609E-02  0.9941639E-01
       -3   -1    0    0    0  501  0.00000000000E+00  0.00000000000E+00  0.34228960989E+03  0.34228962479E+03  0.10100000352E+00 0.  1.
        3   -1    0    0  501    0  0.00000000000E+00  0.00000000000E+00 -0.24811922574E+03  0.24811924630E+03  0.10100000352E+00 0. -1.
    10030    2    1    2    0    0  0.00000000000E+00  0.00000000000E+00  0.94170384148E+02  0.59040887109E+03  0.58285038716E+03 0.  0.
        3    1    3    3  502    0  0.11816737662E+03 -0.15902979455E+03  0.26357292787E+03  0.32973429145E+03  0.10100000352E+00 0.  1.
       -3    1    3    3    0  502 -0.11816737662E+03  0.15902979455E+03 -0.16940254372E+03  0.26067457964E+03  0.10100000352E+00 0. -1.
</event>
<event>
 5   0  0.5166903E-02  0.5956443E+03  0.7818609E-02  0.9914484E-01
       -1   -1    0    0    0  501  0.00000000000E+00  0.00000000000E+00  0.56074133397E+03  0.56074133400E+03  0.50400001928E-02 0.  1.
        1   -1    0    0  501    0  0.00000000000E+00  0.00000000000E+00 -0.15817995503E+03  0.15817995511E+03  0.50400001928E-02 0. -1.
    10030    2    1    2    0    0  0.00000000000E+00  0.00000000000E+00  0.40256137894E+03  0.71892128911E+03  0.59564432015E+03 0.  0.
        2    1    3    3  502    0 -0.28195113722E+03  0.79802512317E+02  0.13703715132E+03  0.32348734998E+03  0.25500000920E-02 0. -1.
       -2    1    3    3    0  502  0.28195113722E+03 -0.79802512317E+02  0.26552422762E+03  0.39543393913E+03  0.25500000920E-02 0.  1.
</event>
<event>
 5   0  0.4881209E-02  0.5965413E+03  0.7818609E-02  0.9912608E-01
        1   -1    0    0  501    0  0.00000000000E+00  0.00000000000E+00  0.27194613916E+03  0.27194613920E+03  0.50400001928E-02 0. -1.
       -1   -1    0    0    0  501  0.00000000000E+00  0.00000000000E+00 -0.32714340628E+03  0.32714340632E+03  0.50400001928E-02 0.  1.
    10030    2    1    2    0    0  0.00000000000E+00  0.00000000000E+00 -0.55197267123E+02  0.59908954552E+03  0.59654131899E+03 0.  0.
        3    1    3    3  502    0  0.31243625322E+02 -0.51590961611E+02 -0.32095528323E+03  0.32657326203E+03  0.10100000352E+00 0.  1.
       -3    1    3    3    0  502 -0.31243625322E+02  0.51590961611E+02  0.26575801610E+03  0.27251628349E+03  0.10100000352E+00 0. -1.
</event>
<event>
 5   0  0.8817544E-02  0.6004410E+03  0.7818609E-02  0.9904491E-01
       -2   -1    0    0    0  501  0.00000000000E+00  0.00000000000E+00  0.75604427617E+02  0.75604427660E+02  0.25500000920E-02 0.  1.
        2   -1    0    0  501    0  0.00000000000E+00  0.00000000000E+00 -0.11921571719E+04  0.11921571719E+04  0.25500000920E-02 0. -1.
    10030    2    1    2    0    0  0.00000000000E+00  0.00000000000E+00 -0.11165527443E+04  0.12677615996E+04  0.60044104004E+03 0.  0.
        5    1    3    3  502    0 -0.24368720447E+03 -0.87558124458E+02 -0.23764902199E+03  0.35149541453E+03  0.46999998093E+01 0. -1.
       -5    1    3    3    0  502  0.24368720447E+03  0.87558124458E+02 -0.87890372232E+03  0.91626618506E+03  0.46999998093E+01 0.  1.
</event>
<event>
 5   0  0.8207443E-02  0.6131562E+03  0.7818609E-02  0.9878481E-01
       -2   -1    0    0    0  501  0.00000000000E+00  0.00000000000E+00  0.87981990556E+02  0.87981990593E+02  0.25500000920E-02 0.  1.
        2   -1    0    0  501    0  0.00000000000E+00  0.00000000000E+00 -0.10682881610E+04  0.10682881610E+04  0.25500000920E-02 0. -1.
    10030    2    1    2    0    0  0.00000000000E+00  0.00000000000E+00 -0.98030617048E+03  0.11562701516E+04  0.61315615929E+03 0.  0.
        1    1    3    3  502    0 -0.27768872618E+03 -0.12768881327E+03 -0.44494744227E+03  0.53980893665E+03  0.50400001928E-02 0. -1.
       -1    1    3    3    0  502  0.27768872618E+03  0.12768881327E+03 -0.53535872821E+03  0.61646121498E+03  0.50400001928E-02 0.  1.
</event>
<event>
 5   0  0.4987389E-02  0.6035483E+03  0.7818609E-02  0.9898072E-01
        1   -1    0    0  501    0  0.00000000000E+00  0.00000000000E+00  0.69264552282E+03  0.69264552283E+03  0.50400001928E-02 0.  1.
       -1   -1    0    0    0  501  0.00000000000E+00  0.00000000000E+00 -0.13147798760E+03  0.13147798770E+03  0.50400001928E-02 0. -1.
    10030    2    1    2    0    0  0.00000000000E+00  0.00000000000E+00  0.56116753521E+03  0.82412351054E+03  0.60354830630E+03 0.  0.
        1    1    3    3  502    0  0.99664907645E+02  0.22286437646E+03  0.38368706951E+02  0.24713110247E+03  0.50400001928E-02 0. -1.
       -1    1    3    3    0  502 -0.99664907645E+02 -0.22286437646E+03  0.52279882826E+03  0.57699240807E+03  0.50400001928E-02 0.  1.
</event>
<event>
 5   0  0.8420604E-02  0.6004090E+03  0.7818609E-02  0.9904558E-01
       -2   -1    0    0    0  501  0.00000000000E+00  0.00000000000E+00  0.25680963454E+03  0.25680963455E+03  0.25500000920E-02 0.  1.
        2   -1    0    0  501    0  0.00000000000E+00  0.00000000000E+00 -0.35093210871E+03  0.35093210872E+03  0.25500000920E-02 0. -1.
    10030    2    1    2    0    0  0.00000000000E+00  0.00000000000E+00 -0.94122474177E+02  0.60774174327E+03  0.60040901589E+03 0.  0.
        2    1    3    3  502    0  0.94031515192E+02  0.18446164167E+03  0.17297513474E+03  0.26979329188E+03  0.25500000920E-02 0.  1.
       -2    1    3    3    0  502 -0.94031515192E+02 -0.18446164167E+03 -0.26709760892E+03  0.33794845139E+03  0.25500000920E-02 0. -1.
</event>
<event>
 5   0  0.8817544E-02  0.6036473E+03  0.7818609E-02  0.9897868E-01
        2   -1    0    0  501    0  0.00000000000E+00  0.00000000000E+00  0.44714884896E+03  0.44714884897E+03  0.25500000920E-02 0. -1.
       -2   -1    0    0    0  501  0.00000000000E+00  0.00000000000E+00 -0.20372975554E+03  0.20372975556E+03  0.25500000920E-02 0.  1.
    10030    2    1    2    0    0  0.00000000000E+00  0.00000000000E+00  0.24341909342E+03  0.65087860452E+03  0.60364733312E+03 0.  0.
        5    1    3    3  502    0 -0.21045965127E+03 -0.45535828467E+02 -0.10627873866E+03  0.24017501281E+03  0.46999998093E+01 0.  1.
       -5    1    3    3    0  502  0.21045965127E+03  0.45535828467E+02  0.34969783208E+03  0.41070359172E+03  0.46999998093E+01 0. -1.
</event>
<event>
 5   0  0.5166903E-02  0.5995434E+03  0.7818609E-02  0.9906354E-01
       -1   -1    0    0    0  501  0.00000000000E+00  0.00000000000E+00  0.19602194503E+03  0.19602194510E+03  0.50400001928E-02 0. -1.
        1   -1    0    0  501    0  0.00000000000E+00  0.00000000000E+00 -0.45843379973E+03  0.45843379976E+03  0.50400001928E-02 0.  1.
    10030    2    1    2    0    0  0.00000000000E+00  0.00000000000E+00 -0.26241185470E+03  0.65445574485E+03  0.59954344337E+03 0.  0.
        2    1    3    3  502    0  0.13623906363E+02  0.89059538143E+02 -0.44330504757E+03  0.45236774572E+03  0.25500000920E-02 0.  1.
       -2    1    3    3    0  502 -0.13623906363E+02 -0.89059538143E+02  0.18089319288E+03  0.20208799913E+03  0.25500000920E-02 0. -1.
</event>
<event>
 5   0  0.8420604E-02  0.5978791E+03  0.7818609E-02  0.9909816E-01
        2   -1    0    0  501    0  0.00000000000E+00  0.00000000000E+00  0.32960836524E+03  0.32960836525E+03  0.25500000920E-02 0.  1.
       -2   -1    0    0    0  501  0.00000000000E+00  0.00000000000E+00 -0.27112438198E+03  0.27112438199E+03  0.25500000920E-02 0. -1.
    10030    2    1    2    0    0  0.00000000000E+00  0.00000000000E+00  0.58483983261E+02  0.60073274725E+03  0.59787913270E+03 0.  0.
        2    1    3    3  502    0 -0.15015723532E+03 -0.15714664326E+03 -0.17697550188E+03  0.28029019084E+03  0.25500000920E-02 0. -1.
       -2    1    3    3    0  502  0.15015723532E+03  0.15714664326E+03  0.23545948515E+03  0.32044255641E+03  0.25500000920E-02 0.  1.
</event>
<event>
 5   0  0.8699746E-02  0.6084070E+03  0.7818609E-02  0.9888116E-01
        2   -1    0    0  501    0  0.00000000000E+00  0.00000000000E+00  0.72913129646E+03  0.72913129647E+03  0.25500000920E-02 0.  1.
       -2   -1    0    0    0  501  0.00000000000E+00  0.00000000000E+00 -0.12691784375E+03  0.12691784378E+03  0.25500000920E-02 0. -1.
    10030    2    1    2    0    0  0.00000000000E+00  0.00000000000E+00  0.60221345271E+03  0.85604914024E+03  0.60840700841E+03 0.  0.
        3    1    3    3  502    0 -0.12928075865E+02 -0.26926757379E+03  0.10278184887E+03  0.28850698449E+03  0.10100000352E+00 0. -1.
       -3    1    3    3    0  502  0.12928075865E+02  0.26926757379E+03  0.49943160384E+03  0.56754215575E+03  0.10100000352E+00 0.  1.
</event>
<event>
 5   0  0.5190380E-02  0.5926863E+03  0.7818609E-02  0.9920697E-01
       -1   -1    0    0    0  501  0.00000000000E+00  0.00000000000E+00  0.15566576513E+03  0.15566576521E+03  0.50400001928E-02 0.  1.
        1   -1    0    0  501    0  0.00000000000E+00  0.00000000000E+00 -0.56415270411E+03  0.56415270414E+03  0.50400001928E-02 0. -1.
    10030    2    1    2    0    0  0.00000000000E+00  0.00000000000E+00 -0.40848693899E+03  0.71981846934E+03  0.59268629939E+03 0.  0.
        5    1    3    3  502    0  0.93606403572E+02 -0.72256845307E+02 -0.53420807427E+03  0.54715954447E+03  0.46999998093E+01 0. -1.
       -5    1    3    3    0  502 -0.93606403572E+02  0.72256845307E+02  0.12572113529E+03  0.17265892488E+03  0.46999998093E+01 0.  1.
</event>
<event>
 5   0  0.4881209E-02  0.6001075E+03  0.7818609E-02  0.9905183E-01
        1   -1    0    0  501    0  0.00000000000E+00  0.00000000000E+00  0.41383994135E+03  0.41383994138E+03  0.50400001928E-02 0. -1.
       -1   -1    0    0    0  501  0.00000000000E+00  0.00000000000E+00 -0.21755329292E+03  0.21755329298E+03  0.50400001928E-02 0.  1.
    10030    2    1    2    0    0  0.00000000000E+00  0.00000000000E+00  0.19628664843E+03  0.63139323436E+03  0.60010746374E+03 0.  0.
        3    1    3    3  502    0 -0.22663824268E+03  0.43379733699E+02  0.29993788156E+03  0.37843022783E+03  0.10100000352E+00 0. -1.
       -3    1    3    3    0  502  0.22663824268E+03 -0.43379733699E+02 -0.10365123313E+03  0.25296300653E+03  0.10100000352E+00 0.  1.
</event>
<event>
 5   0  0.8207443E-02  0.6018968E+03  0.7818609E-02  0.9901479E-01
       -2   -1    0    0    0  501  0.00000000000E+00  0.00000000000E+00  0.56684228200E+02  0.56684228258E+02  0.25500000920E-02 0. -1.
        2   -1    0    0  501    0  0.00000000000E+00  0.00000000000E+00 -0.15977976484E+04  0.15977976484E+04  0.25500000920E-02 0.  1.
    10030    2    1    2    0    0  0.00000000000E+00  0.00000000000E+00 -0.15411134202E+04  0.16544818766E+04  0.60189675715E+03 0.  0.
        1    1    3    3  502    0  0.43891004065E+01 -0.59139854532E+02 -0.15815779552E+04  0.15826893615E+04  0.50400001928E-02 0.  1.
       -1    1    3    3    0  502 -0.43891004065E+01  0.59139854532E+02  0.40464535084E+02  0.71792515079E+02  0.50400001928E-02 0. -1.
</event>
<event>
 5   0  0.5125031E-02  0.5716064E+03  0.7818609E-02  0.9966130E-01
       -1   -1    0    0    0  501  0.00000000000E+00  0.00000000000E+00  0.68930496355E+03  0.68930496357E+03  0.50400001928E-02 0. -1.
        1   -1    0    0  501    0  0.00000000000E+00  0.00000000000E+00 -0.11850119492E+03  0.11850119503E+03  0.50400001928E-02 0.  1.
    10030    2    1    2    0    0  0.00000000000E+00  0.00000000000E+00  0.57080376863E+03  0.80780615860E+03  0.57160637470E+03 0.  0.
        4    1    3    3  502    0 -0.28298374642E+02  0.85639886843E+02  0.66866071169E+03  0.67471753237E+03  0.12699999809E+01 0. -1.
       -4    1    3    3    0  502  0.28298374642E+02 -0.85639886843E+02 -0.97856943066E+02  0.13308862623E+03  0.12699999809E+01 0.  1.
</event>
<event>
 5   0  0.5166903E-02  0.5978123E+03  0.7818609E-02  0.9909955E-01
       -1   -1    0    0    0  501  0.00000000000E+00  0.00000000000E+00  0.41072946964E+03  0.41072946967E+03  0.50400001928E-02 0.  1.
        1   -1    0    0  501    0  0.00000000000E+00  0.00000000000E+00 -0.21752731202E+03  0.21752731207E+03  0.50400001928E-02 0. -1.
    10030    2    1    2    0    0  0.00000000000E+00  0.00000000000E+00  0.19320215762E+03  0.62825678174E+03  0.59781226994E+03 0.  0.
        2    1    3    3  502    0  0.12293749353E+03  0.13174089821E+03 -0.15403021882E+03  0.23705400206E+03  0.25500000920E-02 0. -1.
       -2    1    3    3    0  502 -0.12293749353E+03 -0.13174089821E+03  0.34723237644E+03  0.39120277968E+03  0.25500000920E-02 0.  1.
</event>
<event>
 5   0  0.8575590E-02  0.5983524E+03  0.7818609E-02  0.9908830E-01
        2   -1    0    0  501    0  0.00000000000E+00  0.00000000000E+00  0.16947229307E+04  0.16947229307E+04  0.25500000920E-02 0. -1.
       -2   -1    0    0    0  501  0.00000000000E+00  0.00000000000E+00 -0.52814774620E+02  0.52814774681E+02  0.25500000920E-02 0.  1.
    10030    2    1    2    0    0  0.00000000000E+00  0.00000000000E+00  0.16419081560E+04  0.17475377053E+04  0.59835243688E+03 0.  0.
        4    1    3    3  502    0 -0.39065719775E+02  0.29644199554E+03  0.79163026550E+03  0.84621751183E+03  0.12699999809E+01 0.  1.
       -4    1    3    3    0  502  0.39065719775E+02 -0.29644199554E+03  0.85027789054E+03  0.90132019350E+03  0.12699999809E+01 0. -1.
</event>
<event>
 5   0  0.8420604E-02  0.6000422E+03  0.7818609E-02  0.9905319E-01
       -2   -1    0    0    0  501  0.00000000000E+00  0.00000000000E+00  0.22954122921E+03  0.22954122922E+03  0.25500000920E-02 0.  1.
        2   -1    0    0  501    0  0.00000000000E+00  0.00000000000E+00 -0.39214154685E+03  0.39214154686E+03  0.25500000920E-02 0. -1.
    10030    2    1    2    0    0  0.00000000000E+00  0.00000000000E+00 -0.16260031764E+03  0.62168277608E+03  0.60004217417E+03 0.  0.
        2    1    3    3  502    0  0.18544996105E+03  0.22289183697E+03 -0.16115244617E+03  0.33172664944E+03  0.25500000920E-02 0.  1.
       -2    1    3    3    0  502 -0.18544996105E+03 -0.22289183697E+03 -0.14478714703E+01  0.28995612664E+03  0.25500000920E-02 0. -1.
</event>
<event>
 5   0  0.8699746E-02  0.6009176E+03  0.7818609E-02  0.9903504E-01
       -2   -1    0    0    0  501  0.00000000000E+00  0.00000000000E+00  0.56300815131E+02  0.56300815189E+02  0.25500000920E-02 0. -1.
        2   -1    0    0  501    0  0.00000000000E+00  0.00000000000E+00 -0.16034490310E+04  0.16034490310E+04  0.25500000920E-02 0.  1.
    10030    2    1    2    0    0  0.00000000000E+00  0.00000000000E+00 -0.15471482159E+04  0.16597498462E+04  0.60091759008E+03 0.  0.
        3    1    3    3  502    0  0.22823447564E+03  0.10790208944E+03 -0.12235524402E+04  0.12493255864E+04  0.10100000352E+00 0.  1.
       -3    1    3    3    0  502 -0.22823447564E+03 -0.10790208944E+03 -0.32359577570E+03  0.41042425980E+03  0.10100000352E+00 0. -1.
</event>
<event>
 5   0  0.3437375E-02  0.5912513E+03  0.7818609E-02  0.9923725E-01
        4   -1    0    0  501    0  0.00000000000E+00  0.00000000000E+00  0.16377599478E+03  0.16378091881E+03  0.12699999809E+01 0. -1.
       -4   -1    0    0    0  501  0.00000000000E+00  0.00000000000E+00 -0.53360852808E+03  0.53361003940E+03  0.12699999809E+01 0.  1.
    10030    2    1    2    0    0  0.00000000000E+00  0.00000000000E+00 -0.36983253331E+03  0.69739095820E+03  0.59125125445E+03 0.  0.
        4    1    3    3  502    0  0.19298336881E+02 -0.11049420292E+03 -0.50753414424E+03  0.51978256527E+03  0.12699999809E+01 0.  1.
       -4    1    3    3    0  502 -0.19298336881E+02  0.11049420292E+03  0.13770161094E+03  0.17760839293E+03  0.12699999809E+01 0. -1.
</event>
<event>
 5   0  0.8575590E-02  0.5978545E+03  0.7818609E-02  0.9909867E-01
        2   -1    0    0  501    0  0.00000000000E+00  0.00000000000E+00  0.47527656816E+03  0.47527656817E+03  0.25500000920E-02 0. -1.
       -2   -1    0    0    0  501  0.00000000000E+00  0.00000000000E+00 -0.18801157730E+03  0.18801157731E+03  0.25500000920E-02 0.  1.
    10030    2    1    2    0    0  0.00000000000E+00  0.00000000000E+00  0.28726499086E+03  0.66328814548E+03  0.59785448812E+03 0.  0.
        4    1    3    3  502    0  0.27922360273E+02 -0.46427917838E+02  0.46978113223E+03  0.47289653716E+03  0.12699999809E+01 0. -1.
       -4    1    3    3    0  502 -0.27922360273E+02  0.46427917838E+02 -0.18251614137E+03  0.19039160832E+03  0.12699999809E+01 0.  1.
</event>
<event>
 5   0  0.8699746E-02  0.6053128E+03  0.7818609E-02  0.9894445E-01
       -2   -1    0    0    0  501  0.00000000000E+00  0.00000000000E+00  0.13699635519E+03  0.13699635521E+03  0.25500000920E-02 0.  1.
        2   -1    0    0  501    0  0.00000000000E+00  0.00000000000E+00 -0.66863753051E+03  0.66863753051E+03  0.25500000920E-02 0. -1.
    10030    2    1    2    0    0  0.00000000000E+00  0.00000000000E+00 -0.53164117532E+03  0.80563388573E+03  0.60531282701E+03 0.  0.
        3    1    3    3  502    0 -0.20911128005E+03  0.15874145360E+03 -0.65407130967E+02  0.27056326343E+03  0.10100000352E+00 0. -1.
       -3    1    3    3    0  502  0.20911128005E+03 -0.15874145360E+03 -0.46623404435E+03  0.53507062230E+03  0.10100000352E+00 0.  1.
</event>
<event>
 5   0  0.4881209E-02  0.5863236E+03  0.7818609E-02  0.9934194E-01
        1   -1    0    0  501    0  0.00000000000E+00  0.00000000000E+00  0.78821125511E+03  0.78821125513E+03  0.50400001928E-02 0. -1.
       -1   -1    0    0    0  501  0.00000000000E+00  0.00000000000E+00 -0.10903654703E+03  0.10903654715E+03  0.50400001928E-02 0.  1.
    10030    2    1    2    0    0  0.00000000000E+00  0.00000000000E+00  0.67917470808E+03  0.89724780228E+03  0.58632357500E+03 0.  0.
        3    1    3    3  502    0 -0.18883091226E+02  0.15765194004E+03  0.71671453607E+03  0.73409157586E+03  0.10100000352E+00 0. -1.
       -3    1    3    3    0  502  0.18883091226E+02 -0.15765194004E+03 -0.37539827993E+02  0.16315622642E+03  0.10100000352E+00 0.  1.
</event>
<event>
 5   0  0.8207443E-02  0.5860353E+03  0.7818609E-02  0.9934810E-01
       -2   -1    0    0    0  501  0.00000000000E+00  0.00000000000E+00  0.31087861758E+03  0.31087861759E+03  0.25500000920E-02 0.  1.
        2   -1    0    0  501    0  0.00000000000E+00  0.00000000000E+00 -0.27618282435E+03  0.27618282436E+03  0.25500000920E-02 0. -1.
    10030    2    1    2    0    0  0.00000000000E+00  0.00000000000E+00  0.34695793229E+02  0.58706144194E+03  0.58603527074E+03 0.  0.
        1    1    3    3  502    0 -0.16861550190E+02  0.10500927961E+03 -0.25616513018E+03  0.27736588584E+03  0.50400001928E-02 0. -1.
       -1    1    3    3    0  502  0.16861550190E+02 -0.10500927961E+03  0.29086092341E+03  0.30969555611E+03  0.50400001928E-02 0.  1.
</event>
<event>
 5   0  0.5166903E-02  0.6002908E+03  0.7818609E-02  0.9904803E-01
       -1   -1    0    0    0  501  0.00000000000E+00  0.00000000000E+00  0.33398960221E+03  0.33398960225E+03  0.50400001928E-02 0. -1.
        1   -1    0    0  501    0  0.00000000000E+00  0.00000000000E+00 -0.26973074853E+03  0.26973074858E+03  0.50400001928E-02 0.  1.
    10030    2    1    2    0    0  0.00000000000E+00  0.00000000000E+00  0.64258853683E+02  0.60372035083E+03  0.60029081429E+03 0.  0.
        2    1    3    3  502    0 -0.64809507991E+02 -0.26802819400E+03  0.15133032212E+03  0.31454769353E+03  0.25500000920E-02 0.  1.
       -2    1    3    3    0  502  0.64809507991E+02  0.26802819400E+03 -0.87071468434E+02  0.28917265730E+03  0.25500000920E-02 0. -1.
</event>
<event>
 5   0  0.4987389E-02  0.5998470E+03  0.7818609E-02  0.9905724E-01
       -1   -1    0    0    0  501  0.00000000000E+00  0.00000000000E+00  0.11746828402E+03  0.11746828413E+03  0.50400001928E-02 0. -1.
        1   -1    0    0  501    0  0.00000000000E+00  0.00000000000E+00 -0.76577350822E+03  0.76577350824E+03  0.50400001928E-02 0.  1.
    10030    2    1    2    0    0  0.00000000000E+00  0.00000000000E+00 -0.64830522420E+03  0.88324179237E+03  0.59984698054E+03 0.  0.
        1    1    3    3  502    0 -0.27012512595E+03 -0.11614873543E+03 -0.23709152743E+03  0.37771749340E+03  0.50400001928E-02 0. -1.
       -1    1    3    3    0  502  0.27012512595E+03  0.11614873543E+03 -0.41121369677E+03  0.50552429897E+03  0.50400001928E-02 0.  1.
</event>
<event>
 5   0  0.8575590E-02  0.6008053E+03  0.7818609E-02  0.9903737E-01
       -2   -1    0    0    0  501  0.00000000000E+00  0.00000000000E+00  0.11418216924E+03  0.11418216927E+03  0.25500000920E-02 0. -1.
        2   -1    0    0  501    0  0.00000000000E+00  0.00000000000E+00 -0.79033128512E+03  0.79033128513E+03  0.25500000920E-02 0.  1.
    10030    2    1    2    0    0  0.00000000000E+00  0.00000000000E+00 -0.67614911588E+03  0.90451345439E+03  0.60080526152E+03 0.  0.
        4    1    3    3  502    0  0.28678877648E+03 -0.46569450347E+02 -0.45296330864E+03  0.53813928299E+03  0.12699999809E+01 0.  1.
       -4    1    3    3    0  502 -0.28678877648E+03  0.46569450347E+02 -0.22318580725E+03  0.36637417141E+03  0.12699999809E+01 0. -1.
</event>
<event>
 5   0  0.8575590E-02  0.6678116E+03  0.7818609E-02  0.9773919E-01
        2   -1    0    0  501    0  0.00000000000E+00  0.00000000000E+00  0.84424973225E+03  0.84424973226E+03  0.25500000920E-02 0. -1.
       -2   -1    0    0    0  501  0.00000000000E+00  0.00000000000E+00 -0.13206173058E+03  0.13206173060E+03  0.25500000920E-02 0.  1.
    10030    2    1    2    0    0  0.00000000000E+00  0.00000000000E+00  0.71218800167E+03  0.97631146286E+03  0.66781159228E+03 0.  0.
        4    1    3    3  502    0  0.17790588391E+03 -0.14327730314E+03  0.71214141644E+03  0.74788093908E+03  0.12699999809E+01 0. -1.
       -4    1    3    3    0  502 -0.17790588391E+03  0.14327730314E+03  0.46585229663E-01  0.22843052378E+03  0.12699999809E+01 0.  1.
</event>
<event>
 5   0  0.8575590E-02  0.5922509E+03  0.7818609E-02  0.9921615E-01
        2   -1    0    0  501    0  0.00000000000E+00  0.00000000000E+00  0.16613076986E+04  0.16613076986E+04  0.25500000920E-02 0.  1.
       -2   -1    0    0    0  501  0.00000000000E+00  0.00000000000E+00 -0.52783889485E+02  0.52783889546E+02  0.25500000920E-02 0. -1.
    10030    2    1    2    0    0  0.00000000000E+00  0.00000000000E+00  0.16085238091E+04  0.17140915881E+04  0.59225089959E+03 0.  0.
        4    1    3    3  502    0  0.62865604363E+02 -0.91398924151E+02  0.96327609608E+01  0.11135641217E+03  0.12699999809E+01 0. -1.
       -4    1    3    3    0  502 -0.62865604363E+02  0.91398924151E+02  0.15988910482E+04  0.16027351760E+04  0.12699999809E+01 0.  1.
</event>
<event>
 5   0  0.5190380E-02  0.6003407E+03  0.7818609E-02  0.9904699E-01
        1   -1    0    0  501    0  0.00000000000E+00  0.00000000000E+00  0.38583241230E+03  0.38583241233E+03  0.50400001928E-02 0. -1.
       -1   -1    0    0    0  501  0.00000000000E+00  0.00000000000E+00 -0.23352687554E+03  0.23352687559E+03  0.50400001928E-02 0.  1.
    10030    2    1    2    0    0  0.00000000000E+00  0.00000000000E+00  0.15230553676E+03  0.61935928793E+03  0.60034069578E+03 0.  0.
        5    1    3    3  502    0  0.11806502271E+02 -0.21875157963E+03  0.28780682562E+03  0.36172711532E+03  0.46999998093E+01 0. -1.
       -5    1    3    3    0  502 -0.11806502271E+02  0.21875157963E+03 -0.13550128885E+03  0.25763217261E+03  0.46999998093E+01 0.  1.
</event>
<event>
 5   0  0.4987389E-02  0.5985624E+03  0.7818609E-02  0.9908393E-01
       -1   -1    0    0    0  501  0.00000000000E+00  0.00000000000E+00  0.22829291359E+03  0.22829291365E+03  0.50400001928E-02 0. -1.
        1   -1    0    0  501    0  0.00000000000E+00  0.00000000000E+00 -0.39234347209E+03  0.39234347212E+03  0.50400001928E-02 0.  1.
    10030    2    1    2    0    0  0.00000000000E+00  0.00000000000E+00 -0.16405055849E+03  0.62063638577E+03  0.59856239240E+03 0.  0.
        1    1    3    3  502    0 -0.16883668643E+03  0.78056579644E+02  0.16107919866E+03  0.24605927045E+03  0.50400001928E-02 0. -1.
       -1    1    3    3    0  502  0.16883668643E+03 -0.78056579644E+02 -0.32512975715E+03  0.37457711532E+03  0.50400001928E-02 0.  1.
</event>
<event>
 5   0  0.5190380E-02  0.6002182E+03  0.7818609E-02  0.9904954E-01
       -1   -1    0    0    0  501  0.00000000000E+00  0.00000000000E+00  0.10102538530E+03  0.10102538542E+03  0.50400001928E-02 0. -1.
        1   -1    0    0  501    0  0.00000000000E+00  0.00000000000E+00 -0.89151313058E+03  0.89151313060E+03  0.50400001928E-02 0.  1.
    10030    2    1    2    0    0  0.00000000000E+00  0.00000000000E+00 -0.79048774529E+03  0.99253851602E+03  0.60021815229E+03 0.  0.
        5    1    3    3  502    0  0.28699365558E+03  0.13883079892E+02 -0.25217605283E+03  0.38232571176E+03  0.46999998093E+01 0. -1.
       -5    1    3    3    0  502 -0.28699365558E+03 -0.13883079892E+02 -0.53831169245E+03  0.61021280426E+03  0.46999998093E+01 0.  1.
</event>
<event>
 5   0  0.8699746E-02  0.5734913E+03  0.7818609E-02  0.9961982E-01
        2   -1    0    0  501    0  0.00000000000E+00  0.00000000000E+00  0.11526749055E+03  0.11526749058E+03  0.25500000920E-02 0.  1.
       -2   -1    0    0    0  501  0.00000000000E+00  0.00000000000E+00 -0.71332407510E+03  0.71332407510E+03  0.25500000920E-02 0. -1.
    10030    2    1    2    0    0  0.00000000000E+00  0.00000000000E+00 -0.59805658455E+03  0.82859156568E+03  0.57349132896E+03 0.  0.
        3    1    3    3  502    0 -0.13270972157E+03  0.22608625289E+03 -0.46687755444E+03  0.53544516525E+03  0.10100000352E+00 0. -1.
       -3    1    3    3    0  502  0.13270972157E+03 -0.22608625289E+03 -0.13117903011E+03  0.29314640043E+03  0.10100000352E+00 0.  1.
</event>
<event>
 5   0  0.3437375E-02  0.6026349E+03  0.7818609E-02  0.9899954E-01
       -3   -1    0    0    0  501  0.00000000000E+00  0.00000000000E+00  0.12389569118E+03  0.12389573235E+03  0.10100000352E+00 0. -1.
        3   -1    0    0  501    0  0.00000000000E+00  0.00000000000E+00 -0.73281154525E+03  0.73281155221E+03  0.10100000352E+00 0.  1.
    10030    2    1    2    0    0  0.00000000000E+00  0.00000000000E+00 -0.60891585407E+03  0.85670728456E+03  0.60263492604E+03 0.  0.
        5    1    3    3  502    0 -0.29660639603E+03 -0.21776441540E+02 -0.37293957206E+03  0.47702786289E+03  0.46999998093E+01 0. -1.
       -5    1    3    3    0  502  0.29660639603E+03  0.21776441540E+02 -0.23597628201E+03  0.37967942167E+03  0.46999998093E+01 0.  1.
</event>
<event>
 5   0  0.3437375E-02  0.5929687E+03  0.7818609E-02  0.9920102E-01
       -3   -1    0    0    0  501  0.00000000000E+00  0.00000000000E+00  0.18391505400E+03  0.18391508174E+03  0.10100000352E+00 0. -1.
        3   -1    0    0  501    0  0.00000000000E+00  0.00000000000E+00 -0.47795411627E+03  0.47795412694E+03  0.10100000352E+00 0.  1.
    10030    2    1    2    0    0  0.00000000000E+00  0.00000000000E+00 -0.29403906226E+03  0.66186920867E+03  0.59296870006E+03 0.  0.
        2    1    3    3  502    0  0.15188131486E+03 -0.25985735470E+02  0.13571042938E+03  0.20533025325E+03  0.25500000920E-02 0. -1.
       -2    1    3    3    0  502 -0.15188131486E+03  0.25985735470E+02 -0.42974949164E+03  0.45653895543E+03  0.25500000920E-02 0.  1.
</event>
<event>
 5   0  0.8207443E-02  0.6006494E+03  0.7818609E-02  0.9904060E-01
        2   -1    0    0  501    0  0.00000000000E+00  0.00000000000E+00  0.11592022268E+04  0.11592022268E+04  0.25500000920E-02 0. -1.
       -2   -1    0    0    0  501  0.00000000000E+00  0.00000000000E+00 -0.77807761732E+02  0.77807761774E+02  0.25500000920E-02 0.  1.
    10030    2    1    2    0    0  0.00000000000E+00  0.00000000000E+00  0.10813944650E+04  0.12370099886E+04  0.60064941751E+03 0.  0.
        1    1    3    3  502    0 -0.22191366217E+03 -0.11067395240E+03  0.19180031637E+03  0.31349921624E+03  0.50400001928E-02 0.  1.
       -1    1    3    3    0  502  0.22191366217E+03  0.11067395240E+03  0.88959414868E+03  0.92351077232E+03  0.50400001928E-02 0. -1.
</event>
<event>
 5   0  0.3437375E-02  0.5964715E+03  0.7818609E-02  0.9912754E-01
        4   -1    0    0  501    0  0.00000000000E+00  0.00000000000E+00  0.82405854634E+03  0.82405952497E+03  0.12699999809E+01 0.  1.
       -4   -1    0    0    0  501  0.00000000000E+00  0.00000000000E+00 -0.10792996768E+03  0.10793743940E+03  0.12699999809E+01 0. -1.
    10030    2    1    2    0    0  0.00000000000E+00  0.00000000000E+00  0.71612857866E+03  0.93199696437E+03  0.59647145818E+03 0.  0.
        4    1    3    3  502    0  0.98875317727E+00 -0.13846369758E+03 -0.54658507451E+02  0.14887020695E+03  0.12699999809E+01 0. -1.
       -4    1    3    3    0  502 -0.98875317727E+00  0.13846369758E+03  0.77078708611E+03  0.78312675742E+03  0.12699999809E+01 0.  1.
</event>
<event>
 5   0  0.4987389E-02  0.5945426E+03  0.7818609E-02  0.9916794E-01
        1   -1    0    0  501    0  0.00000000000E+00  0.00000000000E+00  0.31774853242E+03  0.31774853246E+03  0.50400001928E-02 0. -1.
       -1   -1    0    0    0  501  0.00000000000E+00  0.00000000000E+00 -0.27811367564E+03  0.27811367568E+03  0.50400001928E-02 0.  1.
    10030    2    1    2    0    0  0.00000000000E+00  0.00000000000E+00  0.39634856783E+02  0.59586220814E+03  0.59454255459E+03 0.  0.
        1    1    3    3  502    0  0.21362306039E+03  0.80711222062E+02  0.21055827608E+03  0.31061857791E+03  0.50400001928E-02 0. -1.
       -1    1    3    3    0  502 -0.21362306039E+03 -0.80711222062E+02 -0.17092341929E+03  0.28524363022E+03  0.50400001928E-02 0.  1.
</event>
<event>
 5   0  0.3437375E-02  0.6011473E+03  0.7818609E-02  0.9903029E-01
       -4   -1    0    0    0  501  0.00000000000E+00  0.00000000000E+00  0.28626451693E+03  0.28626733406E+03  0.12699999809E+01 0. -1.
        4   -1    0    0  501    0  0.00000000000E+00  0.00000000000E+00 -0.31559238061E+03  0.31559493596E+03  0.12699999809E+01 0.  1.
    10030    2    1    2    0    0  0.00000000000E+00  0.00000000000E+00 -0.29327863686E+02  0.60186227002E+03  0.60114729350E+03 0.  0.
        5    1    3    3  502    0  0.21700335836E+02 -0.29967561166E+03 -0.21458041554E+02  0.30126220199E+03  0.46999998093E+01 0. -1.
       -5    1    3    3    0  502 -0.21700335836E+02  0.29967561166E+03 -0.78698221316E+01  0.30060006803E+03  0.46999998093E+01 0.  1.
</event>
<event>
 5   0  0.8699746E-02  0.6039956E+03  0.7818609E-02  0.9897151E-01
        2   -1    0    0  501    0  0.00000000000E+00  0.00000000000E+00  0.13714730721E+04  0.13714730721E+04  0.25500000920E-02 0.  1.
       -2   -1    0    0    0  501  0.00000000000E+00  0.00000000000E+00 -0.66499780584E+02  0.66499780633E+02  0.25500000920E-02 0. -1.
    10030    2    1    2    0    0  0.00000000000E+00  0.00000000000E+00  0.13049732915E+04  0.14379728527E+04  0.60399555763E+03 0.  0.
        3    1    3    3  502    0 -0.83592828688E+02 -0.24717282042E+03  0.29048094994E+03  0.39046300292E+03  0.10100000352E+00 0. -1.
       -3    1    3    3    0  502  0.83592828688E+02  0.24717282042E+03  0.10144923416E+04  0.10475098498E+04  0.10100000352E+00 0.  1.
</event>
<event>
 5   0  0.5166903E-02  0.5992284E+03  0.7818609E-02  0.9907008E-01
        1   -1    0    0  501    0  0.00000000000E+00  0.00000000000E+00  0.47213805842E+03  0.47213805845E+03  0.50400001928E-02 0.  1.
       -1   -1    0    0    0  501  0.00000000000E+00  0.00000000000E+00 -0.19013222544E+03  0.19013222551E+03  0.50400001928E-02 0. -1.
    10030    2    1    2    0    0  0.00000000000E+00  0.00000000000E+00  0.28200583298E+03  0.66227028396E+03  0.59922836980E+03 0.  0.
        2    1    3    3  502    0  0.13512875552E+03  0.52688196029E+02  0.43075397117E+03  0.45451601760E+03  0.25500000920E-02 0.  1.
       -2    1    3    3    0  502 -0.13512875552E+03 -0.52688196029E+02 -0.14874813819E+03  0.20775426636E+03  0.25500000920E-02 0. -1.
</event>
<event>
 5   0  0.8420604E-02  0.6122790E+03  0.7818609E-02  0.9880253E-01
        2   -1    0    0  501    0  0.00000000000E+00  0.00000000000E+00  0.77021067426E+03  0.77021067426E+03  0.25500000920E-02 0.  1.
       -2   -1    0    0    0  501  0.00000000000E+00  0.00000000000E+00 -0.12168281700E+03  0.12168281703E+03  0.25500000920E-02 0. -1.
    10030    2    1    2    0    0  0.00000000000E+00  0.00000000000E+00  0.64852785726E+03  0.89189349129E+03  0.61227903619E+03 0.  0.
        2    1    3    3  502    0  0.11417531773E+03  0.58379775565E+02 -0.80674788366E+02  0.15150123055E+03  0.25500000920E-02 0. -1.
       -2    1    3    3    0  502 -0.11417531773E+03 -0.58379775565E+02  0.72920264562E+03  0.74039226074E+03  0.25500000920E-02 0.  1.
</event>
<event>
 5   0  0.4881209E-02  0.5980650E+03  0.7818609E-02  0.9909429E-01
        1   -1    0    0  501    0  0.00000000000E+00  0.00000000000E+00  0.54468535633E+03  0.54468535636E+03  0.50400001928E-02 0. -1.
       -1   -1    0    0    0  501  0.00000000000E+00  0.00000000000E+00 -0.16416896702E+03  0.16416896709E+03  0.50400001928E-02 0.  1.
    10030    2    1    2    0    0  0.00000000000E+00  0.00000000000E+00  0.38051638932E+03  0.70885432345E+03  0.59806498755E+03 0.  0.
        3    1    3    3  502    0 -0.23628314896E+03  0.34329885771E+02 -0.23126155722E+02  0.23988142241E+03  0.10100000352E+00 0.  1.
       -3    1    3    3    0  502  0.23628314896E+03 -0.34329885771E+02  0.40364254504E+03  0.46897290104E+03  0.10100000352E+00 0. -1.
</event>
<event>
 5   0  0.4987389E-02  0.5891488E+03  0.7818609E-02  0.9928178E-01
       -1   -1    0    0    0  501  0.00000000000E+00  0.00000000000E+00  0.67056865009E+02  0.67056865198E+02  0.50400001928E-02 0.  1.
        1   -1    0    0  501    0  0.00000000000E+00  0.00000000000E+00 -0.12940372162E+04  0.12940372162E+04  0.50400001928E-02 0. -1.
    10030    2    1    2    0    0  0.00000000000E+00  0.00000000000E+00 -0.12269803512E+04  0.13610940814E+04  0.58914880653E+03 0.  0.
        1    1    3    3  502    0 -0.47021374316E+02  0.23386764115E+03 -0.21421394741E+03  0.32061300428E+03  0.50400001928E-02 0.  1.
       -1    1    3    3    0  502  0.47021374316E+02 -0.23386764115E+03 -0.10127664038E+04  0.10404810771E+04  0.50400001928E-02 0. -1.
</event>
<event>
 5   0  0.8575590E-02  0.5904782E+03  0.7818609E-02  0.9925360E-01
        2   -1    0    0  501    0  0.00000000000E+00  0.00000000000E+00  0.69070352352E+03  0.69070352353E+03  0.25500000920E-02 0.  1.
       -2   -1    0    0    0  501  0.00000000000E+00  0.00000000000E+00 -0.12619903638E+03  0.12619903640E+03  0.25500000920E-02 0. -1.
    10030    2    1    2    0    0  0.00000000000E+00  0.00000000000E+00  0.56450448714E+03  0.81690255993E+03  0.59047817607E+03 0.  0.
        4    1    3    3  502    0 -0.11896561045E+03 -0.19545274129E+03  0.24134481119E+02  0.23008406426E+03  0.12699999809E+01 0. -1.
       -4    1    3    3    0  502  0.11896561045E+03  0.19545274129E+03  0.54037000602E+03  0.58681849567E+03  0.12699999809E+01 0.  1.
</event>
<event>
 5   0  0.8817544E-02  0.6655734E+03  0.7818609E-02  0.9777988E-01
       -2   -1    0    0    0  501  0.00000000000E+00  0.00000000000E+00  0.12846033159E+03  0.12846033162E+03  0.25500000920E-02 0. -1.
        2   -1    0    0  501    0  0.00000000000E+00  0.00000000000E+00 -0.86211052063E+03  0.86211052063E+03  0.25500000920E-02 0.  1.
    10030    2    1    2    0    0  0.00000000000E+00  0.00000000000E+00 -0.73365018903E+03  0.99057085225E+03  0.66557344708E+03 0.  0.
        5    1    3    3  502    0 -0.28459280385E+03  0.17224557944E+03 -0.35498310229E+03  0.48651484721E+03  0.46999998093E+01 0.  1.
       -5    1    3    3    0  502  0.28459280385E+03 -0.17224557944E+03 -0.37866708674E+03  0.50405600505E+03  0.46999998093E+01 0. -1.
</event>
<event>
 5   0  0.3437375E-02  0.5865262E+03  0.7818609E-02  0.9933761E-01
        4   -1    0    0  501    0  0.00000000000E+00  0.00000000000E+00  0.43418383098E+03  0.43418568837E+03  0.12699999809E+01 0.  1.
       -4   -1    0    0    0  501  0.00000000000E+00  0.00000000000E+00 -0.19807594517E+03  0.19808001654E+03  0.12699999809E+01 0. -1.
    10030    2    1    2    0    0  0.00000000000E+00  0.00000000000E+00  0.23610788581E+03  0.63226570491E+03  0.58652620390E+03 0.  0.
        5    1    3    3  502    0 -0.26140856378E+03  0.62874934975E+02 -0.80907085900E+01  0.26902647496E+03  0.46999998093E+01 0. -1.
       -5    1    3    3    0  502  0.26140856378E+03 -0.62874934975E+02  0.24419859440E+03  0.36323922995E+03  0.46999998093E+01 0.  1.
</event>
<event>
 5   0  0.5166903E-02  0.4556093E+03  0.7818609E-02  0.1026062E+00
        1   -1    0    0  501    0  0.00000000000E+00  0.00000000000E+00  0.14688360406E+04  0.14688360406E+04  0.50400001928E-02 0. -1.
       -1   -1    0    0    0  501  0.00000000000E+00  0.00000000000E+00 -0.35330673545E+02  0.35330673905E+02  0.50400001928E-02 0.  1.
    10030    2    1    2    0    0  0.00000000000E+00  0.00000000000E+00  0.14335053670E+04  0.15041667145E+04  0.45560933668E+03 0.  0.
        2    1    3    3  502    0 -0.17002072839E+02 -0.11986918159E+03  0.13538302448E+04  0.13592328803E+04  0.25500000920E-02 0. -1.
       -2    1    3    3    0  502  0.17002072839E+02  0.11986918159E+03  0.79675122193E+02  0.14493383414E+03  0.25500000920E-02 0.  1.
</event>
<event>
 5   0  0.4987389E-02  0.5970673E+03  0.7818609E-02  0.9911509E-01
        1   -1    0    0  501    0  0.00000000000E+00  0.00000000000E+00  0.91321619025E+03  0.91321619026E+03  0.50400001928E-02 0. -1.
       -1   -1    0    0    0  501  0.00000000000E+00  0.00000000000E+00 -0.97591729188E+02  0.97591729318E+02  0.50400001928E-02 0.  1.
    10030    2    1    2    0    0  0.00000000000E+00  0.00000000000E+00  0.81562446106E+03  0.10108079196E+04  0.59706732351E+03 0.  0.
        1    1    3    3  502    0 -0.29580822022E+03  0.78056692133E+01  0.34096912375E+03  0.45146802212E+03  0.50400001928E-02 0.  1.
       -1    1    3    3    0  502  0.29580822022E+03 -0.78056692133E+01  0.47465533731E+03  0.55933989746E+03  0.50400001928E-02 0. -1.
</event>
<event>
 5   0  0.5190380E-02  0.6029884E+03  0.7818609E-02  0.9899225E-01
       -1   -1    0    0    0  501  0.00000000000E+00  0.00000000000E+00  0.58420404526E+03  0.58420404528E+03  0.50400001928E-02 0. -1.
        1   -1    0    0  501    0  0.00000000000E+00  0.00000000000E+00 -0.15559419921E+03  0.15559419929E+03  0.50400001928E-02 0.  1.
    10030    2    1    2    0    0  0.00000000000E+00  0.00000000000E+00  0.42860984605E+03  0.73979824456E+03  0.60298842653E+03 0.  0.
        5    1    3    3  502    0 -0.49687404403E+02  0.16471248375E+03  0.51801227171E+03  0.54585514937E+03  0.46999998093E+01 0. -1.
       -5    1    3    3    0  502  0.49687404403E+02 -0.16471248375E+03 -0.89402425658E+02  0.19394309519E+03  0.46999998093E+01 0.  1.
</event>
<event>
 5   0  0.4881209E-02  0.5969173E+03  0.7818609E-02  0.9911822E-01
       -1   -1    0    0    0  501  0.00000000000E+00  0.00000000000E+00  0.67147042952E+03  0.67147042954E+03  0.50400001928E-02 0.  1.
        1   -1    0    0  501    0  0.00000000000E+00  0.00000000000E+00 -0.13266045685E+03  0.13266045695E+03  0.50400001928E-02 0. -1.
    10030    2    1    2    0    0  0.00000000000E+00  0.00000000000E+00  0.53880997266E+03  0.80413088649E+03  0.59691732758E+03 0.  0.
        3    1    3    3  502    0  0.24501774285E+02 -0.19075133184E+03 -0.38059214326E+02  0.19604826329E+03  0.10100000352E+00 0. -1.
       -3    1    3    3    0  502 -0.24501774285E+02  0.19075133184E+03  0.57686918699E+03  0.60808262320E+03  0.10100000352E+00 0.  1.
</event>
<event>
 5   0  0.8207443E-02  0.5985342E+03  0.7818609E-02  0.9908452E-01
       -2   -1    0    0    0  501  0.00000000000E+00  0.00000000000E+00  0.49216943833E+02  0.49216943899E+02  0.25500000920E-02 0. -1.
        2   -1    0    0  501    0  0.00000000000E+00  0.00000000000E+00 -0.18197149917E+04  0.18197149917E+04  0.25500000920E-02 0.  1.
    10030    2    1    2    0    0  0.00000000000E+00  0.00000000000E+00 -0.17704980478E+04  0.18689319356E+04  0.59853424497E+03 0.  0.
        1    1    3    3  502    0 -0.14665240761E+03 -0.25885715757E+03 -0.98627836421E+03  0.10301742418E+04  0.50400001928E-02 0.  1.
       -1    1    3    3    0  502  0.14665240761E+03  0.25885715757E+03 -0.78421968362E+03  0.83875769379E+03  0.50400001928E-02 0. -1.
</event>
<event>
 5   0  0.4881209E-02  0.5944214E+03  0.7818609E-02  0.9917048E-01
       -1   -1    0    0    0  501  0.00000000000E+00  0.00000000000E+00  0.14870601316E+03  0.14870601325E+03  0.50400001928E-02 0. -1.
        1   -1    0    0  501    0  0.00000000000E+00  0.00000000000E+00 -0.59401899714E+03  0.59401899716E+03  0.50400001928E-02 0.  1.
    10030    2    1    2    0    0  0.00000000000E+00  0.00000000000E+00 -0.44531298397E+03  0.74272501041E+03  0.59442138874E+03 0.  0.
        3    1    3    3  502    0 -0.46252965122E+02 -0.75803757357E+01 -0.58937216283E+03  0.59123291130E+03  0.10100000352E+00 0.  1.
       -3    1    3    3    0  502  0.46252965122E+02  0.75803757357E+01  0.14405917886E+03  0.15149209911E+03  0.10100000352E+00 0. -1.
</event>
<event>
 5   0  0.4987389E-02  0.6038413E+03  0.7818609E-02  0.9897468E-01
       -1   -1    0    0    0  501  0.00000000000E+00  0.00000000000E+00  0.15867653167E+03  0.15867653175E+03  0.50400001928E-02 0. -1.
        1   -1    0    0  501    0  0.00000000000E+00  0.00000000000E+00 -0.57447744972E+03  0.57447744974E+03  0.50400001928E-02 0.  1.
    10030    2    1    2    0    0  0.00000000000E+00  0.00000000000E+00 -0.41580091805E+03  0.73315398149E+03  0.60384133439E+03 0.  0.
        1    1    3    3  502    0 -0.93079193125E+02  0.19865505488E+03 -0.45975545757E+03  0.50941402397E+03  0.50400001928E-02 0.  1.
       -1    1    3    3    0  502  0.93079193125E+02 -0.19865505488E+03  0.43954539521E+02  0.22373995752E+03  0.50400001928E-02 0. -1.
</event>
<event>
 5   0  0.4987389E-02  0.5959735E+03  0.7818609E-02  0.9913795E-01
       -1   -1    0    0    0  501  0.00000000000E+00  0.00000000000E+00  0.32965261889E+03  0.32965261893E+03  0.50400001928E-02 0.  1.
        1   -1    0    0  501    0  0.00000000000E+00  0.00000000000E+00 -0.26936266282E+03  0.26936266287E+03  0.50400001928E-02 0. -1.
    10030    2    1    2    0    0  0.00000000000E+00  0.00000000000E+00  0.60289956075E+02  0.59901528180E+03  0.59597351369E+03 0.  0.
        1    1    3    3  502    0 -0.19332121788E+02 -0.72197078332E+02  0.32007860918E+03  0.32868900975E+03  0.50400001928E-02 0.  1.
       -1    1    3    3    0  502  0.19332121788E+02  0.72197078332E+02 -0.25978865310E+03  0.27032627205E+03  0.50400001928E-02 0. -1.
</event>
<event>
 5   0  0.5166903E-02  0.5967615E+03  0.7818609E-02  0.9912148E-01
       -1   -1    0    0    0  501  0.00000000000E+00  0.00000000000E+00  0.11077742408E+03  0.11077742420E+03  0.50400001928E-02 0. -1.
        1   -1    0    0  501    0  0.00000000000E+00  0.00000000000E+00 -0.80369328842E+03  0.80369328844E+03  0.50400001928E-02 0.  1.
    10030    2    1    2    0    0  0.00000000000E+00  0.00000000000E+00 -0.69291586434E+03  0.91447071264E+03  0.59676150111E+03 0.  0.
        2    1    3    3  502    0  0.21485789992E+03 -0.19296641069E+03 -0.23146626390E+03  0.37010347762E+03  0.25500000920E-02 0. -1.
       -2    1    3    3    0  502 -0.21485789992E+03  0.19296641069E+03 -0.46144960044E+03  0.54436723502E+03  0.25500000920E-02 0.  1.
</event>
<event>
 5   0  0.4881209E-02  0.5844840E+03  0.7818609E-02  0.9938130E-01
        1   -1    0    0  501    0  0.00000000000E+00  0.00000000000E+00  0.20573208676E+03  0.20573208683E+03  0.50400001928E-02 0.  1.
       -1   -1    0    0    0  501  0.00000000000E+00  0.00000000000E+00 -0.41512914366E+03  0.41512914369E+03  0.50400001928E-02 0. -1.
    10030    2    1    2    0    0  0.00000000000E+00  0.00000000000E+00 -0.20939705690E+03  0.62086123052E+03  0.58448399475E+03 0.  0.
        3    1    3    3  502    0  0.16248868986E+03 -0.22860311854E+03 -0.17469335961E+02  0.28101093935E+03  0.10100000352E+00 0.  1.
       -3    1    3    3    0  502 -0.16248868986E+03  0.22860311854E+03 -0.19192772094E+03  0.33985029116E+03  0.10100000352E+00 0. -1.
</event>
<event>
 5   0  0.8207443E-02  0.6042201E+03  0.7818609E-02  0.9896689E-01
       -2   -1    0    0    0  501  0.00000000000E+00  0.00000000000E+00  0.10851175772E+03  0.10851175775E+03  0.25500000920E-02 0. -1.
        2   -1    0    0  501    0  0.00000000000E+00  0.00000000000E+00 -0.84111137019E+03  0.84111137020E+03  0.25500000920E-02 0.  1.
    10030    2    1    2    0    0  0.00000000000E+00  0.00000000000E+00 -0.73259961247E+03  0.94962312795E+03  0.60422006995E+03 0.  0.
        1    1    3    3  502    0 -0.16645888041E+02  0.24032192542E+03 -0.79764236454E+02  0.25375982123E+03  0.50400001928E-02 0. -1.
       -1    1    3    3    0  502  0.16645888041E+02 -0.24032192542E+03 -0.65283537602E+03  0.69586330672E+03  0.50400001928E-02 0.  1.
</event>
<event>
 5   0  0.8699746E-02  0.5785852E+03  0.7818609E-02  0.9950859E-01
       -2   -1    0    0    0  501  0.00000000000E+00  0.00000000000E+00  0.76836346716E+02  0.76836346759E+02  0.25500000920E-02 0. -1.
        2   -1    0    0  501    0  0.00000000000E+00  0.00000000000E+00 -0.10892006584E+04  0.10892006584E+04  0.25500000920E-02 0.  1.
    10030    2    1    2    0    0  0.00000000000E+00  0.00000000000E+00 -0.10123643117E+04  0.11660370052E+04  0.57858516904E+03 0.  0.
        3    1    3    3  502    0  0.92036857860E+02 -0.10687738328E+03 -0.10152127772E+04  0.10249636830E+04  0.10100000352E+00 0.  1.
       -3    1    3    3    0  502 -0.92036857860E+02  0.10687738328E+03  0.28484655540E+01  0.14107332213E+03  0.10100000352E+00 0. -1.
</event>
<event>
 5   0  0.4881209E-02  0.6043659E+03  0.7818609E-02  0.9896389E-01
       -1   -1    0    0    0  501  0.00000000000E+00  0.00000000000E+00  0.10762249161E+03  0.10762249173E+03  0.50400001928E-02 0. -1.
        1   -1    0    0  501    0  0.00000000000E+00  0.00000000000E+00 -0.84847066493E+03  0.84847066495E+03  0.50400001928E-02 0.  1.
    10030    2    1    2    0    0  0.00000000000E+00  0.00000000000E+00 -0.74084817332E+03  0.95609315667E+03  0.60436587289E+03 0.  0.
        3    1    3    3  502    0  0.15719387150E+03 -0.24534402321E+03 -0.49709014306E+03  0.57619634110E+03  0.10100000352E+00 0.  1.
       -3    1    3    3    0  502 -0.15719387150E+03  0.24534402321E+03 -0.24375803026E+03  0.37989681557E+03  0.10100000352E+00 0. -1.
</event>
<event>
 5   0  0.3437375E-02  0.5979160E+03  0.7818609E-02  0.9909739E-01
       -4   -1    0    0    0  501  0.00000000000E+00  0.00000000000E+00  0.25756338000E+03  0.25756651105E+03  0.12699999809E+01 0.  1.
        4   -1    0    0  501    0  0.00000000000E+00  0.00000000000E+00 -0.34699897013E+03  0.34700129419E+03  0.12699999809E+01 0. -1.
    10030    2    1    2    0    0  0.00000000000E+00  0.00000000000E+00 -0.89435590134E+02  0.60456780525E+03  0.59791596931E+03 0.  0.
        2    1    3    3  502    0 -0.24624460515E+02  0.24119834243E+03  0.13213624655E+03  0.27612133584E+03  0.25500000920E-02 0.  1.
       -2    1    3    3    0  502  0.24624460515E+02 -0.24119834243E+03 -0.22157183669E+03  0.32844646941E+03  0.25500000920E-02 0. -1.
</event>
<event>
 5   0  0.5166903E-02  0.6160639E+03  0.7818609E-02  0.9872628E-01
        1   -1    0    0  501    0  0.00000000000E+00  0.00000000000E+00  0.90491586644E+03  0.90491586646E+03  0.50400001928E-02 0. -1.
       -1   -1    0    0    0  501  0.00000000000E+00  0.00000000000E+00 -0.10485358893E+03  0.10485358905E+03  0.50400001928E-02 0.  1.
    10030    2    1    2    0    0  0.00000000000E+00  0.00000000000E+00  0.80006227752E+03  0.10097694555E+04  0.61606388091E+03 0.  0.
        2    1    3    3  502    0 -0.10742774242E+03 -0.16437316221E+03  0.11035397652E+02  0.19667495088E+03  0.25500000920E-02 0.  1.
       -2    1    3    3    0  502  0.10742774242E+03  0.16437316221E+03  0.78902687987E+03  0.81309450463E+03  0.25500000920E-02 0. -1.
</event>
<event>
 5   0  0.5166903E-02  0.7319510E+03  0.7818609E-02  0.9664100E-01
        1   -1    0    0  501    0  0.00000000000E+00  0.00000000000E+00  0.10780769295E+04  0.10780769295E+04  0.50400001928E-02 0. -1.
       -1   -1    0    0    0  501  0.00000000000E+00  0.00000000000E+00 -0.12423794153E+03  0.12423794163E+03  0.50400001928E-02 0.  1.
    10030    2    1    2    0    0  0.00000000000E+00  0.00000000000E+00  0.95383898796E+03  0.12023148711E+04  0.73195097814E+03 0.  0.
        2    1    3    3  502    0  0.25529388001E+02 -0.15735868836E+03  0.10180477655E+04  0.10304536667E+04  0.25500000920E-02 0. -1.
       -2    1    3    3    0  502 -0.25529388001E+02  0.15735868836E+03 -0.64208777545E+02  0.17186120439E+03  0.25500000920E-02 0.  1.
</event>
<event>
 5   0  0.4987389E-02  0.5650917E+03  0.7818609E-02  0.9980599E-01
       -1   -1    0    0    0  501  0.00000000000E+00  0.00000000000E+00  0.15267671912E+03  0.15267671921E+03  0.50400001928E-02 0.  1.
        1   -1    0    0  501    0  0.00000000000E+00  0.00000000000E+00 -0.52288365494E+03  0.52288365496E+03  0.50400001928E-02 0. -1.
    10030    2    1    2    0    0  0.00000000000E+00  0.00000000000E+00 -0.37020693581E+03  0.67556037417E+03  0.56509171275E+03 0.  0.
        1    1    3    3  502    0  0.14539986681E+03 -0.23629127843E+03 -0.12119827131E+03  0.30276015347E+03  0.50400001928E-02 0. -1.
       -1    1    3    3    0  502 -0.14539986681E+03  0.23629127843E+03 -0.24900866450E+03  0.37280022070E+03  0.50400001928E-02 0.  1.
</event>
<event>
 5   0  0.4881209E-02  0.6234713E+03  0.7818609E-02  0.9857873E-01
        1   -1    0    0  501    0  0.00000000000E+00  0.00000000000E+00  0.75546724929E+03  0.75546724931E+03  0.50400001928E-02 0. -1.
       -1   -1    0    0    0  501  0.00000000000E+00  0.00000000000E+00 -0.12863444816E+03  0.12863444826E+03  0.50400001928E-02 0.  1.
    10030    2    1    2    0    0  0.00000000000E+00  0.00000000000E+00  0.62683280113E+03  0.88410169756E+03  0.62347129129E+03 0.  0.
        3    1    3    3  502    0 -0.28836753272E+03 -0.11175669567E+03  0.36895019306E+03  0.48142460273E+03  0.10100000352E+00 0.  1.
       -3    1    3    3    0  502  0.28836753272E+03  0.11175669567E+03  0.25788260807E+03  0.40267709483E+03  0.10100000352E+00 0. -1.
</event>
<event>
 5   0  0.8817544E-02  0.6022206E+03  0.7818609E-02  0.9900810E-01
       -2   -1    0    0    0  501  0.00000000000E+00  0.00000000000E+00  0.72832197529E+02  0.72832197573E+02  0.25500000920E-02 0. -1.
        2   -1    0    0  501    0  0.00000000000E+00  0.00000000000E+00 -0.12448808586E+04  0.12448808586E+04  0.25500000920E-02 0.  1.
    10030    2    1    2    0    0  0.00000000000E+00  0.00000000000E+00 -0.11720486610E+04  0.13177130561E+04  0.60222058624E+03 0.  0.
        5    1    3    3  502    0 -0.93517628044E+02 -0.44774938528E+02  0.32454713641E+02  0.10874621975E+03  0.46999998093E+01 0. -1.
       -5    1    3    3    0  502  0.93517628044E+02  0.44774938528E+02 -0.12045033747E+04  0.12089668364E+04  0.46999998093E+01 0.  1.
</event>
<event>
 5   0  0.8575590E-02  0.6053969E+03  0.7818609E-02  0.9894272E-01
       -2   -1    0    0    0  501  0.00000000000E+00  0.00000000000E+00  0.23570737683E+03  0.23570737684E+03  0.25500000920E-02 0. -1.
        2   -1    0    0  501    0  0.00000000000E+00  0.00000000000E+00 -0.38872918561E+03  0.38872918561E+03  0.25500000920E-02 0.  1.
    10030    2    1    2    0    0  0.00000000000E+00  0.00000000000E+00 -0.15302180878E+03  0.62443656246E+03  0.60539685048E+03 0.  0.
        4    1    3    3  502    0  0.11798828108E+03  0.22694521816E+03 -0.24346361911E+03  0.35313101428E+03  0.12699999809E+01 0.  1.
       -4    1    3    3    0  502 -0.11798828108E+03 -0.22694521816E+03  0.90441810330E+02  0.27130554818E+03  0.12699999809E+01 0. -1.
</event>
<event>
 5   0  0.5190380E-02  0.6040640E+03  0.7818609E-02  0.9897010E-01
        1   -1    0    0  501    0  0.00000000000E+00  0.00000000000E+00  0.70684162259E+03  0.70684162261E+03  0.50400001928E-02 0.  1.
       -1   -1    0    0    0  501  0.00000000000E+00  0.00000000000E+00 -0.12905766316E+03  0.12905766326E+03  0.50400001928E-02 0. -1.
    10030    2    1    2    0    0  0.00000000000E+00  0.00000000000E+00  0.57778395943E+03  0.83589928587E+03  0.60406399689E+03 0.  0.
        5    1    3    3  502    0  0.22693008973E+03  0.12469128413E+03  0.73819908627E+02  0.26928915847E+03  0.46999998093E+01 0. -1.
       -5    1    3    3    0  502 -0.22693008973E+03 -0.12469128413E+03  0.50396405081E+03  0.56661012740E+03  0.46999998093E+01 0.  1.
</event>
<event>
 5   0  0.5190380E-02  0.6030195E+03  0.7818609E-02  0.9899161E-01
        1   -1    0    0  501    0  0.00000000000E+00  0.00000000000E+00  0.17719263607E+03  0.17719263614E+03  0.50400001928E-02 0.  1.
       -1   -1    0    0    0  501  0.00000000000E+00  0.00000000000E+00 -0.51304692094E+03  0.51304692096E+03  0.50400001928E-02 0. -1.
    10030    2    1    2    0    0  0.00000000000E+00  0.00000000000E+00 -0.33585428487E+03  0.69023955711E+03  0.60301952334E+03 0.  0.
        5    1    3    3  502    0 -0.18579017772E+03 -0.21704730940E+03 -0.57788607100E+02  0.29152896557E+03  0.46999998093E+01 0. -1.
       -5    1    3    3    0  502  0.18579017772E+03  0.21704730940E+03 -0.27806567777E+03  0.39871059154E+03  0.46999998093E+01 0.  1.
</event>
<event>
 5   0  0.8207443E-02  0.6004108E+03  0.7818609E-02  0.9904554E-01
       -2   -1    0    0    0  501  0.00000000000E+00  0.00000000000E+00  0.84820273550E+02  0.84820273589E+02  0.25500000920E-02 0.  1.
        2   -1    0    0  501    0  0.00000000000E+00  0.00000000000E+00 -0.10625206992E+04  0.10625206992E+04  0.25500000920E-02 0. -1.
    10030    2    1    2    0    0  0.00000000000E+00  0.00000000000E+00 -0.97770042564E+03  0.11473409728E+04  0.60041084728E+03 0.  0.
        1    1    3    3  502    0  0.26295938073E+03  0.57671199239E+02 -0.23497952848E+03  0.35733595113E+03  0.50400001928E-02 0.  1.
       -1    1    3    3    0  502 -0.26295938073E+03 -0.57671199239E+02 -0.74272089716E+03  0.79000502165E+03  0.50400001928E-02 0. -1.
</event>
<event>
 5   0  0.8575590E-02  0.6049212E+03  0.7818609E-02  0.9895248E-01
       -2   -1    0    0    0  501  0.00000000000E+00  0.00000000000E+00  0.11728011019E+03  0.11728011022E+03  0.25500000920E-02 0. -1.
        2   -1    0    0  501    0  0.00000000000E+00  0.00000000000E+00 -0.78003340598E+03  0.78003340599E+03  0.25500000920E-02 0.  1.
    10030    2    1    2    0    0  0.00000000000E+00  0.00000000000E+00 -0.66275329580E+03  0.89731351621E+03  0.60492116452E+03 0.  0.
        4    1    3    3  502    0 -0.15279910652E+03 -0.11669270280E+03  0.14967272963E+02  0.19284809047E+03  0.12699999809E+01 0. -1.
       -4    1    3    3    0  502  0.15279910652E+03  0.11669270280E+03 -0.67772056876E+03  0.70446542573E+03  0.12699999809E+01 0.  1.
</event>
<event>
 5   0  0.8575590E-02  0.5982765E+03  0.7818609E-02  0.9908988E-01
        2   -1    0    0  501    0  0.00000000000E+00  0.00000000000E+00  0.29746835232E+03  0.29746835233E+03  0.25500000920E-02 0.  1.
       -2   -1    0    0    0  501  0.00000000000E+00  0.00000000000E+00 -0.30081750475E+03  0.30081750476E+03  0.25500000920E-02 0. -1.
    10030    2    1    2    0    0  0.00000000000E+00  0.00000000000E+00 -0.33491524325E+01  0.59828585709E+03  0.59827648289E+03 0.  0.
        4    1    3    3  502    0  0.20578719144E+03  0.21356604645E+03 -0.40704026289E+02  0.29936141203E+03  0.12699999809E+01 0. -1.
       -4    1    3    3    0  502 -0.20578719144E+03 -0.21356604645E+03  0.37354873857E+02  0.29892444506E+03  0.12699999809E+01 0.  1.
</event>
<event>
 5   0  0.5125031E-02  0.6110654E+03  0.7818609E-02  0.9882711E-01
        1   -1    0    0  501    0  0.00000000000E+00  0.00000000000E+00  0.15460354656E+04  0.15460354657E+04  0.50400001928E-02 0.  1.
       -1   -1    0    0    0  501  0.00000000000E+00  0.00000000000E+00 -0.60380390556E+02  0.60380390767E+02  0.50400001928E-02 0. -1.
    10030    2    1    2    0    0  0.00000000000E+00  0.00000000000E+00  0.14856550751E+04  0.16064158564E+04  0.61106538244E+03 0.  0.
        4    1    3    3  502    0 -0.23577360146E+03 -0.19237056430E+03  0.67068953029E+03  0.73649282692E+03  0.12699999809E+01 0.  1.
       -4    1    3    3    0  502  0.23577360146E+03  0.19237056430E+03  0.81496554479E+03  0.86992302950E+03  0.12699999809E+01 0. -1.
</event>
<event>
 5   0  0.4881209E-02  0.5132867E+03  0.7818609E-02  0.1010368E+00
       -1   -1    0    0    0  501  0.00000000000E+00  0.00000000000E+00  0.86999932893E+03  0.86999932894E+03  0.50400001928E-02 0.  1.
        1   -1    0    0  501    0  0.00000000000E+00  0.00000000000E+00 -0.75707875001E+02  0.75707875169E+02  0.50400001928E-02 0. -1.
    10030    2    1    2    0    0  0.00000000000E+00  0.00000000000E+00  0.79429145392E+03  0.94570720411E+03  0.51328666662E+03 0.  0.
        3    1    3    3  502    0 -0.24689031801E+03  0.60805268541E+02  0.46133299709E+03  0.52676394544E+03  0.10100000352E+00 0.  1.
       -3    1    3    3    0  502  0.24689031801E+03 -0.60805268541E+02  0.33295845683E+03  0.41894325867E+03  0.10100000352E+00 0. -1.
</event>
<event>
 5   0  0.4987389E-02  0.5917433E+03  0.7818609E-02  0.9922686E-01
        1   -1    0    0  501    0  0.00000000000E+00  0.00000000000E+00  0.20800471419E+03  0.20800471425E+03  0.50400001928E-02 0. -1.
       -1   -1    0    0    0  501  0.00000000000E+00  0.00000000000E+00 -0.42085602911E+03  0.42085602914E+03  0.50400001928E-02 0.  1.
    10030    2    1    2    0    0  0.00000000000E+00  0.00000000000E+00 -0.21285131493E+03  0.62886074339E+03  0.59174331624E+03 0.  0.
        1    1    3    3  502    0  0.47164802752E+02  0.69992648004E+02 -0.40779136928E+03  0.41643401671E+03  0.50400001928E-02 0.  1.
       -1    1    3    3    0  502 -0.47164802752E+02 -0.69992648004E+02  0.19494005435E+03  0.21242672668E+03  0.50400001928E-02 0. -1.
</event>
<event>
 5   0  0.8575590E-02  0.5911896E+03  0.7818609E-02  0.9923855E-01
        2   -1    0    0  501    0  0.00000000000E+00  0.00000000000E+00  0.10550583113E+04  0.10550583113E+04  0.25500000920E-02 0.  1.
       -2   -1    0    0    0  501  0.00000000000E+00  0.00000000000E+00 -0.82816548996E+02  0.82816549035E+02  0.25500000920E-02 0. -1.
    10030    2    1    2    0    0  0.00000000000E+00  0.00000000000E+00  0.97224176232E+03  0.11378748604E+04  0.59118960869E+03 0.  0.
        4    1    3    3  502    0 -0.26196312736E+02  0.15570704440E+03  0.96708444977E+03  0.97989023689E+03  0.12699999809E+01 0.  1.
       -4    1    3    3    0  502  0.26196312736E+02 -0.15570704440E+03  0.51573125526E+01  0.15798462346E+03  0.12699999809E+01 0. -1.
</event>
<event>
 5   0  0.5125031E-02  0.6055410E+03  0.7818609E-02  0.9893977E-01
        1   -1    0    0  501    0  0.00000000000E+00  0.00000000000E+00  0.14211591984E+03  0.14211591993E+03  0.50400001928E-02 0.  1.
       -1   -1    0    0    0  501  0.00000000000E+00  0.00000000000E+00 -0.64503655958E+03  0.64503655960E+03  0.50400001928E-02 0. -1.
    10030    2    1    2    0    0  0.00000000000E+00  0.00000000000E+00 -0.50292063974E+03  0.78715247953E+03  0.60554096159E+03 0.  0.
        4    1    3    3  502    0 -0.18570689722E+03  0.23089581090E+03 -0.33231075749E+03  0.44523250061E+03  0.12699999809E+01 0. -1.
       -4    1    3    3    0  502  0.18570689722E+03 -0.23089581090E+03 -0.17060988225E+03  0.34191997892E+03  0.12699999809E+01 0.  1.
</event>
<event>
 5   0  0.3437375E-02  0.6011288E+03  0.7818609E-02  0.9903067E-01
        3   -1    0    0  501    0  0.00000000000E+00  0.00000000000E+00  0.62436907661E+03  0.62436908478E+03  0.10100000352E+00 0. -1.
       -3   -1    0    0    0  501  0.00000000000E+00  0.00000000000E+00 -0.14468834905E+03  0.14468838430E+03  0.10100000352E+00 0.  1.
    10030    2    1    2    0    0  0.00000000000E+00  0.00000000000E+00  0.47968072756E+03  0.76905746908E+03  0.60112876354E+03 0.  0.
        4    1    3    3  502    0  0.14650210572E+02 -0.17982194828E+03 -0.67702395396E+02  0.19270648405E+03  0.12699999809E+01 0. -1.
       -4    1    3    3    0  502 -0.14650210572E+02  0.17982194828E+03  0.54738312295E+03  0.57635098503E+03  0.12699999809E+01 0.  1.
</event>
<event>
 5   0  0.8207443E-02  0.6000768E+03  0.7818609E-02  0.9905247E-01
        2   -1    0    0  501    0  0.00000000000E+00  0.00000000000E+00  0.37305689166E+03  0.37305689167E+03  0.25500000920E-02 0.  1.
       -2   -1    0    0    0  501  0.00000000000E+00  0.00000000000E+00 -0.24131182055E+03  0.24131182056E+03  0.25500000920E-02 0. -1.
    10030    2    1    2    0    0  0.00000000000E+00  0.00000000000E+00  0.13174507111E+03  0.61436871224E+03  0.60007678743E+03 0.  0.
        1    1    3    3  502    0  0.47761920441E+02  0.22865689573E+03 -0.12691481171E+03  0.26584308618E+03  0.50400001928E-02 0. -1.
       -1    1    3    3    0  502 -0.47761920441E+02 -0.22865689573E+03  0.25865988283E+03  0.34852562606E+03  0.50400001928E-02 0.  1.
</event>
<event>
 5   0  0.4881209E-02  0.5934480E+03  0.7818609E-02  0.9919093E-01
        1   -1    0    0  501    0  0.00000000000E+00  0.00000000000E+00  0.32158765439E+03  0.32158765443E+03  0.50400001928E-02 0. -1.
       -1   -1    0    0    0  501  0.00000000000E+00  0.00000000000E+00 -0.27378268149E+03  0.27378268153E+03  0.50400001928E-02 0.  1.
    10030    2    1    2    0    0  0.00000000000E+00  0.00000000000E+00  0.47804972902E+02  0.59537033597E+03  0.59344799394E+03 0.  0.
        3    1    3    3  502    0  0.50904197630E+02 -0.23189097688E+03 -0.15466412189E+03  0.28334724861E+03  0.10100000352E+00 0.  1.
       -3    1    3    3    0  502 -0.50904197630E+02  0.23189097688E+03  0.20246909479E+03  0.31202308735E+03  0.10100000352E+00 0. -1.
</event>
<event>
 5   0  0.8699746E-02  0.5126548E+03  0.7818609E-02  0.1010528E+00
        2   -1    0    0  501    0  0.00000000000E+00  0.00000000000E+00  0.15680198802E+04  0.15680198802E+04  0.25500000920E-02 0.  1.
       -2   -1    0    0    0  501  0.00000000000E+00  0.00000000000E+00 -0.41902369574E+02  0.41902369652E+02  0.25500000920E-02 0. -1.
    10030    2    1    2    0    0  0.00000000000E+00  0.00000000000E+00  0.15261175106E+04  0.16099222499E+04  0.51265484913E+03 0.  0.
        3    1    3    3  502    0  0.19597496270E+03 -0.29750607969E+02  0.25268984932E+03  0.32115954732E+03  0.10100000352E+00 0.  1.
       -3    1    3    3    0  502 -0.19597496270E+03  0.29750607969E+02  0.12734276613E+04  0.12887627025E+04  0.10100000352E+00 0. -1.
</event>
<event>
 5   0  0.8207443E-02  0.4780562E+03  0.7818609E-02  0.1019671E+00
        2   -1    0    0  501    0  0.00000000000E+00  0.00000000000E+00  0.58917821432E+03  0.58917821432E+03  0.25500000920E-02 0. -1.
       -2   -1    0    0    0  501  0.00000000000E+00  0.00000000000E+00 -0.96973085670E+02  0.96973085703E+02  0.25500000920E-02 0.  1.
    10030    2    1    2    0    0  0.00000000000E+00  0.00000000000E+00  0.49220512865E+03  0.68615130003E+03  0.47805618693E+03 0.  0.
        1    1    3    3  502    0  0.15304395063E+03  0.76918298140E+01 -0.17197910531E+02  0.15419916739E+03  0.50400001928E-02 0.  1.
       -1    1    3    3    0  502 -0.15304395063E+03 -0.76918298140E+01  0.50940303918E+03  0.53195213264E+03  0.50400001928E-02 0. -1.
</event>
<event>
 5   0  0.5190380E-02  0.6070555E+03  0.7818609E-02  0.9890875E-01
       -1   -1    0    0    0  501  0.00000000000E+00  0.00000000000E+00  0.74560344697E+02  0.74560344867E+02  0.50400001928E-02 0.  1.
        1   -1    0    0  501    0  0.00000000000E+00  0.00000000000E+00 -0.12356312126E+04  0.12356312126E+04  0.50400001928E-02 0. -1.
    10030    2    1    2    0    0  0.00000000000E+00  0.00000000000E+00 -0.11610708679E+04  0.13101915575E+04  0.60705548099E+03 0.  0.
        5    1    3    3  502    0 -0.44416518355E+02 -0.14564327400E+03 -0.13923123632E+02  0.15297298368E+03  0.46999998093E+01 0.  1.
       -5    1    3    3    0  502  0.44416518355E+02  0.14564327400E+03 -0.11471477443E+04  0.11572185738E+04  0.46999998093E+01 0. -1.
</event>
<event>
 5   0  0.5166903E-02  0.5998567E+03  0.7818609E-02  0.9905703E-01
        1   -1    0    0  501    0  0.00000000000E+00  0.00000000000E+00  0.32528291766E+03  0.32528291770E+03  0.50400001928E-02 0. -1.
       -1   -1    0    0    0  501  0.00000000000E+00  0.00000000000E+00 -0.27655007779E+03  0.27655007783E+03  0.50400001928E-02 0.  1.
    10030    2    1    2    0    0  0.00000000000E+00  0.00000000000E+00  0.48732839869E+02  0.60183299553E+03  0.59985670358E+03 0.  0.
        2    1    3    3  502    0 -0.14490683733E+03 -0.15920128007E+03  0.23389406090E+03  0.31788279415E+03  0.25500000920E-02 0. -1.
       -2    1    3    3    0  502  0.14490683733E+03  0.15920128007E+03 -0.18516122103E+03  0.28395020138E+03  0.25500000920E-02 0.  1.
</event>
<event>
 5   0  0.8420604E-02  0.6055522E+03  0.7818609E-02  0.9893954E-01
        2   -1    0    0  501    0  0.00000000000E+00  0.00000000000E+00  0.94477157966E+03  0.94477157966E+03  0.25500000920E-02 0.  1.
       -2   -1    0    0    0  501  0.00000000000E+00  0.00000000000E+00 -0.97032295339E+02  0.97032295373E+02  0.25500000920E-02 0. -1.
    10030    2    1    2    0    0  0.00000000000E+00  0.00000000000E+00  0.84773928432E+03  0.10418038750E+04  0.60555216114E+03 0.  0.
        2    1    3    3  502    0  0.99004923023E+02 -0.27917529016E+03  0.31598221196E+03  0.43311150493E+03  0.25500000920E-02 0. -1.
       -2    1    3    3    0  502 -0.99004923023E+02  0.27917529016E+03  0.53175707236E+03  0.60869237011E+03  0.25500000920E-02 0.  1.
</event>
<event>
 5   0  0.8420604E-02  0.6174781E+03  0.7818609E-02  0.9869794E-01
        2   -1    0    0  501    0  0.00000000000E+00  0.00000000000E+00  0.37771365178E+03  0.37771365179E+03  0.25500000920E-02 0.  1.
       -2   -1    0    0    0  501  0.00000000000E+00  0.00000000000E+00 -0.25235996498E+03  0.25235996499E+03  0.25500000920E-02 0. -1.
    10030    2    1    2    0    0  0.00000000000E+00  0.00000000000E+00  0.12535368680E+03  0.63007361678E+03  0.61747810955E+03 0.  0.
        2    1    3    3  502    0 -0.86288300184E+02 -0.16905621923E+03 -0.18579407878E+03  0.26560330518E+03  0.25500000920E-02 0. -1.
       -2    1    3    3    0  502  0.86288300184E+02  0.16905621923E+03  0.31114776558E+03  0.36447031160E+03  0.25500000920E-02 0.  1.
</event>
<event>
 5   0  0.4987389E-02  0.6130744E+03  0.7818609E-02  0.9878646E-01
       -1   -1    0    0    0  501  0.00000000000E+00  0.00000000000E+00  0.15659912737E+03  0.15659912745E+03  0.50400001928E-02 0. -1.
        1   -1    0    0  501    0  0.00000000000E+00  0.00000000000E+00 -0.60003562255E+03  0.60003562258E+03  0.50400001928E-02 0.  1.
    10030    2    1    2    0    0  0.00000000000E+00  0.00000000000E+00 -0.44343649518E+03  0.75663475003E+03  0.61307439980E+03 0.  0.
        1    1    3    3  502    0 -0.54761627361E+02 -0.30160606487E+03 -0.22175081031E+03  0.37833645886E+03  0.50400001928E-02 0. -1.
       -1    1    3    3    0  502  0.54761627361E+02  0.30160606487E+03 -0.22168568487E+03  0.37829829117E+03  0.50400001928E-02 0.  1.
</event>
<event>
 5   0  0.5166903E-02  0.5100784E+03  0.7818609E-02  0.1011181E+00
        1   -1    0    0  501    0  0.00000000000E+00  0.00000000000E+00  0.27111219030E+03  0.27111219035E+03  0.50400001928E-02 0. -1.
       -1   -1    0    0    0  501  0.00000000000E+00  0.00000000000E+00 -0.23991907128E+03  0.23991907133E+03  0.50400001928E-02 0.  1.
    10030    2    1    2    0    0  0.00000000000E+00  0.00000000000E+00  0.31193119021E+02  0.51103126168E+03  0.51007836628E+03 0.  0.
        2    1    3    3  502    0 -0.74937723639E+02 -0.26680171791E+02 -0.22717304381E+03  0.24069708313E+03  0.25500000920E-02 0.  1.
       -2    1    3    3    0  502  0.74937723639E+02  0.26680171791E+02  0.25836616283E+03  0.27033417855E+03  0.25500000920E-02 0. -1.
</event>
<event>
 5   0  0.8207443E-02  0.6052024E+03  0.7818609E-02  0.9894671E-01
        2   -1    0    0  501    0  0.00000000000E+00  0.00000000000E+00  0.14282403060E+04  0.14282403060E+04  0.25500000920E-02 0. -1.
       -2   -1    0    0    0  501  0.00000000000E+00  0.00000000000E+00 -0.64112093770E+02  0.64112093821E+02  0.25500000920E-02 0.  1.
    10030    2    1    2    0    0  0.00000000000E+00  0.00000000000E+00  0.13641282122E+04  0.14923523998E+04  0.60520236769E+03 0.  0.
        1    1    3    3  502    0 -0.14607743722E+02 -0.19763551453E+03  0.12459586865E+04  0.12616204783E+04  0.50400001928E-02 0.  1.
       -1    1    3    3    0  502  0.14607743722E+02  0.19763551453E+03  0.11816952576E+03  0.23073192155E+03  0.50400001928E-02 0. -1.
</event>
<event>
 5   0  0.5125031E-02  0.6249112E+03  0.7818609E-02  0.9855030E-01
       -1   -1    0    0    0  501  0.00000000000E+00  0.00000000000E+00  0.19208301213E+03  0.19208301220E+03  0.50400001928E-02 0. -1.
        1   -1    0    0  501    0  0.00000000000E+00  0.00000000000E+00 -0.50826210006E+03  0.50826210008E+03  0.50400001928E-02 0.  1.
    10030    2    1    2    0    0  0.00000000000E+00  0.00000000000E+00 -0.31617908792E+03  0.70034511228E+03  0.62491124223E+03 0.  0.
        4    1    3    3  502    0  0.12116302956E+03 -0.30001280319E+02  0.16292402174E+03  0.20524718345E+03  0.12699999809E+01 0. -1.
       -4    1    3    3    0  502 -0.12116302956E+03  0.30001280319E+02 -0.47910310966E+03  0.49509792884E+03  0.12699999809E+01 0.  1.
</event>
<event>
 5   0  0.8207443E-02  0.5849049E+03  0.7818609E-02  0.9937228E-01
       -2   -1    0    0    0  501  0.00000000000E+00  0.00000000000E+00  0.12759188752E+03  0.12759188754E+03  0.25500000920E-02 0.  1.
        2   -1    0    0  501    0  0.00000000000E+00  0.00000000000E+00 -0.67032824211E+03  0.67032824211E+03  0.25500000920E-02 0. -1.
    10030    2    1    2    0    0  0.00000000000E+00  0.00000000000E+00 -0.54273635459E+03  0.79792012965E+03  0.58490493477E+03 0.  0.
        1    1    3    3  502    0  0.45998076416E+01  0.18332745178E+03  0.39410232046E+02  0.18757206407E+03  0.50400001928E-02 0.  1.
       -1    1    3    3    0  502 -0.45998076416E+01 -0.18332745178E+03 -0.58214658663E+03  0.61034806558E+03  0.50400001928E-02 0. -1.
</event>
<event>
 5   0  0.4987389E-02  0.6720930E+03  0.7818609E-02  0.9766184E-01
       -1   -1    0    0    0  501  0.00000000000E+00  0.00000000000E+00  0.43076878155E+03  0.43076878157E+03  0.50400001928E-02 0. -1.
        1   -1    0    0  501    0  0.00000000000E+00  0.00000000000E+00 -0.26215282990E+03  0.26215282994E+03  0.50400001928E-02 0.  1.
    10030    2    1    2    0    0  0.00000000000E+00  0.00000000000E+00  0.16861595165E+03  0.69292161152E+03  0.67209301481E+03 0.  0.
        1    1    3    3  502    0 -0.76160836092E+02  0.32503658861E+03  0.12394414576E+03  0.35610589461E+03  0.50400001928E-02 0. -1.
       -1    1    3    3    0  502  0.76160836092E+02 -0.32503658861E+03  0.44671805893E+02  0.33681571690E+03  0.50400001928E-02 0.  1.
</event>
<event>
 5   0  0.8575590E-02  0.5855010E+03  0.7818609E-02  0.9935952E-01
        2   -1    0    0  501    0  0.00000000000E+00  0.00000000000E+00  0.85891066296E+03  0.85891066297E+03  0.25500000920E-02 0. -1.
       -2   -1    0    0    0  501  0.00000000000E+00  0.00000000000E+00 -0.99780872953E+02  0.99780872986E+02  0.25500000920E-02 0.  1.
    10030    2    1    2    0    0  0.00000000000E+00  0.00000000000E+00  0.75912979001E+03  0.95869153595E+03  0.58550100173E+03 0.  0.
        4    1    3    3  502    0  0.10799783133E+03 -0.23430057571E+03  0.15303109394E+03  0.29996736483E+03  0.12699999809E+01 0.  1.
       -4    1    3    3    0  502 -0.10799783133E+03  0.23430057571E+03  0.60609869607E+03  0.65872417113E+03  0.12699999809E+01 0. -1.
</event>
<event>
 5   0  0.5190380E-02  0.6032016E+03  0.7818609E-02  0.9898786E-01
        1   -1    0    0  501    0  0.00000000000E+00  0.00000000000E+00  0.68998265063E+03  0.68998265065E+03  0.50400001928E-02 0. -1.
       -1   -1    0    0    0  501  0.00000000000E+00  0.00000000000E+00 -0.13183382101E+03  0.13183382111E+03  0.50400001928E-02 0.  1.
    10030    2    1    2    0    0  0.00000000000E+00  0.00000000000E+00  0.55814882962E+03  0.82181647176E+03  0.60320162239E+03 0.  0.
        5    1    3    3  502    0 -0.86229793789E+02  0.28518510030E+03  0.21553751050E+03  0.36775620620E+03  0.46999998093E+01 0.  1.
       -5    1    3    3    0  502  0.86229793789E+02 -0.28518510030E+03  0.34261131912E+03  0.45406026556E+03  0.46999998093E+01 0. -1.
</event>
<event>
 5   0  0.8699746E-02  0.5981070E+03  0.7818609E-02  0.9909341E-01
       -2   -1    0    0    0  501  0.00000000000E+00  0.00000000000E+00  0.94848517223E+02  0.94848517257E+02  0.25500000920E-02 0.  1.
        2   -1    0    0  501    0  0.00000000000E+00  0.00000000000E+00 -0.94290349443E+03  0.94290349443E+03  0.25500000920E-02 0. -1.
    10030    2    1    2    0    0  0.00000000000E+00  0.00000000000E+00 -0.84805497721E+03  0.10377520117E+04  0.59810700832E+03 0.  0.
        3    1    3    3  502    0  0.95074031730E+02  0.42383216111E+02 -0.91045628696E+03  0.91638751038E+03  0.10100000352E+00 0. -1.
       -3    1    3    3    0  502 -0.95074031730E+02 -0.42383216111E+02  0.62401309755E+02  0.12136450131E+03  0.10100000352E+00 0.  1.
</event>
<event>
 5   0  0.8420604E-02  0.6046036E+03  0.7818609E-02  0.9895901E-01
        2   -1    0    0  501    0  0.00000000000E+00  0.00000000000E+00  0.32674537759E+03  0.32674537760E+03  0.25500000920E-02 0.  1.
       -2   -1    0    0    0  501  0.00000000000E+00  0.00000000000E+00 -0.27968681046E+03  0.27968681047E+03  0.25500000920E-02 0. -1.
    10030    2    1    2    0    0  0.00000000000E+00  0.00000000000E+00  0.47058567135E+02  0.60643218807E+03  0.60460358086E+03 0.  0.
        2    1    3    3  502    0 -0.78247505415E+02  0.10101648081E+02 -0.26917803505E+03  0.28050228155E+03  0.25500000920E-02 0. -1.
       -2    1    3    3    0  502  0.78247505415E+02 -0.10101648081E+02  0.31623660218E+03  0.32592990652E+03  0.25500000920E-02 0.  1.
</event>
<event>
 5   0  0.8207443E-02  0.6411905E+03  0.7818609E-02  0.9823452E-01
       -2   -1    0    0    0  501  0.00000000000E+00  0.00000000000E+00  0.16603811585E+03  0.16603811587E+03  0.25500000920E-02 0. -1.
        2   -1    0    0  501    0  0.00000000000E+00  0.00000000000E+00 -0.61902234376E+03  0.61902234376E+03  0.25500000920E-02 0.  1.
    10030    2    1    2    0    0  0.00000000000E+00  0.00000000000E+00 -0.45298422791E+03  0.78506045963E+03  0.64119046666E+03 0.  0.
        1    1    3    3  502    0 -0.57376735392E+02 -0.10025674731E+03 -0.59265691842E+03  0.60380934750E+03  0.50400001928E-02 0.  1.
       -1    1    3    3    0  502  0.57376735392E+02  0.10025674731E+03  0.13967269051E+03  0.18125111213E+03  0.50400001928E-02 0. -1.
</event>
<event>
 5   0  0.5166903E-02  0.5957032E+03  0.7818609E-02  0.9914361E-01
       -1   -1    0    0    0  501  0.00000000000E+00  0.00000000000E+00  0.85323565680E+02  0.85323565829E+02  0.50400001928E-02 0. -1.
        1   -1    0    0  501    0  0.00000000000E+00  0.00000000000E+00 -0.10397547571E+04  0.10397547571E+04  0.50400001928E-02 0.  1.
    10030    2    1    2    0    0  0.00000000000E+00  0.00000000000E+00 -0.95443119144E+03  0.11250783230E+04  0.59570322612E+03 0.  0.
        2    1    3    3  502    0  0.17515492844E+03  0.13055317788E+03 -0.94828321926E+02  0.23815077547E+03  0.25500000920E-02 0. -1.
       -2    1    3    3    0  502 -0.17515492844E+03 -0.13055317788E+03 -0.85960286952E+03  0.88692754749E+03  0.25500000920E-02 0.  1.
</event>
<event>
 5   0  0.8420604E-02  0.5976910E+03  0.7818609E-02  0.9910208E-01
        2   -1    0    0  501    0  0.00000000000E+00  0.00000000000E+00  0.66440932257E+03  0.66440932258E+03  0.25500000920E-02 0. -1.
       -2   -1    0    0    0  501  0.00000000000E+00  0.00000000000E+00 -0.13441809426E+03  0.13441809429E+03  0.25500000920E-02 0.  1.
    10030    2    1    2    0    0  0.00000000000E+00  0.00000000000E+00  0.52999122831E+03  0.79882741686E+03  0.59769100700E+03 0.  0.
        2    1    3    3  502    0  0.40780979383E+02 -0.18334681157E+03 -0.45668928396E+02  0.19329974811E+03  0.25500000920E-02 0. -1.
       -2    1    3    3    0  502 -0.40780979383E+02  0.18334681157E+03  0.57566015671E+03  0.60552766875E+03  0.25500000920E-02 0.  1.
</event>
<event>
 5   0  0.4881209E-02  0.5994484E+03  0.7818609E-02  0.9906551E-01
       -1   -1    0    0    0  501  0.00000000000E+00  0.00000000000E+00  0.10868451943E+04  0.10868451943E+04  0.50400001928E-02 0.  1.
        1   -1    0    0  501    0  0.00000000000E+00  0.00000000000E+00 -0.82656302263E+02  0.82656302416E+02  0.50400001928E-02 0. -1.
    10030    2    1    2    0    0  0.00000000000E+00  0.00000000000E+00  0.10041888920E+04  0.11695014967E+04  0.59944842976E+03 0.  0.
        3    1    3    3  502    0 -0.11024018020E+03 -0.10861247020E+03  0.10028690832E+04  0.10147393627E+04  0.10100000352E+00 0.  1.
       -3    1    3    3    0  502  0.11024018020E+03  0.10861247020E+03  0.13198087926E+01  0.15476213396E+03  0.10100000352E+00 0. -1.
</event>
<event>
 5   0  0.5166903E-02  0.6055235E+03  0.7818609E-02  0.9894012E-01
       -1   -1    0    0    0  501  0.00000000000E+00  0.00000000000E+00  0.24353744021E+03  0.24353744026E+03  0.50400001928E-02 0. -1.
        1   -1    0    0  501    0  0.00000000000E+00  0.00000000000E+00 -0.37638842092E+03  0.37638842096E+03  0.50400001928E-02 0.  1.
    10030    2    1    2    0    0  0.00000000000E+00  0.00000000000E+00 -0.13285098071E+03  0.61992586122E+03  0.60552348454E+03 0.  0.
        2    1    3    3  502    0 -0.84844430913E+02 -0.10625234397E+03  0.21052024494E+03  0.25061307147E+03  0.25500000920E-02 0. -1.
       -2    1    3    3    0  502  0.84844430913E+02  0.10625234397E+03 -0.34337122566E+03  0.36931278975E+03  0.25500000920E-02 0.  1.
</event>
<event>
 5   0  0.5166903E-02  0.5948081E+03  0.7818609E-02  0.9916236E-01
       -1   -1    0    0    0  501  0.00000000000E+00  0.00000000000E+00  0.50206176191E+03  0.50206176193E+03  0.50400001928E-02 0. -1.
        1   -1    0    0  501    0  0.00000000000E+00  0.00000000000E+00 -0.17617191481E+03  0.17617191488E+03  0.50400001928E-02 0.  1.
    10030    2    1    2    0    0  0.00000000000E+00  0.00000000000E+00  0.32588984710E+03  0.67823367681E+03  0.59480814379E+03 0.  0.
        2    1    3    3  502    0 -0.11652548192E+03 -0.36874657234E+02 -0.14621227198E+03  0.19056745989E+03  0.25500000920E-02 0.  1.
       -2    1    3    3    0  502  0.11652548192E+03  0.36874657234E+02  0.47210211908E+03  0.48766621693E+03  0.25500000920E-02 0. -1.
</event>
<event>
 5   0  0.5190380E-02  0.5915757E+03  0.7818609E-02  0.9923039E-01
        1   -1    0    0  501    0  0.00000000000E+00  0.00000000000E+00  0.33325221342E+03  0.33325221346E+03  0.50400001928E-02 0. -1.
       -1   -1    0    0    0  501  0.00000000000E+00  0.00000000000E+00 -0.26253529048E+03  0.26253529053E+03  0.50400001928E-02 0.  1.
    10030    2    1    2    0    0  0.00000000000E+00  0.00000000000E+00  0.70716922940E+02  0.59578750399E+03  0.59157574892E+03 0.  0.
        5    1    3    3  502    0 -0.21529338788E+03  0.97915140521E+02 -0.14347194101E+03  0.27666749984E+03  0.46999998093E+01 0.  1.
       -5    1    3    3    0  502  0.21529338788E+03 -0.97915140521E+02  0.21418886395E+03  0.31912000415E+03  0.46999998093E+01 0. -1.
</event>
<event>
 5   0  0.8207443E-02  0.6017834E+03  0.7818609E-02  0.9901713E-01
        2   -1    0    0  501    0  0.00000000000E+00  0.00000000000E+00  0.12117474395E+04  0.12117474395E+04  0.25500000920E-02 0.  1.
       -2   -1    0    0    0  501  0.00000000000E+00  0.00000000000E+00 -0.74715080515E+02  0.74715080559E+02  0.25500000920E-02 0. -1.
    10030    2    1    2    0    0  0.00000000000E+00  0.00000000000E+00  0.11370323589E+04  0.12864625200E+04  0.60178337476E+03 0.  0.
        1    1    3    3  502    0 -0.10214064998E+03  0.17464311865E+03  0.10446295551E+04  0.10640412768E+04  0.50400001928E-02 0.  1.
       -1    1    3    3    0  502  0.10214064998E+03 -0.17464311865E+03  0.92402803869E+02  0.22242124327E+03  0.50400001928E-02 0. -1.
</event>
<event>
 5   0  0.8575590E-02  0.6089224E+03  0.7818609E-02  0.9887066E-01
        2   -1    0    0  501    0  0.00000000000E+00  0.00000000000E+00  0.14335744524E+04  0.14335744524E+04  0.25500000920E-02 0.  1.
       -2   -1    0    0    0  501  0.00000000000E+00  0.00000000000E+00 -0.64661191587E+02  0.64661191637E+02  0.25500000920E-02 0. -1.
    10030    2    1    2    0    0  0.00000000000E+00  0.00000000000E+00  0.13689132608E+04  0.14982356441E+04  0.60892243303E+03 0.  0.
        4    1    3    3  502    0  0.16045450041E+03 -0.15869885348E+03  0.18162864917E+03  0.28969216748E+03  0.12699999809E+01 0. -1.
       -4    1    3    3    0  502 -0.16045450041E+03  0.15869885348E+03  0.11872846117E+04  0.12085434766E+04  0.12699999809E+01 0.  1.
</event>
<event>
 5   0  0.8699746E-02  0.5898412E+03  0.7818609E-02  0.9926709E-01
        2   -1    0    0  501    0  0.00000000000E+00  0.00000000000E+00  0.46605809638E+03  0.46605809639E+03  0.25500000920E-02 0.  1.
       -2   -1    0    0    0  501  0.00000000000E+00  0.00000000000E+00 -0.18662517709E+03  0.18662517711E+03  0.25500000920E-02 0. -1.
    10030    2    1    2    0    0  0.00000000000E+00  0.00000000000E+00  0.27943291929E+03  0.65268327349E+03  0.58984124908E+03 0.  0.
        3    1    3    3  502    0  0.88916694926E+02  0.10391854967E+03 -0.14941249398E+03  0.20255702200E+03  0.10100000352E+00 0. -1.
       -3    1    3    3    0  502 -0.88916694926E+02 -0.10391854967E+03  0.42884541327E+03  0.45012625150E+03  0.10100000352E+00 0.  1.
</event>
<event>
 5   0  0.3437375E-02  0.5941165E+03  0.7818609E-02  0.9917688E-01
        4   -1    0    0  501    0  0.00000000000E+00  0.00000000000E+00  0.13651829492E+03  0.13652420206E+03  0.12699999809E+01 0.  1.
       -4   -1    0    0    0  501  0.00000000000E+00  0.00000000000E+00 -0.64636619174E+03  0.64636743941E+03  0.12699999809E+01 0. -1.
    10030    2    1    2    0    0  0.00000000000E+00  0.00000000000E+00 -0.50984789682E+03  0.78289164147E+03  0.59411652425E+03 0.  0.
        5    1    3    3  502    0 -0.37874670990E+02 -0.14990166905E+02 -0.64262277075E+03  0.64392958566E+03  0.46999998093E+01 0. -1.
       -5    1    3    3    0  502  0.37874670990E+02  0.14990166905E+02  0.13277487393E+03  0.13896205580E+03  0.46999998093E+01 0.  1.
</event>
<event>
 5   0  0.3437375E-02  0.5988261E+03  0.7818609E-02  0.9907844E-01
        4   -1    0    0  501    0  0.00000000000E+00  0.00000000000E+00  0.68742569364E+03  0.68742686678E+03  0.12699999809E+01 0. -1.
       -4   -1    0    0    0  501  0.00000000000E+00  0.00000000000E+00 -0.13040707834E+03  0.13041326229E+03  0.12699999809E+01 0.  1.
    10030    2    1    2    0    0  0.00000000000E+00  0.00000000000E+00  0.55701861530E+03  0.81784012907E+03  0.59882613414E+03 0.  0.
        4    1    3    3  502    0  0.14754162500E+03  0.38620760423E+02  0.63039976008E+03  0.64858736085E+03  0.12699999809E+01 0. -1.
       -4    1    3    3    0  502 -0.14754162500E+03 -0.38620760423E+02 -0.73381144775E+02  0.16925276823E+03  0.12699999809E+01 0.  1.
</event>
<event>
 5   0  0.5190380E-02  0.6234967E+03  0.7818609E-02  0.9857822E-01
        1   -1    0    0  501    0  0.00000000000E+00  0.00000000000E+00  0.59517758652E+03  0.59517758654E+03  0.50400001928E-02 0. -1.
       -1   -1    0    0    0  501  0.00000000000E+00  0.00000000000E+00 -0.16329079027E+03  0.16329079035E+03  0.50400001928E-02 0.  1.
    10030    2    1    2    0    0  0.00000000000E+00  0.00000000000E+00  0.43188679625E+03  0.75846837689E+03  0.62349665113E+03 0.  0.
        5    1    3    3  502    0  0.20177606897E+03  0.20252351846E+03  0.36707827701E+03  0.46529335799E+03  0.46999998093E+01 0. -1.
       -5    1    3    3    0  502 -0.20177606897E+03 -0.20252351846E+03  0.64808519234E+02  0.29317501890E+03  0.46999998093E+01 0.  1.
</event>
<event>
 5   0  0.5190380E-02  0.5973185E+03  0.7818609E-02  0.9910985E-01
        1   -1    0    0  501    0  0.00000000000E+00  0.00000000000E+00  0.90622168396E+03  0.90622168397E+03  0.50400001928E-02 0. -1.
       -1   -1    0    0    0  501  0.00000000000E+00  0.00000000000E+00 -0.98427745131E+02  0.98427745260E+02  0.50400001928E-02 0.  1.
    10030    2    1    2    0    0  0.00000000000E+00  0.00000000000E+00  0.80779393883E+03  0.10046494292E+04  0.59731853148E+03 0.  0.
        5    1    3    3  502    0 -0.96034728483E+01 -0.50100743942E+02 -0.90982772174E+02  0.10441391701E+03  0.46999998093E+01 0.  1.
       -5    1    3    3    0  502  0.96034728483E+01  0.50100743942E+02  0.89877671100E+03  0.90023551222E+03  0.46999998093E+01 0. -1.
</event>
<event>
 5   0  0.5125031E-02  0.5918530E+03  0.7818609E-02  0.9922454E-01
       -1   -1    0    0    0  501  0.00000000000E+00  0.00000000000E+00  0.13363037065E+03  0.13363037074E+03  0.50400001928E-02 0.  1.
        1   -1    0    0  501    0  0.00000000000E+00  0.00000000000E+00 -0.65533377779E+03  0.65533377781E+03  0.50400001928E-02 0. -1.
    10030    2    1    2    0    0  0.00000000000E+00  0.00000000000E+00 -0.52170340715E+03  0.78896414855E+03  0.59185300766E+03 0.  0.
        4    1    3    3  502    0  0.18095103570E+03  0.23212555654E+03 -0.21986571048E+03  0.36738004146E+03  0.12699999809E+01 0. -1.
       -4    1    3    3    0  502 -0.18095103570E+03 -0.23212555654E+03 -0.30183769667E+03  0.42158410709E+03  0.12699999809E+01 0.  1.
</event>
<event>
 5   0  0.4987389E-02  0.6051494E+03  0.7818609E-02  0.9894780E-01
        1   -1    0    0  501    0  0.00000000000E+00  0.00000000000E+00  0.66384906480E+03  0.66384906482E+03  0.50400001928E-02 0.  1.
       -1   -1    0    0    0  501  0.00000000000E+00  0.00000000000E+00 -0.13791004900E+03  0.13791004909E+03  0.50400001928E-02 0. -1.
    10030    2    1    2    0    0  0.00000000000E+00  0.00000000000E+00  0.52593901580E+03  0.80175911392E+03  0.60514942651E+03 0.  0.
        1    1    3    3  502    0 -0.25679507897E+02  0.37633849272E+02  0.65927844313E+03  0.66085082231E+03  0.50400001928E-02 0.  1.
       -1    1    3    3    0  502  0.25679507897E+02 -0.37633849272E+02 -0.13333942733E+03  0.14090829161E+03  0.50400001928E-02 0. -1.
</event>
<event>
 5   0  0.8575590E-02  0.6019074E+03  0.7818609E-02  0.9901457E-01
        2   -1    0    0  501    0  0.00000000000E+00  0.00000000000E+00  0.22700568702E+03  0.22700568704E+03  0.25500000920E-02 0. -1.
       -2   -1    0    0    0  501  0.00000000000E+00  0.00000000000E+00 -0.39899050883E+03  0.39899050884E+03  0.25500000920E-02 0.  1.
    10030    2    1    2    0    0  0.00000000000E+00  0.00000000000E+00 -0.17198482181E+03  0.62599619587E+03  0.60190735027E+03 0.  0.
        4    1    3    3  502    0  0.23837483209E+02  0.14776750280E+03  0.18554673935E+03  0.23839602738E+03  0.12699999809E+01 0. -1.
       -4    1    3    3    0  502 -0.23837483209E+02 -0.14776750280E+03 -0.35753156116E+03  0.38760016849E+03  0.12699999809E+01 0.  1.
</event>
<event>
 5   0  0.8817544E-02  0.5928347E+03  0.7818609E-02  0.9920384E-01
       -2   -1    0    0    0  501  0.00000000000E+00  0.00000000000E+00  0.17825427464E+03  0.17825427466E+03  0.25500000920E-02 0.  1.
        2   -1    0    0  501    0  0.00000000000E+00  0.00000000000E+00 -0.49290955390E+03  0.49290955390E+03  0.25500000920E-02 0. -1.
    10030    2    1    2    0    0  0.00000000000E+00  0.00000000000E+00 -0.31465527925E+03  0.67116382856E+03  0.59283466499E+03 0.  0.
        5    1    3    3  502    0  0.18323862181E+03 -0.22804232096E+03 -0.21116560904E+03  0.36082225141E+03  0.46999998093E+01 0.  1.
       -5    1    3    3    0  502 -0.18323862181E+03  0.22804232096E+03 -0.10348967021E+03  0.31034157716E+03  0.46999998093E+01 0. -1.
</event>
<event>
 5   0  0.5190380E-02  0.6043253E+03  0.7818609E-02  0.9896473E-01
       -1   -1    0    0    0  501  0.00000000000E+00  0.00000000000E+00  0.10511734270E+03  0.10511734282E+03  0.50400001928E-02 0.  1.
        1   -1    0    0  501    0  0.00000000000E+00  0.00000000000E+00 -0.86857458768E+03  0.86857458770E+03  0.50400001928E-02 0. -1.
    10030    2    1    2    0    0  0.00000000000E+00  0.00000000000E+00 -0.76345724498E+03  0.97369193052E+03  0.60432525236E+03 0.  0.
        5    1    3    3  502    0  0.14302901007E+03  0.47481639427E+02  0.40174467595E+02  0.15603807756E+03  0.46999998093E+01 0.  1.
       -5    1    3    3    0  502 -0.14302901007E+03 -0.47481639427E+02 -0.80363171258E+03  0.81765385296E+03  0.46999998093E+01 0. -1.
</event>
<event>
 5   0  0.8207443E-02  0.6034863E+03  0.7818609E-02  0.9898199E-01
        2   -1    0    0  501    0  0.00000000000E+00  0.00000000000E+00  0.13593238915E+03  0.13593238917E+03  0.25500000920E-02 0. -1.
       -2   -1    0    0    0  501  0.00000000000E+00  0.00000000000E+00 -0.66981047329E+03  0.66981047330E+03  0.25500000920E-02 0.  1.
    10030    2    1    2    0    0  0.00000000000E+00  0.00000000000E+00 -0.53387808414E+03  0.80574286247E+03  0.60348633099E+03 0.  0.
        1    1    3    3  502    0 -0.40232347649E+02 -0.27145596243E+03 -0.43445584821E+03  0.51386658327E+03  0.50400001928E-02 0. -1.
       -1    1    3    3    0  502  0.40232347649E+02  0.27145596243E+03 -0.99422235933E+02  0.29187627920E+03  0.50400001928E-02 0.  1.
</event>
<event>
 5   0  0.8420604E-02  0.6065771E+03  0.7818609E-02  0.9891854E-01
        2   -1    0    0  501    0  0.00000000000E+00  0.00000000000E+00  0.15178100075E+03  0.15178100077E+03  0.25500000920E-02 0. -1.
       -2   -1    0    0    0  501  0.00000000000E+00  0.00000000000E+00 -0.60603061874E+03  0.60603061874E+03  0.25500000920E-02 0.  1.
    10030    2    1    2    0    0  0.00000000000E+00  0.00000000000E+00 -0.45424961799E+03  0.75781161952E+03  0.60657706454E+03 0.  0.
        2    1    3    3  502    0 -0.15165879243E+02  0.18544132436E+03  0.72101970833E+02  0.19954243378E+03  0.25500000920E-02 0. -1.
       -2    1    3    3    0  502  0.15165879243E+02 -0.18544132436E+03 -0.52635158882E+03  0.55826918573E+03  0.25500000920E-02 0.  1.
</event>
<event>
 5   0  0.8420604E-02  0.5878122E+03  0.7818609E-02  0.9931019E-01
        2   -1    0    0  501    0  0.00000000000E+00  0.00000000000E+00  0.34222435039E+03  0.34222435040E+03  0.25500000920E-02 0. -1.
       -2   -1    0    0    0  501  0.00000000000E+00  0.00000000000E+00 -0.25240986184E+03  0.25240986186E+03  0.25500000920E-02 0.  1.
    10030    2    1    2    0    0  0.00000000000E+00  0.00000000000E+00  0.89814488547E+02  0.59463421225E+03  0.58781221834E+03 0.  0.
        2    1    3    3  502    0  0.10381163175E+03 -0.59280551291E+01  0.32299544285E+03  0.33931998590E+03  0.25500000920E-02 0. -1.
       -2    1    3    3    0  502 -0.10381163175E+03  0.59280551291E+01 -0.23318095430E+03  0.25531422635E+03  0.25500000920E-02 0.  1.
</event>
<event>
 5   0  0.5125031E-02  0.5987720E+03  0.7818609E-02  0.9907957E-01
        1   -1    0    0  501    0  0.00000000000E+00  0.00000000000E+00  0.23134042398E+03  0.23134042403E+03  0.50400001928E-02 0. -1.
       -1   -1    0    0    0  501  0.00000000000E+00  0.00000000000E+00 -0.38744627756E+03  0.38744627759E+03  0.50400001928E-02 0.  1.
    10030    2    1    2    0    0  0.00000000000E+00  0.00000000000E+00 -0.15610585358E+03  0.61878670162E+03  0.59877203056E+03 0.  0.
        4    1    3    3  502    0 -0.15032718923E+03  0.25542634198E+03 -0.12176933751E+03  0.32042200995E+03  0.12699999809E+01 0.  1.
       -4    1    3    3    0  502  0.15032718923E+03 -0.25542634198E+03 -0.34336516062E+02  0.29836469167E+03  0.12699999809E+01 0. -1.
</event>
<event>
 5   0  0.4987389E-02  0.5911155E+03  0.7818609E-02  0.9924012E-01
       -1   -1    0    0    0  501  0.00000000000E+00  0.00000000000E+00  0.16029414679E+03  0.16029414686E+03  0.50400001928E-02 0. -1.
        1   -1    0    0  501    0  0.00000000000E+00  0.00000000000E+00 -0.54496299897E+03  0.54496299900E+03  0.50400001928E-02 0.  1.
    10030    2    1    2    0    0  0.00000000000E+00  0.00000000000E+00 -0.38466885219E+03  0.70525714586E+03  0.59111548444E+03 0.  0.
        1    1    3    3  502    0  0.72097695420E+02 -0.27046565701E+03 -0.79118353056E+02  0.29087705844E+03  0.50400001928E-02 0. -1.
       -1    1    3    3    0  502 -0.72097695420E+02  0.27046565701E+03 -0.30555049913E+03  0.41438008742E+03  0.50400001928E-02 0.  1.
</event>
<event>
 5   0  0.8817544E-02  0.6623573E+03  0.7818609E-02  0.9783864E-01
       -2   -1    0    0    0  501  0.00000000000E+00  0.00000000000E+00  0.58954917578E+02  0.58954917634E+02  0.25500000920E-02 0. -1.
        2   -1    0    0  501    0  0.00000000000E+00  0.00000000000E+00 -0.18603926923E+04  0.18603926923E+04  0.25500000920E-02 0.  1.
    10030    2    1    2    0    0  0.00000000000E+00  0.00000000000E+00 -0.18014377747E+04  0.19193476099E+04  0.66235729902E+03 0.  0.
        5    1    3    3  502    0  0.21612499831E+01 -0.16796229038E+03 -0.17276768009E+04  0.17358298363E+04  0.46999998093E+01 0.  1.
       -5    1    3    3    0  502 -0.21612499831E+01  0.16796229038E+03 -0.73760973755E+02  0.18351777364E+03  0.46999998093E+01 0. -1.
</event>
<event>
 5   0  0.5190380E-02  0.6324282E+03  0.7818609E-02  0.9840322E-01
       -1   -1    0    0    0  501  0.00000000000E+00  0.00000000000E+00  0.16582945329E+03  0.16582945336E+03  0.50400001928E-02 0. -1.
        1   -1    0    0  501    0  0.00000000000E+00  0.00000000000E+00 -0.60297709656E+03  0.60297709658E+03  0.50400001928E-02 0.  1.
    10030    2    1    2    0    0  0.00000000000E+00  0.00000000000E+00 -0.43714764327E+03  0.76880654994E+03  0.63242821665E+03 0.  0.
        5    1    3    3  502    0 -0.28096956241E+03 -0.78396031531E+02 -0.70288172416E+02  0.30008723722E+03  0.46999998093E+01 0.  1.
       -5    1    3    3    0  502  0.28096956241E+03  0.78396031531E+02 -0.36685947085E+03  0.46871931272E+03  0.46999998093E+01 0. -1.
</event>
<event>
 5   0  0.8420604E-02  0.5977702E+03  0.7818609E-02  0.9910043E-01
        2   -1    0    0  501    0  0.00000000000E+00  0.00000000000E+00  0.52581377161E+03  0.52581377162E+03  0.25500000920E-02 0.  1.
       -2   -1    0    0    0  501  0.00000000000E+00  0.00000000000E+00 -0.16989340554E+03  0.16989340556E+03  0.25500000920E-02 0. -1.
    10030    2    1    2    0    0  0.00000000000E+00  0.00000000000E+00  0.35592036607E+03  0.69570717718E+03  0.59777016436E+03 0.  0.
        2    1    3    3  502    0  0.19543051762E+03  0.34136341613E+01  0.44112010522E+03  0.48248490894E+03  0.25500000920E-02 0.  1.
       -2    1    3    3    0  502 -0.19543051762E+03 -0.34136341613E+01 -0.85199739152E+02  0.21322226824E+03  0.25500000920E-02 0. -1.
</event>
<event>
 5   0  0.8575590E-02  0.6002886E+03  0.7818609E-02  0.9904807E-01
        2   -1    0    0  501    0  0.00000000000E+00  0.00000000000E+00  0.24375944004E+03  0.24375944005E+03  0.25500000920E-02 0.  1.
       -2   -1    0    0    0  501  0.00000000000E+00  0.00000000000E+00 -0.36957176427E+03  0.36957176427E+03  0.25500000920E-02 0. -1.
    10030    2    1    2    0    0  0.00000000000E+00  0.00000000000E+00 -0.12581232423E+03  0.61333120432E+03  0.60028861831E+03 0.  0.
        4    1    3    3  502    0  0.52506812734E+02  0.28614014466E+03 -0.13834703896E+03  0.32214075162E+03  0.12699999809E+01 0. -1.
       -4    1    3    3    0  502 -0.52506812734E+02 -0.28614014466E+03  0.12534714725E+02  0.29119045270E+03  0.12699999809E+01 0.  1.
</event>
<event>
 5   0  0.5125031E-02  0.5964411E+03  0.7818609E-02  0.9912817E-01
        1   -1    0    0  501    0  0.00000000000E+00  0.00000000000E+00  0.11998088006E+04  0.11998088006E+04  0.50400001928E-02 0. -1.
       -1   -1    0    0    0  501  0.00000000000E+00  0.00000000000E+00 -0.74124735684E+02  0.74124735855E+02  0.50400001928E-02 0.  1.
    10030    2    1    2    0    0  0.00000000000E+00  0.00000000000E+00  0.11256840649E+04  0.12739335364E+04  0.59644114657E+03 0.  0.
        4    1    3    3  502    0 -0.22215641158E+03  0.16883935171E+03  0.33807865884E+03  0.43835943056E+03  0.12699999809E+01 0.  1.
       -4    1    3    3    0  502  0.22215641158E+03 -0.16883935171E+03  0.78760540605E+03  0.83557410589E+03  0.12699999809E+01 0. -1.
</event>
<event>
 5   0  0.8817544E-02  0.6011382E+03  0.7818609E-02  0.9903047E-01
        2   -1    0    0  501    0  0.00000000000E+00  0.00000000000E+00  0.15015386357E+03  0.15015386360E+03  0.25500000920E-02 0.  1.
       -2   -1    0    0    0  501  0.00000000000E+00  0.00000000000E+00 -0.60166141264E+03  0.60166141264E+03  0.25500000920E-02 0. -1.
    10030    2    1    2    0    0  0.00000000000E+00  0.00000000000E+00 -0.45150754906E+03  0.75181527624E+03  0.60113820601E+03 0.  0.
        5    1    3    3  502    0 -0.84938596889E+02  0.13734518842E+02 -0.58588209758E+03  0.59218504246E+03  0.46999998093E+01 0. -1.
       -5    1    3    3    0  502  0.84938596889E+02 -0.13734518842E+02  0.13437454852E+03  0.15963023378E+03  0.46999998093E+01 0.  1.
</event>
<event>
 5   0  0.8699746E-02  0.6055633E+03  0.7818609E-02  0.9893931E-01
        2   -1    0    0  501    0  0.00000000000E+00  0.00000000000E+00  0.37918580708E+03  0.37918580708E+03  0.25500000920E-02 0.  1.
       -2   -1    0    0    0  501  0.00000000000E+00  0.00000000000E+00 -0.24177253252E+03  0.24177253253E+03  0.25500000920E-02 0. -1.
    10030    2    1    2    0    0  0.00000000000E+00  0.00000000000E+00  0.13741327456E+03  0.62095833962E+03  0.60556325146E+03 0.  0.
        3    1    3    3  502    0 -0.10120881204E+03  0.70386204167E+01 -0.22382463450E+03  0.24574426345E+03  0.10100000352E+00 0. -1.
       -3    1    3    3    0  502  0.10120881204E+03 -0.70386204167E+01  0.36123790905E+03  0.37521407616E+03  0.10100000352E+00 0.  1.
</event>
<event>
 5   0  0.8575590E-02  0.6013442E+03  0.7818609E-02  0.9902621E-01
        2   -1    0    0  501    0  0.00000000000E+00  0.00000000000E+00  0.50540421697E+03  0.50540421698E+03  0.25500000920E-02 0.  1.
       -2   -1    0    0    0  501  0.00000000000E+00  0.00000000000E+00 -0.17887404529E+03  0.17887404531E+03  0.25500000920E-02 0. -1.
    10030    2    1    2    0    0  0.00000000000E+00  0.00000000000E+00  0.32653017168E+03  0.68427826229E+03  0.60134415040E+03 0.  0.
        4    1    3    3  502    0 -0.23181557159E+03 -0.13943295489E+02 -0.54041468762E+02  0.23844279810E+03  0.12699999809E+01 0. -1.
       -4    1    3    3    0  502  0.23181557159E+03  0.13943295489E+02  0.38057164044E+03  0.44583546419E+03  0.12699999809E+01 0.  1.
</event>
<event>
 5   0  0.5166903E-02  0.6044271E+03  0.7818609E-02  0.9896263E-01
        1   -1    0    0  501    0  0.00000000000E+00  0.00000000000E+00  0.84376011456E+03  0.84376011457E+03  0.50400001928E-02 0.  1.
       -1   -1    0    0    0  501  0.00000000000E+00  0.00000000000E+00 -0.10824527373E+03  0.10824527385E+03  0.50400001928E-02 0. -1.
    10030    2    1    2    0    0  0.00000000000E+00  0.00000000000E+00  0.73551484082E+03  0.95200538842E+03  0.60442714906E+03 0.  0.
        2    1    3    3  502    0 -0.14731282112E+03  0.11965651837E+03  0.73819422890E+03  0.76220041278E+03  0.25500000920E-02 0.  1.
       -2    1    3    3    0  502  0.14731282112E+03 -0.11965651837E+03 -0.26793880711E+01  0.18980497565E+03  0.25500000920E-02 0. -1.
</event>
<event>
 5   0  0.8699746E-02  0.5949587E+03  0.7818609E-02  0.9915921E-01
       -2   -1    0    0    0  501  0.00000000000E+00  0.00000000000E+00  0.83402065598E+02  0.83402065637E+02  0.25500000920E-02 0.  1.
        2   -1    0    0  501    0  0.00000000000E+00  0.00000000000E+00 -0.10610524870E+04  0.10610524870E+04  0.25500000920E-02 0. -1.
    10030    2    1    2    0    0  0.00000000000E+00  0.00000000000E+00 -0.97765042136E+03  0.11444545526E+04  0.59495871838E+03 0.  0.
        3    1    3    3  502    0 -0.25155934894E+03 -0.36948536706E+02 -0.19177799587E+03  0.31847466195E+03  0.10100000352E+00 0.  1.
       -3    1    3    3    0  502  0.25155934894E+03  0.36948536706E+02 -0.78587242549E+03  0.82597989065E+03  0.10100000352E+00 0. -1.
</event>
<event>
 5   0  0.4881209E-02  0.5865797E+03  0.7818609E-02  0.9933647E-01
        1   -1    0    0  501    0  0.00000000000E+00  0.00000000000E+00  0.35649046511E+03  0.35649046514E+03  0.50400001928E-02 0.  1.
       -1   -1    0    0    0  501  0.00000000000E+00  0.00000000000E+00 -0.24129382022E+03  0.24129382027E+03  0.50400001928E-02 0. -1.
    10030    2    1    2    0    0  0.00000000000E+00  0.00000000000E+00  0.11519664489E+03  0.59778428541E+03  0.58657973447E+03 0.  0.
        3    1    3    3  502    0 -0.23813583806E+03 -0.40271006709E+02 -0.11197877231E+03  0.26621361160E+03  0.10100000352E+00 0. -1.
       -3    1    3    3    0  502  0.23813583806E+03  0.40271006709E+02  0.22717541720E+03  0.33157067381E+03  0.10100000352E+00 0.  1.
</event>
<event>
 5   0  0.8575590E-02  0.5910798E+03  0.7818609E-02  0.9924087E-01
       -2   -1    0    0    0  501  0.00000000000E+00  0.00000000000E+00  0.13452778028E+03  0.13452778031E+03  0.25500000920E-02 0.  1.
        2   -1    0    0  501    0  0.00000000000E+00  0.00000000000E+00 -0.64926243294E+03  0.64926243294E+03  0.25500000920E-02 0. -1.
    10030    2    1    2    0    0  0.00000000000E+00  0.00000000000E+00 -0.51473465266E+03  0.78379021325E+03  0.59107980488E+03 0.  0.
        4    1    3    3  502    0  0.94838700005E+02  0.28000668147E+02 -0.62667069307E+03  0.63442587186E+03  0.12699999809E+01 0. -1.
       -4    1    3    3    0  502 -0.94838700005E+02 -0.28000668147E+02  0.11193604041E+03  0.14936434139E+03  0.12699999809E+01 0.  1.
</event>
<event>
 5   0  0.3437375E-02  0.5828399E+03  0.7818609E-02  0.9941662E-01
        3   -1    0    0  501    0  0.00000000000E+00  0.00000000000E+00  0.19823933428E+03  0.19823936001E+03  0.10100000352E+00 0. -1.
       -3   -1    0    0    0  501  0.00000000000E+00  0.00000000000E+00 -0.42839921488E+03  0.42839922678E+03  0.10100000352E+00 0.  1.
    10030    2    1    2    0    0  0.00000000000E+00  0.00000000000E+00 -0.23015988060E+03  0.62663858679E+03  0.58283989896E+03 0.  0.
        5    1    3    3  502    0  0.19784013652E+03 -0.80388470211E+02  0.98060931872E+02  0.23503417224E+03  0.46999998093E+01 0. -1.
       -5    1    3    3    0  502 -0.19784013652E+03  0.80388470211E+02 -0.32822081247E+03  0.39160441455E+03  0.46999998093E+01 0.  1.
</event>
<event>
 5   0  0.4987389E-02  0.5920757E+03  0.7818609E-02  0.9921984E-01
       -1   -1    0    0    0  501  0.00000000000E+00  0.00000000000E+00  0.74070526271E+02  0.74070526442E+02  0.50400001928E-02 0.  1.
        1   -1    0    0  501    0  0.00000000000E+00  0.00000000000E+00 -0.11831751012E+04  0.11831751012E+04  0.50400001928E-02 0. -1.
    10030    2    1    2    0    0  0.00000000000E+00  0.00000000000E+00 -0.11091045750E+04  0.12572456277E+04  0.59207567939E+03 0.  0.
        1    1    3    3  502    0  0.17499139293E+03  0.19276389211E+03 -0.25531473243E+03  0.36464437240E+03  0.50400001928E-02 0.  1.
       -1    1    3    3    0  502 -0.17499139293E+03 -0.19276389211E+03 -0.85378984253E+03  0.89260125528E+03  0.50400001928E-02 0. -1.
</event>
<event>
 5   0  0.8817544E-02  0.5908470E+03  0.7818609E-02  0.9924580E-01
       -2   -1    0    0    0  501  0.00000000000E+00  0.00000000000E+00  0.23706454789E+03  0.23706454791E+03  0.25500000920E-02 0.  1.
        2   -1    0    0  501    0  0.00000000000E+00  0.00000000000E+00 -0.36814887292E+03  0.36814887293E+03  0.25500000920E-02 0. -1.
    10030    2    1    2    0    0  0.00000000000E+00  0.00000000000E+00 -0.13108432503E+03  0.60521342084E+03  0.59084700599E+03 0.  0.
        5    1    3    3  502    0 -0.17839914691E+03 -0.22819443037E+03 -0.12486408254E+03  0.31545535782E+03  0.46999998093E+01 0. -1.
       -5    1    3    3    0  502  0.17839914691E+03  0.22819443037E+03 -0.62202424849E+01  0.28975806302E+03  0.46999998093E+01 0.  1.
</event>
<event>
 5   0  0.4881209E-02  0.5776247E+03  0.7818609E-02  0.9952947E-01
        1   -1    0    0  501    0  0.00000000000E+00  0.00000000000E+00  0.17573391994E+03  0.17573392001E+03  0.50400001928E-02 0. -1.
       -1   -1    0    0    0  501  0.00000000000E+00  0.00000000000E+00 -0.47465264500E+03  0.47465264503E+03  0.50400001928E-02 0.  1.
    10030    2    1    2    0    0  0.00000000000E+00  0.00000000000E+00 -0.29891872506E+03  0.65038656504E+03  0.57762468766E+03 0.  0.
        3    1    3    3  502    0  0.26772846506E+03 -0.89740243943E+02 -0.81148141273E+02  0.29379733392E+03  0.10100000352E+00 0. -1.
       -3    1    3    3    0  502 -0.26772846506E+03  0.89740243943E+02 -0.21777058379E+03  0.35658923112E+03  0.10100000352E+00 0.  1.
</event>
<event>
 5   0  0.5190380E-02  0.5893042E+03  0.7818609E-02  0.9927848E-01
       -1   -1    0    0    0  501  0.00000000000E+00  0.00000000000E+00  0.91613268953E+02  0.91613269091E+02  0.50400001928E-02 0.  1.
        1   -1    0    0  501    0  0.00000000000E+00  0.00000000000E+00 -0.94767775664E+03  0.94767775666E+03  0.50400001928E-02 0. -1.
    10030    2    1    2    0    0  0.00000000000E+00  0.00000000000E+00 -0.85606448769E+03  0.10392910257E+04  0.58930419065E+03 0.  0.
        5    1    3    3  502    0  0.12263967402E+03 -0.22369473785E+03 -0.16813182394E+03  0.30556541952E+03  0.46999998093E+01 0.  1.
       -5    1    3    3    0  502 -0.12263967402E+03  0.22369473785E+03 -0.68793266375E+03  0.73372560623E+03  0.46999998093E+01 0. -1.
</event>
<event>
 5   0  0.8817544E-02  0.5990426E+03  0.7818609E-02  0.9907394E-01
       -2   -1    0    0    0  501  0.00000000000E+00  0.00000000000E+00  0.58918296921E+02  0.58918296976E+02  0.25500000920E-02 0.  1.
        2   -1    0    0  501    0  0.00000000000E+00  0.00000000000E+00 -0.15226681962E+04  0.15226681962E+04  0.25500000920E-02 0. -1.
    10030    2    1    2    0    0  0.00000000000E+00  0.00000000000E+00 -0.14637498992E+04  0.15815864931E+04  0.59904262599E+03 0.  0.
        5    1    3    3  502    0 -0.26306403730E+03  0.14294909568E+03 -0.75123949263E+03  0.80871502828E+03  0.46999998093E+01 0.  1.
       -5    1    3    3    0  502  0.26306403730E+03 -0.14294909568E+03 -0.71251040661E+03  0.77287146487E+03  0.46999998093E+01 0. -1.
</event>
<event>
 5   0  0.5125031E-02  0.6053725E+03  0.7818609E-02  0.9894322E-01
        1   -1    0    0  501    0  0.00000000000E+00  0.00000000000E+00  0.11691141840E+04  0.11691141840E+04  0.50400001928E-02 0. -1.
       -1   -1    0    0    0  501  0.00000000000E+00  0.00000000000E+00 -0.78366141381E+02  0.78366141543E+02  0.50400001928E-02 0.  1.
    10030    2    1    2    0    0  0.00000000000E+00  0.00000000000E+00  0.10907480426E+04  0.12474803255E+04  0.60537250528E+03 0.  0.
        4    1    3    3  502    0  0.29274247494E+03 -0.73632848986E+02  0.49941565506E+03  0.58355596347E+03  0.12699999809E+01 0.  1.
       -4    1    3    3    0  502 -0.29274247494E+03  0.73632848986E+02  0.59133238752E+03  0.66392436204E+03  0.12699999809E+01 0. -1.
</event>
<event>
 5   0  0.5125031E-02  0.5879370E+03  0.7818609E-02  0.9930754E-01
        1   -1    0    0  501    0  0.00000000000E+00  0.00000000000E+00  0.12816818838E+03  0.12816818848E+03  0.50400001928E-02 0.  1.
       -1   -1    0    0    0  501  0.00000000000E+00  0.00000000000E+00 -0.67425059786E+03  0.67425059788E+03  0.50400001928E-02 0. -1.
    10030    2    1    2    0    0  0.00000000000E+00  0.00000000000E+00 -0.54608240949E+03  0.80241878636E+03  0.58793699556E+03 0.  0.
        4    1    3    3  502    0  0.19816301057E+03 -0.14758200096E+02  0.22619207008E+02  0.19999906164E+03  0.12699999809E+01 0.  1.
       -4    1    3    3    0  502 -0.19816301057E+03  0.14758200096E+02 -0.56870161649E+03  0.60241972472E+03  0.12699999809E+01 0. -1.
</event>
<event>
 5   0  0.4881209E-02  0.5893799E+03  0.7818609E-02  0.9927688E-01
        1   -1    0    0  501    0  0.00000000000E+00  0.00000000000E+00  0.45045206803E+03  0.45045206806E+03  0.50400001928E-02 0.  1.
       -1   -1    0    0    0  501  0.00000000000E+00  0.00000000000E+00 -0.19278889091E+03  0.19278889098E+03  0.50400001928E-02 0. -1.
    10030    2    1    2    0    0  0.00000000000E+00  0.00000000000E+00  0.25766317712E+03  0.64324095904E+03  0.58937985929E+03 0.  0.
        3    1    3    3  502    0  0.15859946756E+03  0.16471814759E+03  0.33171284450E+03  0.40288867031E+03  0.10100000352E+00 0.  1.
       -3    1    3    3    0  502 -0.15859946756E+03 -0.16471814759E+03 -0.74049667379E+02  0.24035228873E+03  0.10100000352E+00 0. -1.
</event>
<event>
 5   0  0.5166903E-02  0.5973983E+03  0.7818609E-02  0.9910819E-01
       -1   -1    0    0    0  501  0.00000000000E+00  0.00000000000E+00  0.12174201206E+03  0.12174201217E+03  0.50400001928E-02 0.  1.
        1   -1    0    0  501    0  0.00000000000E+00  0.00000000000E+00 -0.73287089522E+03  0.73287089523E+03  0.50400001928E-02 0. -1.
    10030    2    1    2    0    0  0.00000000000E+00  0.00000000000E+00 -0.61112888315E+03  0.85461290740E+03  0.59739828395E+03 0.  0.
        2    1    3    3  502    0  0.55741388547E+02 -0.97790764922E+02 -0.70136921579E+03  0.71034422146E+03  0.25500000920E-02 0. -1.
       -2    1    3    3    0  502 -0.55741388547E+02  0.97790764922E+02  0.90240332636E+02  0.14426868594E+03  0.25500000920E-02 0.  1.
</event>
<event>
 5   0  0.5125031E-02  0.6073798E+03  0.7818609E-02  0.9890212E-01
       -1   -1    0    0    0  501  0.00000000000E+00  0.00000000000E+00  0.10365279602E+04  0.10365279602E+04  0.50400001928E-02 0. -1.
        1   -1    0    0  501    0  0.00000000000E+00  0.00000000000E+00 -0.88977407124E+02  0.88977407267E+02  0.50400001928E-02 0.  1.
    10030    2    1    2    0    0  0.00000000000E+00  0.00000000000E+00  0.94755055307E+03  0.11255053675E+04  0.60737984951E+03 0.  0.
        4    1    3    3  502    0  0.28742230441E+02 -0.85140258360E+02  0.10113226881E+04  0.10153079197E+04  0.12699999809E+01 0. -1.
       -4    1    3    3    0  502 -0.28742230441E+02  0.85140258360E+02 -0.63772134999E+02  0.11019744782E+03  0.12699999809E+01 0.  1.
</event>
<event>
 5   0  0.5125031E-02  0.6017946E+03  0.7818609E-02  0.9901690E-01
       -1   -1    0    0    0  501  0.00000000000E+00  0.00000000000E+00  0.19645500447E+03  0.19645500453E+03  0.50400001928E-02 0.  1.
        1   -1    0    0  501    0  0.00000000000E+00  0.00000000000E+00 -0.46086476181E+03  0.46086476183E+03  0.50400001928E-02 0. -1.
    10030    2    1    2    0    0  0.00000000000E+00  0.00000000000E+00 -0.26440975734E+03  0.65731976637E+03  0.60179461237E+03 0.  0.
        4    1    3    3  502    0 -0.50230845722E+02 -0.24823637266E+03  0.45244277740E+02  0.25728018218E+03  0.12699999809E+01 0.  1.
       -4    1    3    3    0  502  0.50230845722E+02  0.24823637266E+03 -0.30965403508E+03  0.40003958419E+03  0.12699999809E+01 0. -1.
</event>
<event>
 5   0  0.4987389E-02  0.5950634E+03  0.7818609E-02  0.9915701E-01
       -1   -1    0    0    0  501  0.00000000000E+00  0.00000000000E+00  0.81577744216E+03  0.81577744218E+03  0.50400001928E-02 0. -1.
        1   -1    0    0  501    0  0.00000000000E+00  0.00000000000E+00 -0.10851624083E+03  0.10851624095E+03  0.50400001928E-02 0.  1.
    10030    2    1    2    0    0  0.00000000000E+00  0.00000000000E+00  0.70726120133E+03  0.92429368312E+03  0.59506336281E+03 0.  0.
        1    1    3    3  502    0 -0.23379374876E+03  0.37670880187E+01  0.63941271722E+03  0.68082474315E+03  0.50400001928E-02 0. -1.
       -1    1    3    3    0  502  0.23379374876E+03 -0.37670880187E+01  0.67848484111E+02  0.24346893998E+03  0.50400001928E-02 0.  1.
</event>
<event>
 5   0  0.8420604E-02  0.6048658E+03  0.7818609E-02  0.9895362E-01
        2   -1    0    0  501    0  0.00000000000E+00  0.00000000000E+00  0.16234639079E+04  0.16234639079E+04  0.25500000920E-02 0.  1.
       -2   -1    0    0    0  501  0.00000000000E+00  0.00000000000E+00 -0.56339824362E+02  0.56339824420E+02  0.25500000920E-02 0. -1.
    10030    2    1    2    0    0  0.00000000000E+00  0.00000000000E+00  0.15671240835E+04  0.16798037323E+04  0.60486584125E+03 0.  0.
        2    1    3    3  502    0 -0.33164780777E+02  0.94915945526E+02  0.15756916205E+04  0.15788961404E+04  0.25500000920E-02 0.  1.
       -2    1    3    3    0  502  0.33164780777E+02 -0.94915945526E+02 -0.85675369749E+01  0.10090759186E+03  0.25500000920E-02 0. -1.
</event>
<event>
 5   0  0.4987389E-02  0.5985053E+03  0.7818609E-02  0.9908512E-01
       -1   -1    0    0    0  501  0.00000000000E+00  0.00000000000E+00  0.17512482850E+03  0.17512482857E+03  0.50400001928E-02 0.  1.
        1   -1    0    0  501    0  0.00000000000E+00  0.00000000000E+00 -0.51136186764E+03  0.51136186767E+03  0.50400001928E-02 0. -1.
    10030    2    1    2    0    0  0.00000000000E+00  0.00000000000E+00 -0.33623703915E+03  0.68648669623E+03  0.59850533633E+03 0.  0.
        1    1    3    3  502    0  0.24758974391E+03 -0.15782778112E+03 -0.23442543845E+03  0.37572007666E+03  0.50400001928E-02 0.  1.
       -1    1    3    3    0  502 -0.24758974391E+03  0.15782778112E+03 -0.10181160069E+03  0.31076661958E+03  0.50400001928E-02 0. -1.
</event>
<event>
 5   0  0.3437375E-02  0.6116114E+03  0.7818609E-02  0.9881605E-01
        3   -1    0    0  501    0  0.00000000000E+00  0.00000000000E+00  0.12879194613E+04  0.12879194653E+04  0.10100000352E+00 0. -1.
       -3   -1    0    0    0  501  0.00000000000E+00  0.00000000000E+00 -0.72610972899E+02  0.72611043143E+02  0.10100000352E+00 0.  1.
    10030    2    1    2    0    0  0.00000000000E+00  0.00000000000E+00  0.12153084884E+04  0.13605305084E+04  0.61161143083E+03 0.  0.
        5    1    3    3  502    0 -0.15993085562E+03 -0.23562175545E+03  0.85535979985E+03  0.90153090209E+03  0.46999998093E+01 0. -1.
       -5    1    3    3    0  502  0.15993085562E+03  0.23562175545E+03  0.35994868858E+03  0.45899960635E+03  0.46999998093E+01 0.  1.
</event>
<event>
 5   0  0.5125031E-02  0.6070442E+03  0.7818609E-02  0.9890898E-01
        1   -1    0    0  501    0  0.00000000000E+00  0.00000000000E+00  0.26206670609E+03  0.26206670614E+03  0.50400001928E-02 0. -1.
       -1   -1    0    0    0  501  0.00000000000E+00  0.00000000000E+00 -0.35153518899E+03  0.35153518903E+03  0.50400001928E-02 0.  1.
    10030    2    1    2    0    0  0.00000000000E+00  0.00000000000E+00 -0.89468482905E+02  0.61360189516E+03  0.60704421282E+03 0.  0.
        4    1    3    3  502    0 -0.48991996766E+02  0.26463508392E+03  0.97110266930E+02  0.28611878693E+03  0.12699999809E+01 0. -1.
       -4    1    3    3    0  502  0.48991996766E+02 -0.26463508392E+03 -0.18657874984E+03  0.32748310824E+03  0.12699999809E+01 0.  1.
</event>
<event>
 5   0  0.3437375E-02  0.5602847E+03  0.7818609E-02  0.9991411E-01
       -3   -1    0    0    0  501  0.00000000000E+00  0.00000000000E+00  0.21781211687E+03  0.21781214029E+03  0.10100000352E+00 0.  1.
        3   -1    0    0  501    0  0.00000000000E+00  0.00000000000E+00 -0.36030930492E+03  0.36030931907E+03  0.10100000352E+00 0. -1.
    10030    2    1    2    0    0  0.00000000000E+00  0.00000000000E+00 -0.14249718805E+03  0.57812145936E+03  0.56028472509E+03 0.  0.
        3    1    3    3  502    0 -0.25396519910E+03  0.11453252162E+03 -0.10157317738E+03  0.29653522796E+03  0.10100000352E+00 0.  1.
       -3    1    3    3    0  502  0.25396519910E+03 -0.11453252162E+03 -0.40924010669E+02  0.28158623139E+03  0.10100000352E+00 0. -1.
</event>
<event>
 5   0  0.8817544E-02  0.5950511E+03  0.7818609E-02  0.9915727E-01
        2   -1    0    0  501    0  0.00000000000E+00  0.00000000000E+00  0.26824064136E+04  0.26824064136E+04  0.25500000920E-02 0.  1.
       -2   -1    0    0    0  501  0.00000000000E+00  0.00000000000E+00 -0.33000764598E+02  0.33000764696E+02  0.25500000920E-02 0. -1.
    10030    2    1    2    0    0  0.00000000000E+00  0.00000000000E+00  0.26494056490E+04  0.27154071783E+04  0.59505113308E+03 0.  0.
        5    1    3    3  502    0 -0.13734130665E+03  0.22267233921E+03  0.67848540027E+03  0.72719332611E+03  0.46999998093E+01 0. -1.
       -5    1    3    3    0  502  0.13734130665E+03 -0.22267233921E+03  0.19709202487E+04  0.19882138522E+04  0.46999998093E+01 0.  1.
</event>
<event>
 5   0  0.3437375E-02  0.6080934E+03  0.7818609E-02  0.9888756E-01
       -4   -1    0    0    0  501  0.00000000000E+00  0.00000000000E+00  0.31374594981E+03  0.31374852019E+03  0.12699999809E+01 0.  1.
        4   -1    0    0  501    0  0.00000000000E+00  0.00000000000E+00 -0.29464218281E+03  0.29464491984E+03  0.12699999809E+01 0. -1.
    10030    2    1    2    0    0  0.00000000000E+00  0.00000000000E+00  0.19103767005E+02  0.60839344003E+03  0.60809343358E+03 0.  0.
        2    1    3    3  502    0  0.15108980166E+03  0.20328997740E+03 -0.15872581359E+03  0.29891274142E+03  0.25500000920E-02 0. -1.
       -2    1    3    3    0  502 -0.15108980166E+03 -0.20328997740E+03  0.17782958059E+03  0.30948069862E+03  0.25500000920E-02 0.  1.
</event>
<event>
 5   0  0.4881209E-02  0.5848527E+03  0.7818609E-02  0.9937340E-01
        1   -1    0    0  501    0  0.00000000000E+00  0.00000000000E+00  0.32852769628E+03  0.32852769632E+03  0.50400001928E-02 0.  1.
       -1   -1    0    0    0  501  0.00000000000E+00  0.00000000000E+00 -0.26029209669E+03  0.26029209674E+03  0.50400001928E-02 0. -1.
    10030    2    1    2    0    0  0.00000000000E+00  0.00000000000E+00  0.68235599593E+02  0.58881979306E+03  0.58485267516E+03 0.  0.
        3    1    3    3  502    0  0.70615449723E+02 -0.19237209568E+02  0.31915753293E+03  0.32744183147E+03  0.10100000352E+00 0.  1.
       -3    1    3    3    0  502 -0.70615449723E+02  0.19237209568E+02 -0.25092193334E+03  0.26137796158E+03  0.10100000352E+00 0. -1.
</event>
<event>
 5   0  0.5125031E-02  0.6015285E+03  0.7818609E-02  0.9902240E-01
       -1   -1    0    0    0  501  0.00000000000E+00  0.00000000000E+00  0.10411811123E+03  0.10411811135E+03  0.50400001928E-02 0. -1.
        1   -1    0    0  501    0  0.00000000000E+00  0.00000000000E+00 -0.86881258140E+03  0.86881258141E+03  0.50400001928E-02 0.  1.
    10030    2    1    2    0    0  0.00000000000E+00  0.00000000000E+00 -0.76469447017E+03  0.97293069277E+03  0.60152847000E+03 0.  0.
        4    1    3    3  502    0 -0.26410149665E+03 -0.31582640523E+02 -0.60942466475E+03  0.66494142496E+03  0.12699999809E+01 0.  1.
       -4    1    3    3    0  502  0.26410149665E+03  0.31582640523E+02 -0.15526980542E+03  0.30798926781E+03  0.12699999809E+01 0. -1.
</event>
<event>
 5   0  0.5166903E-02  0.6034421E+03  0.7818609E-02  0.9898290E-01
       -1   -1    0    0    0  501  0.00000000000E+00  0.00000000000E+00  0.12275025685E+04  0.12275025685E+04  0.50400001928E-02 0.  1.
        1   -1    0    0  501    0  0.00000000000E+00  0.00000000000E+00 -0.74163261093E+02  0.74163261265E+02  0.50400001928E-02 0. -1.
    10030    2    1    2    0    0  0.00000000000E+00  0.00000000000E+00  0.11533393074E+04  0.13016658298E+04  0.60344210525E+03 0.  0.
        2    1    3    3  502    0  0.95138837396E+02  0.45546539889E+02  0.11864363012E+04  0.11911158561E+04  0.25500000920E-02 0.  1.
       -2    1    3    3    0  502 -0.95138837396E+02 -0.45546539889E+02 -0.33096993840E+02  0.11054997370E+03  0.25500000920E-02 0. -1.
</event>
<event>
 5   0  0.8575590E-02  0.5797133E+03  0.7818609E-02  0.9948412E-01
        2   -1    0    0  501    0  0.00000000000E+00  0.00000000000E+00  0.16852352845E+04  0.16852352845E+04  0.25500000920E-02 0.  1.
       -2   -1    0    0    0  501  0.00000000000E+00  0.00000000000E+00 -0.49854682549E+02  0.49854682614E+02  0.25500000920E-02 0. -1.
    10030    2    1    2    0    0  0.00000000000E+00  0.00000000000E+00  0.16353806020E+04  0.17350899672E+04  0.57971327461E+03 0.  0.
        4    1    3    3  502    0  0.13811656841E+03 -0.23792376165E+03  0.10908814090E+04  0.11250367835E+04  0.12699999809E+01 0.  1.
       -4    1    3    3    0  502 -0.13811656841E+03  0.23792376165E+03  0.54449919303E+03  0.61005318370E+03  0.12699999809E+01 0. -1.
</event>
<event>
 5   0  0.5190380E-02  0.5875330E+03  0.7818609E-02  0.9931614E-01
       -1   -1    0    0    0  501  0.00000000000E+00  0.00000000000E+00  0.96118189730E+03  0.96118189731E+03  0.50400001928E-02 0. -1.
        1   -1    0    0  501    0  0.00000000000E+00  0.00000000000E+00 -0.89784001813E+02  0.89784001955E+02  0.50400001928E-02 0.  1.
    10030    2    1    2    0    0  0.00000000000E+00  0.00000000000E+00  0.87139789548E+03  0.10509658993E+04  0.58753300262E+03 0.  0.
        5    1    3    3  502    0  0.19166599389E+03  0.18294978964E+03  0.20893874101E+03  0.33746698540E+03  0.46999998093E+01 0.  1.
       -5    1    3    3    0  502 -0.19166599389E+03 -0.18294978964E+03  0.66245915447E+03  0.71349891386E+03  0.46999998093E+01 0. -1.
</event>
<event>
 5   0  0.4881209E-02  0.5362711E+03  0.7818609E-02  0.1004723E+00
       -1   -1    0    0    0  501  0.00000000000E+00  0.00000000000E+00  0.10700660294E+03  0.10700660306E+03  0.50400001928E-02 0.  1.
        1   -1    0    0  501    0  0.00000000000E+00  0.00000000000E+00 -0.67189006870E+03  0.67189006871E+03  0.50400001928E-02 0. -1.
    10030    2    1    2    0    0  0.00000000000E+00  0.00000000000E+00 -0.56488346575E+03  0.77889667177E+03  0.53627110254E+03 0.  0.
        3    1    3    3  502    0 -0.13843870154E+03  0.98686178130E+02  0.18714210337E+02  0.17103937473E+03  0.10100000352E+00 0.  1.
       -3    1    3    3    0  502  0.13843870154E+03 -0.98686178130E+02 -0.58359767609E+03  0.60785729705E+03  0.10100000352E+00 0. -1.
</event>
<event>
 5   0  0.8420604E-02  0.6072044E+03  0.7818609E-02  0.9890571E-01
        2   -1    0    0  501    0  0.00000000000E+00  0.00000000000E+00  0.47617922587E+03  0.47617922588E+03  0.25500000920E-02 0. -1.
       -2   -1    0    0    0  501  0.00000000000E+00  0.00000000000E+00 -0.19357058758E+03  0.19357058760E+03  0.25500000920E-02 0.  1.
    10030    2    1    2    0    0  0.00000000000E+00  0.00000000000E+00  0.28260863829E+03  0.66974981348E+03  0.60720438916E+03 0.  0.
        2    1    3    3  502    0 -0.23060493655E+03  0.19477747686E+02 -0.75447563309E+02  0.24341395652E+03  0.25500000920E-02 0.  1.
       -2    1    3    3    0  502  0.23060493655E+03 -0.19477747686E+02  0.35805620160E+03  0.42633585695E+03  0.25500000920E-02 0. -1.
</event>
<event>
 5   0  0.8817544E-02  0.6362243E+03  0.7818609E-02  0.9832977E-01
       -2   -1    0    0    0  501  0.00000000000E+00  0.00000000000E+00  0.82182374906E+03  0.82182374906E+03  0.25500000920E-02 0. -1.
        2   -1    0    0  501    0  0.00000000000E+00  0.00000000000E+00 -0.12313509482E+03  0.12313509485E+03  0.25500000920E-02 0.  1.
    10030    2    1    2    0    0  0.00000000000E+00  0.00000000000E+00  0.69868865423E+03  0.94495884391E+03  0.63622431668E+03 0.  0.
        5    1    3    3  502    0  0.23715570887E+03 -0.16683702747E+03  0.15514499060E+03  0.32889129221E+03  0.46999998093E+01 0. -1.
       -5    1    3    3    0  502 -0.23715570887E+03  0.16683702747E+03  0.54354366363E+03  0.61606755170E+03  0.46999998093E+01 0.  1.
</event>
<event>
 5   0  0.8699746E-02  0.6015593E+03  0.7818609E-02  0.9902176E-01
        2   -1    0    0  501    0  0.00000000000E+00  0.00000000000E+00  0.17890280254E+04  0.17890280254E+04  0.25500000920E-02 0.  1.
       -2   -1    0    0    0  501  0.00000000000E+00  0.00000000000E+00 -0.50568464449E+02  0.50568464513E+02  0.25500000920E-02 0. -1.
    10030    2    1    2    0    0  0.00000000000E+00  0.00000000000E+00  0.17384595610E+04  0.18395964899E+04  0.60155930767E+03 0.  0.
        3    1    3    3  502    0 -0.92501728817E+02 -0.22201713457E+02 -0.33532192275E+01  0.95187920425E+02  0.10100000352E+00 0. -1.
       -3    1    3    3    0  502  0.92501728817E+02  0.22201713457E+02  0.17418127802E+04  0.17444085695E+04  0.10100000352E+00 0.  1.
</event>
<event>
 5   0  0.3437375E-02  0.5811211E+03  0.7818609E-02  0.9945367E-01
       -4   -1    0    0    0  501  0.00000000000E+00  0.00000000000E+00  0.17377424308E+03  0.17377888381E+03  0.12699999809E+01 0. -1.
        4   -1    0    0  501    0  0.00000000000E+00  0.00000000000E+00 -0.48582203633E+03  0.48582369629E+03  0.12699999809E+01 0.  1.
    10030    2    1    2    0    0  0.00000000000E+00  0.00000000000E+00 -0.31204779324E+03  0.65960258010E+03  0.58112110477E+03 0.  0.
        3    1    3    3  502    0  0.81134542421E+02 -0.27794803161E+03 -0.12851200649E+03  0.31678583974E+03  0.10100000352E+00 0.  1.
       -3    1    3    3    0  502 -0.81134542421E+02  0.27794803161E+03 -0.18353578676E+03  0.34281674036E+03  0.10100000352E+00 0. -1.
</event>
<event>
 5   0  0.8699746E-02  0.5984462E+03  0.7818609E-02  0.9908635E-01
        2   -1    0    0  501    0  0.00000000000E+00  0.00000000000E+00  0.32292939314E+03  0.32292939315E+03  0.25500000920E-02 0.  1.
       -2   -1    0    0    0  501  0.00000000000E+00  0.00000000000E+00 -0.27725707149E+03  0.27725707150E+03  0.25500000920E-02 0. -1.
    10030    2    1    2    0    0  0.00000000000E+00  0.00000000000E+00  0.45672321658E+02  0.60018646465E+03  0.59844618086E+03 0.  0.
        3    1    3    3  502    0 -0.14568312181E+03  0.17754799254E+02  0.28435419262E+03  0.31999394047E+03  0.10100000352E+00 0.  1.
       -3    1    3    3    0  502  0.14568312181E+03 -0.17754799254E+02 -0.23868187096E+03  0.28019252418E+03  0.10100000352E+00 0. -1.
</event>
<event>
 5   0  0.4881209E-02  0.5933284E+03  0.7818609E-02  0.9919345E-01
        1   -1    0    0  501    0  0.00000000000E+00  0.00000000000E+00  0.86940978562E+03  0.86940978563E+03  0.50400001928E-02 0.  1.
       -1   -1    0    0    0  501  0.00000000000E+00  0.00000000000E+00 -0.10122918161E+03  0.10122918174E+03  0.50400001928E-02 0. -1.
    10030    2    1    2    0    0  0.00000000000E+00  0.00000000000E+00  0.76818060401E+03  0.97063896737E+03  0.59332837839E+03 0.  0.
        3    1    3    3  502    0 -0.71351960659E+02  0.81277756303E+02  0.83600900402E+03  0.84297582466E+03  0.10100000352E+00 0.  1.
       -3    1    3    3    0  502  0.71351960659E+02 -0.81277756303E+02 -0.67828400007E+02  0.12766314272E+03  0.10100000352E+00 0. -1.
</event>
<event>
 5   0  0.4881209E-02  0.6049737E+03  0.7818609E-02  0.9895141E-01
        1   -1    0    0  501    0  0.00000000000E+00  0.00000000000E+00  0.14066564756E+03  0.14066564765E+03  0.50400001928E-02 0.  1.
       -1   -1    0    0    0  501  0.00000000000E+00  0.00000000000E+00 -0.65046661038E+03  0.65046661039E+03  0.50400001928E-02 0. -1.
    10030    2    1    2    0    0  0.00000000000E+00  0.00000000000E+00 -0.50980096282E+03  0.79113225804E+03  0.60497374160E+03 0.  0.
        3    1    3    3  502    0  0.14093474323E+03  0.10838596973E+03  0.65123934138E+02  0.18934428241E+03  0.10100000352E+00 0.  1.
       -3    1    3    3    0  502 -0.14093474323E+03 -0.10838596973E+03 -0.57492489695E+03  0.60178797564E+03  0.10100000352E+00 0. -1.
</event>
<event>
 5   0  0.3437375E-02  0.5971582E+03  0.7818609E-02  0.9911319E-01
        3   -1    0    0  501    0  0.00000000000E+00  0.00000000000E+00  0.16277537962E+03  0.16277541096E+03  0.10100000352E+00 0.  1.
       -3   -1    0    0    0  501  0.00000000000E+00  0.00000000000E+00 -0.54768404896E+03  0.54768405828E+03  0.10100000352E+00 0. -1.
    10030    2    1    2    0    0  0.00000000000E+00  0.00000000000E+00 -0.38490866934E+03  0.71045946923E+03  0.59715824845E+03 0.  0.
        2    1    3    3  502    0 -0.12260050006E+03 -0.16893985480E+03  0.61541854002E+02  0.21762113168E+03  0.25500000920E-02 0.  1.
       -2    1    3    3    0  502  0.12260050006E+03  0.16893985480E+03 -0.44645052334E+03  0.49283833755E+03  0.25500000920E-02 0. -1.
</event>
<event>
 5   0  0.5125031E-02  0.5686033E+03  0.7818609E-02  0.9972774E-01
        1   -1    0    0  501    0  0.00000000000E+00  0.00000000000E+00  0.15706486344E+04  0.15706486344E+04  0.50400001928E-02 0.  1.
       -1   -1    0    0    0  501  0.00000000000E+00  0.00000000000E+00 -0.51461182369E+02  0.51461182616E+02  0.50400001928E-02 0. -1.
    10030    2    1    2    0    0  0.00000000000E+00  0.00000000000E+00  0.15191874520E+04  0.16221098170E+04  0.56860332752E+03 0.  0.
        4    1    3    3  502    0  0.13609091366E+03 -0.11160594332E+02  0.14709678383E+04  0.14772925539E+04  0.12699999809E+01 0.  1.
       -4    1    3    3    0  502 -0.13609091366E+03  0.11160594332E+02  0.48219613730E+02  0.14481726311E+03  0.12699999809E+01 0. -1.
</event>
<event>
 5   0  0.8575590E-02  0.6138891E+03  0.7818609E-02  0.9877002E-01
        2   -1    0    0  501    0  0.00000000000E+00  0.00000000000E+00  0.36348001139E+03  0.36348001140E+03  0.25500000920E-02 0.  1.
       -2   -1    0    0    0  501  0.00000000000E+00  0.00000000000E+00 -0.25920256658E+03  0.25920256659E+03  0.25500000920E-02 0. -1.
    10030    2    1    2    0    0  0.00000000000E+00  0.00000000000E+00  0.10427744481E+03  0.62268257799E+03  0.61388908398E+03 0.  0.
        4    1    3    3  502    0 -0.41634845036E+01 -0.96905933389E+02 -0.24324608811E+03  0.26187471587E+03  0.12699999809E+01 0. -1.
       -4    1    3    3    0  502  0.41634845036E+01  0.96905933389E+02  0.34752353293E+03  0.36080786212E+03  0.12699999809E+01 0.  1.
</event>
<event>
 5   0  0.5125031E-02  0.5251387E+03  0.7818609E-02  0.1007418E+00
       -1   -1    0    0    0  501  0.00000000000E+00  0.00000000000E+00  0.80002122549E+02  0.80002122708E+02  0.50400001928E-02 0.  1.
        1   -1    0    0  501    0  0.00000000000E+00  0.00000000000E+00 -0.86176037762E+03  0.86176037763E+03  0.50400001928E-02 0. -1.
    10030    2    1    2    0    0  0.00000000000E+00  0.00000000000E+00 -0.78175825507E+03  0.94176250034E+03  0.52513868424E+03 0.  0.
        4    1    3    3  502    0 -0.20872846345E+03 -0.13526703147E+03 -0.54173793199E+03  0.59610933654E+03  0.12699999809E+01 0. -1.
       -4    1    3    3    0  502  0.20872846345E+03  0.13526703147E+03 -0.24002032308E+03  0.34565316380E+03  0.12699999809E+01 0.  1.
</event>
<event>
 5   0  0.8817544E-02  0.5725939E+03  0.7818609E-02  0.9963955E-01
       -2   -1    0    0    0  501  0.00000000000E+00  0.00000000000E+00  0.18369932422E+03  0.18369932424E+03  0.25500000920E-02 0.  1.
        2   -1    0    0  501    0  0.00000000000E+00  0.00000000000E+00 -0.44619619818E+03  0.44619619819E+03  0.25500000920E-02 0. -1.
    10030    2    1    2    0    0  0.00000000000E+00  0.00000000000E+00 -0.26249687396E+03  0.62989552243E+03  0.57259388779E+03 0.  0.
        5    1    3    3  502    0  0.14019934259E+03  0.59099865433E+02 -0.39799126461E+03  0.42610771697E+03  0.46999998093E+01 0. -1.
       -5    1    3    3    0  502 -0.14019934259E+03 -0.59099865433E+02  0.13549439065E+03  0.20378780546E+03  0.46999998093E+01 0.  1.
</event>
<event>
 5   0  0.4881209E-02  0.5862069E+03  0.7818609E-02  0.9934443E-01
       -1   -1    0    0    0  501  0.00000000000E+00  0.00000000000E+00  0.21233147016E+03  0.21233147022E+03  0.50400001928E-02 0.  1.
        1   -1    0    0  501    0  0.00000000000E+00  0.00000000000E+00 -0.40460152873E+03  0.40460152876E+03  0.50400001928E-02 0. -1.
    10030    2    1    2    0    0  0.00000000000E+00  0.00000000000E+00 -0.19227005858E+03  0.61693299898E+03  0.58620691723E+03 0.  0.
        3    1    3    3  502    0 -0.17055815757E+03 -0.19238647247E+03 -0.24424908496E+03  0.35462693864E+03  0.10100000352E+00 0. -1.
       -3    1    3    3    0  502  0.17055815757E+03  0.19238647247E+03  0.51979026383E+02  0.26230606034E+03  0.10100000352E+00 0.  1.
</event>
<event>
 5   0  0.8420604E-02  0.6279608E+03  0.7818609E-02  0.9849036E-01
       -2   -1    0    0    0  501  0.00000000000E+00  0.00000000000E+00  0.74672760604E+02  0.74672760648E+02  0.25500000920E-02 0.  1.
        2   -1    0    0  501    0  0.00000000000E+00  0.00000000000E+00 -0.13202094887E+04  0.13202094887E+04  0.25500000920E-02 0. -1.
    10030    2    1    2    0    0  0.00000000000E+00  0.00000000000E+00 -0.12455367281E+04  0.13948822494E+04  0.62796078581E+03 0.  0.
        2    1    3    3  502    0  0.10054765267E+03 -0.15015770400E+03 -0.11931100318E+04  0.12067181587E+04  0.25500000920E-02 0. -1.
       -2    1    3    3    0  502 -0.10054765267E+03  0.15015770400E+03 -0.52426696324E+02  0.18816409069E+03  0.25500000920E-02 0.  1.
</event>
<event>
 5   0  0.8575590E-02  0.5990193E+03  0.7818609E-02  0.9907443E-01
        2   -1    0    0  501    0  0.00000000000E+00  0.00000000000E+00  0.30513430350E+03  0.30513430351E+03  0.25500000920E-02 0.  1.
       -2   -1    0    0    0  501  0.00000000000E+00  0.00000000000E+00 -0.29398871412E+03  0.29398871413E+03  0.25500000920E-02 0. -1.
    10030    2    1    2    0    0  0.00000000000E+00  0.00000000000E+00  0.11145589379E+02  0.59912301764E+03  0.59901933700E+03 0.  0.
        4    1    3    3  502    0  0.11024543705E+03  0.18170600600E+03 -0.20549287507E+03  0.29563501757E+03  0.12699999809E+01 0. -1.
       -4    1    3    3    0  502 -0.11024543705E+03 -0.18170600600E+03  0.21663846445E+03  0.30348800007E+03  0.12699999809E+01 0.  1.
</event>
<event>
 5   0  0.8420604E-02  0.6062793E+03  0.7818609E-02  0.9892463E-01
       -2   -1    0    0    0  501  0.00000000000E+00  0.00000000000E+00  0.75078667135E+02  0.75078667179E+02  0.25500000920E-02 0.  1.
        2   -1    0    0  501    0  0.00000000000E+00  0.00000000000E+00 -0.12239649347E+04  0.12239649347E+04  0.25500000920E-02 0. -1.
    10030    2    1    2    0    0  0.00000000000E+00  0.00000000000E+00 -0.11488862676E+04  0.12990436019E+04  0.60627932819E+03 0.  0.
        2    1    3    3  502    0  0.11606927015E+03  0.19862796198E+03 -0.15147476972E+03  0.27544463803E+03  0.25500000920E-02 0.  1.
       -2    1    3    3    0  502 -0.11606927015E+03 -0.19862796198E+03 -0.99741149787E+03  0.10235989639E+04  0.25500000920E-02 0. -1.
</event>
<event>
 5   0  0.5125031E-02  0.6298408E+03  0.7818609E-02  0.9845359E-01
        1   -1    0    0  501    0  0.00000000000E+00  0.00000000000E+00  0.17217948512E+04  0.17217948512E+04  0.50400001928E-02 0. -1.
       -1   -1    0    0    0  501  0.00000000000E+00  0.00000000000E+00 -0.57599702599E+02  0.57599702819E+02  0.50400001928E-02 0.  1.
    10030    2    1    2    0    0  0.00000000000E+00  0.00000000000E+00  0.16641951486E+04  0.17793945541E+04  0.62984084202E+03 0.  0.
        4    1    3    3  502    0  0.26747155865E+03 -0.85296056829E+02  0.42901292044E+03  0.51270864123E+03  0.12699999809E+01 0.  1.
       -4    1    3    3    0  502 -0.26747155865E+03  0.85296056829E+02  0.12351822282E+04  0.12666859128E+04  0.12699999809E+01 0. -1.
</event>
<event>
 5   0  0.8817544E-02  0.6002766E+03  0.7818609E-02  0.9904832E-01
       -2   -1    0    0    0  501  0.00000000000E+00  0.00000000000E+00  0.27421995422E+03  0.27421995423E+03  0.25500000920E-02 0.  1.
        2   -1    0    0  501    0  0.00000000000E+00  0.00000000000E+00 -0.32850635000E+03  0.32850635001E+03  0.25500000920E-02 0. -1.
    10030    2    1    2    0    0  0.00000000000E+00  0.00000000000E+00 -0.54286395782E+02  0.60272630424E+03  0.60027659046E+03 0.  0.
        5    1    3    3  502    0 -0.26919598251E+03 -0.11393654478E+02 -0.15983626504E+03  0.31331456076E+03  0.46999998093E+01 0. -1.
       -5    1    3    3    0  502  0.26919598251E+03  0.11393654478E+02  0.10554986926E+03  0.28941174348E+03  0.46999998093E+01 0.  1.
</event>
<event>
 5   0  0.3437375E-02  0.5808494E+03  0.7818609E-02  0.9945954E-01
        4   -1    0    0  501    0  0.00000000000E+00  0.00000000000E+00  0.37137603313E+03  0.37137820464E+03  0.12699999809E+01 0.  1.
       -4   -1    0    0    0  501  0.00000000000E+00  0.00000000000E+00 -0.22711425634E+03  0.22711780717E+03  0.12699999809E+01 0. -1.
    10030    2    1    2    0    0  0.00000000000E+00  0.00000000000E+00  0.14426177679E+03  0.59849601181E+03  0.58084939177E+03 0.  0.
        5    1    3    3  502    0 -0.17861969759E+03 -0.17801113583E+03  0.22048944314E+03  0.33500842584E+03  0.46999998093E+01 0.  1.
       -5    1    3    3    0  502  0.17861969759E+03  0.17801113583E+03 -0.76227666351E+02  0.26348758598E+03  0.46999998093E+01 0. -1.
</event>
<event>
 5   0  0.5125031E-02  0.5607729E+03  0.7818609E-02  0.9990307E-01
       -1   -1    0    0    0  501  0.00000000000E+00  0.00000000000E+00  0.56999949473E+02  0.56999949696E+02  0.50400001928E-02 0. -1.
        1   -1    0    0  501    0  0.00000000000E+00  0.00000000000E+00 -0.13792390182E+04  0.13792390182E+04  0.50400001928E-02 0.  1.
    10030    2    1    2    0    0  0.00000000000E+00  0.00000000000E+00 -0.13222390687E+04  0.14362389679E+04  0.56077287564E+03 0.  0.
        4    1    3    3  502    0  0.80475741957E+02  0.16378798609E+03 -0.11593093624E+03  0.21620463526E+03  0.12699999809E+01 0. -1.
       -4    1    3    3    0  502 -0.80475741957E+02 -0.16378798609E+03 -0.12063081324E+04  0.12200343326E+04  0.12699999809E+01 0.  1.
</event>
<event>
 5   0  0.4881209E-02  0.6005776E+03  0.7818609E-02  0.9904208E-01
       -1   -1    0    0    0  501  0.00000000000E+00  0.00000000000E+00  0.20207918802E+03  0.20207918809E+03  0.50400001928E-02 0.  1.
        1   -1    0    0  501    0  0.00000000000E+00  0.00000000000E+00 -0.44622786218E+03  0.44622786221E+03  0.50400001928E-02 0. -1.
    10030    2    1    2    0    0  0.00000000000E+00  0.00000000000E+00 -0.24414867416E+03  0.64830705030E+03  0.60057760229E+03 0.  0.
        3    1    3    3  502    0  0.18815828882E+03  0.75805335333E+02  0.11693406299E+03  0.23414434823E+03  0.10100000352E+00 0.  1.
       -3    1    3    3    0  502 -0.18815828882E+03 -0.75805335333E+02 -0.36108273715E+03  0.41416270207E+03  0.10100000352E+00 0. -1.
</event>
<event>
 5   0  0.5166903E-02  0.5949883E+03  0.7818609E-02  0.9915859E-01
        1   -1    0    0  501    0  0.00000000000E+00  0.00000000000E+00  0.46543969118E+03  0.46543969121E+03  0.50400001928E-02 0.  1.
       -1   -1    0    0    0  501  0.00000000000E+00  0.00000000000E+00 -0.19014876342E+03  0.19014876349E+03  0.50400001928E-02 0. -1.
    10030    2    1    2    0    0  0.00000000000E+00  0.00000000000E+00  0.27529092776E+03  0.65558845470E+03  0.59498834193E+03 0.  0.
        2    1    3    3  502    0 -0.24397275863E+03 -0.13324961763E+03  0.20908457532E+02  0.27877469604E+03  0.25500000920E-02 0. -1.
       -2    1    3    3    0  502  0.24397275863E+03  0.13324961763E+03  0.25438247023E+03  0.37681375866E+03  0.25500000920E-02 0.  1.
</event>
<event>
 5   0  0.8207443E-02  0.5961785E+03  0.7818609E-02  0.9913366E-01
       -2   -1    0    0    0  501  0.00000000000E+00  0.00000000000E+00  0.10634551786E+03  0.10634551789E+03  0.25500000920E-02 0.  1.
        2   -1    0    0  501    0  0.00000000000E+00  0.00000000000E+00 -0.83555189883E+03  0.83555189883E+03  0.25500000920E-02 0. -1.
    10030    2    1    2    0    0  0.00000000000E+00  0.00000000000E+00 -0.72920638096E+03  0.94189741672E+03  0.59617849474E+03 0.  0.
        1    1    3    3  502    0  0.18746981044E+03  0.22982193862E+03 -0.41184554528E+03  0.50752320783E+03  0.50400001928E-02 0.  1.
       -1    1    3    3    0  502 -0.18746981044E+03 -0.22982193862E+03 -0.31736083568E+03  0.43437420889E+03  0.50400001928E-02 0. -1.
</event>
<event>
 5   0  0.5125031E-02  0.5995333E+03  0.7818609E-02  0.9906375E-01
       -1   -1    0    0    0  501  0.00000000000E+00  0.00000000000E+00  0.37417178148E+03  0.37417178151E+03  0.50400001928E-02 0.  1.
        1   -1    0    0  501    0  0.00000000000E+00  0.00000000000E+00 -0.24015722512E+03  0.24015722518E+03  0.50400001928E-02 0. -1.
    10030    2    1    2    0    0  0.00000000000E+00  0.00000000000E+00  0.13401455636E+03  0.61432900669E+03  0.59953334114E+03 0.  0.
        4    1    3    3  502    0  0.11773157779E+03 -0.18425345499E+03 -0.14311027540E+03  0.26132780929E+03  0.12699999809E+01 0. -1.
       -4    1    3    3    0  502 -0.11773157779E+03  0.18425345499E+03  0.27712483176E+03  0.35300119740E+03  0.12699999809E+01 0.  1.
</event>
<event>
 5   0  0.8699746E-02  0.5912680E+03  0.7818609E-02  0.9923690E-01
        2   -1    0    0  501    0  0.00000000000E+00  0.00000000000E+00  0.66126109444E+03  0.66126109445E+03  0.25500000920E-02 0. -1.
       -2   -1    0    0    0  501  0.00000000000E+00  0.00000000000E+00 -0.13217087243E+03  0.13217087245E+03  0.25500000920E-02 0.  1.
    10030    2    1    2    0    0  0.00000000000E+00  0.00000000000E+00  0.52909022201E+03  0.79343196690E+03  0.59126797906E+03 0.  0.
        3    1    3    3  502    0 -0.19393038878E+03 -0.68228277524E+02  0.54963627104E+03  0.58682547166E+03  0.10100000352E+00 0. -1.
       -3    1    3    3    0  502  0.19393038878E+03  0.68228277524E+02 -0.20546049022E+02  0.20660649524E+03  0.10100000352E+00 0.  1.
</event>
<event>
 5   0  0.8207443E-02  0.6077738E+03  0.7818609E-02  0.9889408E-01
        2   -1    0    0  501    0  0.00000000000E+00  0.00000000000E+00  0.97234563830E+03  0.97234563831E+03  0.25500000920E-02 0.  1.
       -2   -1    0    0    0  501  0.00000000000E+00  0.00000000000E+00 -0.94973671696E+02  0.94973671730E+02  0.25500000920E-02 0. -1.
    10030    2    1    2    0    0  0.00000000000E+00  0.00000000000E+00  0.87737196661E+03  0.10673193100E+04  0.60777375872E+03 0.  0.
        1    1    3    3  502    0  0.88759069084E+01  0.29271247865E+03  0.58122197917E+03  0.65082898366E+03  0.50400001928E-02 0.  1.
       -1    1    3    3    0  502 -0.88759069084E+01 -0.29271247865E+03  0.29614998744E+03  0.41649032638E+03  0.50400001928E-02 0. -1.
</event>
<event>
 5   0  0.8207443E-02  0.5987954E+03  0.7818609E-02  0.9907908E-01
        2   -1    0    0  501    0  0.00000000000E+00  0.00000000000E+00  0.17701120106E+03  0.17701120107E+03  0.25500000920E-02 0.  1.
       -2   -1    0    0    0  501  0.00000000000E+00  0.00000000000E+00 -0.50640281286E+03  0.50640281286E+03  0.25500000920E-02 0. -1.
    10030    2    1    2    0    0  0.00000000000E+00  0.00000000000E+00 -0.32939161180E+03  0.68341401394E+03  0.59879535780E+03 0.  0.
        1    1    3    3  502    0  0.21775214515E+03  0.13453094254E+03 -0.34196517771E+03  0.42714722755E+03  0.50400001928E-02 0. -1.
       -1    1    3    3    0  502 -0.21775214515E+03 -0.13453094254E+03  0.12573565906E+02  0.25626678638E+03  0.50400001928E-02 0.  1.
</event>
<event>
 5   0  0.8817544E-02  0.6041724E+03  0.7818609E-02  0.9896787E-01
       -2   -1    0    0    0  501  0.00000000000E+00  0.00000000000E+00  0.12015828851E+04  0.12015828851E+04  0.25500000920E-02 0. -1.
        2   -1    0    0  501    0  0.00000000000E+00  0.00000000000E+00 -0.75946537698E+02  0.75946537740E+02  0.25500000920E-02 0.  1.
    10030    2    1    2    0    0  0.00000000000E+00  0.00000000000E+00  0.11256363474E+04  0.12775294229E+04  0.60417235922E+03 0.  0.
        5    1    3    3  502    0 -0.21804577106E+03  0.19329726648E+03  0.39463568434E+03  0.49057843904E+03  0.46999998093E+01 0. -1.
       -5    1    3    3    0  502  0.21804577106E+03 -0.19329726648E+03  0.73100066308E+03  0.78695098382E+03  0.46999998093E+01 0.  1.
</event>
<event>
 5   0  0.5190380E-02  0.5938396E+03  0.7818609E-02  0.9918270E-01
       -1   -1    0    0    0  501  0.00000000000E+00  0.00000000000E+00  0.50743496167E+03  0.50743496169E+03  0.50400001928E-02 0. -1.
        1   -1    0    0  501    0  0.00000000000E+00  0.00000000000E+00 -0.17373924929E+03  0.17373924936E+03  0.50400001928E-02 0.  1.
    10030    2    1    2    0    0  0.00000000000E+00  0.00000000000E+00  0.33369571238E+03  0.68117421106E+03  0.59383960574E+03 0.  0.
        5    1    3    3  502    0  0.52010956457E+02 -0.11671303143E+02 -0.16816252096E+03  0.17647119415E+03  0.46999998093E+01 0.  1.
       -5    1    3    3    0  502 -0.52010956457E+02  0.11671303143E+02  0.50185823334E+03  0.50470301691E+03  0.46999998093E+01 0. -1.
</event>
<event>
 5   0  0.8699746E-02  0.5964180E+03  0.7818609E-02  0.9912866E-01
       -2   -1    0    0    0  501  0.00000000000E+00  0.00000000000E+00  0.37461856178E+02  0.37461856265E+02  0.25500000920E-02 0.  1.
        2   -1    0    0  501    0  0.00000000000E+00  0.00000000000E+00 -0.23738441686E+04  0.23738441686E+04  0.25500000920E-02 0. -1.
    10030    2    1    2    0    0  0.00000000000E+00  0.00000000000E+00 -0.23363823125E+04  0.24113060249E+04  0.59641800423E+03 0.  0.
        3    1    3    3  502    0  0.43898959195E+02 -0.17753422759E+03 -0.21587344850E+03  0.28292556716E+03  0.10100000352E+00 0.  1.
       -3    1    3    3    0  502 -0.43898959195E+02  0.17753422759E+03 -0.21205088640E+04  0.21283804577E+04  0.10100000352E+00 0. -1.
</event>
<event>
 5   0  0.5166903E-02  0.6025974E+03  0.7818609E-02  0.9900032E-01
       -1   -1    0    0    0  501  0.00000000000E+00  0.00000000000E+00  0.32351058734E+03  0.32351058738E+03  0.50400001928E-02 0. -1.
        1   -1    0    0  501    0  0.00000000000E+00  0.00000000000E+00 -0.28061186929E+03  0.28061186934E+03  0.50400001928E-02 0.  1.
    10030    2    1    2    0    0  0.00000000000E+00  0.00000000000E+00  0.42898718054E+02  0.60412245672E+03  0.60259741345E+03 0.  0.
        2    1    3    3  502    0  0.17563330136E+03 -0.13355602109E+03  0.22714327705E+03  0.31666754749E+03  0.25500000920E-02 0. -1.
       -2    1    3    3    0  502 -0.17563330136E+03  0.13355602109E+03 -0.18424455899E+03  0.28745490923E+03  0.25500000920E-02 0.  1.
</event>
<event>
 5   0  0.4987389E-02  0.5959931E+03  0.7818609E-02  0.9913754E-01
        1   -1    0    0  501    0  0.00000000000E+00  0.00000000000E+00  0.45666789715E+03  0.45666789718E+03  0.50400001928E-02 0. -1.
       -1   -1    0    0    0  501  0.00000000000E+00  0.00000000000E+00 -0.19445627358E+03  0.19445627364E+03  0.50400001928E-02 0.  1.
    10030    2    1    2    0    0  0.00000000000E+00  0.00000000000E+00  0.26221162357E+03  0.65112417082E+03  0.59599307906E+03 0.  0.
        1    1    3    3  502    0 -0.28474143061E+00  0.28219388118E+03  0.23571528919E+03  0.36768895175E+03  0.50400001928E-02 0. -1.
       -1    1    3    3    0  502  0.28474143061E+00 -0.28219388118E+03  0.26496334375E+02  0.28343521907E+03  0.50400001928E-02 0.  1.
</event>
<event>
 5   0  0.4987389E-02  0.6024975E+03  0.7818609E-02  0.9900238E-01
        1   -1    0    0  501    0  0.00000000000E+00  0.00000000000E+00  0.67851059370E+03  0.67851059372E+03  0.50400001928E-02 0.  1.
       -1   -1    0    0    0  501  0.00000000000E+00  0.00000000000E+00 -0.13375004135E+03  0.13375004144E+03  0.50400001928E-02 0. -1.
    10030    2    1    2    0    0  0.00000000000E+00  0.00000000000E+00  0.54476055235E+03  0.81226063516E+03  0.60249753529E+03 0.  0.
        1    1    3    3  502    0  0.13190765423E+03  0.22559544007E+03  0.70346217213E+02  0.27063170939E+03  0.50400001928E-02 0. -1.
       -1    1    3    3    0  502 -0.13190765423E+03 -0.22559544007E+03  0.47441433514E+03  0.54162892577E+03  0.50400001928E-02 0.  1.
</event>
<event>
 5   0  0.4881209E-02  0.6127552E+03  0.7818609E-02  0.9879291E-01
       -1   -1    0    0    0  501  0.00000000000E+00  0.00000000000E+00  0.11651750564E+03  0.11651750575E+03  0.50400001928E-02 0. -1.
        1   -1    0    0  501    0  0.00000000000E+00  0.00000000000E+00 -0.80560632388E+03  0.80560632390E+03  0.50400001928E-02 0.  1.
    10030    2    1    2    0    0  0.00000000000E+00  0.00000000000E+00 -0.68908881824E+03  0.92212382964E+03  0.61275521847E+03 0.  0.
        3    1    3    3  502    0  0.21719636097E+03 -0.16837570236E+03 -0.54835774163E+03  0.61336845319E+03  0.10100000352E+00 0.  1.
       -3    1    3    3    0  502 -0.21719636097E+03  0.16837570236E+03 -0.14073107661E+03  0.30875537645E+03  0.10100000352E+00 0. -1.
</event>
<event>
 5   0  0.8420604E-02  0.5983571E+03  0.7818609E-02  0.9908820E-01
       -2   -1    0    0    0  501  0.00000000000E+00  0.00000000000E+00  0.10939552029E+03  0.10939552032E+03  0.25500000920E-02 0. -1.
        2   -1    0    0  501    0  0.00000000000E+00  0.00000000000E+00 -0.81820358161E+03  0.81820358162E+03  0.25500000920E-02 0.  1.
    10030    2    1    2    0    0  0.00000000000E+00  0.00000000000E+00 -0.70880806132E+03  0.92759910194E+03  0.59835710585E+03 0.  0.
        2    1    3    3  502    0 -0.10219206190E+03  0.19557024790E+03 -0.41205511118E+02  0.22447457213E+03  0.25500000920E-02 0. -1.
       -2    1    3    3    0  502  0.10219206190E+03 -0.19557024790E+03 -0.66760255020E+03  0.70312452981E+03  0.25500000920E-02 0.  1.
</event>
<event>
 5   0  0.5190380E-02  0.6019678E+03  0.7818609E-02  0.9901332E-01
        1   -1    0    0  501    0  0.00000000000E+00  0.00000000000E+00  0.12880218413E+03  0.12880218423E+03  0.50400001928E-02 0. -1.
       -1   -1    0    0    0  501  0.00000000000E+00  0.00000000000E+00 -0.70333684007E+03  0.70333684009E+03  0.50400001928E-02 0.  1.
    10030    2    1    2    0    0  0.00000000000E+00  0.00000000000E+00 -0.57453465594E+03  0.83213902432E+03  0.60196784376E+03 0.  0.
        5    1    3    3  502    0 -0.15733199503E+03  0.25621159103E+03 -0.30537024568E+03  0.42856832942E+03  0.46999998093E+01 0.  1.
       -5    1    3    3    0  502  0.15733199503E+03 -0.25621159103E+03 -0.26916441026E+03  0.40357069490E+03  0.46999998093E+01 0. -1.
</event>
<event>
 5   0  0.8817544E-02  0.5976479E+03  0.7818609E-02  0.9910298E-01
       -2   -1    0    0    0  501  0.00000000000E+00  0.00000000000E+00  0.17582859272E+03  0.17582859274E+03  0.25500000920E-02 0. -1.
        2   -1    0    0  501    0  0.00000000000E+00  0.00000000000E+00 -0.50785680968E+03  0.50785680969E+03  0.25500000920E-02 0.  1.
    10030    2    1    2    0    0  0.00000000000E+00  0.00000000000E+00 -0.33202821697E+03  0.68368540243E+03  0.59764788348E+03 0.  0.
        5    1    3    3  502    0  0.23688529329E+03 -0.17830184109E+03 -0.20831696917E+03  0.36238686284E+03  0.46999998093E+01 0.  1.
       -5    1    3    3    0  502 -0.23688529329E+03  0.17830184109E+03 -0.12371124780E+03  0.32129853959E+03  0.46999998093E+01 0. -1.
</event>
<event>
 5   0  0.3437375E-02  0.6004737E+03  0.7818609E-02  0.9904424E-01
        4   -1    0    0  501    0  0.00000000000E+00  0.00000000000E+00  0.34741738555E+03  0.34741970681E+03  0.12699999809E+01 0. -1.
       -4   -1    0    0    0  501  0.00000000000E+00  0.00000000000E+00 -0.25945882895E+03  0.25946193714E+03  0.12699999809E+01 0.  1.
    10030    2    1    2    0    0  0.00000000000E+00  0.00000000000E+00  0.87958556593E+02  0.60688164395E+03  0.60047366477E+03 0.  0.
        3    1    3    3  502    0 -0.29631936172E+03 -0.28884021280E+02  0.83157560070E+02  0.30911913693E+03  0.10100000352E+00 0. -1.
       -3    1    3    3    0  502  0.29631936172E+03  0.28884021280E+02  0.48009965230E+01  0.29776250702E+03  0.10100000352E+00 0.  1.
</event>
<event>
 5   0  0.3437375E-02  0.5920696E+03  0.7818609E-02  0.9921997E-01
       -4   -1    0    0    0  501  0.00000000000E+00  0.00000000000E+00  0.25011550788E+03  0.25011873217E+03  0.12699999809E+01 0.  1.
        4   -1    0    0  501    0  0.00000000000E+00  0.00000000000E+00 -0.35037788874E+03  0.35038019039E+03  0.12699999809E+01 0. -1.
    10030    2    1    2    0    0  0.00000000000E+00  0.00000000000E+00 -0.10026238086E+03  0.60049892255E+03  0.59206959977E+03 0.  0.
        2    1    3    3  502    0  0.36185998598E+02  0.90755347709E+02  0.23329434106E+03  0.25292728048E+03  0.25500000920E-02 0.  1.
       -2    1    3    3    0  502 -0.36185998598E+02 -0.90755347709E+02 -0.33355672192E+03  0.34757164208E+03  0.25500000920E-02 0. -1.
</event>
<event>
 5   0  0.4987389E-02  0.6018726E+03  0.7818609E-02  0.9901529E-01
       -1   -1    0    0    0  501  0.00000000000E+00  0.00000000000E+00  0.12200506107E+03  0.12200506117E+03  0.50400001928E-02 0. -1.
        1   -1    0    0  501    0  0.00000000000E+00  0.00000000000E+00 -0.74228595656E+03  0.74228595657E+03  0.50400001928E-02 0.  1.
    10030    2    1    2    0    0  0.00000000000E+00  0.00000000000E+00 -0.62028089549E+03  0.86429101775E+03  0.60187255632E+03 0.  0.
        1    1    3    3  502    0 -0.16158229207E+03  0.90778283996E+02 -0.65060685136E+03  0.67649006572E+03  0.50400001928E-02 0.  1.
       -1    1    3    3    0  502  0.16158229207E+03 -0.90778283996E+02  0.30325955874E+02  0.18780095202E+03  0.50400001928E-02 0. -1.
</event>
<event>
 5   0  0.5166903E-02  0.5972627E+03  0.7818609E-02  0.9911101E-01
        1   -1    0    0  501    0  0.00000000000E+00  0.00000000000E+00  0.57175462072E+03  0.57175462074E+03  0.50400001928E-02 0.  1.
       -1   -1    0    0    0  501  0.00000000000E+00  0.00000000000E+00 -0.15597717920E+03  0.15597717928E+03  0.50400001928E-02 0. -1.
    10030    2    1    2    0    0  0.00000000000E+00  0.00000000000E+00  0.41577744151E+03  0.72773180002E+03  0.59726266575E+03 0.  0.
        2    1    3    3  502    0 -0.16456955220E+03  0.24919376823E+03  0.20793317160E+03  0.36389129626E+03  0.25500000920E-02 0.  1.
       -2    1    3    3    0  502  0.16456955220E+03 -0.24919376823E+03  0.20784426992E+03  0.36384050376E+03  0.25500000920E-02 0. -1.
</event>
<event>
 5   0  0.8207443E-02  0.5786500E+03  0.7818609E-02  0.9950718E-01
        2   -1    0    0  501    0  0.00000000000E+00  0.00000000000E+00  0.17211232804E+04  0.17211232804E+04  0.25500000920E-02 0.  1.
       -2   -1    0    0    0  501  0.00000000000E+00  0.00000000000E+00 -0.48636233443E+02  0.48636233510E+02  0.25500000920E-02 0. -1.
    10030    2    1    2    0    0  0.00000000000E+00  0.00000000000E+00  0.16724870469E+04  0.17697595139E+04  0.57864999338E+03 0.  0.
        1    1    3    3  502    0 -0.21640870035E+02  0.66631300093E+02 -0.22303094528E+02  0.73522006629E+02  0.50400001928E-02 0. -1.
       -1    1    3    3    0  502  0.21640870035E+02 -0.66631300093E+02  0.16947901414E+04  0.16962375072E+04  0.50400001928E-02 0.  1.
</event>
<event>
 5   0  0.8207443E-02  0.6048306E+03  0.7818609E-02  0.9895434E-01
        2   -1    0    0  501    0  0.00000000000E+00  0.00000000000E+00  0.13898774386E+04  0.13898774386E+04  0.25500000920E-02 0. -1.
       -2   -1    0    0    0  501  0.00000000000E+00  0.00000000000E+00 -0.65800782895E+02  0.65800782944E+02  0.25500000920E-02 0.  1.
    10030    2    1    2    0    0  0.00000000000E+00  0.00000000000E+00  0.13240766557E+04  0.14556782215E+04  0.60483063290E+03 0.  0.
        1    1    3    3  502    0  0.17217940338E+03 -0.12252071109E+03  0.11826873170E+04  0.12014184789E+04  0.50400001928E-02 0. -1.
       -1    1    3    3    0  502 -0.17217940338E+03  0.12252071109E+03  0.14138933863E+03  0.25425974258E+03  0.50400001928E-02 0.  1.
</event>
<event>
 5   0  0.5190380E-02  0.6058594E+03  0.7818609E-02  0.9893324E-01
       -1   -1    0    0    0  501  0.00000000000E+00  0.00000000000E+00  0.38654733303E+03  0.38654733306E+03  0.50400001928E-02 0.  1.
        1   -1    0    0  501    0  0.00000000000E+00  0.00000000000E+00 -0.23740016707E+03  0.23740016713E+03  0.50400001928E-02 0. -1.
    10030    2    1    2    0    0  0.00000000000E+00  0.00000000000E+00  0.14914716595E+03  0.62394750019E+03  0.60585939448E+03 0.  0.
        5    1    3    3  502    0 -0.18505999395E+03 -0.31961992980E+02  0.31931439858E+03  0.37047610651E+03  0.46999998093E+01 0.  1.
       -5    1    3    3    0  502  0.18505999395E+03  0.31961992980E+02 -0.17016723263E+03  0.25347139368E+03  0.46999998093E+01 0. -1.
</event>
<event>
 5   0  0.5166903E-02  0.6023393E+03  0.7818609E-02  0.9900565E-01
       -1   -1    0    0    0  501  0.00000000000E+00  0.00000000000E+00  0.37055572760E+03  0.37055572764E+03  0.50400001928E-02 0. -1.
        1   -1    0    0  501    0  0.00000000000E+00  0.00000000000E+00 -0.24477604778E+03  0.24477604783E+03  0.50400001928E-02 0.  1.
    10030    2    1    2    0    0  0.00000000000E+00  0.00000000000E+00  0.12577967982E+03  0.61533177547E+03  0.60233932799E+03 0.  0.
        2    1    3    3  502    0 -0.18586074992E+03 -0.23296095078E+03  0.10727988923E+03  0.31673963691E+03  0.25500000920E-02 0. -1.
       -2    1    3    3    0  502  0.18586074992E+03  0.23296095078E+03  0.18499790590E+02  0.29859213856E+03  0.25500000920E-02 0.  1.
</event>
<event>
 5   0  0.8817544E-02  0.6369769E+03  0.7818609E-02  0.9831528E-01
       -2   -1    0    0    0  501  0.00000000000E+00  0.00000000000E+00  0.32389742838E+03  0.32389742839E+03  0.25500000920E-02 0. -1.
        2   -1    0    0  501    0  0.00000000000E+00  0.00000000000E+00 -0.31316975620E+03  0.31316975621E+03  0.25500000920E-02 0.  1.
    10030    2    1    2    0    0  0.00000000000E+00  0.00000000000E+00  0.10727672185E+02  0.63706718460E+03  0.63697685574E+03 0.  0.
        5    1    3    3  502    0 -0.16065507530E+03 -0.14898789729E+03 -0.22576489360E+03  0.31464158012E+03  0.46999998093E+01 0.  1.
       -5    1    3    3    0  502  0.16065507530E+03  0.14898789729E+03  0.23649256579E+03  0.32242560448E+03  0.46999998093E+01 0. -1.
</event>
<event>
 5   0  0.4881209E-02  0.5972362E+03  0.7818609E-02  0.9911157E-01
        1   -1    0    0  501    0  0.00000000000E+00  0.00000000000E+00  0.99972589204E+03  0.99972589205E+03  0.50400001928E-02 0.  1.
       -1   -1    0    0    0  501  0.00000000000E+00  0.00000000000E+00 -0.89197213421E+02  0.89197213564E+02  0.50400001928E-02 0. -1.
    10030    2    1    2    0    0  0.00000000000E+00  0.00000000000E+00  0.91052867862E+03  0.10889231056E+04  0.59723618055E+03 0.  0.
        3    1    3    3  502    0  0.59244460486E+02  0.25809077199E+02  0.98682426961E+03  0.98893789686E+03  0.10100000352E+00 0.  1.
       -3    1    3    3    0  502 -0.59244460486E+02 -0.25809077199E+02 -0.76295590989E+02  0.99985208753E+02  0.10100000352E+00 0. -1.
</event>
<event>
 5   0  0.5166903E-02  0.5965965E+03  0.7818609E-02  0.9912492E-01
        1   -1    0    0  501    0  0.00000000000E+00  0.00000000000E+00  0.24220137417E+03  0.24220137422E+03  0.50400001928E-02 0.  1.
       -1   -1    0    0    0  501  0.00000000000E+00  0.00000000000E+00 -0.36738791716E+03  0.36738791719E+03  0.50400001928E-02 0. -1.
    10030    2    1    2    0    0  0.00000000000E+00  0.00000000000E+00 -0.12518654299E+03  0.60958929141E+03  0.59659654178E+03 0.  0.
        2    1    3    3  502    0  0.90347204957E+02  0.15499434173E+03 -0.30610251624E+03  0.35480221796E+03  0.25500000920E-02 0. -1.
       -2    1    3    3    0  502 -0.90347204957E+02 -0.15499434173E+03  0.18091597326E+03  0.25478707345E+03  0.25500000920E-02 0.  1.
</event>
<event>
 5   0  0.8817544E-02  0.5899589E+03  0.7818609E-02  0.9926460E-01
        2   -1    0    0  501    0  0.00000000000E+00  0.00000000000E+00  0.52087747542E+03  0.52087747543E+03  0.25500000920E-02 0. -1.
       -2   -1    0    0    0  501  0.00000000000E+00  0.00000000000E+00 -0.16705058697E+03  0.16705058699E+03  0.25500000920E-02 0.  1.
    10030    2    1    2    0    0  0.00000000000E+00  0.00000000000E+00  0.35382688845E+03  0.68792806241E+03  0.58995894100E+03 0.  0.
        5    1    3    3  502    0  0.26396494843E+02  0.14701137842E+02 -0.16519757995E+03  0.16800365715E+03  0.46999998093E+01 0.  1.
       -5    1    3    3    0  502 -0.26396494843E+02 -0.14701137842E+02  0.51902446840E+03  0.51992440527E+03  0.46999998093E+01 0. -1.
</event>
<event>
 5   0  0.8207443E-02  0.5949462E+03  0.7818609E-02  0.9915947E-01
       -2   -1    0    0    0  501  0.00000000000E+00  0.00000000000E+00  0.48249297316E+03  0.48249297316E+03  0.25500000920E-02 0. -1.
        2   -1    0    0  501    0  0.00000000000E+00  0.00000000000E+00 -0.18340216674E+03  0.18340216676E+03  0.25500000920E-02 0.  1.
    10030    2    1    2    0    0  0.00000000000E+00  0.00000000000E+00  0.29909080642E+03  0.66589513992E+03  0.59494623865E+03 0.  0.
        1    1    3    3  502    0  0.27724179005E+03  0.10094342898E+03  0.19198368886E+03  0.35200898116E+03  0.50400001928E-02 0.  1.
       -1    1    3    3    0  502 -0.27724179005E+03 -0.10094342898E+03  0.10710711755E+03  0.31388615876E+03  0.50400001928E-02 0. -1.
</event>
<event>
 5   0  0.5166903E-02  0.5947905E+03  0.7818609E-02  0.9916273E-01
       -1   -1    0    0    0  501  0.00000000000E+00  0.00000000000E+00  0.35004738508E+03  0.35004738511E+03  0.50400001928E-02 0.  1.
        1   -1    0    0  501    0  0.00000000000E+00  0.00000000000E+00 -0.25266278504E+03  0.25266278509E+03  0.50400001928E-02 0. -1.
    10030    2    1    2    0    0  0.00000000000E+00  0.00000000000E+00  0.97384600036E+02  0.60271017021E+03  0.59479054208E+03 0.  0.
        2    1    3    3  502    0  0.18891907609E+03  0.17005893289E+03 -0.10774426814E+03  0.27607840425E+03  0.25500000920E-02 0. -1.
       -2    1    3    3    0  502 -0.18891907609E+03 -0.17005893289E+03  0.20512886818E+03  0.32663176596E+03  0.25500000920E-02 0.  1.
</event>
<event>
 5   0  0.3437375E-02  0.5928775E+03  0.7818609E-02  0.9920294E-01
        3   -1    0    0  501    0  0.00000000000E+00  0.00000000000E+00  0.34191520704E+03  0.34191522195E+03  0.10100000352E+00 0.  1.
       -3   -1    0    0    0  501  0.00000000000E+00  0.00000000000E+00 -0.25701081909E+03  0.25701083894E+03  0.10100000352E+00 0. -1.
    10030    2    1    2    0    0  0.00000000000E+00  0.00000000000E+00  0.84904387946E+02  0.59892606089E+03  0.59287745051E+03 0.  0.
        5    1    3    3  502    0 -0.13102957342E+03  0.48978606163E+02 -0.22153002251E+03  0.26204063395E+03  0.46999998093E+01 0. -1.
       -5    1    3    3    0  502  0.13102957342E+03 -0.48978606163E+02  0.30643441046E+03  0.33688542694E+03  0.46999998093E+01 0.  1.
</event>
<event>
 5   0  0.5190380E-02  0.5988656E+03  0.7818609E-02  0.9907762E-01
        1   -1    0    0  501    0  0.00000000000E+00  0.00000000000E+00  0.19416388189E+03  0.19416388195E+03  0.50400001928E-02 0. -1.
       -1   -1    0    0    0  501  0.00000000000E+00  0.00000000000E+00 -0.46177487253E+03  0.46177487256E+03  0.50400001928E-02 0.  1.
    10030    2    1    2    0    0  0.00000000000E+00  0.00000000000E+00 -0.26761099064E+03  0.65593875451E+03  0.59886560041E+03 0.  0.
        5    1    3    3  502    0  0.18671228163E+03  0.22890311547E+03 -0.80373166393E+02  0.30616996629E+03  0.46999998093E+01 0.  1.
       -5    1    3    3    0  502 -0.18671228163E+03 -0.22890311547E+03 -0.18723782425E+03  0.34976878822E+03  0.46999998093E+01 0. -1.
</event>
<event>
 5   0  0.4881209E-02  0.6070956E+03  0.7818609E-02  0.9890793E-01
        1   -1    0    0  501    0  0.00000000000E+00  0.00000000000E+00  0.36769816838E+03  0.36769816841E+03  0.50400001928E-02 0. -1.
       -1   -1    0    0    0  501  0.00000000000E+00  0.00000000000E+00 -0.25058944306E+03  0.25058944311E+03  0.50400001928E-02 0.  1.
    10030    2    1    2    0    0  0.00000000000E+00  0.00000000000E+00  0.11710872532E+03  0.61828761152E+03  0.60709564074E+03 0.  0.
        3    1    3    3  502    0 -0.24483482486E+03 -0.17720065460E+03  0.87307905222E+02  0.31458996165E+03  0.10100000352E+00 0. -1.
       -3    1    3    3    0  502  0.24483482486E+03  0.17720065460E+03  0.29800820097E+02  0.30369764987E+03  0.10100000352E+00 0.  1.
</event>
<event>
 5   0  0.4987389E-02  0.6100203E+03  0.7818609E-02  0.9884832E-01
       -1   -1    0    0    0  501  0.00000000000E+00  0.00000000000E+00  0.21560604656E+03  0.21560604662E+03  0.50400001928E-02 0.  1.
        1   -1    0    0  501    0  0.00000000000E+00  0.00000000000E+00 -0.43148699565E+03  0.43148699568E+03  0.50400001928E-02 0. -1.
    10030    2    1    2    0    0  0.00000000000E+00  0.00000000000E+00 -0.21588094910E+03  0.64709304230E+03  0.61002034491E+03 0.  0.
        1    1    3    3  502    0  0.46642023178E+02  0.43083199868E+02 -0.42439867367E+03  0.42912221415E+03  0.50400001928E-02 0. -1.
       -1    1    3    3    0  502 -0.46642023178E+02 -0.43083199868E+02  0.20851772457E+03  0.21797082815E+03  0.50400001928E-02 0.  1.
</event>
<event>
 5   0  0.5190380E-02  0.6096141E+03  0.7818609E-02  0.9885658E-01
        1   -1    0    0  501    0  0.00000000000E+00  0.00000000000E+00  0.19112750218E+03  0.19112750225E+03  0.50400001928E-02 0. -1.
       -1   -1    0    0    0  501  0.00000000000E+00  0.00000000000E+00 -0.48610137912E+03  0.48610137915E+03  0.50400001928E-02 0.  1.
    10030    2    1    2    0    0  0.00000000000E+00  0.00000000000E+00 -0.29497387694E+03  0.67722888140E+03  0.60961411542E+03 0.  0.
        5    1    3    3  502    0 -0.25755774492E+03 -0.61271338582E+02 -0.31521319362E+03  0.41166930458E+03  0.46999998093E+01 0.  1.
       -5    1    3    3    0  502  0.25755774492E+03  0.61271338582E+02  0.20239316678E+02  0.26555957682E+03  0.46999998093E+01 0. -1.
</event>
<event>
 5   0  0.5125031E-02  0.6067014E+03  0.7818609E-02  0.9891600E-01
        1   -1    0    0  501    0  0.00000000000E+00  0.00000000000E+00  0.51294382272E+03  0.51294382274E+03  0.50400001928E-02 0. -1.
       -1   -1    0    0    0  501  0.00000000000E+00  0.00000000000E+00 -0.17939905763E+03  0.17939905770E+03  0.50400001928E-02 0.  1.
    10030    2    1    2    0    0  0.00000000000E+00  0.00000000000E+00  0.33354476509E+03  0.69234288044E+03  0.60670137116E+03 0.  0.
        4    1    3    3  502    0  0.28218478009E+03  0.10987370855E+03  0.18717149701E+03  0.35599896648E+03  0.12699999809E+01 0.  1.
       -4    1    3    3    0  502 -0.28218478009E+03 -0.10987370855E+03  0.14637326808E+03  0.33634391395E+03  0.12699999809E+01 0. -1.
</event>
<event>
 5   0  0.4881209E-02  0.6168575E+03  0.7818609E-02  0.9871036E-01
        1   -1    0    0  501    0  0.00000000000E+00  0.00000000000E+00  0.12097444087E+03  0.12097444097E+03  0.50400001928E-02 0. -1.
       -1   -1    0    0    0  501  0.00000000000E+00  0.00000000000E+00 -0.78635047299E+03  0.78635047300E+03  0.50400001928E-02 0.  1.
    10030    2    1    2    0    0  0.00000000000E+00  0.00000000000E+00 -0.66537603212E+03  0.90732491398E+03  0.61685754872E+03 0.  0.
        3    1    3    3  502    0 -0.14147976955E+03 -0.23459862937E+03 -0.54109319377E+03  0.60649393784E+03  0.10100000352E+00 0.  1.
       -3    1    3    3    0  502  0.14147976955E+03  0.23459862937E+03 -0.12428283835E+03  0.30083097614E+03  0.10100000352E+00 0. -1.
</event>
<event>
 5   0  0.8575590E-02  0.5983799E+03  0.7818609E-02  0.9908773E-01
       -2   -1    0    0    0  501  0.00000000000E+00  0.00000000000E+00  0.51853960876E+02  0.51853960939E+02  0.25500000920E-02 0. -1.
        2   -1    0    0  501    0  0.00000000000E+00  0.00000000000E+00 -0.17262834379E+04  0.17262834379E+04  0.25500000920E-02 0.  1.
    10030    2    1    2    0    0  0.00000000000E+00  0.00000000000E+00 -0.16744294770E+04  0.17781373988E+04  0.59837992582E+03 0.  0.
        4    1    3    3  502    0  0.28547548501E+03 -0.76565744075E+02 -0.97514420129E+03  0.10189535769E+04  0.12699999809E+01 0. -1.
       -4    1    3    3    0  502 -0.28547548501E+03  0.76565744075E+02 -0.69928527572E+03  0.75918382190E+03  0.12699999809E+01 0.  1.
</event>
<event>
 5   0  0.4881209E-02  0.6023088E+03  0.7818609E-02  0.9900628E-01
       -1   -1    0    0    0  501  0.00000000000E+00  0.00000000000E+00  0.17183215735E+03  0.17183215742E+03  0.50400001928E-02 0. -1.
        1   -1    0    0  501    0  0.00000000000E+00  0.00000000000E+00 -0.52780555093E+03  0.52780555096E+03  0.50400001928E-02 0.  1.
    10030    2    1    2    0    0  0.00000000000E+00  0.00000000000E+00 -0.35597339358E+03  0.69963770838E+03  0.60230877965E+03 0.  0.
        3    1    3    3  502    0 -0.56255239595E+02  0.28976616945E+03 -0.24734140470E+03  0.38510630431E+03  0.10100000352E+00 0.  1.
       -3    1    3    3    0  502  0.56255239595E+02 -0.28976616945E+03 -0.10863198889E+03  0.31453140407E+03  0.10100000352E+00 0. -1.
</event>
<event>
 5   0  0.8699746E-02  0.5975095E+03  0.7818609E-02  0.9910586E-01
        2   -1    0    0  501    0  0.00000000000E+00  0.00000000000E+00  0.10168191172E+04  0.10168191172E+04  0.25500000920E-02 0.  1.
       -2   -1    0    0    0  501  0.00000000000E+00  0.00000000000E+00 -0.87778062643E+02  0.87778062680E+02  0.25500000920E-02 0. -1.
    10030    2    1    2    0    0  0.00000000000E+00  0.00000000000E+00  0.92904105460E+03  0.11045971799E+04  0.59750953864E+03 0.  0.
        3    1    3    3  502    0 -0.22321888978E+02  0.25760851755E+02 -0.84171423077E+02  0.90811490872E+02  0.10100000352E+00 0. -1.
       -3    1    3    3    0  502  0.22321888978E+02 -0.25760851755E+02  0.10132124777E+04  0.10137856891E+04  0.10100000352E+00 0.  1.
</event>
<event>
 5   0  0.8699746E-02  0.6009569E+03  0.7818609E-02  0.9903423E-01
       -2   -1    0    0    0  501  0.00000000000E+00  0.00000000000E+00  0.30784274043E+02  0.30784274148E+02  0.25500000920E-02 0.  1.
        2   -1    0    0  501    0  0.00000000000E+00  0.00000000000E+00 -0.29329034992E+04  0.29329034992E+04  0.25500000920E-02 0. -1.
    10030    2    1    2    0    0  0.00000000000E+00  0.00000000000E+00 -0.29021192252E+04  0.29636877733E+04  0.60095692098E+03 0.  0.
        3    1    3    3  502    0 -0.14341332874E+02 -0.11524094140E+03 -0.84360352441E+02  0.14353685126E+03  0.10100000352E+00 0.  1.
       -3    1    3    3    0  502  0.14341332874E+02  0.11524094140E+03 -0.28177588727E+04  0.28201509221E+04  0.10100000352E+00 0. -1.
</event>
<event>
 5   0  0.3437375E-02  0.5696886E+03  0.7818609E-02  0.9970368E-01
       -4   -1    0    0    0  501  0.00000000000E+00  0.00000000000E+00  0.39013468133E+03  0.39013674843E+03  0.12699999809E+01 0. -1.
        4   -1    0    0  501    0  0.00000000000E+00  0.00000000000E+00 -0.20796537466E+03  0.20796925243E+03  0.12699999809E+01 0.  1.
    10030    2    1    2    0    0  0.00000000000E+00  0.00000000000E+00  0.18216930667E+03  0.59810600086E+03  0.56968862721E+03 0.  0.
        4    1    3    3  502    0  0.22975882869E+03 -0.78888645874E+02 -0.65069702313E+02  0.25149198171E+03  0.12699999809E+01 0. -1.
       -4    1    3    3    0  502 -0.22975882869E+03  0.78888645874E+02  0.24723900898E+03  0.34661401915E+03  0.12699999809E+01 0.  1.
</event>
<event>
 5   0  0.8817544E-02  0.5669898E+03  0.7818609E-02  0.9976362E-01
       -2   -1    0    0    0  501  0.00000000000E+00  0.00000000000E+00  0.14485958419E+03  0.14485958421E+03  0.25500000920E-02 0. -1.
        2   -1    0    0  501    0  0.00000000000E+00  0.00000000000E+00 -0.55480861463E+03  0.55480861464E+03  0.25500000920E-02 0.  1.
    10030    2    1    2    0    0  0.00000000000E+00  0.00000000000E+00 -0.40994903045E+03  0.69966819884E+03  0.56698975380E+03 0.  0.
        5    1    3    3  502    0  0.36134570943E+02  0.26058517545E+03 -0.74748016570E+02  0.27353189368E+03  0.46999998093E+01 0. -1.
       -5    1    3    3    0  502 -0.36134570943E+02 -0.26058517545E+03 -0.33520101388E+03  0.42613630517E+03  0.46999998093E+01 0.  1.
</event>
<event>
 5   0  0.5190380E-02  0.5969609E+03  0.7818609E-02  0.9911731E-01
       -1   -1    0    0    0  501  0.00000000000E+00  0.00000000000E+00  0.12856676982E+03  0.12856676992E+03  0.50400001928E-02 0.  1.
        1   -1    0    0  501    0  0.00000000000E+00  0.00000000000E+00 -0.69295188149E+03  0.69295188150E+03  0.50400001928E-02 0. -1.
    10030    2    1    2    0    0  0.00000000000E+00  0.00000000000E+00 -0.56438511167E+03  0.82151865142E+03  0.59696092029E+03 0.  0.
        5    1    3    3  502    0 -0.17316315388E+03  0.19625429749E+03 -0.47955287086E+03  0.54634629412E+03  0.46999998093E+01 0. -1.
       -5    1    3    3    0  502  0.17316315388E+03 -0.19625429749E+03 -0.84832240806E+02  0.27517235730E+03  0.46999998093E+01 0.  1.
</event>
<event>
 5   0  0.5166903E-02  0.6008640E+03  0.7818609E-02  0.9903615E-01
        1   -1    0    0  501    0  0.00000000000E+00  0.00000000000E+00  0.41599676062E+03  0.41599676066E+03  0.50400001928E-02 0.  1.
       -1   -1    0    0    0  501  0.00000000000E+00  0.00000000000E+00 -0.21697139484E+03  0.21697139490E+03  0.50400001928E-02 0. -1.
    10030    2    1    2    0    0  0.00000000000E+00  0.00000000000E+00  0.19902536579E+03  0.63296815555E+03  0.60086403596E+03 0.  0.
        2    1    3    3  502    0 -0.50864754898E+01  0.19661689156E+03 -0.13972337063E+03  0.24126063621E+03  0.25500000920E-02 0. -1.
       -2    1    3    3    0  502  0.50864754898E+01 -0.19661689156E+03  0.33874873642E+03  0.39170751934E+03  0.25500000920E-02 0.  1.
</event>
<event>
 5   0  0.8817544E-02  0.6060053E+03  0.7818609E-02  0.9893025E-01
        2   -1    0    0  501    0  0.00000000000E+00  0.00000000000E+00  0.21509808042E+04  0.21509808042E+04  0.25500000920E-02 0.  1.
       -2   -1    0    0    0  501  0.00000000000E+00  0.00000000000E+00 -0.42683142856E+02  0.42683142932E+02  0.25500000920E-02 0. -1.
    10030    2    1    2    0    0  0.00000000000E+00  0.00000000000E+00  0.21082976613E+04  0.21936639471E+04  0.60600534991E+03 0.  0.
        5    1    3    3  502    0  0.28751578619E+03  0.14258371376E+02  0.13960288304E+04  0.14254077359E+04  0.46999998093E+01 0.  1.
       -5    1    3    3    0  502 -0.28751578619E+03 -0.14258371376E+02  0.71226883099E+03  0.76825621121E+03  0.46999998093E+01 0. -1.
</event>
<event>
 5   0  0.8207443E-02  0.6018170E+03  0.7818609E-02  0.9901643E-01
       -2   -1    0    0    0  501  0.00000000000E+00  0.00000000000E+00  0.28762367495E+03  0.28762367496E+03  0.25500000920E-02 0.  1.
        2   -1    0    0  501    0  0.00000000000E+00  0.00000000000E+00 -0.31480697867E+03  0.31480697868E+03  0.25500000920E-02 0. -1.
    10030    2    1    2    0    0  0.00000000000E+00  0.00000000000E+00 -0.27183303727E+02  0.60243065364E+03  0.60181704898E+03 0.  0.
        1    1    3    3  502    0  0.13530083596E+03 -0.18997548715E+03  0.17673094188E+03  0.29262745560E+03  0.50400001928E-02 0.  1.
       -1    1    3    3    0  502 -0.13530083596E+03  0.18997548715E+03 -0.20391424561E+03  0.30980319804E+03  0.50400001928E-02 0. -1.
</event>
<event>
 5   0  0.5166903E-02  0.6067553E+03  0.7818609E-02  0.9891489E-01
       -1   -1    0    0    0  501  0.00000000000E+00  0.00000000000E+00  0.61575406351E+03  0.61575406353E+03  0.50400001928E-02 0.  1.
        1   -1    0    0  501    0  0.00000000000E+00  0.00000000000E+00 -0.14947202747E+03  0.14947202756E+03  0.50400001928E-02 0. -1.
    10030    2    1    2    0    0  0.00000000000E+00  0.00000000000E+00  0.46628203604E+03  0.76522609108E+03  0.60675533236E+03 0.  0.
        2    1    3    3  502    0  0.13411680415E+03  0.25943951997E+03  0.33669456004E+03  0.44571224848E+03  0.25500000920E-02 0.  1.
       -2    1    3    3    0  502 -0.13411680415E+03 -0.25943951997E+03  0.12958747600E+03  0.31951384261E+03  0.25500000920E-02 0. -1.
</event>
<event>
 5   0  0.8207443E-02  0.5981615E+03  0.7818609E-02  0.9909228E-01
       -2   -1    0    0    0  501  0.00000000000E+00  0.00000000000E+00  0.19265876823E+03  0.19265876825E+03  0.25500000920E-02 0.  1.
        2   -1    0    0  501    0  0.00000000000E+00  0.00000000000E+00 -0.46428873815E+03  0.46428873816E+03  0.25500000920E-02 0. -1.
    10030    2    1    2    0    0  0.00000000000E+00  0.00000000000E+00 -0.27162996992E+03  0.65694750640E+03  0.59816150462E+03 0.  0.
        1    1    3    3  502    0  0.20220886670E+03 -0.16238437677E+02 -0.37717932818E+03  0.42827136055E+03  0.50400001928E-02 0. -1.
       -1    1    3    3    0  502 -0.20220886670E+03  0.16238437677E+02  0.10554935826E+03  0.22867614586E+03  0.50400001928E-02 0.  1.
</event>
<event>
 5   0  0.5125031E-02  0.5954962E+03  0.7818609E-02  0.9914794E-01
       -1   -1    0    0    0  501  0.00000000000E+00  0.00000000000E+00  0.16996619949E+03  0.16996619956E+03  0.50400001928E-02 0. -1.
        1   -1    0    0  501    0  0.00000000000E+00  0.00000000000E+00 -0.52159747328E+03  0.52159747330E+03  0.50400001928E-02 0.  1.
    10030    2    1    2    0    0  0.00000000000E+00  0.00000000000E+00 -0.35163127379E+03  0.69156367287E+03  0.59549623082E+03 0.  0.
        4    1    3    3  502    0 -0.13762617869E+02  0.14648452870E+03  0.12479712299E+03  0.19293279039E+03  0.12699999809E+01 0. -1.
       -4    1    3    3    0  502  0.13762617869E+02 -0.14648452870E+03 -0.47642839679E+03  0.49863088248E+03  0.12699999809E+01 0.  1.
</event>
<event>
 5   0  0.3437375E-02  0.5984670E+03  0.7818609E-02  0.9908592E-01
       -3   -1    0    0    0  501  0.00000000000E+00  0.00000000000E+00  0.31670038736E+03  0.31670040346E+03  0.10100000352E+00 0. -1.
        3   -1    0    0  501    0  0.00000000000E+00  0.00000000000E+00 -0.28272997203E+03  0.28272999007E+03  0.10100000352E+00 0.  1.
    10030    2    1    2    0    0  0.00000000000E+00  0.00000000000E+00  0.33970415323E+02  0.59943039353E+03  0.59846704803E+03 0.  0.
        2    1    3    3  502    0 -0.56684144453E+02 -0.29293002876E+03  0.39816810017E+02  0.30100909014E+03  0.25500000920E-02 0. -1.
       -2    1    3    3    0  502  0.56684144453E+02  0.29293002876E+03 -0.58463946934E+01  0.29842130339E+03  0.25500000920E-02 0.  1.
</event>
<event>
 5   0  0.8699746E-02  0.5976652E+03  0.7818609E-02  0.9910262E-01
        2   -1    0    0  501    0  0.00000000000E+00  0.00000000000E+00  0.13379245234E+04  0.13379245234E+04  0.25500000920E-02 0.  1.
       -2   -1    0    0    0  501  0.00000000000E+00  0.00000000000E+00 -0.66745863388E+02  0.66745863437E+02  0.25500000920E-02 0. -1.
    10030    2    1    2    0    0  0.00000000000E+00  0.00000000000E+00  0.12711786600E+04  0.14046703868E+04  0.59766521564E+03 0.  0.
        3    1    3    3  502    0  0.10562371870E+03 -0.22786094383E+03  0.10161863626E+04  0.10467624914E+04  0.10100000352E+00 0.  1.
       -3    1    3    3    0  502 -0.10562371870E+03  0.22786094383E+03  0.25499229743E+03  0.35790789545E+03  0.10100000352E+00 0. -1.
</event>
<event>
 5   0  0.5125031E-02  0.6040394E+03  0.7818609E-02  0.9897061E-01
        1   -1    0    0  501    0  0.00000000000E+00  0.00000000000E+00  0.71545394678E+03  0.71545394679E+03  0.50400001928E-02 0.  1.
       -1   -1    0    0    0  501  0.00000000000E+00  0.00000000000E+00 -0.12749373826E+03  0.12749373836E+03  0.50400001928E-02 0. -1.
    10030    2    1    2    0    0  0.00000000000E+00  0.00000000000E+00  0.58796020851E+03  0.84294768516E+03  0.60403939699E+03 0.  0.
        4    1    3    3  502    0 -0.24946986943E+03 -0.85660267957E+02  0.49927488763E+03  0.56466797641E+03  0.12699999809E+01 0.  1.
       -4    1    3    3    0  502  0.24946986943E+03  0.85660267957E+02  0.88685320882E+02  0.27827970875E+03  0.12699999809E+01 0. -1.
</event>
<event>
 5   0  0.8699746E-02  0.6082306E+03  0.7818609E-02  0.9888476E-01
       -2   -1    0    0    0  501  0.00000000000E+00  0.00000000000E+00  0.75597869990E+02  0.75597870033E+02  0.25500000920E-02 0. -1.
        2   -1    0    0  501    0  0.00000000000E+00  0.00000000000E+00 -0.12233956867E+04  0.12233956867E+04  0.25500000920E-02 0.  1.
    10030    2    1    2    0    0  0.00000000000E+00  0.00000000000E+00 -0.11477978167E+04  0.12989935567E+04  0.60823057502E+03 0.  0.
        3    1    3    3  502    0  0.23179634916E+02 -0.16281976809E+03 -0.11202294777E+04  0.11322374598E+04  0.10100000352E+00 0.  1.
       -3    1    3    3    0  502 -0.23179634916E+02  0.16281976809E+03 -0.27568338979E+02  0.16675609695E+03  0.10100000352E+00 0. -1.
</event>
<event>
 5   0  0.8575590E-02  0.6007579E+03  0.7818609E-02  0.9903835E-01
        2   -1    0    0  501    0  0.00000000000E+00  0.00000000000E+00  0.32967583102E+03  0.32967583103E+03  0.25500000920E-02 0. -1.
       -2   -1    0    0    0  501  0.00000000000E+00  0.00000000000E+00 -0.27368552223E+03  0.27368552224E+03  0.25500000920E-02 0.  1.
    10030    2    1    2    0    0  0.00000000000E+00  0.00000000000E+00  0.55990308791E+02  0.60336135327E+03  0.60075786133E+03 0.  0.
        4    1    3    3  502    0  0.22477968925E+03 -0.15324055219E+03 -0.99903944104E+02  0.28981198472E+03  0.12699999809E+01 0. -1.
       -4    1    3    3    0  502 -0.22477968925E+03  0.15324055219E+03  0.15589425290E+03  0.31354936856E+03  0.12699999809E+01 0.  1.
</event>
<event>
 5   0  0.8420604E-02  0.5967683E+03  0.7818609E-02  0.9912134E-01
       -2   -1    0    0    0  501  0.00000000000E+00  0.00000000000E+00  0.62874490134E+02  0.62874490185E+02  0.25500000920E-02 0. -1.
        2   -1    0    0  501    0  0.00000000000E+00  0.00000000000E+00 -0.14160448432E+04  0.14160448432E+04  0.25500000920E-02 0.  1.
    10030    2    1    2    0    0  0.00000000000E+00  0.00000000000E+00 -0.13531703531E+04  0.14789193334E+04  0.59676828858E+03 0.  0.
        2    1    3    3  502    0 -0.17322402131E+03 -0.16373664580E+03 -0.11214010381E+04  0.11464538974E+04  0.25500000920E-02 0.  1.
       -2    1    3    3    0  502  0.17322402131E+03  0.16373664580E+03 -0.23176931503E+03  0.33246543600E+03  0.25500000920E-02 0. -1.
</event>
<event>
 5   0  0.8420604E-02  0.6178247E+03  0.7818609E-02  0.9869100E-01
       -2   -1    0    0    0  501  0.00000000000E+00  0.00000000000E+00  0.66525329716E+02  0.66525329765E+02  0.25500000920E-02 0.  1.
        2   -1    0    0  501    0  0.00000000000E+00  0.00000000000E+00 -0.14344434977E+04  0.14344434977E+04  0.25500000920E-02 0. -1.
    10030    2    1    2    0    0  0.00000000000E+00  0.00000000000E+00 -0.13679181680E+04  0.15009688275E+04  0.61782465695E+03 0.  0.
        2    1    3    3  502    0 -0.19463199225E+03  0.18277099621E+03 -0.10614224984E+04  0.10944882683E+04  0.25500000920E-02 0. -1.
       -2    1    3    3    0  502  0.19463199225E+03 -0.18277099621E+03 -0.30649566963E+03  0.40648055915E+03  0.25500000920E-02 0.  1.
</event>
<event>
 5   0  0.5166903E-02  0.5701012E+03  0.7818609E-02  0.9969455E-01
       -1   -1    0    0    0  501  0.00000000000E+00  0.00000000000E+00  0.62737391261E+03  0.62737391263E+03  0.50400001928E-02 0. -1.
        1   -1    0    0  501    0  0.00000000000E+00  0.00000000000E+00 -0.12951420540E+03  0.12951420550E+03  0.50400001928E-02 0.  1.
    10030    2    1    2    0    0  0.00000000000E+00  0.00000000000E+00  0.49785970721E+03  0.75688811813E+03  0.57010116235E+03 0.  0.
        2    1    3    3  502    0 -0.26956454922E+03 -0.18828715666E+02  0.12845615708E+03  0.29919985132E+03  0.25500000920E-02 0.  1.
       -2    1    3    3    0  502  0.26956454922E+03  0.18828715666E+02  0.36940355013E+03  0.45768826682E+03  0.25500000920E-02 0. -1.
</event>
<event>
 5   0  0.8420604E-02  0.5923459E+03  0.7818609E-02  0.9921414E-01
       -2   -1    0    0    0  501  0.00000000000E+00  0.00000000000E+00  0.77658608717E+02  0.77658608759E+02  0.25500000920E-02 0.  1.
        2   -1    0    0  501    0  0.00000000000E+00  0.00000000000E+00 -0.11295388232E+04  0.11295388232E+04  0.25500000920E-02 0. -1.
    10030    2    1    2    0    0  0.00000000000E+00  0.00000000000E+00 -0.10518802145E+04  0.12071974320E+04  0.59234589061E+03 0.  0.
        2    1    3    3  502    0 -0.26520158020E+03 -0.60427440414E+02 -0.28709398169E+03  0.39548237385E+03  0.25500000920E-02 0. -1.
       -2    1    3    3    0  502  0.26520158020E+03  0.60427440414E+02 -0.76478623280E+03  0.81171505812E+03  0.25500000920E-02 0.  1.
</event>
<event>
 5   0  0.8817544E-02  0.6002845E+03  0.7818609E-02  0.9904816E-01
       -2   -1    0    0    0  501  0.00000000000E+00  0.00000000000E+00  0.27409964548E+03  0.27409964549E+03  0.25500000920E-02 0.  1.
        2   -1    0    0  501    0  0.00000000000E+00  0.00000000000E+00 -0.32865918856E+03  0.32865918857E+03  0.25500000920E-02 0. -1.
    10030    2    1    2    0    0  0.00000000000E+00  0.00000000000E+00 -0.54559543082E+02  0.60275883406E+03  0.60028448947E+03 0.  0.
        5    1    3    3  502    0 -0.61333182608E+02  0.21831412019E+03 -0.22466180617E+03  0.31924572278E+03  0.46999998093E+01 0. -1.
       -5    1    3    3    0  502  0.61333182608E+02 -0.21831412019E+03  0.17010226309E+03  0.28351311128E+03  0.46999998093E+01 0.  1.
</event>
<event>
 5   0  0.8817544E-02  0.5956998E+03  0.7818609E-02  0.9914368E-01
       -2   -1    0    0    0  501  0.00000000000E+00  0.00000000000E+00  0.78428658885E+03  0.78428658885E+03  0.25500000920E-02 0.  1.
        2   -1    0    0  501    0  0.00000000000E+00  0.00000000000E+00 -0.11311499631E+03  0.11311499634E+03  0.25500000920E-02 0. -1.
    10030    2    1    2    0    0  0.00000000000E+00  0.00000000000E+00  0.67117159254E+03  0.89740158519E+03  0.59569983925E+03 0.  0.
        5    1    3    3  502    0 -0.63910517307E+02 -0.45613689869E+02 -0.97185277403E+02  0.12502892093E+03  0.46999998093E+01 0. -1.
       -5    1    3    3    0  502  0.63910517307E+02  0.45613689869E+02  0.76835686994E+03  0.77237266427E+03  0.46999998093E+01 0.  1.
</event>
<event>
 5   0  0.8699746E-02  0.6062123E+03  0.7818609E-02  0.9892601E-01
       -2   -1    0    0    0  501  0.00000000000E+00  0.00000000000E+00  0.30759791385E+03  0.30759791386E+03  0.25500000920E-02 0. -1.
        2   -1    0    0  501    0  0.00000000000E+00  0.00000000000E+00 -0.29867996272E+03  0.29867996273E+03  0.25500000920E-02 0.  1.
    10030    2    1    2    0    0  0.00000000000E+00  0.00000000000E+00  0.89179511271E+01  0.60627787659E+03  0.60621228442E+03 0.  0.
        3    1    3    3  502    0 -0.21783671610E+03 -0.20481407199E+03  0.54180391293E+02  0.30387030781E+03  0.10100000352E+00 0. -1.
       -3    1    3    3    0  502  0.21783671610E+03  0.20481407199E+03 -0.45262440166E+02  0.30240756878E+03  0.10100000352E+00 0.  1.
</event>
<event>
 5   0  0.4881209E-02  0.6004561E+03  0.7818609E-02  0.9904460E-01
        1   -1    0    0  501    0  0.00000000000E+00  0.00000000000E+00  0.16070052059E+03  0.16070052067E+03  0.50400001928E-02 0. -1.
       -1   -1    0    0    0  501  0.00000000000E+00  0.00000000000E+00 -0.56089967264E+03  0.56089967266E+03  0.50400001928E-02 0.  1.
    10030    2    1    2    0    0  0.00000000000E+00  0.00000000000E+00 -0.40019915206E+03  0.72160019333E+03  0.60045605810E+03 0.  0.
        3    1    3    3  502    0  0.29038925280E+03  0.75288201533E+02 -0.18574740859E+03  0.35284039087E+03  0.10100000352E+00 0.  1.
       -3    1    3    3    0  502 -0.29038925280E+03 -0.75288201533E+02 -0.21445174347E+03  0.36875980246E+03  0.10100000352E+00 0. -1.
</event>
<event>
 5   0  0.3437375E-02  0.6073094E+03  0.7818609E-02  0.9890356E-01
       -3   -1    0    0    0  501  0.00000000000E+00  0.00000000000E+00  0.89326203466E+02  0.89326260566E+02  0.10100000352E+00 0. -1.
        3   -1    0    0  501    0  0.00000000000E+00  0.00000000000E+00 -0.10322408196E+04  0.10322408245E+04  0.10100000352E+00 0.  1.
    10030    2    1    2    0    0  0.00000000000E+00  0.00000000000E+00 -0.94291461609E+03  0.11215670851E+04  0.60730943765E+03 0.  0.
        3    1    3    3  502    0 -0.11399025633E+03  0.27874363801E+03 -0.39958969808E+03  0.50036359908E+03  0.10100000352E+00 0.  1.
       -3    1    3    3    0  502  0.11399025633E+03 -0.27874363801E+03 -0.54332491800E+03  0.62120348598E+03  0.10100000352E+00 0. -1.
</event>
<event>
 5   0  0.4987389E-02  0.6798447E+03  0.7818609E-02  0.9752335E-01
       -1   -1    0    0    0  501  0.00000000000E+00  0.00000000000E+00  0.84435472248E+02  0.84435472398E+02  0.50400001928E-02 0. -1.
        1   -1    0    0  501    0  0.00000000000E+00  0.00000000000E+00 -0.13684675847E+04  0.13684675848E+04  0.50400001928E-02 0.  1.
    10030    2    1    2    0    0  0.00000000000E+00  0.00000000000E+00 -0.12840321125E+04  0.14529030572E+04  0.67984470841E+03 0.  0.
        1    1    3    3  502    0 -0.28185872718E+03  0.11157322975E+03 -0.97070248685E+03  0.10169347303E+04  0.50400001928E-02 0. -1.
       -1    1    3    3    0  502  0.28185872718E+03 -0.11157322975E+03 -0.31332962565E+03  0.43596832686E+03  0.50400001928E-02 0.  1.
</event>
<event>
 5   0  0.8699746E-02  0.6100978E+03  0.7818609E-02  0.9884675E-01
        2   -1    0    0  501    0  0.00000000000E+00  0.00000000000E+00  0.12751837136E+04  0.12751837136E+04  0.25500000920E-02 0.  1.
       -2   -1    0    0    0  501  0.00000000000E+00  0.00000000000E+00 -0.72973675158E+02  0.72973675202E+02  0.25500000920E-02 0. -1.
    10030    2    1    2    0    0  0.00000000000E+00  0.00000000000E+00  0.12022100384E+04  0.13481573888E+04  0.61009783515E+03 0.  0.
        3    1    3    3  502    0  0.27731499274E+03  0.12656554133E+03  0.57567952133E+03  0.65140568230E+03  0.10100000352E+00 0.  1.
       -3    1    3    3    0  502 -0.27731499274E+03 -0.12656554133E+03  0.62653051710E+03  0.69675170650E+03  0.10100000352E+00 0. -1.
</event>
<event>
 5   0  0.3437375E-02  0.6045768E+03  0.7818609E-02  0.9895956E-01
       -4   -1    0    0    0  501  0.00000000000E+00  0.00000000000E+00  0.40577303871E+03  0.40577502615E+03  0.12699999809E+01 0.  1.
        4   -1    0    0  501    0  0.00000000000E+00  0.00000000000E+00 -0.22519118943E+03  0.22519477058E+03  0.12699999809E+01 0. -1.
    10030    2    1    2    0    0  0.00000000000E+00  0.00000000000E+00  0.18058184928E+03  0.63096979674E+03  0.60457677767E+03 0.  0.
        1    1    3    3  502    0 -0.10308296694E+03  0.13380134333E+03  0.35193299813E+03  0.39036615215E+03  0.50400001928E-02 0.  1.
       -1    1    3    3    0  502  0.10308296694E+03 -0.13380134333E+03 -0.17135114885E+03  0.24060364458E+03  0.50400001928E-02 0. -1.
</event>
<event>
 5   0  0.8575590E-02  0.6066633E+03  0.7818609E-02  0.9891678E-01
        2   -1    0    0  501    0  0.00000000000E+00  0.00000000000E+00  0.39092989191E+03  0.39092989192E+03  0.25500000920E-02 0. -1.
       -2   -1    0    0    0  501  0.00000000000E+00  0.00000000000E+00 -0.23536209603E+03  0.23536209604E+03  0.25500000920E-02 0.  1.
    10030    2    1    2    0    0  0.00000000000E+00  0.00000000000E+00  0.15556779589E+03  0.62629198796E+03  0.60666326332E+03 0.  0.
        4    1    3    3  502    0  0.10311938624E+02  0.16365818719E+03  0.34122292334E+03  0.37858292966E+03  0.12699999809E+01 0. -1.
       -4    1    3    3    0  502 -0.10311938624E+02 -0.16365818719E+03 -0.18565512746E+03  0.24770905830E+03  0.12699999809E+01 0.  1.
</event>
<event>
 5   0  0.5190380E-02  0.5635007E+03  0.7818609E-02  0.9984165E-01
       -1   -1    0    0    0  501  0.00000000000E+00  0.00000000000E+00  0.21316980785E+03  0.21316980791E+03  0.50400001928E-02 0. -1.
        1   -1    0    0  501    0  0.00000000000E+00  0.00000000000E+00 -0.37239451177E+03  0.37239451180E+03  0.50400001928E-02 0.  1.
    10030    2    1    2    0    0  0.00000000000E+00  0.00000000000E+00 -0.15922470392E+03  0.58556431971E+03  0.56350072421E+03 0.  0.
        5    1    3    3  502    0 -0.24684518103E+03 -0.13568419421E+03 -0.84073774398E+02  0.29399529502E+03  0.46999998093E+01 0.  1.
       -5    1    3    3    0  502  0.24684518103E+03  0.13568419421E+03 -0.75150929521E+02  0.29156902469E+03  0.46999998093E+01 0. -1.
</event>
<event>
 5   0  0.5125031E-02  0.5773573E+03  0.7818609E-02  0.9953529E-01
        1   -1    0    0  501    0  0.00000000000E+00  0.00000000000E+00  0.10940573448E+04  0.10940573448E+04  0.50400001928E-02 0. -1.
       -1   -1    0    0    0  501  0.00000000000E+00  0.00000000000E+00 -0.76170931741E+02  0.76170931908E+02  0.50400001928E-02 0.  1.
    10030    2    1    2    0    0  0.00000000000E+00  0.00000000000E+00  0.10178864131E+04  0.11702282767E+04  0.57735731549E+03 0.  0.
        4    1    3    3  502    0  0.13160004280E+03  0.49635989300E+02  0.10199052656E+04  0.10295584812E+04  0.12699999809E+01 0. -1.
       -4    1    3    3    0  502 -0.13160004280E+03 -0.49635989300E+02 -0.20188524800E+01  0.14066979549E+03  0.12699999809E+01 0.  1.
</event>
<event>
 5   0  0.8575590E-02  0.5968607E+03  0.7818609E-02  0.9911941E-01
       -2   -1    0    0    0  501  0.00000000000E+00  0.00000000000E+00  0.17310762384E+03  0.17310762386E+03  0.25500000920E-02 0. -1.
        2   -1    0    0  501    0  0.00000000000E+00  0.00000000000E+00 -0.51448144751E+03  0.51448144752E+03  0.25500000920E-02 0.  1.
    10030    2    1    2    0    0  0.00000000000E+00  0.00000000000E+00 -0.34137382367E+03  0.68758907138E+03  0.59686065676E+03 0.  0.
        4    1    3    3  502    0  0.18435178791E+03 -0.15931822056E+03  0.27817276770E+02  0.24524129117E+03  0.12699999809E+01 0. -1.
       -4    1    3    3    0  502 -0.18435178791E+03  0.15931822056E+03 -0.36919110044E+03  0.44234778020E+03  0.12699999809E+01 0.  1.
</event>
<event>
 5   0  0.8207443E-02  0.6068929E+03  0.7818609E-02  0.9891208E-01
        2   -1    0    0  501    0  0.00000000000E+00  0.00000000000E+00  0.44714116367E+03  0.44714116368E+03  0.25500000920E-02 0.  1.
       -2   -1    0    0    0  501  0.00000000000E+00  0.00000000000E+00 -0.20592993765E+03  0.20592993767E+03  0.25500000920E-02 0. -1.
    10030    2    1    2    0    0  0.00000000000E+00  0.00000000000E+00  0.24121122602E+03  0.65307110135E+03  0.60689291301E+03 0.  0.
        1    1    3    3  502    0 -0.22328355563E+03  0.81867682338E+02  0.32341890885E+03  0.40144445974E+03  0.50400001928E-02 0.  1.
       -1    1    3    3    0  502  0.22328355563E+03 -0.81867682338E+02 -0.82207682824E+02  0.25162664161E+03  0.50400001928E-02 0. -1.
</event>
<event>
 5   0  0.8420604E-02  0.5815750E+03  0.7818609E-02  0.9944387E-01
       -2   -1    0    0    0  501  0.00000000000E+00  0.00000000000E+00  0.85858052798E+02  0.85858052835E+02  0.25500000920E-02 0. -1.
        2   -1    0    0  501    0  0.00000000000E+00  0.00000000000E+00 -0.98485061227E+03  0.98485061228E+03  0.25500000920E-02 0.  1.
    10030    2    1    2    0    0  0.00000000000E+00  0.00000000000E+00 -0.89899255947E+03  0.10707086651E+04  0.58157495093E+03 0.  0.
        2    1    3    3  502    0 -0.55543065335E+01 -0.95129797717E+02  0.56296286695E+02  0.11067881747E+03  0.25500000920E-02 0. -1.
       -2    1    3    3    0  502  0.55543065335E+01  0.95129797717E+02 -0.95528884617E+03  0.96002984764E+03  0.25500000920E-02 0.  1.
</event>
<event>
 5   0  0.4881209E-02  0.5918350E+03  0.7818609E-02  0.9922492E-01
       -1   -1    0    0    0  501  0.00000000000E+00  0.00000000000E+00  0.90466908244E+02  0.90466908384E+02  0.50400001928E-02 0. -1.
        1   -1    0    0  501    0  0.00000000000E+00  0.00000000000E+00 -0.96794698845E+03  0.96794698846E+03  0.50400001928E-02 0.  1.
    10030    2    1    2    0    0  0.00000000000E+00  0.00000000000E+00 -0.87748008020E+03  0.10584138968E+04  0.59183501576E+03 0.  0.
        3    1    3    3  502    0 -0.25203142148E+03  0.67524966928E+02 -0.68839212637E+03  0.73618149149E+03  0.10100000352E+00 0.  1.
       -3    1    3    3    0  502  0.25203142148E+03 -0.67524966928E+02 -0.18908795383E+03  0.32223240535E+03  0.10100000352E+00 0. -1.
</event>
<event>
 5   0  0.5190380E-02  0.6782029E+03  0.7818609E-02  0.9755252E-01
        1   -1    0    0  501    0  0.00000000000E+00  0.00000000000E+00  0.86261049712E+03  0.86261049713E+03  0.50400001928E-02 0.  1.
       -1   -1    0    0    0  501  0.00000000000E+00  0.00000000000E+00 -0.13330440284E+03  0.13330440293E+03  0.50400001928E-02 0. -1.
    10030    2    1    2    0    0  0.00000000000E+00  0.00000000000E+00  0.72930609428E+03  0.99591490007E+03  0.67820285241E+03 0.  0.
        5    1    3    3  502    0  0.14548780341E+03  0.30606909444E+03  0.38091891980E+03  0.50986890959E+03  0.46999998093E+01 0. -1.
       -5    1    3    3    0  502 -0.14548780341E+03 -0.30606909444E+03  0.34838717448E+03  0.48604599047E+03  0.46999998093E+01 0.  1.
</event>
<event>
 5   0  0.5125031E-02  0.5910412E+03  0.7818609E-02  0.9924169E-01
        1   -1    0    0  501    0  0.00000000000E+00  0.00000000000E+00  0.76890536102E+03  0.76890536104E+03  0.50400001928E-02 0. -1.
       -1   -1    0    0    0  501  0.00000000000E+00  0.00000000000E+00 -0.11358021743E+03  0.11358021755E+03  0.50400001928E-02 0.  1.
    10030    2    1    2    0    0  0.00000000000E+00  0.00000000000E+00  0.65532514359E+03  0.88248557859E+03  0.59104124441E+03 0.  0.
        4    1    3    3  502    0 -0.16953334891E+03  0.15389462812E+03  0.60662009677E+03  0.64839391397E+03  0.12699999809E+01 0. -1.
       -4    1    3    3    0  502  0.16953334891E+03 -0.15389462812E+03  0.48705046816E+02  0.23409166462E+03  0.12699999809E+01 0.  1.
</event>
<event>
 5   0  0.5166903E-02  0.5070570E+03  0.7818609E-02  0.1011953E+00
        1   -1    0    0  501    0  0.00000000000E+00  0.00000000000E+00  0.19101899062E+03  0.19101899068E+03  0.50400001928E-02 0.  1.
       -1   -1    0    0    0  501  0.00000000000E+00  0.00000000000E+00 -0.33649373684E+03  0.33649373687E+03  0.50400001928E-02 0. -1.
    10030    2    1    2    0    0  0.00000000000E+00  0.00000000000E+00 -0.14547474622E+03  0.52751272756E+03  0.50705697505E+03 0.  0.
        2    1    3    3  502    0  0.15351522585E+03 -0.20109858599E+03 -0.55670430699E+02  0.25904973020E+03  0.25500000920E-02 0. -1.
       -2    1    3    3    0  502 -0.15351522585E+03  0.20109858599E+03 -0.89804315520E+02  0.26846299736E+03  0.25500000920E-02 0.  1.
</event>
<event>
 5   0  0.8420604E-02  0.6026198E+03  0.7818609E-02  0.9899986E-01
       -2   -1    0    0    0  501  0.00000000000E+00  0.00000000000E+00  0.27264283949E+03  0.27264283951E+03  0.25500000920E-02 0. -1.
        2   -1    0    0  501    0  0.00000000000E+00  0.00000000000E+00 -0.33299117889E+03  0.33299117890E+03  0.25500000920E-02 0.  1.
    10030    2    1    2    0    0  0.00000000000E+00  0.00000000000E+00 -0.60348339392E+02  0.60563401840E+03  0.60261981562E+03 0.  0.
        2    1    3    3  502    0  0.11524641752E+03  0.11427107554E+02 -0.30972974141E+03  0.33067329535E+03  0.25500000920E-02 0.  1.
       -2    1    3    3    0  502 -0.11524641752E+03 -0.11427107554E+02  0.24938140202E+03  0.27496072305E+03  0.25500000920E-02 0. -1.
</event>
<event>
 5   0  0.8817544E-02  0.5928907E+03  0.7818609E-02  0.9920266E-01
        2   -1    0    0  501    0  0.00000000000E+00  0.00000000000E+00  0.16370678779E+04  0.16370678779E+04  0.25500000920E-02 0.  1.
       -2   -1    0    0    0  501  0.00000000000E+00  0.00000000000E+00 -0.53681238597E+02  0.53681238658E+02  0.25500000920E-02 0. -1.
    10030    2    1    2    0    0  0.00000000000E+00  0.00000000000E+00  0.15833866393E+04  0.16907491165E+04  0.59289065233E+03 0.  0.
        5    1    3    3  502    0 -0.14812654983E+03 -0.25288902879E+03  0.91805331370E+03  0.96371069955E+03  0.46999998093E+01 0.  1.
       -5    1    3    3    0  502  0.14812654983E+03  0.25288902879E+03  0.66533332559E+03  0.72703841700E+03  0.46999998093E+01 0. -1.
</event>
<event>
 5   0  0.4987389E-02  0.5740869E+03  0.7818609E-02  0.9960676E-01
        1   -1    0    0  501    0  0.00000000000E+00  0.00000000000E+00  0.13354436631E+04  0.13354436631E+04  0.50400001928E-02 0.  1.
       -1   -1    0    0    0  501  0.00000000000E+00  0.00000000000E+00 -0.61697796751E+02  0.61697796957E+02  0.50400001928E-02 0. -1.
    10030    2    1    2    0    0  0.00000000000E+00  0.00000000000E+00  0.12737458663E+04  0.13971414601E+04  0.57408686398E+03 0.  0.
        1    1    3    3  502    0 -0.17804280606E+03 -0.15075415420E+02  0.11835971799E+04  0.11970082678E+04  0.50400001928E-02 0.  1.
       -1    1    3    3    0  502  0.17804280606E+03  0.15075415420E+02  0.90148686427E+02  0.20013319222E+03  0.50400001928E-02 0. -1.
</event>
<event>
 5   0  0.8207443E-02  0.6036245E+03  0.7818609E-02  0.9897915E-01
       -2   -1    0    0    0  501  0.00000000000E+00  0.00000000000E+00  0.88609257226E+02  0.88609257263E+02  0.25500000920E-02 0.  1.
        2   -1    0    0  501    0  0.00000000000E+00  0.00000000000E+00 -0.10280034368E+04  0.10280034368E+04  0.25500000920E-02 0. -1.
    10030    2    1    2    0    0  0.00000000000E+00  0.00000000000E+00 -0.93939417957E+03  0.11166126941E+04  0.60362445604E+03 0.  0.
        1    1    3    3  502    0  0.57962258228E+02  0.12929856791E+03  0.23254521459E+02  0.14359148943E+03  0.50400001928E-02 0.  1.
       -1    1    3    3    0  502 -0.57962258228E+02 -0.12929856791E+03 -0.96264870103E+03  0.97302120463E+03  0.50400001928E-02 0. -1.
</event>
<event>
 5   0  0.5125031E-02  0.5988102E+03  0.7818609E-02  0.9907878E-01
        1   -1    0    0  501    0  0.00000000000E+00  0.00000000000E+00  0.14328904294E+04  0.14328904294E+04  0.50400001928E-02 0.  1.
       -1   -1    0    0    0  501  0.00000000000E+00  0.00000000000E+00 -0.62561244877E+02  0.62561245080E+02  0.50400001928E-02 0. -1.
    10030    2    1    2    0    0  0.00000000000E+00  0.00000000000E+00  0.13703291845E+04  0.14954516745E+04  0.59881018426E+03 0.  0.
        4    1    3    3  502    0  0.17350218875E+03  0.22992705792E+03  0.48116837173E+03  0.56079771426E+03  0.12699999809E+01 0. -1.
       -4    1    3    3    0  502 -0.17350218875E+03 -0.22992705792E+03  0.88916081276E+03  0.93465396019E+03  0.12699999809E+01 0.  1.
</event>
<event>
 5   0  0.8817544E-02  0.6031575E+03  0.7818609E-02  0.9898877E-01
        2   -1    0    0  501    0  0.00000000000E+00  0.00000000000E+00  0.11934397045E+04  0.11934397045E+04  0.25500000920E-02 0.  1.
       -2   -1    0    0    0  501  0.00000000000E+00  0.00000000000E+00 -0.76208080137E+02  0.76208080180E+02  0.25500000920E-02 0. -1.
    10030    2    1    2    0    0  0.00000000000E+00  0.00000000000E+00  0.11172316243E+04  0.12696477847E+04  0.60315752061E+03 0.  0.
        5    1    3    3  502    0 -0.20592858576E+03  0.11556103699E+03  0.16386915403E+03  0.28746499847E+03  0.46999998093E+01 0. -1.
       -5    1    3    3    0  502  0.20592858576E+03 -0.11556103699E+03  0.95336247030E+03  0.98218278618E+03  0.46999998093E+01 0.  1.
</event>
<event>
 5   0  0.8575590E-02  0.4938722E+03  0.7818609E-02  0.1015391E+00
        2   -1    0    0  501    0  0.00000000000E+00  0.00000000000E+00  0.93578714123E+03  0.93578714123E+03  0.25500000920E-02 0.  1.
       -2   -1    0    0    0  501  0.00000000000E+00  0.00000000000E+00 -0.65161650045E+02  0.65161650095E+02  0.25500000920E-02 0. -1.
    10030    2    1    2    0    0  0.00000000000E+00  0.00000000000E+00  0.87062549118E+03  0.10009487913E+04  0.49387218687E+03 0.  0.
        4    1    3    3  502    0 -0.19407063241E+03  0.71312777512E+01  0.12620017256E+03  0.23160820784E+03  0.12699999809E+01 0. -1.
       -4    1    3    3    0  502  0.19407063241E+03 -0.71312777512E+01  0.74442531863E+03  0.76934058348E+03  0.12699999809E+01 0.  1.
</event>
<event>
 5   0  0.8817544E-02  0.5610639E+03  0.7818609E-02  0.9989650E-01
       -2   -1    0    0    0  501  0.00000000000E+00  0.00000000000E+00  0.90186693331E+02  0.90186693368E+02  0.25500000920E-02 0.  1.
        2   -1    0    0  501    0  0.00000000000E+00  0.00000000000E+00 -0.87261392954E+03  0.87261392954E+03  0.25500000920E-02 0. -1.
    10030    2    1    2    0    0  0.00000000000E+00  0.00000000000E+00 -0.78242723620E+03  0.96280062291E+03  0.56106386403E+03 0.  0.
        5    1    3    3  502    0 -0.15932524222E+03  0.19316178357E+03 -0.17428673902E+03  0.30511303616E+03  0.46999998093E+01 0.  1.
       -5    1    3    3    0  502  0.15932524222E+03 -0.19316178357E+03 -0.60814049718E+03  0.65768758674E+03  0.46999998093E+01 0. -1.
</event>
<event>
 5   0  0.8817544E-02  0.5980263E+03  0.7818609E-02  0.9909509E-01
        2   -1    0    0  501    0  0.00000000000E+00  0.00000000000E+00  0.11070584998E+04  0.11070584998E+04  0.25500000920E-02 0. -1.
       -2   -1    0    0    0  501  0.00000000000E+00  0.00000000000E+00 -0.80762548529E+02  0.80762548570E+02  0.25500000920E-02 0.  1.
    10030    2    1    2    0    0  0.00000000000E+00  0.00000000000E+00  0.10262959513E+04  0.11878210484E+04  0.59802630658E+03 0.  0.
        5    1    3    3  502    0 -0.27997285948E+03 -0.10422576879E+03  0.53656222260E+03  0.61414079953E+03  0.46999998093E+01 0. -1.
       -5    1    3    3    0  502  0.27997285948E+03  0.10422576879E+03  0.48973372868E+03  0.57368024886E+03  0.46999998093E+01 0.  1.
</event>
<event>
 5   0  0.3437375E-02  0.6061907E+03  0.7818609E-02  0.9892645E-01
        4   -1    0    0  501    0  0.00000000000E+00  0.00000000000E+00  0.43214765631E+03  0.43214952245E+03  0.12699999809E+01 0. -1.
       -4   -1    0    0    0  501  0.00000000000E+00  0.00000000000E+00 -0.21257772189E+03  0.21258151553E+03  0.12699999809E+01 0.  1.
    10030    2    1    2    0    0  0.00000000000E+00  0.00000000000E+00  0.21956993442E+03  0.64473103798E+03  0.60619069214E+03 0.  0.
        4    1    3    3  502    0  0.29677776912E+03  0.52981099181E+02  0.76470440125E+02  0.31101990648E+03  0.12699999809E+01 0.  1.
       -4    1    3    3    0  502 -0.29677776912E+03 -0.52981099181E+02  0.14309949430E+03  0.33371113150E+03  0.12699999809E+01 0. -1.
</event>
<event>
 5   0  0.8207443E-02  0.6009592E+03  0.7818609E-02  0.9903418E-01
       -2   -1    0    0    0  501  0.00000000000E+00  0.00000000000E+00  0.13605322176E+03  0.13605322178E+03  0.25500000920E-02 0.  1.
        2   -1    0    0  501    0  0.00000000000E+00  0.00000000000E+00 -0.66362263839E+03  0.66362263840E+03  0.25500000920E-02 0. -1.
    10030    2    1    2    0    0  0.00000000000E+00  0.00000000000E+00 -0.52756941664E+03  0.79967586018E+03  0.60095922656E+03 0.  0.
        1    1    3    3  502    0  0.12307737065E+03 -0.25272375339E+03 -0.40505268220E+03  0.49303652002E+03  0.50400001928E-02 0.  1.
       -1    1    3    3    0  502 -0.12307737065E+03  0.25272375339E+03 -0.12251673444E+03  0.30663934016E+03  0.50400001928E-02 0. -1.
</event>
<event>
 5   0  0.5166903E-02  0.5984964E+03  0.7818609E-02  0.9908530E-01
       -1   -1    0    0    0  501  0.00000000000E+00  0.00000000000E+00  0.65229364219E+03  0.65229364221E+03  0.50400001928E-02 0.  1.
        1   -1    0    0  501    0  0.00000000000E+00  0.00000000000E+00 -0.13728400140E+03  0.13728400149E+03  0.50400001928E-02 0. -1.
    10030    2    1    2    0    0  0.00000000000E+00  0.00000000000E+00  0.51500964079E+03  0.78957764371E+03  0.59849638707E+03 0.  0.
        2    1    3    3  502    0 -0.22348003047E+03 -0.19552620476E+03  0.30643636819E+03  0.42670489629E+03  0.25500000920E-02 0.  1.
       -2    1    3    3    0  502  0.22348003047E+03  0.19552620476E+03  0.20857327261E+03  0.36287274742E+03  0.25500000920E-02 0. -1.
</event>
<event>
 5   0  0.8575590E-02  0.6025489E+03  0.7818609E-02  0.9900132E-01
       -2   -1    0    0    0  501  0.00000000000E+00  0.00000000000E+00  0.32492191965E+03  0.32492191966E+03  0.25500000920E-02 0.  1.
        2   -1    0    0  501    0  0.00000000000E+00  0.00000000000E+00 -0.27934800605E+03  0.27934800606E+03  0.25500000920E-02 0. -1.
    10030    2    1    2    0    0  0.00000000000E+00  0.00000000000E+00  0.45573913599E+02  0.60426992572E+03  0.60254888725E+03 0.  0.
        4    1    3    3  502    0  0.24822209918E+03 -0.71769860918E+02 -0.13257342401E+03  0.29041771487E+03  0.12699999809E+01 0. -1.
       -4    1    3    3    0  502 -0.24822209918E+03  0.71769860918E+02  0.17814733761E+03  0.31385221085E+03  0.12699999809E+01 0.  1.
</event>
<event>
 5   0  0.4881209E-02  0.5762785E+03  0.7818609E-02  0.9955881E-01
        1   -1    0    0  501    0  0.00000000000E+00  0.00000000000E+00  0.14295834336E+03  0.14295834345E+03  0.50400001928E-02 0.  1.
       -1   -1    0    0    0  501  0.00000000000E+00  0.00000000000E+00 -0.58075809573E+03  0.58075809576E+03  0.50400001928E-02 0. -1.
    10030    2    1    2    0    0  0.00000000000E+00  0.00000000000E+00 -0.43779975237E+03  0.72371643920E+03  0.57627845804E+03 0.  0.
        3    1    3    3  502    0 -0.23836825065E+02 -0.25008558493E+03 -0.39611741505E+03  0.46906290700E+03  0.10100000352E+00 0. -1.
       -3    1    3    3    0  502  0.23836825065E+02  0.25008558493E+03 -0.41682337323E+02  0.25465353220E+03  0.10100000352E+00 0.  1.
</event>
<event>
 5   0  0.8699746E-02  0.5943085E+03  0.7818609E-02  0.9917285E-01
        2   -1    0    0  501    0  0.00000000000E+00  0.00000000000E+00  0.26093880890E+03  0.26093880891E+03  0.25500000920E-02 0. -1.
       -2   -1    0    0    0  501  0.00000000000E+00  0.00000000000E+00 -0.33839596274E+03  0.33839596275E+03  0.25500000920E-02 0.  1.
    10030    2    1    2    0    0  0.00000000000E+00  0.00000000000E+00 -0.77457153839E+02  0.59933477166E+03  0.59430847027E+03 0.  0.
        3    1    3    3  502    0  0.27682750641E+03  0.37014639682E+02 -0.14106130300E+03  0.31289271845E+03  0.10100000352E+00 0. -1.
       -3    1    3    3    0  502 -0.27682750641E+03 -0.37014639682E+02  0.63604149161E+02  0.28644205321E+03  0.10100000352E+00 0.  1.
</event>
<event>
 5   0  0.5125031E-02  0.5764199E+03  0.7818609E-02  0.9955572E-01
        1   -1    0    0  501    0  0.00000000000E+00  0.00000000000E+00  0.50025758297E+03  0.50025758299E+03  0.50400001928E-02 0. -1.
       -1   -1    0    0    0  501  0.00000000000E+00  0.00000000000E+00 -0.16604439598E+03  0.16604439606E+03  0.50400001928E-02 0.  1.
    10030    2    1    2    0    0  0.00000000000E+00  0.00000000000E+00  0.33421318699E+03  0.66630197905E+03  0.57641987555E+03 0.  0.
        4    1    3    3  502    0 -0.27051581010E+03 -0.94775006026E+02  0.13238532252E+03  0.31573500249E+03  0.12699999809E+01 0.  1.
       -4    1    3    3    0  502  0.27051581010E+03  0.94775006026E+02  0.20182786447E+03  0.35056697656E+03  0.12699999809E+01 0. -1.
</event>
<event>
 5   0  0.8207443E-02  0.6069058E+03  0.7818609E-02  0.9891181E-01
       -2   -1    0    0    0  501  0.00000000000E+00  0.00000000000E+00  0.38170422726E+03  0.38170422727E+03  0.25500000920E-02 0.  1.
        2   -1    0    0  501    0  0.00000000000E+00  0.00000000000E+00 -0.24124349388E+03  0.24124349390E+03  0.25500000920E-02 0. -1.
    10030    2    1    2    0    0  0.00000000000E+00  0.00000000000E+00  0.14046073338E+03  0.62294772117E+03  0.60690579639E+03 0.  0.
        1    1    3    3  502    0  0.27940215765E+03 -0.16364634049E+02 -0.50130779611E+02  0.28433512276E+03  0.50400001928E-02 0. -1.
       -1    1    3    3    0  502 -0.27940215765E+03  0.16364634049E+02  0.19059151299E+03  0.33861259840E+03  0.50400001928E-02 0.  1.
</event>
<event>
 5   0  0.4881209E-02  0.5846274E+03  0.7818609E-02  0.9937823E-01
        1   -1    0    0  501    0  0.00000000000E+00  0.00000000000E+00  0.76768079706E+03  0.76768079708E+03  0.50400001928E-02 0. -1.
       -1   -1    0    0    0  501  0.00000000000E+00  0.00000000000E+00 -0.11130576341E+03  0.11130576352E+03  0.50400001928E-02 0.  1.
    10030    2    1    2    0    0  0.00000000000E+00  0.00000000000E+00  0.65637503365E+03  0.87898656060E+03  0.58462739323E+03 0.  0.
        3    1    3    3  502    0 -0.39865977326E+02  0.47190717307E+02 -0.10137927919E+03  0.11871827323E+03  0.10100000352E+00 0.  1.
       -3    1    3    3    0  502  0.39865977326E+02 -0.47190717307E+02  0.75775431285E+03  0.76026828737E+03  0.10100000352E+00 0. -1.
</event>
<event>
 5   0  0.5125031E-02  0.5974267E+03  0.7818609E-02  0.9910759E-01
        1   -1    0    0  501    0  0.00000000000E+00  0.00000000000E+00  0.47494413487E+03  0.47494413490E+03  0.50400001928E-02 0. -1.
       -1   -1    0    0    0  501  0.00000000000E+00  0.00000000000E+00 -0.18787401952E+03  0.18787401959E+03  0.50400001928E-02 0.  1.
    10030    2    1    2    0    0  0.00000000000E+00  0.00000000000E+00  0.28707011535E+03  0.66281815449E+03  0.59742669407E+03 0.  0.
        4    1    3    3  502    0  0.16069550981E+02 -0.21424122481E+03  0.37378515292E+03  0.43113163456E+03  0.12699999809E+01 0. -1.
       -4    1    3    3    0  502 -0.16069550981E+02  0.21424122481E+03 -0.86715037572E+02  0.23168651993E+03  0.12699999809E+01 0.  1.
</event>
<event>
 5   0  0.8699746E-02  0.5738464E+03  0.7818609E-02  0.9961203E-01
       -2   -1    0    0    0  501  0.00000000000E+00  0.00000000000E+00  0.13094926845E+03  0.13094926848E+03  0.25500000920E-02 0. -1.
        2   -1    0    0  501    0  0.00000000000E+00  0.00000000000E+00 -0.62867804381E+03  0.62867804381E+03  0.25500000920E-02 0.  1.
    10030    2    1    2    0    0  0.00000000000E+00  0.00000000000E+00 -0.49772877535E+03  0.75962731229E+03  0.57384642524E+03 0.  0.
        3    1    3    3  502    0 -0.20170407179E+03 -0.10967422954E+03 -0.21072424010E+02  0.23055807610E+03  0.10100000352E+00 0.  1.
       -3    1    3    3    0  502  0.20170407179E+03  0.10967422954E+03 -0.47665635134E+03  0.52906923619E+03  0.10100000352E+00 0. -1.
</event>
<event>
 5   0  0.5190380E-02  0.5895495E+03  0.7818609E-02  0.9927328E-01
        1   -1    0    0  501    0  0.00000000000E+00  0.00000000000E+00  0.18667184241E+04  0.18667184242E+04  0.50400001928E-02 0. -1.
       -1   -1    0    0    0  501  0.00000000000E+00  0.00000000000E+00 -0.46548082650E+02  0.46548082923E+02  0.50400001928E-02 0.  1.
    10030    2    1    2    0    0  0.00000000000E+00  0.00000000000E+00  0.18201703415E+04  0.19132665071E+04  0.58954953570E+03 0.  0.
        5    1    3    3  502    0 -0.83909830886E+02  0.55012443763E+02  0.18094664045E+04  0.18122521865E+04  0.46999998093E+01 0. -1.
       -5    1    3    3    0  502  0.83909830886E+02 -0.55012443763E+02  0.10703937022E+02  0.10101432054E+03  0.46999998093E+01 0.  1.
</event>
<event>
 5   0  0.4881209E-02  0.6009173E+03  0.7818609E-02  0.9903505E-01
        1   -1    0    0  501    0  0.00000000000E+00  0.00000000000E+00  0.87329132536E+03  0.87329132537E+03  0.50400001928E-02 0.  1.
       -1   -1    0    0    0  501  0.00000000000E+00  0.00000000000E+00 -0.10337375885E+03  0.10337375897E+03  0.50400001928E-02 0. -1.
    10030    2    1    2    0    0  0.00000000000E+00  0.00000000000E+00  0.76991756651E+03  0.97666508434E+03  0.60091732189E+03 0.  0.
        3    1    3    3  502    0 -0.20543628648E+03 -0.44181073358E+02  0.73399667993E+03  0.76348357637E+03  0.10100000352E+00 0.  1.
       -3    1    3    3    0  502  0.20543628648E+03  0.44181073358E+02  0.35920886585E+02  0.21318150797E+03  0.10100000352E+00 0. -1.
</event>
<event>
 5   0  0.5166903E-02  0.6023159E+03  0.7818609E-02  0.9900613E-01
        1   -1    0    0  501    0  0.00000000000E+00  0.00000000000E+00  0.52388160845E+03  0.52388160847E+03  0.50400001928E-02 0.  1.
       -1   -1    0    0    0  501  0.00000000000E+00  0.00000000000E+00 -0.17312328641E+03  0.17312328649E+03  0.50400001928E-02 0. -1.
    10030    2    1    2    0    0  0.00000000000E+00  0.00000000000E+00  0.35075832204E+03  0.69700489496E+03  0.60231588317E+03 0.  0.
        2    1    3    3  502    0 -0.19238153303E+02  0.62600691748E+02 -0.16478328001E+03  0.17732028234E+03  0.25500000920E-02 0. -1.
       -2    1    3    3    0  502  0.19238153303E+02 -0.62600691748E+02  0.51554160205E+03  0.51968461262E+03  0.25500000920E-02 0.  1.
</event>
<event>
 5   0  0.8420604E-02  0.5963635E+03  0.7818609E-02  0.9912980E-01
        2   -1    0    0  501    0  0.00000000000E+00  0.00000000000E+00  0.42012672006E+03  0.42012672006E+03  0.25500000920E-02 0. -1.
       -2   -1    0    0    0  501  0.00000000000E+00  0.00000000000E+00 -0.21163220525E+03  0.21163220527E+03  0.25500000920E-02 0.  1.
    10030    2    1    2    0    0  0.00000000000E+00  0.00000000000E+00  0.20849451480E+03  0.63175892533E+03  0.59636346051E+03 0.  0.
        2    1    3    3  502    0 -0.37905538512E+02 -0.61214380640E+02  0.41077976159E+03  0.41704201561E+03  0.25500000920E-02 0. -1.
       -2    1    3    3    0  502  0.37905538512E+02  0.61214380640E+02 -0.20228524679E+03  0.21471690972E+03  0.25500000920E-02 0.  1.
</event>
<event>
 5   0  0.5166903E-02  0.5957360E+03  0.7818609E-02  0.9914292E-01
        1   -1    0    0  501    0  0.00000000000E+00  0.00000000000E+00  0.79881979195E+02  0.79881979354E+02  0.50400001928E-02 0. -1.
       -1   -1    0    0    0  501  0.00000000000E+00  0.00000000000E+00 -0.11107052801E+04  0.11107052801E+04  0.50400001928E-02 0.  1.
    10030    2    1    2    0    0  0.00000000000E+00  0.00000000000E+00 -0.10308233009E+04  0.11905872595E+04  0.59573596897E+03 0.  0.
        2    1    3    3  502    0 -0.77063199514E+02  0.82748251030E+02 -0.10661442427E+04  0.10721238529E+04  0.25500000920E-02 0.  1.
       -2    1    3    3    0  502  0.77063199514E+02 -0.82748251030E+02  0.35320941745E+02  0.11846340659E+03  0.25500000920E-02 0. -1.
</event>
<event>
 5   0  0.5166903E-02  0.5998696E+03  0.7818609E-02  0.9905677E-01
        1   -1    0    0  501    0  0.00000000000E+00  0.00000000000E+00  0.35182580050E+03  0.35182580054E+03  0.50400001928E-02 0.  1.
       -1   -1    0    0    0  501  0.00000000000E+00  0.00000000000E+00 -0.25569726676E+03  0.25569726681E+03  0.50400001928E-02 0. -1.
    10030    2    1    2    0    0  0.00000000000E+00  0.00000000000E+00  0.96128533740E+02  0.60752306735E+03  0.59986963781E+03 0.  0.
        2    1    3    3  502    0  0.17024400955E+03  0.19834282238E+03  0.19703962081E+03  0.32733394287E+03  0.25500000920E-02 0.  1.
       -2    1    3    3    0  502 -0.17024400955E+03 -0.19834282238E+03 -0.10091108707E+03  0.28018912448E+03  0.25500000920E-02 0. -1.
</event>
<event>
 5   0  0.4881209E-02  0.6018584E+03  0.7818609E-02  0.9901558E-01
       -1   -1    0    0    0  501  0.00000000000E+00  0.00000000000E+00  0.12963925499E+03  0.12963925509E+03  0.50400001928E-02 0.  1.
        1   -1    0    0  501    0  0.00000000000E+00  0.00000000000E+00 -0.69854147713E+03  0.69854147714E+03  0.50400001928E-02 0. -1.
    10030    2    1    2    0    0  0.00000000000E+00  0.00000000000E+00 -0.56890222213E+03  0.82818073224E+03  0.60185844424E+03 0.  0.
        3    1    3    3  502    0 -0.17792535852E+02  0.27452544003E+03 -0.45229175219E+03  0.52938514416E+03  0.10100000352E+00 0. -1.
       -3    1    3    3    0  502  0.17792535852E+02 -0.27452544003E+03 -0.11661046995E+03  0.29879558808E+03  0.10100000352E+00 0.  1.
</event>
<event>
 5   0  0.8207443E-02  0.6151414E+03  0.7818609E-02  0.9874481E-01
        2   -1    0    0  501    0  0.00000000000E+00  0.00000000000E+00  0.20572577565E+03  0.20572577566E+03  0.25500000920E-02 0. -1.
       -2   -1    0    0    0  501  0.00000000000E+00  0.00000000000E+00 -0.45983419706E+03  0.45983419707E+03  0.25500000920E-02 0.  1.
    10030    2    1    2    0    0  0.00000000000E+00  0.00000000000E+00 -0.25410842141E+03  0.66555997273E+03  0.61514143696E+03 0.  0.
        1    1    3    3  502    0 -0.21783345266E+03  0.21711308000E+03 -0.13051720719E+03  0.33410214606E+03  0.50400001928E-02 0.  1.
       -1    1    3    3    0  502  0.21783345266E+03 -0.21711308000E+03 -0.12359121422E+03  0.33145782667E+03  0.50400001928E-02 0. -1.
</event>
<event>
 5   0  0.3437375E-02  0.6007238E+03  0.7818609E-02  0.9903906E-01
        3   -1    0    0  501    0  0.00000000000E+00  0.00000000000E+00  0.17083415350E+03  0.17083418335E+03  0.10100000352E+00 0.  1.
       -3   -1    0    0    0  501  0.00000000000E+00  0.00000000000E+00 -0.52809850036E+03  0.52809851002E+03  0.10100000352E+00 0. -1.
    10030    2    1    2    0    0  0.00000000000E+00  0.00000000000E+00 -0.35726434686E+03  0.69893269337E+03  0.60072381035E+03 0.  0.
        2    1    3    3  502    0  0.11750770309E+03 -0.13483994085E+03  0.10212070920E+03  0.20595754220E+03  0.25500000920E-02 0.  1.
       -2    1    3    3    0  502 -0.11750770309E+03  0.13483994085E+03 -0.45938505606E+03  0.49297515117E+03  0.25500000920E-02 0. -1.
</event>
<event>
 5   0  0.8575590E-02  0.6018286E+03  0.7818609E-02  0.9901620E-01
       -2   -1    0    0    0  501  0.00000000000E+00  0.00000000000E+00  0.96418994309E+02  0.96418994343E+02  0.25500000920E-02 0.  1.
        2   -1    0    0  501    0  0.00000000000E+00  0.00000000000E+00 -0.93912420702E+03  0.93912420703E+03  0.25500000920E-02 0. -1.
    10030    2    1    2    0    0  0.00000000000E+00  0.00000000000E+00 -0.84270521271E+03  0.10355432014E+04  0.60182858553E+03 0.  0.
        4    1    3    3  502    0  0.11555321300E+02  0.26741974362E+03 -0.18479480668E+03  0.32526539657E+03  0.12699999809E+01 0.  1.
       -4    1    3    3    0  502 -0.11555321300E+02 -0.26741974362E+03 -0.65791040603E+03  0.71027780480E+03  0.12699999809E+01 0. -1.
</event>
<event>
 5   0  0.4987389E-02  0.5965189E+03  0.7818609E-02  0.9912655E-01
       -1   -1    0    0    0  501  0.00000000000E+00  0.00000000000E+00  0.33210156694E+03  0.33210156697E+03  0.50400001928E-02 0.  1.
        1   -1    0    0  501    0  0.00000000000E+00  0.00000000000E+00 -0.26786597111E+03  0.26786597116E+03  0.50400001928E-02 0. -1.
    10030    2    1    2    0    0  0.00000000000E+00  0.00000000000E+00  0.64235595821E+02  0.59996753814E+03  0.59651893101E+03 0.  0.
        1    1    3    3  502    0  0.21668931055E+03  0.20250417995E+03  0.63867820111E+02  0.30338308897E+03  0.50400001928E-02 0. -1.
       -1    1    3    3    0  502 -0.21668931055E+03 -0.20250417995E+03  0.36777571060E+00  0.29658444917E+03  0.50400001928E-02 0.  1.
</event>
<event>
 5   0  0.8207443E-02  0.5853128E+03  0.7818609E-02  0.9936355E-01
        2   -1    0    0  501    0  0.00000000000E+00  0.00000000000E+00  0.10370526250E+04  0.10370526251E+04  0.25500000920E-02 0.  1.
       -2   -1    0    0    0  501  0.00000000000E+00  0.00000000000E+00 -0.82587665269E+02  0.82587665308E+02  0.25500000920E-02 0. -1.
    10030    2    1    2    0    0  0.00000000000E+00  0.00000000000E+00  0.95446495978E+03  0.11196402904E+04  0.58531275430E+03 0.  0.
        1    1    3    3  502    0  0.13523634711E+03 -0.21288658299E+03  0.19325854791E+03  0.31773956814E+03  0.50400001928E-02 0. -1.
       -1    1    3    3    0  502 -0.13523634711E+03  0.21288658299E+03  0.76120641187E+03  0.80190072222E+03  0.50400001928E-02 0.  1.
</event>
<event>
 5   0  0.3437375E-02  0.6122466E+03  0.7818609E-02  0.9880319E-01
        3   -1    0    0  501    0  0.00000000000E+00  0.00000000000E+00  0.23878458089E+03  0.23878460225E+03  0.10100000352E+00 0. -1.
       -3   -1    0    0    0  501  0.00000000000E+00  0.00000000000E+00 -0.39245188491E+03  0.39245189791E+03  0.10100000352E+00 0.  1.
    10030    2    1    2    0    0  0.00000000000E+00  0.00000000000E+00 -0.15366730402E+03  0.63123650016E+03  0.61224658333E+03 0.  0.
        1    1    3    3  502    0 -0.26814277569E+03 -0.14761121398E+03 -0.81653148796E+02  0.31679150143E+03  0.50400001928E-02 0.  1.
       -1    1    3    3    0  502  0.26814277569E+03  0.14761121398E+03 -0.72014155223E+02  0.31444499872E+03  0.50400001928E-02 0. -1.
</event>
<event>
 5   0  0.8575590E-02  0.5735042E+03  0.7818609E-02  0.9961954E-01
        2   -1    0    0  501    0  0.00000000000E+00  0.00000000000E+00  0.43429314737E+03  0.43429314738E+03  0.25500000920E-02 0. -1.
       -2   -1    0    0    0  501  0.00000000000E+00  0.00000000000E+00 -0.18933472529E+03  0.18933472530E+03  0.25500000920E-02 0.  1.
    10030    2    1    2    0    0  0.00000000000E+00  0.00000000000E+00  0.24495842209E+03  0.62362787268E+03  0.57350422408E+03 0.  0.
        4    1    3    3  502    0 -0.87425971805E+02 -0.15965500795E+03 -0.11845300378E+03  0.21717676928E+03  0.12699999809E+01 0.  1.
       -4    1    3    3    0  502  0.87425971805E+02  0.15965500795E+03  0.36341142586E+03  0.40645110340E+03  0.12699999809E+01 0. -1.
</event>
<event>
 5   0  0.8817544E-02  0.5702860E+03  0.7818609E-02  0.9969046E-01
       -2   -1    0    0    0  501  0.00000000000E+00  0.00000000000E+00  0.45451361835E+02  0.45451361907E+02  0.25500000920E-02 0.  1.
        2   -1    0    0  501    0  0.00000000000E+00  0.00000000000E+00 -0.17888687522E+04  0.17888687522E+04  0.25500000920E-02 0. -1.
    10030    2    1    2    0    0  0.00000000000E+00  0.00000000000E+00 -0.17434173904E+04  0.18343201141E+04  0.57028596686E+03 0.  0.
        5    1    3    3  502    0 -0.15548089482E+03  0.91819706605E+02 -0.15813754232E+04  0.15916580934E+04  0.46999998093E+01 0. -1.
       -5    1    3    3    0  502  0.15548089482E+03 -0.91819706605E+02 -0.16204196716E+03  0.24266202071E+03  0.46999998093E+01 0.  1.
</event>
<event>
 5   0  0.8207443E-02  0.5950501E+03  0.7818609E-02  0.9915729E-01
        2   -1    0    0  501    0  0.00000000000E+00  0.00000000000E+00  0.93318266269E+03  0.93318266269E+03  0.25500000920E-02 0.  1.
       -2   -1    0    0    0  501  0.00000000000E+00  0.00000000000E+00 -0.94859397932E+02  0.94859397967E+02  0.25500000920E-02 0. -1.
    10030    2    1    2    0    0  0.00000000000E+00  0.00000000000E+00  0.83832326476E+03  0.10280420607E+04  0.59505006701E+03 0.  0.
        1    1    3    3  502    0  0.43470641763E+02  0.26441192684E+03  0.64254287428E+03  0.69617864738E+03  0.50400001928E-02 0.  1.
       -1    1    3    3    0  502 -0.43470641763E+02 -0.26441192684E+03  0.19578039048E+03  0.33186341328E+03  0.50400001928E-02 0. -1.
</event>
<event>
 5   0  0.8817544E-02  0.6104166E+03  0.7818609E-02  0.9884027E-01
        2   -1    0    0  501    0  0.00000000000E+00  0.00000000000E+00  0.15249297390E+03  0.15249297393E+03  0.25500000920E-02 0.  1.
       -2   -1    0    0    0  501  0.00000000000E+00  0.00000000000E+00 -0.61086166293E+03  0.61086166293E+03  0.25500000920E-02 0. -1.
    10030    2    1    2    0    0  0.00000000000E+00  0.00000000000E+00 -0.45836868902E+03  0.76335463686E+03  0.61041661719E+03 0.  0.
        5    1    3    3  502    0  0.22510587582E+02  0.14866803065E+03  0.10290854374E+03  0.18226675030E+03  0.46999998093E+01 0.  1.
       -5    1    3    3    0  502 -0.22510587582E+02 -0.14866803065E+03 -0.56127723277E+03  0.58108788656E+03  0.46999998093E+01 0. -1.
</event>
<event>
 5   0  0.8207443E-02  0.5905448E+03  0.7818609E-02  0.9925219E-01
       -2   -1    0    0    0  501  0.00000000000E+00  0.00000000000E+00  0.43627079489E+03  0.43627079490E+03  0.25500000920E-02 0. -1.
        2   -1    0    0  501    0  0.00000000000E+00  0.00000000000E+00 -0.19984331595E+03  0.19984331597E+03  0.25500000920E-02 0.  1.
    10030    2    1    2    0    0  0.00000000000E+00  0.00000000000E+00  0.23642747894E+03  0.63611411087E+03  0.59054484102E+03 0.  0.
        1    1    3    3  502    0  0.23581134734E+03  0.92546352811E+02 -0.45196041122E+02  0.25732178514E+03  0.50400001928E-02 0.  1.
       -1    1    3    3    0  502 -0.23581134734E+03 -0.92546352811E+02  0.28162352006E+03  0.37879232572E+03  0.50400001928E-02 0. -1.
</event>
<event>
 5   0  0.5125031E-02  0.6006901E+03  0.7818609E-02  0.9903975E-01
        1   -1    0    0  501    0  0.00000000000E+00  0.00000000000E+00  0.50266957091E+03  0.50266957094E+03  0.50400001928E-02 0.  1.
       -1   -1    0    0    0  501  0.00000000000E+00  0.00000000000E+00 -0.17945614516E+03  0.17945614523E+03  0.50400001928E-02 0. -1.
    10030    2    1    2    0    0  0.00000000000E+00  0.00000000000E+00  0.32321342575E+03  0.68212571617E+03  0.60069008155E+03 0.  0.
        4    1    3    3  502    0  0.19953531296E+03 -0.88863511971E+02 -0.72481824691E+02  0.23014406942E+03  0.12699999809E+01 0. -1.
       -4    1    3    3    0  502 -0.19953531296E+03  0.88863511971E+02  0.39569525044E+03  0.45198164675E+03  0.12699999809E+01 0.  1.
</event>
<event>
 5   0  0.4881209E-02  0.5998746E+03  0.7818609E-02  0.9905666E-01
        1   -1    0    0  501    0  0.00000000000E+00  0.00000000000E+00  0.81902416286E+03  0.81902416287E+03  0.50400001928E-02 0.  1.
       -1   -1    0    0    0  501  0.00000000000E+00  0.00000000000E+00 -0.10984094733E+03  0.10984094745E+03  0.50400001928E-02 0. -1.
    10030    2    1    2    0    0  0.00000000000E+00  0.00000000000E+00  0.70918321552E+03  0.92886511032E+03  0.59987462023E+03 0.  0.
        3    1    3    3  502    0 -0.24792823804E+03 -0.81814558732E+02  0.58321668290E+03  0.63898649645E+03  0.10100000352E+00 0. -1.
       -3    1    3    3    0  502  0.24792823804E+03  0.81814558732E+02  0.12596653263E+03  0.28987861387E+03  0.10100000352E+00 0.  1.
</event>
<event>
 5   0  0.8207443E-02  0.5959734E+03  0.7818609E-02  0.9913795E-01
        2   -1    0    0  501    0  0.00000000000E+00  0.00000000000E+00  0.10222616816E+04  0.10222616816E+04  0.25500000920E-02 0.  1.
       -2   -1    0    0    0  501  0.00000000000E+00  0.00000000000E+00 -0.86862372870E+02  0.86862372907E+02  0.25500000920E-02 0. -1.
    10030    2    1    2    0    0  0.00000000000E+00  0.00000000000E+00  0.93539930868E+03  0.11091240545E+04  0.59597340671E+03 0.  0.
        1    1    3    3  502    0 -0.41998007201E+02 -0.18871049194E+03  0.45690586090E+02  0.19865324578E+03  0.50400001928E-02 0. -1.
       -1    1    3    3    0  502  0.41998007201E+02  0.18871049194E+03  0.88970872259E+03  0.91047080868E+03  0.50400001928E-02 0.  1.
</event>
<event>
 5   0  0.5166903E-02  0.6126103E+03  0.7818609E-02  0.9879584E-01
       -1   -1    0    0    0  501  0.00000000000E+00  0.00000000000E+00  0.90170625910E+02  0.90170626051E+02  0.50400001928E-02 0. -1.
        1   -1    0    0  501    0  0.00000000000E+00  0.00000000000E+00 -0.10405033838E+04  0.10405033838E+04  0.50400001928E-02 0.  1.
    10030    2    1    2    0    0  0.00000000000E+00  0.00000000000E+00 -0.95033275788E+03  0.11306740099E+04  0.61261028873E+03 0.  0.
        2    1    3    3  502    0 -0.21138171920E+03  0.19656211372E+03 -0.28600635653E+03  0.40634779653E+03  0.25500000920E-02 0. -1.
       -2    1    3    3    0  502  0.21138171920E+03 -0.19656211372E+03 -0.66432640135E+03  0.72432621332E+03  0.25500000920E-02 0.  1.
</event>
<event>
 5   0  0.8420604E-02  0.6016799E+03  0.7818609E-02  0.9901927E-01
        2   -1    0    0  501    0  0.00000000000E+00  0.00000000000E+00  0.91505321584E+03  0.91505321584E+03  0.25500000920E-02 0. -1.
       -2   -1    0    0    0  501  0.00000000000E+00  0.00000000000E+00 -0.98906454674E+02  0.98906454707E+02  0.25500000920E-02 0.  1.
    10030    2    1    2    0    0  0.00000000000E+00  0.00000000000E+00  0.81614676116E+03  0.10139596705E+04  0.60167987979E+03 0.  0.
        2    1    3    3  502    0  0.27362092587E+03 -0.96064556419E+02  0.54297329625E+03  0.61556219062E+03  0.25500000920E-02 0. -1.
       -2    1    3    3    0  502 -0.27362092587E+03  0.96064556419E+02  0.27317346492E+03  0.39839747993E+03  0.25500000920E-02 0.  1.
</event>
<event>
 5   0  0.5125031E-02  0.5933628E+03  0.7818609E-02  0.9919273E-01
        1   -1    0    0  501    0  0.00000000000E+00  0.00000000000E+00  0.26439952801E+04  0.26439952801E+04  0.50400001928E-02 0. -1.
       -1   -1    0    0    0  501  0.00000000000E+00  0.00000000000E+00 -0.33290467663E+02  0.33290468044E+02  0.50400001928E-02 0.  1.
    10030    2    1    2    0    0  0.00000000000E+00  0.00000000000E+00  0.26107048125E+04  0.26772857482E+04  0.59336275545E+03 0.  0.
        4    1    3    3  502    0 -0.22161330794E+03 -0.18002101974E+03  0.16690756201E+04  0.16933207210E+04  0.12699999809E+01 0. -1.
       -4    1    3    3    0  502  0.22161330794E+03  0.18002101974E+03  0.94162919237E+03  0.98396502714E+03  0.12699999809E+01 0.  1.
</event>
<event>
 5   0  0.8817544E-02  0.6069702E+03  0.7818609E-02  0.9891050E-01
       -2   -1    0    0    0  501  0.00000000000E+00  0.00000000000E+00  0.20711164307E+03  0.20711164309E+03  0.25500000920E-02 0.  1.
        2   -1    0    0  501    0  0.00000000000E+00  0.00000000000E+00 -0.44470315223E+03  0.44470315224E+03  0.25500000920E-02 0. -1.
    10030    2    1    2    0    0  0.00000000000E+00  0.00000000000E+00 -0.23759150916E+03  0.65181479533E+03  0.60697018229E+03 0.  0.
        5    1    3    3  502    0 -0.10306214409E+03 -0.79459110323E+02  0.17558438376E+03  0.21860357174E+03  0.46999998093E+01 0.  1.
       -5    1    3    3    0  502  0.10306214409E+03  0.79459110323E+02 -0.41317589292E+03  0.43321122359E+03  0.46999998093E+01 0. -1.
</event>
<event>
 5   0  0.5125031E-02  0.6005808E+03  0.7818609E-02  0.9904202E-01
        1   -1    0    0  501    0  0.00000000000E+00  0.00000000000E+00  0.19363696082E+04  0.19363696083E+04  0.50400001928E-02 0.  1.
       -1   -1    0    0    0  501  0.00000000000E+00  0.00000000000E+00 -0.46568760599E+02  0.46568760872E+02  0.50400001928E-02 0. -1.
    10030    2    1    2    0    0  0.00000000000E+00  0.00000000000E+00  0.18898008476E+04  0.19829383691E+04  0.60058082885E+03 0.  0.
        4    1    3    3  502    0 -0.26287831099E+03 -0.11773260080E+03  0.66461053460E+03  0.72434435684E+03  0.12699999809E+01 0. -1.
       -4    1    3    3    0  502  0.26287831099E+03  0.11773260080E+03  0.12251903130E+04  0.12585940123E+04  0.12699999809E+01 0.  1.
</event>
<event>
 5   0  0.8207443E-02  0.6057259E+03  0.7818609E-02  0.9893597E-01
       -2   -1    0    0    0  501  0.00000000000E+00  0.00000000000E+00  0.12446044939E+03  0.12446044941E+03  0.25500000920E-02 0.  1.
        2   -1    0    0  501    0  0.00000000000E+00  0.00000000000E+00 -0.73698878801E+03  0.73698878802E+03  0.25500000920E-02 0. -1.
    10030    2    1    2    0    0  0.00000000000E+00  0.00000000000E+00 -0.61252833863E+03  0.86144923743E+03  0.60572586460E+03 0.  0.
        1    1    3    3  502    0 -0.24260897321E+03 -0.16163810431E+03 -0.42302102637E+03  0.51374388505E+03  0.50400001928E-02 0. -1.
       -1    1    3    3    0  502  0.24260897321E+03  0.16163810431E+03 -0.18950731225E+03  0.34770535238E+03  0.50400001928E-02 0.  1.
</event>
<event>
 5   0  0.5166903E-02  0.5879941E+03  0.7818609E-02  0.9930632E-01
        1   -1    0    0  501    0  0.00000000000E+00  0.00000000000E+00  0.77300854141E+03  0.77300854143E+03  0.50400001928E-02 0. -1.
       -1   -1    0    0    0  501  0.00000000000E+00  0.00000000000E+00 -0.11181539224E+03  0.11181539236E+03  0.50400001928E-02 0.  1.
    10030    2    1    2    0    0  0.00000000000E+00  0.00000000000E+00  0.66119314917E+03  0.88482393379E+03  0.58799405890E+03 0.  0.
        2    1    3    3  502    0 -0.90484663777E+02  0.25673211519E+03  0.49772893294E+03  0.56730322054E+03  0.25500000920E-02 0. -1.
       -2    1    3    3    0  502  0.90484663777E+02 -0.25673211519E+03  0.16346421623E+03  0.31752071325E+03  0.25500000920E-02 0.  1.
</event>
<event>
 5   0  0.3437375E-02  0.6093781E+03  0.7818609E-02  0.9886138E-01
        4   -1    0    0  501    0  0.00000000000E+00  0.00000000000E+00  0.47193091187E+02  0.47210176400E+02  0.12699999809E+01 0.  1.
       -4   -1    0    0    0  501  0.00000000000E+00  0.00000000000E+00 -0.19667666463E+04  0.19667670564E+04  0.12699999809E+01 0. -1.
    10030    2    1    2    0    0  0.00000000000E+00  0.00000000000E+00 -0.19195735551E+04  0.20139772328E+04  0.60937809323E+03 0.  0.
        5    1    3    3  502    0 -0.94348331598E+02 -0.28204327373E+03 -0.74147572985E+03  0.79891073586E+03  0.46999998093E+01 0.  1.
       -5    1    3    3    0  502  0.94348331598E+02  0.28204327373E+03 -0.11780978253E+04  0.12150664969E+04  0.46999998093E+01 0. -1.
</event>
<event>
 5   0  0.4881209E-02  0.6091564E+03  0.7818609E-02  0.9886589E-01
       -1   -1    0    0    0  501  0.00000000000E+00  0.00000000000E+00  0.12220849794E+03  0.12220849805E+03  0.50400001928E-02 0.  1.
        1   -1    0    0  501    0  0.00000000000E+00  0.00000000000E+00 -0.75909521916E+03  0.75909521918E+03  0.50400001928E-02 0. -1.
    10030    2    1    2    0    0  0.00000000000E+00  0.00000000000E+00 -0.63688672122E+03  0.88130371723E+03  0.60915642189E+03 0.  0.
        3    1    3    3  502    0 -0.23585957739E+03 -0.15601329979E+03 -0.15477392023E+03  0.32237379941E+03  0.10100000352E+00 0. -1.
       -3    1    3    3    0  502  0.23585957739E+03  0.15601329979E+03 -0.48211280099E+03  0.55892991782E+03  0.10100000352E+00 0.  1.
</event>
<event>
 5   0  0.5190380E-02  0.6023007E+03  0.7818609E-02  0.9900644E-01
       -1   -1    0    0    0  501  0.00000000000E+00  0.00000000000E+00  0.21581116709E+03  0.21581116715E+03  0.50400001928E-02 0. -1.
        1   -1    0    0  501    0  0.00000000000E+00  0.00000000000E+00 -0.42023554534E+03  0.42023554537E+03  0.50400001928E-02 0.  1.
    10030    2    1    2    0    0  0.00000000000E+00  0.00000000000E+00 -0.20442437825E+03  0.63604671253E+03  0.60230066752E+03 0.  0.
        5    1    3    3  502    0  0.15947286841E+03  0.11940480848E+03 -0.34065102166E+03  0.39465720898E+03  0.46999998093E+01 0.  1.
       -5    1    3    3    0  502 -0.15947286841E+03 -0.11940480848E+03  0.13622664341E+03  0.24138950354E+03  0.46999998093E+01 0. -1.
</event>
<event>
 5   0  0.5125031E-02  0.6006993E+03  0.7818609E-02  0.9903956E-01
       -1   -1    0    0    0  501  0.00000000000E+00  0.00000000000E+00  0.21835808192E+03  0.21835808198E+03  0.50400001928E-02 0. -1.
        1   -1    0    0  501    0  0.00000000000E+00  0.00000000000E+00 -0.41312830082E+03  0.41312830085E+03  0.50400001928E-02 0.  1.
    10030    2    1    2    0    0  0.00000000000E+00  0.00000000000E+00 -0.19477021890E+03  0.63148638283E+03  0.60069927046E+03 0.  0.
        4    1    3    3  502    0  0.88627587698E+02  0.22970461785E+03  0.83446236699E+02  0.25996912909E+03  0.12699999809E+01 0. -1.
       -4    1    3    3    0  502 -0.88627587698E+02 -0.22970461785E+03 -0.27821645560E+03  0.37151725374E+03  0.12699999809E+01 0.  1.
</event>
<event>
 5   0  0.8575590E-02  0.5910354E+03  0.7818609E-02  0.9924181E-01
        2   -1    0    0  501    0  0.00000000000E+00  0.00000000000E+00  0.93498518947E+03  0.93498518947E+03  0.25500000920E-02 0. -1.
       -2   -1    0    0    0  501  0.00000000000E+00  0.00000000000E+00 -0.93403317792E+02  0.93403317826E+02  0.25500000920E-02 0.  1.
    10030    2    1    2    0    0  0.00000000000E+00  0.00000000000E+00  0.84158187168E+03  0.10283885073E+04  0.59103542636E+03 0.  0.
        4    1    3    3  502    0  0.10373182636E+03  0.65482577912E+02 -0.47003783841E+02  0.13137438260E+03  0.12699999809E+01 0.  1.
       -4    1    3    3    0  502 -0.10373182636E+03 -0.65482577912E+02  0.88858565552E+03  0.89701412469E+03  0.12699999809E+01 0. -1.
</event>
<event>
 5   0  0.8207443E-02  0.6068287E+03  0.7818609E-02  0.9891339E-01
        2   -1    0    0  501    0  0.00000000000E+00  0.00000000000E+00  0.15285060812E+04  0.15285060812E+04  0.25500000920E-02 0. -1.
       -2   -1    0    0    0  501  0.00000000000E+00  0.00000000000E+00 -0.60228916786E+02  0.60228916840E+02  0.25500000920E-02 0.  1.
    10030    2    1    2    0    0  0.00000000000E+00  0.00000000000E+00  0.14682771644E+04  0.15887349981E+04  0.60682869285E+03 0.  0.
        1    1    3    3  502    0  0.72803303173E+02 -0.36834827267E+02 -0.30968593063E+02  0.87270723810E+02  0.50400001928E-02 0.  1.
       -1    1    3    3    0  502 -0.72803303173E+02  0.36834827267E+02  0.14992457575E+04  0.15014642742E+04  0.50400001928E-02 0. -1.
</event>
<event>
 5   0  0.8817544E-02  0.5965752E+03  0.7818609E-02  0.9912537E-01
       -2   -1    0    0    0  501  0.00000000000E+00  0.00000000000E+00  0.20750519202E+04  0.20750519202E+04  0.25500000920E-02 0. -1.
        2   -1    0    0  501    0  0.00000000000E+00  0.00000000000E+00 -0.42878679469E+02  0.42878679545E+02  0.25500000920E-02 0.  1.
    10030    2    1    2    0    0  0.00000000000E+00  0.00000000000E+00  0.20321732408E+04  0.21179305998E+04  0.59657517967E+03 0.  0.
        5    1    3    3  502    0 -0.97239915738E+02  0.11145034551E+03  0.19355450844E+04  0.19411938709E+04  0.46999998093E+01 0. -1.
       -5    1    3    3    0  502  0.97239915738E+02 -0.11145034551E+03  0.96628156352E+02  0.17673672885E+03  0.46999998093E+01 0.  1.
</event>
<event>
 5   0  0.8420604E-02  0.6112429E+03  0.7818609E-02  0.9882351E-01
       -2   -1    0    0    0  501  0.00000000000E+00  0.00000000000E+00  0.28398565237E+03  0.28398565238E+03  0.25500000920E-02 0. -1.
        2   -1    0    0  501    0  0.00000000000E+00  0.00000000000E+00 -0.32890562996E+03  0.32890562997E+03  0.25500000920E-02 0.  1.
    10030    2    1    2    0    0  0.00000000000E+00  0.00000000000E+00 -0.44919977595E+02  0.61289128235E+03  0.61124293010E+03 0.  0.
        2    1    3    3  502    0 -0.64589365885E+02 -0.21479138164E+02 -0.32120866102E+03  0.32834150436E+03  0.25500000920E-02 0.  1.
       -2    1    3    3    0  502  0.64589365885E+02  0.21479138164E+02  0.27628868343E+03  0.28454977800E+03  0.25500000920E-02 0. -1.
</event>
<event>
 5   0  0.3437375E-02  0.5936961E+03  0.7818609E-02  0.9918572E-01
        4   -1    0    0  501    0  0.00000000000E+00  0.00000000000E+00  0.46901802225E+03  0.46901974169E+03  0.12699999809E+01 0.  1.
       -4   -1    0    0    0  501  0.00000000000E+00  0.00000000000E+00 -0.18787507780E+03  0.18787937024E+03  0.12699999809E+01 0. -1.
    10030    2    1    2    0    0  0.00000000000E+00  0.00000000000E+00  0.28114294445E+03  0.65689911193E+03  0.59369612433E+03 0.  0.
        5    1    3    3  502    0  0.19212940556E+03 -0.17257367904E+03 -0.21294114767E+02  0.25917351813E+03  0.46999998093E+01 0. -1.
       -5    1    3    3    0  502 -0.19212940556E+03  0.17257367904E+03  0.30243705921E+03  0.39772559380E+03  0.46999998093E+01 0.  1.
</event>
<event>
 5   0  0.4987389E-02  0.5956356E+03  0.7818609E-02  0.9914502E-01
        1   -1    0    0  501    0  0.00000000000E+00  0.00000000000E+00  0.62535326050E+02  0.62535326253E+02  0.50400001928E-02 0.  1.
       -1   -1    0    0    0  501  0.00000000000E+00  0.00000000000E+00 -0.14183254857E+04  0.14183254857E+04  0.50400001928E-02 0. -1.
    10030    2    1    2    0    0  0.00000000000E+00  0.00000000000E+00 -0.13557901597E+04  0.14808608120E+04  0.59563561630E+03 0.  0.
        1    1    3    3  502    0 -0.14902383704E+03  0.25708727306E+03 -0.62857847438E+03  0.69527898606E+03  0.50400001928E-02 0.  1.
       -1    1    3    3    0  502  0.14902383704E+03 -0.25708727306E+03 -0.72721168530E+03  0.78558182594E+03  0.50400001928E-02 0. -1.
</event>
<event>
 5   0  0.8817544E-02  0.5641670E+03  0.7818609E-02  0.9982670E-01
        2   -1    0    0  501    0  0.00000000000E+00  0.00000000000E+00  0.13359531074E+04  0.13359531074E+04  0.25500000920E-02 0.  1.
       -2   -1    0    0    0  501  0.00000000000E+00  0.00000000000E+00 -0.59561290157E+02  0.59561290212E+02  0.25500000920E-02 0. -1.
    10030    2    1    2    0    0  0.00000000000E+00  0.00000000000E+00  0.12763918173E+04  0.13955143977E+04  0.56416696362E+03 0.  0.
        5    1    3    3  502    0 -0.15536454087E+03 -0.14961444032E+03  0.10877243279E+04  0.11089133983E+04  0.46999998093E+01 0.  1.
       -5    1    3    3    0  502  0.15536454087E+03  0.14961444032E+03  0.18866748937E+03  0.28660099940E+03  0.46999998093E+01 0. -1.
</event>
<event>
 5   0  0.8207443E-02  0.6001851E+03  0.7818609E-02  0.9905022E-01
        2   -1    0    0  501    0  0.00000000000E+00  0.00000000000E+00  0.15584270675E+04  0.15584270675E+04  0.25500000920E-02 0. -1.
       -2   -1    0    0    0  501  0.00000000000E+00  0.00000000000E+00 -0.57786172073E+02  0.57786172129E+02  0.25500000920E-02 0.  1.
    10030    2    1    2    0    0  0.00000000000E+00  0.00000000000E+00  0.15006408954E+04  0.16162132396E+04  0.60018508722E+03 0.  0.
        1    1    3    3  502    0 -0.14693847445E+03 -0.14800226223E+01  0.45725359400E+02  0.15389579026E+03  0.50400001928E-02 0.  1.
       -1    1    3    3    0  502  0.14693847445E+03  0.14800226223E+01  0.14549155360E+04  0.14623174493E+04  0.50400001928E-02 0. -1.
</event>
<event>
 5   0  0.5190380E-02  0.6032955E+03  0.7818609E-02  0.9898592E-01
       -1   -1    0    0    0  501  0.00000000000E+00  0.00000000000E+00  0.15971248307E+03  0.15971248315E+03  0.50400001928E-02 0. -1.
        1   -1    0    0  501    0  0.00000000000E+00  0.00000000000E+00 -0.56971988224E+03  0.56971988227E+03  0.50400001928E-02 0.  1.
    10030    2    1    2    0    0  0.00000000000E+00  0.00000000000E+00 -0.41000739918E+03  0.72943236541E+03  0.60329553979E+03 0.  0.
        5    1    3    3  502    0 -0.18582746989E+03 -0.23113291367E+03 -0.13861416342E+03  0.32739921907E+03  0.46999998093E+01 0.  1.
       -5    1    3    3    0  502  0.18582746989E+03  0.23113291367E+03 -0.27139323576E+03  0.40203314635E+03  0.46999998093E+01 0. -1.
</event>
<event>
 5   0  0.4987389E-02  0.4994168E+03  0.7818609E-02  0.1013931E+00
        1   -1    0    0  501    0  0.00000000000E+00  0.00000000000E+00  0.95015841833E+03  0.95015841834E+03  0.50400001928E-02 0. -1.
       -1   -1    0    0    0  501  0.00000000000E+00  0.00000000000E+00 -0.65625153099E+02  0.65625153293E+02  0.50400001928E-02 0.  1.
    10030    2    1    2    0    0  0.00000000000E+00  0.00000000000E+00  0.88453326523E+03  0.10157835716E+04  0.49941682701E+03 0.  0.
        1    1    3    3  502    0  0.12762057582E+03  0.58729443024E+01  0.58797804546E+01  0.12789087024E+03  0.50400001928E-02 0.  1.
       -1    1    3    3    0  502 -0.12762057582E+03 -0.58729443024E+01  0.87865348478E+03  0.88789270139E+03  0.50400001928E-02 0. -1.
</event>
<event>
 5   0  0.8817544E-02  0.5237419E+03  0.7818609E-02  0.1007761E+00
       -2   -1    0    0    0  501  0.00000000000E+00  0.00000000000E+00  0.19705535246E+03  0.19705535248E+03  0.25500000920E-02 0.  1.
        2   -1    0    0  501    0  0.00000000000E+00  0.00000000000E+00 -0.34800572331E+03  0.34800572332E+03  0.25500000920E-02 0. -1.
    10030    2    1    2    0    0  0.00000000000E+00  0.00000000000E+00 -0.15095037085E+03  0.54506107580E+03  0.52374188480E+03 0.  0.
        5    1    3    3  502    0 -0.28798008770E+02 -0.34720296890E+02  0.19293702742E+03  0.19819589015E+03  0.46999998093E+01 0.  1.
       -5    1    3    3    0  502  0.28798008770E+02  0.34720296890E+02 -0.34388739827E+03  0.34686518564E+03  0.46999998093E+01 0. -1.
</event>
<event>
 5   0  0.4881209E-02  0.6047746E+03  0.7818609E-02  0.9895550E-01
       -1   -1    0    0    0  501  0.00000000000E+00  0.00000000000E+00  0.12932163675E+03  0.12932163685E+03  0.50400001928E-02 0.  1.
        1   -1    0    0  501    0  0.00000000000E+00  0.00000000000E+00 -0.70705928938E+03  0.70705928940E+03  0.50400001928E-02 0. -1.
    10030    2    1    2    0    0  0.00000000000E+00  0.00000000000E+00 -0.57773765263E+03  0.83638092624E+03  0.60477455181E+03 0.  0.
        3    1    3    3  502    0  0.11097364747E+03 -0.70615179451E+02 -0.66542204111E+03  0.67829798540E+03  0.10100000352E+00 0. -1.
       -3    1    3    3    0  502 -0.11097364747E+03  0.70615179451E+02  0.87684388483E+02  0.15808294084E+03  0.10100000352E+00 0.  1.
</event>
<event>
 5   0  0.8699746E-02  0.6013365E+03  0.7818609E-02  0.9902637E-01
        2   -1    0    0  501    0  0.00000000000E+00  0.00000000000E+00  0.50470387899E+03  0.50470387900E+03  0.25500000920E-02 0.  1.
       -2   -1    0    0    0  501  0.00000000000E+00  0.00000000000E+00 -0.17911766822E+03  0.17911766823E+03  0.25500000920E-02 0. -1.
    10030    2    1    2    0    0  0.00000000000E+00  0.00000000000E+00  0.32558621078E+03  0.68382154723E+03  0.60133645143E+03 0.  0.
        3    1    3    3  502    0 -0.70960237325E+02 -0.22329229693E+03  0.37707209527E+03  0.44393488305E+03  0.10100000352E+00 0.  1.
       -3    1    3    3    0  502  0.70960237325E+02  0.22329229693E+03 -0.51485884497E+02  0.23988666419E+03  0.10100000352E+00 0. -1.
</event>
<event>
 5   0  0.5166903E-02  0.6188769E+03  0.7818609E-02  0.9866998E-01
       -1   -1    0    0    0  501  0.00000000000E+00  0.00000000000E+00  0.20275895858E+03  0.20275895864E+03  0.50400001928E-02 0.  1.
        1   -1    0    0  501    0  0.00000000000E+00  0.00000000000E+00 -0.47224621932E+03  0.47224621935E+03  0.50400001928E-02 0. -1.
    10030    2    1    2    0    0  0.00000000000E+00  0.00000000000E+00 -0.26948726074E+03  0.67500517799E+03  0.61887689132E+03 0.  0.
        2    1    3    3  502    0  0.58600071324E+02  0.20038732442E+03  0.11436257657E+03  0.23805009362E+03  0.25500000920E-02 0.  1.
       -2    1    3    3    0  502 -0.58600071324E+02 -0.20038732442E+03 -0.38384983731E+03  0.43695508437E+03  0.25500000920E-02 0. -1.
</event>
<event>
 5   0  0.8207443E-02  0.5947473E+03  0.7818609E-02  0.9916364E-01
       -2   -1    0    0    0  501  0.00000000000E+00  0.00000000000E+00  0.45326986458E+03  0.45326986459E+03  0.25500000920E-02 0. -1.
        2   -1    0    0  501    0  0.00000000000E+00  0.00000000000E+00 -0.19509586327E+03  0.19509586329E+03  0.25500000920E-02 0.  1.
    10030    2    1    2    0    0  0.00000000000E+00  0.00000000000E+00  0.25817400131E+03  0.64836572787E+03  0.59474725903E+03 0.  0.
        1    1    3    3  502    0  0.24011414720E+03 -0.46874370966E+02 -0.55207175115E+02  0.25079841018E+03  0.50400001928E-02 0.  1.
       -1    1    3    3    0  502 -0.24011414720E+03  0.46874370966E+02  0.31338117642E+03  0.39756731770E+03  0.50400001928E-02 0. -1.
</event>
<event>
 5   0  0.5166903E-02  0.5984603E+03  0.7818609E-02  0.9908606E-01
        1   -1    0    0  501    0  0.00000000000E+00  0.00000000000E+00  0.78288357121E+03  0.78288357122E+03  0.50400001928E-02 0. -1.
       -1   -1    0    0    0  501  0.00000000000E+00  0.00000000000E+00 -0.11437038073E+03  0.11437038084E+03  0.50400001928E-02 0.  1.
    10030    2    1    2    0    0  0.00000000000E+00  0.00000000000E+00  0.66851319048E+03  0.89725395206E+03  0.59846033172E+03 0.  0.
        2    1    3    3  502    0 -0.26327223219E+03 -0.76048242996E+02  0.51443803354E+03  0.58287399484E+03  0.25500000920E-02 0.  1.
       -2    1    3    3    0  502  0.26327223219E+03  0.76048242996E+02  0.15407515694E+03  0.31437995722E+03  0.25500000920E-02 0. -1.
</event>
<event>
 5   0  0.3437375E-02  0.6047596E+03  0.7818609E-02  0.9895580E-01
       -3   -1    0    0    0  501  0.00000000000E+00  0.00000000000E+00  0.61364399874E+03  0.61364400705E+03  0.10100000352E+00 0. -1.
        3   -1    0    0  501    0  0.00000000000E+00  0.00000000000E+00 -0.14900090775E+03  0.14900094198E+03  0.10100000352E+00 0.  1.
    10030    2    1    2    0    0  0.00000000000E+00  0.00000000000E+00  0.46464309099E+03  0.76264494903E+03  0.60475955245E+03 0.  0.
        1    1    3    3  502    0 -0.19162726199E+03 -0.20790389242E+03  0.36748870700E+03  0.46367336113E+03  0.50400001928E-02 0. -1.
       -1    1    3    3    0  502  0.19162726199E+03  0.20790389242E+03  0.97154383984E+02  0.29897158790E+03  0.50400001928E-02 0.  1.
</event>
<event>
 5   0  0.8575590E-02  0.6021008E+03  0.7818609E-02  0.9901057E-01
        2   -1    0    0  501    0  0.00000000000E+00  0.00000000000E+00  0.14057869898E+03  0.14057869900E+03  0.25500000920E-02 0. -1.
       -2   -1    0    0    0  501  0.00000000000E+00  0.00000000000E+00 -0.64470190211E+03  0.64470190212E+03  0.25500000920E-02 0.  1.
    10030    2    1    2    0    0  0.00000000000E+00  0.00000000000E+00 -0.50412320314E+03  0.78528060111E+03  0.60210083752E+03 0.  0.
        4    1    3    3  502    0 -0.25163298567E+03 -0.74197089424E+02 -0.44465323192E+03  0.51627751947E+03  0.12699999809E+01 0.  1.
       -4    1    3    3    0  502  0.25163298567E+03  0.74197089424E+02 -0.59469971219E+02  0.26900308164E+03  0.12699999809E+01 0. -1.
</event>
<event>
 5   0  0.5166903E-02  0.6214619E+03  0.7818609E-02  0.9861853E-01
       -1   -1    0    0    0  501  0.00000000000E+00  0.00000000000E+00  0.55156268145E+02  0.55156268375E+02  0.50400001928E-02 0. -1.
        1   -1    0    0  501    0  0.00000000000E+00  0.00000000000E+00 -0.17505487845E+04  0.17505487845E+04  0.50400001928E-02 0.  1.
    10030    2    1    2    0    0  0.00000000000E+00  0.00000000000E+00 -0.16953925163E+04  0.18057050528E+04  0.62146194854E+03 0.  0.
        2    1    3    3  502    0 -0.18515540248E+03 -0.84505583178E+02 -0.16547326470E+03  0.26230729687E+03  0.25500000920E-02 0. -1.
       -2    1    3    3    0  502  0.18515540248E+03  0.84505583178E+02 -0.15299192516E+04  0.15433977560E+04  0.25500000920E-02 0.  1.
</event>
<event>
 5   0  0.3437375E-02  0.5927180E+03  0.7818609E-02  0.9920630E-01
        4   -1    0    0  501    0  0.00000000000E+00  0.00000000000E+00  0.19812091634E+03  0.19812498679E+03  0.12699999809E+01 0.  1.
       -4   -1    0    0    0  501  0.00000000000E+00  0.00000000000E+00 -0.44329881959E+03  0.44330063879E+03  0.12699999809E+01 0. -1.
    10030    2    1    2    0    0  0.00000000000E+00  0.00000000000E+00 -0.24517790325E+03  0.64142562559E+03  0.59271800117E+03 0.  0.
        4    1    3    3  502    0  0.28744268589E+03  0.21787065008E+02 -0.48169565822E+02  0.29226681961E+03  0.12699999809E+01 0.  1.
       -4    1    3    3    0  502 -0.28744268589E+03 -0.21787065008E+02 -0.19700833743E+03  0.34915880598E+03  0.12699999809E+01 0. -1.
</event>
<event>
 5   0  0.4881209E-02  0.5974415E+03  0.7818609E-02  0.9910728E-01
        1   -1    0    0  501    0  0.00000000000E+00  0.00000000000E+00  0.21577953331E+03  0.21577953337E+03  0.50400001928E-02 0.  1.
       -1   -1    0    0    0  501  0.00000000000E+00  0.00000000000E+00 -0.41354281452E+03  0.41354281455E+03  0.50400001928E-02 0. -1.
    10030    2    1    2    0    0  0.00000000000E+00  0.00000000000E+00 -0.19776328121E+03  0.62932234791E+03  0.59744146340E+03 0.  0.
        3    1    3    3  502    0 -0.24696908309E+03  0.83726239285E+02  0.54599631930E+02  0.26642999297E+03  0.10100000352E+00 0.  1.
       -3    1    3    3    0  502  0.24696908309E+03 -0.83726239285E+02 -0.25236291314E+03  0.36289235494E+03  0.10100000352E+00 0. -1.
</event>
<event>
 5   0  0.5166903E-02  0.5587694E+03  0.7818609E-02  0.9994843E-01
        1   -1    0    0  501    0  0.00000000000E+00  0.00000000000E+00  0.17189380438E+04  0.17189380438E+04  0.50400001928E-02 0.  1.
       -1   -1    0    0    0  501  0.00000000000E+00  0.00000000000E+00 -0.45409320419E+02  0.45409320699E+02  0.50400001928E-02 0. -1.
    10030    2    1    2    0    0  0.00000000000E+00  0.00000000000E+00  0.16735287234E+04  0.17643473645E+04  0.55876939309E+03 0.  0.
        2    1    3    3  502    0 -0.39392725664E+02  0.26840609555E+03  0.62584060490E+03  0.68210708962E+03  0.25500000920E-02 0.  1.
       -2    1    3    3    0  502  0.39392725664E+02 -0.26840609555E+03  0.10476881185E+04  0.10822402749E+04  0.25500000920E-02 0. -1.
</event>
<event>
 5   0  0.4987389E-02  0.6014634E+03  0.7818609E-02  0.9902375E-01
       -1   -1    0    0    0  501  0.00000000000E+00  0.00000000000E+00  0.11244162835E+03  0.11244162847E+03  0.50400001928E-02 0. -1.
        1   -1    0    0  501    0  0.00000000000E+00  0.00000000000E+00 -0.80432447266E+03  0.80432447267E+03  0.50400001928E-02 0.  1.
    10030    2    1    2    0    0  0.00000000000E+00  0.00000000000E+00 -0.69188284430E+03  0.91676610114E+03  0.60146339370E+03 0.  0.
        1    1    3    3  502    0  0.15789568576E+03  0.26391046718E+02 -0.73398197937E+03  0.75123703382E+03  0.50400001928E-02 0.  1.
       -1    1    3    3    0  502 -0.15789568576E+03 -0.26391046718E+02  0.42099135063E+02  0.16552906732E+03  0.50400001928E-02 0. -1.
</event>
<event>
 5   0  0.3437375E-02  0.5983278E+03  0.7818609E-02  0.9908881E-01
       -3   -1    0    0    0  501  0.00000000000E+00  0.00000000000E+00  0.13196885516E+04  0.13196885555E+04  0.10100000352E+00 0. -1.
        3   -1    0    0  501    0  0.00000000000E+00  0.00000000000E+00 -0.67818264827E+02  0.67818340036E+02  0.10100000352E+00 0.  1.
    10030    2    1    2    0    0  0.00000000000E+00  0.00000000000E+00  0.12518702868E+04  0.13875068955E+04  0.59832781163E+03 0.  0.
        5    1    3    3  502    0  0.90151563150E+02  0.16245681264E+03  0.11695723551E+04  0.11842470621E+04  0.46999998093E+01 0. -1.
       -5    1    3    3    0  502 -0.90151563150E+02 -0.16245681264E+03  0.82297931664E+02  0.20325983338E+03  0.46999998093E+01 0.  1.
</event>
<event>
 5   0  0.4881209E-02  0.5792739E+03  0.7818609E-02  0.9949364E-01
       -1   -1    0    0    0  501  0.00000000000E+00  0.00000000000E+00  0.14918690962E+03  0.14918690970E+03  0.50400001928E-02 0. -1.
        1   -1    0    0  501    0  0.00000000000E+00  0.00000000000E+00 -0.56231187512E+03  0.56231187514E+03  0.50400001928E-02 0.  1.
    10030    2    1    2    0    0  0.00000000000E+00  0.00000000000E+00 -0.41312496551E+03  0.71149878485E+03  0.57927392804E+03 0.  0.
        3    1    3    3  502    0  0.70862357040E+02 -0.27407115366E+03 -0.28180869778E+03  0.39944038762E+03  0.10100000352E+00 0.  1.
       -3    1    3    3    0  502 -0.70862357040E+02  0.27407115366E+03 -0.13131626772E+03  0.31205839723E+03  0.10100000352E+00 0. -1.
</event>
<event>
 5   0  0.5190380E-02  0.5885734E+03  0.7818609E-02  0.9929400E-01
       -1   -1    0    0    0  501  0.00000000000E+00  0.00000000000E+00  0.11134137291E+03  0.11134137302E+03  0.50400001928E-02 0. -1.
        1   -1    0    0  501    0  0.00000000000E+00  0.00000000000E+00 -0.77782997931E+03  0.77782997933E+03  0.50400001928E-02 0.  1.
    10030    2    1    2    0    0  0.00000000000E+00  0.00000000000E+00 -0.66648860640E+03  0.88917135235E+03  0.58857338656E+03 0.  0.
        5    1    3    3  502    0  0.10644893878E+03  0.15055759999E+03  0.13181314908E+02  0.18491837265E+03  0.46999998093E+01 0. -1.
       -5    1    3    3    0  502 -0.10644893878E+03 -0.15055759999E+03 -0.67966992131E+03  0.70425297970E+03  0.46999998093E+01 0.  1.
</event>
<event>
 5   0  0.5190380E-02  0.6120545E+03  0.7818609E-02  0.9880708E-01
        1   -1    0    0  501    0  0.00000000000E+00  0.00000000000E+00  0.76125970877E+03  0.76125970879E+03  0.50400001928E-02 0.  1.
       -1   -1    0    0    0  501  0.00000000000E+00  0.00000000000E+00 -0.12302328172E+03  0.12302328182E+03  0.50400001928E-02 0. -1.
    10030    2    1    2    0    0  0.00000000000E+00  0.00000000000E+00  0.63823642706E+03  0.88428299061E+03  0.61205446707E+03 0.  0.
        5    1    3    3  502    0  0.98515433582E+02 -0.16033936540E+03  0.66771591946E+03  0.69374393104E+03  0.46999998093E+01 0.  1.
       -5    1    3    3    0  502 -0.98515433582E+02  0.16033936540E+03 -0.29479492408E+02  0.19053905957E+03  0.46999998093E+01 0. -1.
</event>
<event>
 5   0  0.8575590E-02  0.6232752E+03  0.7818609E-02  0.9858260E-01
        2   -1    0    0  501    0  0.00000000000E+00  0.00000000000E+00  0.52245778041E+03  0.52245778041E+03  0.25500000920E-02 0.  1.
       -2   -1    0    0    0  501  0.00000000000E+00  0.00000000000E+00 -0.18588678746E+03  0.18588678748E+03  0.25500000920E-02 0. -1.
    10030    2    1    2    0    0  0.00000000000E+00  0.00000000000E+00  0.33657099295E+03  0.70834456789E+03  0.62327521495E+03 0.  0.
        4    1    3    3  502    0  0.21497684003E+03  0.18142611928E+03  0.15869383355E+02  0.28175153724E+03  0.12699999809E+01 0. -1.
       -4    1    3    3    0  502 -0.21497684003E+03 -0.18142611928E+03  0.32070160959E+03  0.42659303065E+03  0.12699999809E+01 0.  1.
</event>
<event>
 5   0  0.5125031E-02  0.6038608E+03  0.7818609E-02  0.9897428E-01
        1   -1    0    0  501    0  0.00000000000E+00  0.00000000000E+00  0.64093332027E+02  0.64093332225E+02  0.50400001928E-02 0.  1.
       -1   -1    0    0    0  501  0.00000000000E+00  0.00000000000E+00 -0.14223317264E+04  0.14223317264E+04  0.50400001928E-02 0. -1.
    10030    2    1    2    0    0  0.00000000000E+00  0.00000000000E+00 -0.13582383943E+04  0.14864250586E+04  0.60386084405E+03 0.  0.
        4    1    3    3  502    0  0.13483905005E+03  0.48517274738E+02 -0.13332807019E+04  0.13409603045E+04  0.12699999809E+01 0. -1.
       -4    1    3    3    0  502 -0.13483905005E+03 -0.48517274738E+02 -0.24957692441E+02  0.14546475407E+03  0.12699999809E+01 0.  1.
</event>
<event>
 5   0  0.8699746E-02  0.5992179E+03  0.7818609E-02  0.9907030E-01
       -2   -1    0    0    0  501  0.00000000000E+00  0.00000000000E+00  0.26033067314E+03  0.26033067316E+03  0.25500000920E-02 0. -1.
        2   -1    0    0  501    0  0.00000000000E+00  0.00000000000E+00 -0.34481343108E+03  0.34481343109E+03  0.25500000920E-02 0.  1.
    10030    2    1    2    0    0  0.00000000000E+00  0.00000000000E+00 -0.84482757935E+02  0.60514410424E+03  0.59921786565E+03 0.  0.
        3    1    3    3  502    0 -0.62113823689E+02  0.27476886716E+03 -0.14527710602E+03  0.31695662982E+03  0.10100000352E+00 0.  1.
       -3    1    3    3    0  502  0.62113823689E+02 -0.27476886716E+03  0.60794348089E+02  0.28818747442E+03  0.10100000352E+00 0. -1.
</event>
<event>
 5   0  0.3437375E-02  0.5998889E+03  0.7818609E-02  0.9905637E-01
       -3   -1    0    0    0  501  0.00000000000E+00  0.00000000000E+00  0.96112015503E+03  0.96112016034E+03  0.10100000352E+00 0.  1.
        3   -1    0    0  501    0  0.00000000000E+00  0.00000000000E+00 -0.93606035078E+02  0.93606089567E+02  0.10100000352E+00 0. -1.
    10030    2    1    2    0    0  0.00000000000E+00  0.00000000000E+00  0.86751411995E+03  0.10547262499E+04  0.59988891799E+03 0.  0.
        1    1    3    3  502    0 -0.58499584150E+02 -0.48141875270E+02  0.94402015799E+03  0.94705538392E+03  0.50400001928E-02 0.  1.
       -1    1    3    3    0  502  0.58499584150E+02  0.48141875270E+02 -0.76506038036E+02  0.10767086598E+03  0.50400001928E-02 0. -1.
</event>
<event>
 5   0  0.8207443E-02  0.6329365E+03  0.7818609E-02  0.9839335E-01
       -2   -1    0    0    0  501  0.00000000000E+00  0.00000000000E+00  0.22255298638E+03  0.22255298639E+03  0.25500000920E-02 0. -1.
        2   -1    0    0  501    0  0.00000000000E+00  0.00000000000E+00 -0.45001490316E+03  0.45001490316E+03  0.25500000920E-02 0.  1.
    10030    2    1    2    0    0  0.00000000000E+00  0.00000000000E+00 -0.22746191678E+03  0.67256788956E+03  0.63293652326E+03 0.  0.
        1    1    3    3  502    0 -0.14911454833E+03  0.13489721489E+03 -0.37340884918E+03  0.42410679761E+03  0.50400001928E-02 0.  1.
       -1    1    3    3    0  502  0.14911454833E+03 -0.13489721489E+03  0.14594693240E+03  0.24846109195E+03  0.50400001928E-02 0. -1.
</event>
<event>
 5   0  0.5166903E-02  0.6010194E+03  0.7818609E-02  0.9903293E-01
        1   -1    0    0  501    0  0.00000000000E+00  0.00000000000E+00  0.40645126612E+03  0.40645126615E+03  0.50400001928E-02 0. -1.
       -1   -1    0    0    0  501  0.00000000000E+00  0.00000000000E+00 -0.22218180479E+03  0.22218180484E+03  0.50400001928E-02 0.  1.
    10030    2    1    2    0    0  0.00000000000E+00  0.00000000000E+00  0.18426946133E+03  0.62863307099E+03  0.60101938701E+03 0.  0.
        2    1    3    3  502    0  0.28831329934E+03  0.84055220049E+02  0.80858044805E+02  0.31101103198E+03  0.25500000920E-02 0. -1.
       -2    1    3    3    0  502 -0.28831329934E+03 -0.84055220049E+02  0.10341141652E+03  0.31762203902E+03  0.25500000920E-02 0.  1.
</event>
<event>
 5   0  0.8207443E-02  0.5719363E+03  0.7818609E-02  0.9965403E-01
       -2   -1    0    0    0  501  0.00000000000E+00  0.00000000000E+00  0.15757785065E+03  0.15757785067E+03  0.25500000920E-02 0.  1.
        2   -1    0    0  501    0  0.00000000000E+00  0.00000000000E+00 -0.51896741590E+03  0.51896741591E+03  0.25500000920E-02 0. -1.
    10030    2    1    2    0    0  0.00000000000E+00  0.00000000000E+00 -0.36138956525E+03  0.67654526658E+03  0.57193625507E+03 0.  0.
        1    1    3    3  502    0 -0.27083160955E+03 -0.56951343295E+02 -0.26586836645E+03  0.38376972853E+03  0.50400001928E-02 0. -1.
       -1    1    3    3    0  502  0.27083160955E+03  0.56951343295E+02 -0.95521198803E+02  0.29277553805E+03  0.50400001928E-02 0.  1.
</event>
<event>
 5   0  0.8207443E-02  0.6078312E+03  0.7818609E-02  0.9889291E-01
        2   -1    0    0  501    0  0.00000000000E+00  0.00000000000E+00  0.14397958074E+03  0.14397958076E+03  0.25500000920E-02 0.  1.
       -2   -1    0    0    0  501  0.00000000000E+00  0.00000000000E+00 -0.64151238413E+03  0.64151238414E+03  0.25500000920E-02 0. -1.
    10030    2    1    2    0    0  0.00000000000E+00  0.00000000000E+00 -0.49753280339E+03  0.78549196490E+03  0.60783117431E+03 0.  0.
        1    1    3    3  502    0 -0.24740994435E+03  0.80278370489E+02 -0.45189963058E+03  0.52141113670E+03  0.50400001928E-02 0. -1.
       -1    1    3    3    0  502  0.24740994435E+03 -0.80278370489E+02 -0.45633172814E+02  0.26408082820E+03  0.50400001928E-02 0.  1.
</event>
<event>
 5   0  0.5166903E-02  0.6205267E+03  0.7818609E-02  0.9863712E-01
       -1   -1    0    0    0  501  0.00000000000E+00  0.00000000000E+00  0.11570279048E+03  0.11570279059E+03  0.50400001928E-02 0. -1.
        1   -1    0    0  501    0  0.00000000000E+00  0.00000000000E+00 -0.83198823890E+03  0.83198823891E+03  0.50400001928E-02 0.  1.
    10030    2    1    2    0    0  0.00000000000E+00  0.00000000000E+00 -0.71628544841E+03  0.94769102951E+03  0.62052674705E+03 0.  0.
        2    1    3    3  502    0 -0.16740540778E+03  0.79713490589E+02  0.21781846811E+02  0.18669027825E+03  0.25500000920E-02 0. -1.
       -2    1    3    3    0  502  0.16740540778E+03 -0.79713490589E+02 -0.73806729523E+03  0.76100075126E+03  0.25500000920E-02 0.  1.
</event>
<event>
 5   0  0.8207443E-02  0.5948023E+03  0.7818609E-02  0.9916249E-01
       -2   -1    0    0    0  501  0.00000000000E+00  0.00000000000E+00  0.13257390353E+03  0.13257390355E+03  0.25500000920E-02 0.  1.
        2   -1    0    0  501    0  0.00000000000E+00  0.00000000000E+00 -0.66715570262E+03  0.66715570263E+03  0.25500000920E-02 0. -1.
    10030    2    1    2    0    0  0.00000000000E+00  0.00000000000E+00 -0.53458179909E+03  0.79972960618E+03  0.59480227226E+03 0.  0.
        1    1    3    3  502    0  0.16910580843E+03 -0.22392021573E+03 -0.39978272288E+03  0.48842938384E+03  0.50400001928E-02 0. -1.
       -1    1    3    3    0  502 -0.16910580843E+03  0.22392021573E+03 -0.13479907621E+03  0.31130022234E+03  0.50400001928E-02 0.  1.
</event>
<event>
 5   0  0.5125031E-02  0.6128195E+03  0.7818609E-02  0.9879161E-01
       -1   -1    0    0    0  501  0.00000000000E+00  0.00000000000E+00  0.18082711071E+03  0.18082711078E+03  0.50400001928E-02 0.  1.
        1   -1    0    0  501    0  0.00000000000E+00  0.00000000000E+00 -0.51920836131E+03  0.51920836134E+03  0.50400001928E-02 0. -1.
    10030    2    1    2    0    0  0.00000000000E+00  0.00000000000E+00 -0.33838125061E+03  0.70003547212E+03  0.61281954233E+03 0.  0.
        4    1    3    3  502    0 -0.10598037918E+03 -0.12398454745E+03 -0.46549271377E+03  0.49324343711E+03  0.12699999809E+01 0. -1.
       -4    1    3    3    0  502  0.10598037918E+03  0.12398454745E+03  0.12711146316E+03  0.20679203501E+03  0.12699999809E+01 0.  1.
</event>
<event>
 5   0  0.3437375E-02  0.7285649E+03  0.7818609E-02  0.9669592E-01
       -4   -1    0    0    0  501  0.00000000000E+00  0.00000000000E+00  0.31984229559E+03  0.31984481698E+03  0.12699999809E+01 0.  1.
        4   -1    0    0  501    0  0.00000000000E+00  0.00000000000E+00 -0.41489212828E+03  0.41489407203E+03  0.12699999809E+01 0. -1.
    10030    2    1    2    0    0  0.00000000000E+00  0.00000000000E+00 -0.95049832686E+02  0.73473888901E+03  0.72856486625E+03 0.  0.
        1    1    3    3  502    0  0.25300540745E+03 -0.26205749972E+03 -0.51536274073E+02  0.36788837563E+03  0.50400001928E-02 0. -1.
       -1    1    3    3    0  502 -0.25300540745E+03  0.26205749972E+03 -0.43513558613E+02  0.36685051338E+03  0.50400001928E-02 0.  1.
</event>
<event>
 5   0  0.5125031E-02  0.6023947E+03  0.7818609E-02  0.9900450E-01
       -1   -1    0    0    0  501  0.00000000000E+00  0.00000000000E+00  0.19951909913E+03  0.19951909919E+03  0.50400001928E-02 0. -1.
        1   -1    0    0  501    0  0.00000000000E+00  0.00000000000E+00 -0.45469257592E+03  0.45469257594E+03  0.50400001928E-02 0.  1.
    10030    2    1    2    0    0  0.00000000000E+00  0.00000000000E+00 -0.25517347679E+03  0.65421167514E+03  0.60239473157E+03 0.  0.
        4    1    3    3  502    0  0.49337789620E+02  0.24927713300E+03  0.48015843912E+02  0.25861253003E+03  0.12699999809E+01 0. -1.
       -4    1    3    3    0  502 -0.49337789620E+02 -0.24927713300E+03 -0.30318932070E+03  0.39559914510E+03  0.12699999809E+01 0.  1.
</event>
<event>
 5   0  0.8207443E-02  0.6047711E+03  0.7818609E-02  0.9895557E-01
        2   -1    0    0  501    0  0.00000000000E+00  0.00000000000E+00  0.11942408661E+04  0.11942408661E+04  0.25500000920E-02 0. -1.
       -2   -1    0    0    0  501  0.00000000000E+00  0.00000000000E+00 -0.76564979004E+02  0.76564979046E+02  0.25500000920E-02 0.  1.
    10030    2    1    2    0    0  0.00000000000E+00  0.00000000000E+00  0.11176758871E+04  0.12708058451E+04  0.60477111989E+03 0.  0.
        1    1    3    3  502    0 -0.93701451448E+01 -0.22631404155E+03  0.13788928039E+03  0.26517786238E+03  0.50400001928E-02 0.  1.
       -1    1    3    3    0  502  0.93701451448E+01  0.22631404155E+03  0.97978660666E+03  0.10056279827E+04  0.50400001928E-02 0. -1.
</event>
<event>
 5   0  0.4987389E-02  0.5991591E+03  0.7818609E-02  0.9907152E-01
        1   -1    0    0  501    0  0.00000000000E+00  0.00000000000E+00  0.95384330857E+03  0.95384330858E+03  0.50400001928E-02 0.  1.
       -1   -1    0    0    0  501  0.00000000000E+00  0.00000000000E+00 -0.94090822286E+02  0.94090822421E+02  0.50400001928E-02 0. -1.
    10030    2    1    2    0    0  0.00000000000E+00  0.00000000000E+00  0.85975248628E+03  0.10479341310E+04  0.59915908175E+03 0.  0.
        1    1    3    3  502    0  0.15661299972E+03  0.10307695342E+03  0.83854356330E+03  0.85924839109E+03  0.50400001928E-02 0.  1.
       -1    1    3    3    0  502 -0.15661299972E+03 -0.10307695342E+03  0.21208922978E+02  0.18868573991E+03  0.50400001928E-02 0. -1.
</event>
<event>
 5   0  0.5166903E-02  0.6043562E+03  0.7818609E-02  0.9896409E-01
       -1   -1    0    0    0  501  0.00000000000E+00  0.00000000000E+00  0.42897024344E+03  0.42897024347E+03  0.50400001928E-02 0.  1.
        1   -1    0    0  501    0  0.00000000000E+00  0.00000000000E+00 -0.21286236144E+03  0.21286236150E+03  0.50400001928E-02 0. -1.
    10030    2    1    2    0    0  0.00000000000E+00  0.00000000000E+00  0.21610788200E+03  0.64183260497E+03  0.60435624936E+03 0.  0.
        2    1    3    3  502    0 -0.24847802638E+03 -0.93219395645E+02  0.26151511479E+03  0.37258735967E+03  0.25500000920E-02 0.  1.
       -2    1    3    3    0  502  0.24847802638E+03  0.93219395645E+02 -0.45407232796E+02  0.26924524529E+03  0.25500000920E-02 0. -1.
</event>
<event>
 5   0  0.8420604E-02  0.5993978E+03  0.7818609E-02  0.9906656E-01
        2   -1    0    0  501    0  0.00000000000E+00  0.00000000000E+00  0.95988390757E+03  0.95988390757E+03  0.25500000920E-02 0. -1.
       -2   -1    0    0    0  501  0.00000000000E+00  0.00000000000E+00 -0.93573221299E+02  0.93573221334E+02  0.25500000920E-02 0.  1.
    10030    2    1    2    0    0  0.00000000000E+00  0.00000000000E+00  0.86631068627E+03  0.10534571289E+04  0.59939779554E+03 0.  0.
        2    1    3    3  502    0  0.28279100344E+03 -0.67305852565E+02  0.56132947533E+03  0.63213258838E+03  0.25500000920E-02 0.  1.
       -2    1    3    3    0  502 -0.28279100344E+03  0.67305852565E+02  0.30498121094E+03  0.42132454053E+03  0.25500000920E-02 0. -1.
</event>
<event>
 5   0  0.8420604E-02  0.5939881E+03  0.7818609E-02  0.9917958E-01
        2   -1    0    0  501    0  0.00000000000E+00  0.00000000000E+00  0.24340135133E+03  0.24340135135E+03  0.25500000920E-02 0.  1.
       -2   -1    0    0    0  501  0.00000000000E+00  0.00000000000E+00 -0.36238696737E+03  0.36238696738E+03  0.25500000920E-02 0. -1.
    10030    2    1    2    0    0  0.00000000000E+00  0.00000000000E+00 -0.11898561603E+03  0.60578831872E+03  0.59398813985E+03 0.  0.
        2    1    3    3  502    0 -0.12110433308E+03  0.10288391882E+03 -0.31538391361E+03  0.35315488558E+03  0.25500000920E-02 0. -1.
       -2    1    3    3    0  502  0.12110433308E+03 -0.10288391882E+03  0.19639829758E+03  0.25263343314E+03  0.25500000920E-02 0.  1.
</event>
<event>
 5   0  0.8817544E-02  0.6008936E+03  0.7818609E-02  0.9903554E-01
       -2   -1    0    0    0  501  0.00000000000E+00  0.00000000000E+00  0.11809411821E+03  0.11809411824E+03  0.25500000920E-02 0.  1.
        2   -1    0    0  501    0  0.00000000000E+00  0.00000000000E+00 -0.76437570895E+03  0.76437570896E+03  0.25500000920E-02 0. -1.
    10030    2    1    2    0    0  0.00000000000E+00  0.00000000000E+00 -0.64628159074E+03  0.88246982719E+03  0.60089358573E+03 0.  0.
        5    1    3    3  502    0 -0.35191564937E+02  0.29793382784E+03 -0.30023948821E+03  0.42446301640E+03  0.46999998093E+01 0.  1.
       -5    1    3    3    0  502  0.35191564937E+02 -0.29793382784E+03 -0.34604210254E+03  0.45800681080E+03  0.46999998093E+01 0. -1.
</event>
<event>
 5   0  0.8207443E-02  0.5882727E+03  0.7818609E-02  0.9930040E-01
        2   -1    0    0  501    0  0.00000000000E+00  0.00000000000E+00  0.73524940477E+03  0.73524940477E+03  0.25500000920E-02 0. -1.
       -2   -1    0    0    0  501  0.00000000000E+00  0.00000000000E+00 -0.11766918679E+03  0.11766918682E+03  0.25500000920E-02 0.  1.
    10030    2    1    2    0    0  0.00000000000E+00  0.00000000000E+00  0.61758021797E+03  0.85291859160E+03  0.58827272439E+03 0.  0.
        1    1    3    3  502    0  0.19375997341E+03 -0.22049846842E+03  0.28152263131E+03  0.40671549496E+03  0.50400001928E-02 0.  1.
       -1    1    3    3    0  502 -0.19375997341E+03  0.22049846842E+03  0.33605758666E+03  0.44620309664E+03  0.50400001928E-02 0. -1.
</event>
<event>
 5   0  0.4987389E-02  0.6022142E+03  0.7818609E-02  0.9900823E-01
        1   -1    0    0  501    0  0.00000000000E+00  0.00000000000E+00  0.94814262768E+03  0.94814262770E+03  0.50400001928E-02 0.  1.
       -1   -1    0    0    0  501  0.00000000000E+00  0.00000000000E+00 -0.95624324993E+02  0.95624325126E+02  0.50400001928E-02 0. -1.
    10030    2    1    2    0    0  0.00000000000E+00  0.00000000000E+00  0.85251830269E+03  0.10437669528E+04  0.60221424376E+03 0.  0.
        1    1    3    3  502    0  0.13476793107E+03  0.23417544772E+03  0.65662011585E+03  0.71003557103E+03  0.50400001928E-02 0.  1.
       -1    1    3    3    0  502 -0.13476793107E+03 -0.23417544772E+03  0.19589818684E+03  0.33373138179E+03  0.50400001928E-02 0. -1.
</event>
<event>
 5   0  0.8575590E-02  0.5956586E+03  0.7818609E-02  0.9914454E-01
        2   -1    0    0  501    0  0.00000000000E+00  0.00000000000E+00  0.42734051829E+03  0.42734051830E+03  0.25500000920E-02 0. -1.
       -2   -1    0    0    0  501  0.00000000000E+00  0.00000000000E+00 -0.20756820639E+03  0.20756820641E+03  0.25500000920E-02 0.  1.
    10030    2    1    2    0    0  0.00000000000E+00  0.00000000000E+00  0.21977231190E+03  0.63490872471E+03  0.59565864355E+03 0.  0.
        4    1    3    3  502    0 -0.50475644980E+02  0.58199377843E+02 -0.19676113444E+03  0.21130905150E+03  0.12699999809E+01 0.  1.
       -4    1    3    3    0  502  0.50475644980E+02 -0.58199377843E+02  0.41653344635E+03  0.42359967321E+03  0.12699999809E+01 0. -1.
</event>
<event>
 5   0  0.8817544E-02  0.6022451E+03  0.7818609E-02  0.9900759E-01
        2   -1    0    0  501    0  0.00000000000E+00  0.00000000000E+00  0.67168921322E+03  0.67168921323E+03  0.25500000920E-02 0.  1.
       -2   -1    0    0    0  501  0.00000000000E+00  0.00000000000E+00 -0.13499514336E+03  0.13499514339E+03  0.25500000920E-02 0. -1.
    10030    2    1    2    0    0  0.00000000000E+00  0.00000000000E+00  0.53669406986E+03  0.80668435662E+03  0.60224507186E+03 0.  0.
        5    1    3    3  502    0  0.19623938835E+03  0.19098219690E+03  0.43601318872E+03  0.51489191857E+03  0.46999998093E+01 0.  1.
       -5    1    3    3    0  502 -0.19623938835E+03 -0.19098219690E+03  0.10068088114E+03  0.29179243804E+03  0.46999998093E+01 0. -1.
</event>
<event>
 5   0  0.8207443E-02  0.6033914E+03  0.7818609E-02  0.9898395E-01
       -2   -1    0    0    0  501  0.00000000000E+00  0.00000000000E+00  0.13222112892E+03  0.13222112895E+03  0.25500000920E-02 0. -1.
        2   -1    0    0  501    0  0.00000000000E+00  0.00000000000E+00 -0.68839452499E+03  0.68839452499E+03  0.25500000920E-02 0.  1.
    10030    2    1    2    0    0  0.00000000000E+00  0.00000000000E+00 -0.55617339606E+03  0.82061565394E+03  0.60339141940E+03 0.  0.
        1    1    3    3  502    0  0.28742341089E+03 -0.64614706393E+02 -0.18960243802E+03  0.35033749719E+03  0.50400001928E-02 0. -1.
       -1    1    3    3    0  502 -0.28742341089E+03  0.64614706393E+02 -0.36657095804E+03  0.47027815675E+03  0.50400001928E-02 0.  1.
</event>
<event>
 5   0  0.4987389E-02  0.6150301E+03  0.7818609E-02  0.9874705E-01
       -1   -1    0    0    0  501  0.00000000000E+00  0.00000000000E+00  0.79807783313E+02  0.79807783472E+02  0.50400001928E-02 0. -1.
        1   -1    0    0  501    0  0.00000000000E+00  0.00000000000E+00 -0.11849158468E+04  0.11849158468E+04  0.50400001928E-02 0.  1.
    10030    2    1    2    0    0  0.00000000000E+00  0.00000000000E+00 -0.11051080635E+04  0.12647236303E+04  0.61503010415E+03 0.  0.
        1    1    3    3  502    0 -0.22299133800E+03 -0.20891397745E+03 -0.48145864357E+03  0.57023908345E+03  0.50400001928E-02 0. -1.
       -1    1    3    3    0  502  0.22299133800E+03  0.20891397745E+03 -0.62364941990E+03  0.69448454682E+03  0.50400001928E-02 0.  1.
</event>
<event>
 5   0  0.3437375E-02  0.5999512E+03  0.7818609E-02  0.9905507E-01
       -4   -1    0    0    0  501  0.00000000000E+00  0.00000000000E+00  0.17516528744E+03  0.17516989131E+03  0.12699999809E+01 0. -1.
        4   -1    0    0  501    0  0.00000000000E+00  0.00000000000E+00 -0.51370476623E+03  0.51370633610E+03  0.12699999809E+01 0.  1.
    10030    2    1    2    0    0  0.00000000000E+00  0.00000000000E+00 -0.33853947880E+03  0.68887622741E+03  0.59995122968E+03 0.  0.
        4    1    3    3  502    0 -0.68139334700E+02 -0.87923224134E+02  0.15060866074E+03  0.18723793383E+03  0.12699999809E+01 0. -1.
       -4    1    3    3    0  502  0.68139334700E+02  0.87923224134E+02 -0.48914813954E+03  0.50163829358E+03  0.12699999809E+01 0.  1.
</event>
<event>
 5   0  0.5166903E-02  0.5944992E+03  0.7818609E-02  0.9916885E-01
       -1   -1    0    0    0  501  0.00000000000E+00  0.00000000000E+00  0.77423929806E+02  0.77423929970E+02  0.50400001928E-02 0.  1.
        1   -1    0    0  501    0  0.00000000000E+00  0.00000000000E+00 -0.11412147629E+04  0.11412147629E+04  0.50400001928E-02 0. -1.
    10030    2    1    2    0    0  0.00000000000E+00  0.00000000000E+00 -0.10637908331E+04  0.12186386928E+04  0.59449922388E+03 0.  0.
        2    1    3    3  502    0  0.10186375048E+03 -0.23439691421E+03 -0.22075436215E+03  0.33771382185E+03  0.25500000920E-02 0.  1.
       -2    1    3    3    0  502 -0.10186375048E+03  0.23439691421E+03 -0.84303647090E+03  0.88092487099E+03  0.25500000920E-02 0. -1.
</event>
<event>
 5   0  0.8420604E-02  0.6014708E+03  0.7818609E-02  0.9902359E-01
       -2   -1    0    0    0  501  0.00000000000E+00  0.00000000000E+00  0.23203492626E+03  0.23203492628E+03  0.25500000920E-02 0. -1.
        2   -1    0    0  501    0  0.00000000000E+00  0.00000000000E+00 -0.38977661654E+03  0.38977661654E+03  0.25500000920E-02 0.  1.
    10030    2    1    2    0    0  0.00000000000E+00  0.00000000000E+00 -0.15774169027E+03  0.62181154282E+03  0.60147082551E+03 0.  0.
        2    1    3    3  502    0 -0.22039523638E+03  0.15935207711E+03  0.53823443173E+02  0.27724376952E+03  0.25500000920E-02 0. -1.
       -2    1    3    3    0  502  0.22039523638E+03 -0.15935207711E+03 -0.21156513345E+03  0.34456777330E+03  0.25500000920E-02 0.  1.
</event>
<event>
 5   0  0.8575590E-02  0.6045276E+03  0.7818609E-02  0.9896057E-01
       -2   -1    0    0    0  501  0.00000000000E+00  0.00000000000E+00  0.20115512292E+03  0.20115512293E+03  0.25500000920E-02 0. -1.
        2   -1    0    0  501    0  0.00000000000E+00  0.00000000000E+00 -0.45419371441E+03  0.45419371442E+03  0.25500000920E-02 0.  1.
    10030    2    1    2    0    0  0.00000000000E+00  0.00000000000E+00 -0.25303859149E+03  0.65534883735E+03  0.60452755920E+03 0.  0.
        4    1    3    3  502    0  0.14839288450E+03 -0.11268876671E+02  0.15868396200E+03  0.21755378289E+03  0.12699999809E+01 0. -1.
       -4    1    3    3    0  502 -0.14839288450E+03  0.11268876671E+02 -0.41172255350E+03  0.43779505446E+03  0.12699999809E+01 0.  1.
</event>
<event>
 5   0  0.8817544E-02  0.5955062E+03  0.7818609E-02  0.9914773E-01
       -2   -1    0    0    0  501  0.00000000000E+00  0.00000000000E+00  0.22721514827E+03  0.22721514828E+03  0.25500000920E-02 0. -1.
        2   -1    0    0  501    0  0.00000000000E+00  0.00000000000E+00 -0.39018921132E+03  0.39018921133E+03  0.25500000920E-02 0.  1.
    10030    2    1    2    0    0  0.00000000000E+00  0.00000000000E+00 -0.16297406305E+03  0.61740435961E+03  0.59550616961E+03 0.  0.
        5    1    3    3  502    0 -0.26177287550E+03  0.72478710527E+02 -0.20785681872E+03  0.34205956925E+03  0.46999998093E+01 0.  1.
       -5    1    3    3    0  502  0.26177287550E+03 -0.72478710527E+02  0.44882755672E+02  0.27534479037E+03  0.46999998093E+01 0. -1.
</event>
<event>
 5   0  0.5125031E-02  0.5944273E+03  0.7818609E-02  0.9917036E-01
        1   -1    0    0  501    0  0.00000000000E+00  0.00000000000E+00  0.79560277191E+03  0.79560277193E+03  0.50400001928E-02 0. -1.
       -1   -1    0    0    0  501  0.00000000000E+00  0.00000000000E+00 -0.11103022752E+03  0.11103022763E+03  0.50400001928E-02 0.  1.
    10030    2    1    2    0    0  0.00000000000E+00  0.00000000000E+00  0.68457254439E+03  0.90663299956E+03  0.59442731041E+03 0.  0.
        4    1    3    3  502    0  0.11361742944E+03 -0.12932078999E+03 -0.27250429397E+02  0.17428994750E+03  0.12699999809E+01 0.  1.
       -4    1    3    3    0  502 -0.11361742944E+03  0.12932078999E+03  0.71182297379E+03  0.73234305207E+03  0.12699999809E+01 0. -1.
</event>
<event>
 5   0  0.5125031E-02  0.5989110E+03  0.7818609E-02  0.9907668E-01
        1   -1    0    0  501    0  0.00000000000E+00  0.00000000000E+00  0.54674735058E+03  0.54674735060E+03  0.50400001928E-02 0. -1.
       -1   -1    0    0    0  501  0.00000000000E+00  0.00000000000E+00 -0.16401288623E+03  0.16401288631E+03  0.50400001928E-02 0.  1.
    10030    2    1    2    0    0  0.00000000000E+00  0.00000000000E+00  0.38273446435E+03  0.71076023691E+03  0.59891104863E+03 0.  0.
        4    1    3    3  502    0 -0.23500979547E+03 -0.12899389888E+03  0.34971319928E+03  0.44064721100E+03  0.12699999809E+01 0.  1.
       -4    1    3    3    0  502  0.23500979547E+03  0.12899389888E+03  0.33021265068E+02  0.27011302590E+03  0.12699999809E+01 0. -1.
</event>
<event>
 5   0  0.8420604E-02  0.6077544E+03  0.7818609E-02  0.9889447E-01
       -2   -1    0    0    0  501  0.00000000000E+00  0.00000000000E+00  0.22292834166E+03  0.22292834167E+03  0.25500000920E-02 0.  1.
        2   -1    0    0  501    0  0.00000000000E+00  0.00000000000E+00 -0.41421990903E+03  0.41421990903E+03  0.25500000920E-02 0. -1.
    10030    2    1    2    0    0  0.00000000000E+00  0.00000000000E+00 -0.19129156737E+03  0.63714825071E+03  0.60775441556E+03 0.  0.
        2    1    3    3  502    0 -0.22711599560E+03  0.19800192898E+03 -0.54306197326E+02  0.30616270578E+03  0.25500000920E-02 0.  1.
       -2    1    3    3    0  502  0.22711599560E+03 -0.19800192898E+03 -0.13698537004E+03  0.33098554492E+03  0.25500000920E-02 0. -1.
</event>
<event>
 5   0  0.8207443E-02  0.6013056E+03  0.7818609E-02  0.9902701E-01
       -2   -1    0    0    0  501  0.00000000000E+00  0.00000000000E+00  0.72195520163E+02  0.72195520208E+02  0.25500000920E-02 0. -1.
        2   -1    0    0  501    0  0.00000000000E+00  0.00000000000E+00 -0.12520460197E+04  0.12520460197E+04  0.25500000920E-02 0.  1.
    10030    2    1    2    0    0  0.00000000000E+00  0.00000000000E+00 -0.11798504996E+04  0.13242415399E+04  0.60130562510E+03 0.  0.
        1    1    3    3  502    0  0.67868781350E+02 -0.27453872104E+02 -0.12321155143E+04  0.12342886725E+04  0.50400001928E-02 0.  1.
       -1    1    3    3    0  502 -0.67868781350E+02  0.27453872104E+02  0.52265014684E+02  0.89952867441E+02  0.50400001928E-02 0. -1.
</event>
<event>
 5   0  0.8207443E-02  0.6000636E+03  0.7818609E-02  0.9905274E-01
       -2   -1    0    0    0  501  0.00000000000E+00  0.00000000000E+00  0.51764749329E+02  0.51764749391E+02  0.25500000920E-02 0. -1.
        2   -1    0    0  501    0  0.00000000000E+00  0.00000000000E+00 -0.17390033233E+04  0.17390033233E+04  0.25500000920E-02 0.  1.
    10030    2    1    2    0    0  0.00000000000E+00  0.00000000000E+00 -0.16872385740E+04  0.17907680727E+04  0.60006356720E+03 0.  0.
        1    1    3    3  502    0 -0.12121588396E+02 -0.28275058047E+03 -0.54632204775E+03  0.61527441321E+03  0.50400001928E-02 0. -1.
       -1    1    3    3    0  502  0.12121588396E+02  0.28275058047E+03 -0.11409165262E+04  0.11754936595E+04  0.50400001928E-02 0.  1.
</event>
<event>
 5   0  0.3437375E-02  0.5991405E+03  0.7818609E-02  0.9907191E-01
        4   -1    0    0  501    0  0.00000000000E+00  0.00000000000E+00  0.19542940946E+03  0.19543353597E+03  0.12699999809E+01 0. -1.
       -4   -1    0    0    0  501  0.00000000000E+00  0.00000000000E+00 -0.45919605007E+03  0.45919780629E+03  0.12699999809E+01 0.  1.
    10030    2    1    2    0    0  0.00000000000E+00  0.00000000000E+00 -0.26376664062E+03  0.65463134226E+03  0.59914051237E+03 0.  0.
        5    1    3    3  502    0  0.21858220896E+03  0.19234731422E+03 -0.20871364731E+03  0.35827244931E+03  0.46999998093E+01 0.  1.
       -5    1    3    3    0  502 -0.21858220896E+03 -0.19234731422E+03 -0.55052993309E+02  0.29635889295E+03  0.46999998093E+01 0. -1.
</event>
<event>
 5   0  0.8817544E-02  0.6003275E+03  0.7818609E-02  0.9904727E-01
       -2   -1    0    0    0  501  0.00000000000E+00  0.00000000000E+00  0.13657718989E+03  0.13657718991E+03  0.25500000920E-02 0.  1.
        2   -1    0    0  501    0  0.00000000000E+00  0.00000000000E+00 -0.65968768320E+03  0.65968768320E+03  0.25500000920E-02 0. -1.
    10030    2    1    2    0    0  0.00000000000E+00  0.00000000000E+00 -0.52311049331E+03  0.79626487312E+03  0.60032754389E+03 0.  0.
        5    1    3    3  502    0  0.12179158264E+03  0.20019826574E+03 -0.12832014231E+02  0.23473237057E+03  0.46999998093E+01 0.  1.
       -5    1    3    3    0  502 -0.12179158264E+03 -0.20019826574E+03 -0.51027847908E+03  0.56153250255E+03  0.46999998093E+01 0. -1.
</event>
<event>
 5   0  0.5125031E-02  0.5959357E+03  0.7818609E-02  0.9913874E-01
       -1   -1    0    0    0  501  0.00000000000E+00  0.00000000000E+00  0.53603945064E+03  0.53603945066E+03  0.50400001928E-02 0. -1.
        1   -1    0    0  501    0  0.00000000000E+00  0.00000000000E+00 -0.16563114203E+03  0.16563114210E+03  0.50400001928E-02 0.  1.
    10030    2    1    2    0    0  0.00000000000E+00  0.00000000000E+00  0.37040830861E+03  0.70167059276E+03  0.59593565564E+03 0.  0.
        4    1    3    3  502    0 -0.88667036742E+02  0.25784346568E+03  0.32668224429E+03  0.42552085476E+03  0.12699999809E+01 0. -1.
       -4    1    3    3    0  502  0.88667036742E+02 -0.25784346568E+03  0.43726064321E+02  0.27614973801E+03  0.12699999809E+01 0.  1.
</event>
<event>
 5   0  0.4987389E-02  0.6035343E+03  0.7818609E-02  0.9898100E-01
        1   -1    0    0  501    0  0.00000000000E+00  0.00000000000E+00  0.38266141814E+03  0.38266141818E+03  0.50400001928E-02 0.  1.
       -1   -1    0    0    0  501  0.00000000000E+00  0.00000000000E+00 -0.23797386707E+03  0.23797386712E+03  0.50400001928E-02 0. -1.
    10030    2    1    2    0    0  0.00000000000E+00  0.00000000000E+00  0.14468755107E+03  0.62063528530E+03  0.60353431545E+03 0.  0.
        1    1    3    3  502    0  0.33981146775E+02  0.25292622677E+03 -0.93269275485E+02  0.27170857973E+03  0.50400001928E-02 0. -1.
       -1    1    3    3    0  502 -0.33981146775E+02 -0.25292622677E+03  0.23795682656E+03  0.34892670557E+03  0.50400001928E-02 0.  1.
</event>
<event>
 5   0  0.4987389E-02  0.5945794E+03  0.7818609E-02  0.9916716E-01
       -1   -1    0    0    0  501  0.00000000000E+00  0.00000000000E+00  0.99025343691E+02  0.99025343819E+02  0.50400001928E-02 0.  1.
        1   -1    0    0  501    0  0.00000000000E+00  0.00000000000E+00 -0.89251045303E+03  0.89251045305E+03  0.50400001928E-02 0. -1.
    10030    2    1    2    0    0  0.00000000000E+00  0.00000000000E+00 -0.79348510934E+03  0.99153579687E+03  0.59457936200E+03 0.  0.
        1    1    3    3  502    0  0.16434720642E+03  0.89339926040E+02 -0.78206703999E+03  0.80412715519E+03  0.50400001928E-02 0. -1.
       -1    1    3    3    0  502 -0.16434720642E+03 -0.89339926040E+02 -0.11418069351E+02  0.18740864168E+03  0.50400001928E-02 0.  1.
</event>
<event>
 5   0  0.3437375E-02  0.5994545E+03  0.7818609E-02  0.9906539E-01
        4   -1    0    0  501    0  0.00000000000E+00  0.00000000000E+00  0.21743110020E+03  0.21743480915E+03  0.12699999809E+01 0.  1.
       -4   -1    0    0    0  501  0.00000000000E+00  0.00000000000E+00 -0.41316364951E+03  0.41316560140E+03  0.12699999809E+01 0. -1.
    10030    2    1    2    0    0  0.00000000000E+00  0.00000000000E+00 -0.19573254932E+03  0.63060041055E+03  0.59945445776E+03 0.  0.
        3    1    3    3  502    0  0.72938166072E+02 -0.17253465608E+03  0.14827420843E+03  0.23890047029E+03  0.10100000352E+00 0.  1.
       -3    1    3    3    0  502 -0.72938166072E+02  0.17253465608E+03 -0.34400675775E+03  0.39169994026E+03  0.10100000352E+00 0. -1.
</event>
<event>
 5   0  0.3437375E-02  0.6084062E+03  0.7818609E-02  0.9888118E-01
       -3   -1    0    0    0  501  0.00000000000E+00  0.00000000000E+00  0.50339354404E+03  0.50339355417E+03  0.10100000352E+00 0.  1.
        3   -1    0    0  501    0  0.00000000000E+00  0.00000000000E+00 -0.18383133725E+03  0.18383136500E+03  0.10100000352E+00 0. -1.
    10030    2    1    2    0    0  0.00000000000E+00  0.00000000000E+00  0.31956220678E+03  0.68722491917E+03  0.60840618465E+03 0.  0.
        2    1    3    3  502    0 -0.19979898834E+03 -0.17644717295E+03 -0.57905181920E+01  0.26662102447E+03  0.25500000920E-02 0. -1.
       -2    1    3    3    0  502  0.19979898834E+03  0.17644717295E+03  0.32535272498E+03  0.42060389470E+03  0.25500000920E-02 0.  1.
</event>
<event>
 5   0  0.4987389E-02  0.5875467E+03  0.7818609E-02  0.9931585E-01
       -1   -1    0    0    0  501  0.00000000000E+00  0.00000000000E+00  0.24677810659E+03  0.24677810664E+03  0.50400001928E-02 0. -1.
        1   -1    0    0  501    0  0.00000000000E+00  0.00000000000E+00 -0.34971816999E+03  0.34971817003E+03  0.50400001928E-02 0.  1.
    10030    2    1    2    0    0  0.00000000000E+00  0.00000000000E+00 -0.10294006340E+03  0.59649627667E+03  0.58754672276E+03 0.  0.
        1    1    3    3  502    0  0.11659766188E+03  0.25731757079E+03  0.30351884257E+02  0.28412775981E+03  0.50400001928E-02 0. -1.
       -1    1    3    3    0  502 -0.11659766188E+03 -0.25731757079E+03 -0.13329194766E+03  0.31236851686E+03  0.50400001928E-02 0.  1.
</event>
<event>
 5   0  0.8207443E-02  0.5963511E+03  0.7818609E-02  0.9913005E-01
        2   -1    0    0  501    0  0.00000000000E+00  0.00000000000E+00  0.42577228392E+03  0.42577228393E+03  0.25500000920E-02 0.  1.
       -2   -1    0    0    0  501  0.00000000000E+00  0.00000000000E+00 -0.20881737197E+03  0.20881737198E+03  0.25500000920E-02 0. -1.
    10030    2    1    2    0    0  0.00000000000E+00  0.00000000000E+00  0.21695491195E+03  0.63458965591E+03  0.59635106906E+03 0.  0.
        1    1    3    3  502    0  0.33287650198E+02 -0.24338487908E+03  0.28832454191E+03  0.37878134657E+03  0.50400001928E-02 0.  1.
       -1    1    3    3    0  502 -0.33287650198E+02  0.24338487908E+03 -0.71369629958E+02  0.25580830934E+03  0.50400001928E-02 0. -1.
</event>
<event>
 5   0  0.4987389E-02  0.6010544E+03  0.7818609E-02  0.9903221E-01
        1   -1    0    0  501    0  0.00000000000E+00  0.00000000000E+00  0.62989987393E+03  0.62989987395E+03  0.50400001928E-02 0. -1.
       -1   -1    0    0    0  501  0.00000000000E+00  0.00000000000E+00 -0.14338245383E+03  0.14338245392E+03  0.50400001928E-02 0.  1.
    10030    2    1    2    0    0  0.00000000000E+00  0.00000000000E+00  0.48651742010E+03  0.77328232787E+03  0.60105437236E+03 0.  0.
        1    1    3    3  502    0 -0.68655651092E+02  0.81369732173E+02 -0.11830786218E+03  0.15915835516E+03  0.50400001928E-02 0.  1.
       -1    1    3    3    0  502  0.68655651092E+02 -0.81369732173E+02  0.60482528228E+03  0.61412397270E+03  0.50400001928E-02 0. -1.
</event>
<event>
 5   0  0.8575590E-02  0.6013609E+03  0.7818609E-02  0.9902587E-01
       -2   -1    0    0    0  501  0.00000000000E+00  0.00000000000E+00  0.48943843285E+02  0.48943843352E+02  0.25500000920E-02 0.  1.
        2   -1    0    0  501    0  0.00000000000E+00  0.00000000000E+00 -0.18471931736E+04  0.18471931736E+04  0.25500000920E-02 0. -1.
    10030    2    1    2    0    0  0.00000000000E+00  0.00000000000E+00 -0.17982493304E+04  0.18961370170E+04  0.60136090087E+03 0.  0.
        4    1    3    3  502    0  0.17989181271E+03 -0.55826591850E+02 -0.16381122551E+04  0.16489060149E+04  0.12699999809E+01 0. -1.
       -4    1    3    3    0  502 -0.17989181271E+03  0.55826591850E+02 -0.16013707521E+03  0.24723100209E+03  0.12699999809E+01 0.  1.
</event>
<event>
 5   0  0.8699746E-02  0.5984819E+03  0.7818609E-02  0.9908561E-01
       -2   -1    0    0    0  501  0.00000000000E+00  0.00000000000E+00  0.91574443772E+02  0.91574443807E+02  0.25500000920E-02 0.  1.
        2   -1    0    0  501    0  0.00000000000E+00  0.00000000000E+00 -0.97783988980E+03  0.97783988980E+03  0.25500000920E-02 0. -1.
    10030    2    1    2    0    0  0.00000000000E+00  0.00000000000E+00 -0.88626544602E+03  0.10694143336E+04  0.59848189288E+03 0.  0.
        3    1    3    3  502    0 -0.15169855076E+03 -0.10314804424E+03 -0.20683675971E+02  0.18460713417E+03  0.10100000352E+00 0.  1.
       -3    1    3    3    0  502  0.15169855076E+03  0.10314804424E+03 -0.86558177005E+03  0.88480719944E+03  0.10100000352E+00 0. -1.
</event>
<event>
 5   0  0.8420604E-02  0.6042613E+03  0.7818609E-02  0.9896605E-01
       -2   -1    0    0    0  501  0.00000000000E+00  0.00000000000E+00  0.52137054465E+02  0.52137054528E+02  0.25500000920E-02 0.  1.
        2   -1    0    0  501    0  0.00000000000E+00  0.00000000000E+00 -0.17508261740E+04  0.17508261740E+04  0.25500000920E-02 0. -1.
    10030    2    1    2    0    0  0.00000000000E+00  0.00000000000E+00 -0.16986891195E+04  0.18029632285E+04  0.60426126684E+03 0.  0.
        2    1    3    3  502    0  0.24005435097E+03  0.18224568510E+02 -0.30465983846E+03  0.38829865245E+03  0.25500000920E-02 0.  1.
       -2    1    3    3    0  502 -0.24005435097E+03 -0.18224568510E+02 -0.13940292811E+04  0.14146645761E+04  0.25500000920E-02 0. -1.
</event>
<event>
 5   0  0.5190380E-02  0.6034291E+03  0.7818609E-02  0.9898317E-01
        1   -1    0    0  501    0  0.00000000000E+00  0.00000000000E+00  0.14936508903E+04  0.14936508903E+04  0.50400001928E-02 0.  1.
       -1   -1    0    0    0  501  0.00000000000E+00  0.00000000000E+00 -0.60945748320E+02  0.60945748528E+02  0.50400001928E-02 0. -1.
    10030    2    1    2    0    0  0.00000000000E+00  0.00000000000E+00  0.14327051420E+04  0.15545966389E+04  0.60342910572E+03 0.  0.
        5    1    3    3  502    0 -0.17063892437E+03  0.53314589520E+02  0.13423889323E+04  0.13542489518E+04  0.46999998093E+01 0.  1.
       -5    1    3    3    0  502  0.17063892437E+03 -0.53314589520E+02  0.90316209712E+02  0.20034768704E+03  0.46999998093E+01 0. -1.
</event>
<event>
 5   0  0.4987389E-02  0.5928666E+03  0.7818609E-02  0.9920317E-01
       -1   -1    0    0    0  501  0.00000000000E+00  0.00000000000E+00  0.40401170248E+03  0.40401170251E+03  0.50400001928E-02 0. -1.
        1   -1    0    0  501    0  0.00000000000E+00  0.00000000000E+00 -0.21750041751E+03  0.21750041757E+03  0.50400001928E-02 0.  1.
    10030    2    1    2    0    0  0.00000000000E+00  0.00000000000E+00  0.18651128497E+03  0.62151212009E+03  0.59286664267E+03 0.  0.
        1    1    3    3  502    0  0.11439477332E+03 -0.26175487949E+03  0.10240242937E+02  0.28584374001E+03  0.50400001928E-02 0. -1.
       -1    1    3    3    0  502 -0.11439477332E+03  0.26175487949E+03  0.17627104203E+03  0.33566838008E+03  0.50400001928E-02 0.  1.
</event>
<event>
 5   0  0.8575590E-02  0.6012428E+03  0.7818609E-02  0.9902831E-01
       -2   -1    0    0    0  501  0.00000000000E+00  0.00000000000E+00  0.49209178833E+03  0.49209178834E+03  0.25500000920E-02 0.  1.
        2   -1    0    0  501    0  0.00000000000E+00  0.00000000000E+00 -0.18365116019E+03  0.18365116021E+03  0.25500000920E-02 0. -1.
    10030    2    1    2    0    0  0.00000000000E+00  0.00000000000E+00  0.30844062814E+03  0.67574294854E+03  0.60124280571E+03 0.  0.
        4    1    3    3  502    0 -0.94197568426E+02 -0.47271147333E+02  0.47064420797E+03  0.48230211140E+03  0.12699999809E+01 0.  1.
       -4    1    3    3    0  502  0.94197568426E+02  0.47271147333E+02 -0.16220357982E+03  0.19344083714E+03  0.12699999809E+01 0. -1.
</event>
<event>
 5   0  0.8575590E-02  0.6047268E+03  0.7818609E-02  0.9895648E-01
       -2   -1    0    0    0  501  0.00000000000E+00  0.00000000000E+00  0.13037983317E+03  0.13037983319E+03  0.25500000920E-02 0.  1.
        2   -1    0    0  501    0  0.00000000000E+00  0.00000000000E+00 -0.70120982558E+03  0.70120982559E+03  0.25500000920E-02 0. -1.
    10030    2    1    2    0    0  0.00000000000E+00  0.00000000000E+00 -0.57082999241E+03  0.83158965878E+03  0.60472678157E+03 0.  0.
        4    1    3    3  502    0 -0.20960300563E+03  0.12615290526E+02 -0.58458329233E+03  0.62115360749E+03  0.12699999809E+01 0. -1.
       -4    1    3    3    0  502  0.20960300563E+03 -0.12615290526E+02  0.13753299920E+02  0.21043605129E+03  0.12699999809E+01 0.  1.
</event>
<event>
 5   0  0.8817544E-02  0.5909696E+03  0.7818609E-02  0.9924321E-01
       -2   -1    0    0    0  501  0.00000000000E+00  0.00000000000E+00  0.16454884128E+03  0.16454884130E+03  0.25500000920E-02 0.  1.
        2   -1    0    0  501    0  0.00000000000E+00  0.00000000000E+00 -0.53060994949E+03  0.53060994950E+03  0.25500000920E-02 0. -1.
    10030    2    1    2    0    0  0.00000000000E+00  0.00000000000E+00 -0.36606110821E+03  0.69515879080E+03  0.59096955038E+03 0.  0.
        5    1    3    3  502    0  0.24425572556E+03  0.15818662455E+03 -0.12298963330E+03  0.31596266797E+03  0.46999998093E+01 0.  1.
       -5    1    3    3    0  502 -0.24425572556E+03 -0.15818662455E+03 -0.24307147492E+03  0.37919612283E+03  0.46999998093E+01 0. -1.
</event>
<event>
 5   0  0.8699746E-02  0.5921674E+03  0.7818609E-02  0.9921791E-01
       -2   -1    0    0    0  501  0.00000000000E+00  0.00000000000E+00  0.21847319724E+03  0.21847319726E+03  0.25500000920E-02 0.  1.
        2   -1    0    0  501    0  0.00000000000E+00  0.00000000000E+00 -0.40126456747E+03  0.40126456747E+03  0.25500000920E-02 0. -1.
    10030    2    1    2    0    0  0.00000000000E+00  0.00000000000E+00 -0.18279137022E+03  0.61973776473E+03  0.59216738513E+03 0.  0.
        3    1    3    3  502    0 -0.28147328410E+03 -0.26224979186E+01 -0.18749377540E+03  0.33821297014E+03  0.10100000352E+00 0. -1.
       -3    1    3    3    0  502  0.28147328410E+03  0.26224979186E+01  0.47024051825E+01  0.28152479459E+03  0.10100000352E+00 0.  1.
</event>
<event>
 5   0  0.3437375E-02  0.5955246E+03  0.7818609E-02  0.9914735E-01
       -3   -1    0    0    0  501  0.00000000000E+00  0.00000000000E+00  0.76713071927E+03  0.76713072592E+03  0.10100000352E+00 0. -1.
        3   -1    0    0  501    0  0.00000000000E+00  0.00000000000E+00 -0.11557659692E+03  0.11557664105E+03  0.10100000352E+00 0.  1.
    10030    2    1    2    0    0  0.00000000000E+00  0.00000000000E+00  0.65155412235E+03  0.88270736697E+03  0.59552457662E+03 0.  0.
        4    1    3    3  502    0  0.75583127418E+02 -0.20659762587E+03  0.28348302035E+02  0.22181214416E+03  0.12699999809E+01 0.  1.
       -4    1    3    3    0  502 -0.75583127418E+02  0.20659762587E+03  0.62320582031E+03  0.66089522281E+03  0.12699999809E+01 0. -1.
</event>
<event>
 5   0  0.8575590E-02  0.5867492E+03  0.7818609E-02  0.9933285E-01
       -2   -1    0    0    0  501  0.00000000000E+00  0.00000000000E+00  0.70550186871E+03  0.70550186872E+03  0.25500000920E-02 0.  1.
        2   -1    0    0  501    0  0.00000000000E+00  0.00000000000E+00 -0.12199636997E+03  0.12199637000E+03  0.25500000920E-02 0. -1.
    10030    2    1    2    0    0  0.00000000000E+00  0.00000000000E+00  0.58350549874E+03  0.82749823872E+03  0.58674923777E+03 0.  0.
        4    1    3    3  502    0 -0.21761246778E+03 -0.19622873636E+03  0.31200192124E+03  0.42802770338E+03  0.12699999809E+01 0. -1.
       -4    1    3    3    0  502  0.21761246778E+03  0.19622873636E+03  0.27150357750E+03  0.39947053534E+03  0.12699999809E+01 0.  1.
</event>
<event>
 5   0  0.3437375E-02  0.6070216E+03  0.7818609E-02  0.9890945E-01
       -3   -1    0    0    0  501  0.00000000000E+00  0.00000000000E+00  0.94126329683E+02  0.94126383871E+02  0.10100000352E+00 0. -1.
        3   -1    0    0  501    0  0.00000000000E+00  0.00000000000E+00 -0.97867181191E+03  0.97867181712E+03  0.10100000352E+00 0.  1.
    10030    2    1    2    0    0  0.00000000000E+00  0.00000000000E+00 -0.88454548223E+03  0.10727982010E+04  0.60702163876E+03 0.  0.
        2    1    3    3  502    0 -0.22726488727E+02  0.11606321621E+03  0.51727741135E+02  0.12908494357E+03  0.25500000920E-02 0. -1.
       -2    1    3    3    0  502  0.22726488727E+02 -0.11606321621E+03 -0.93627322336E+03  0.94371325743E+03  0.25500000920E-02 0.  1.
</event>
<event>
 5   0  0.4881209E-02  0.5991647E+03  0.7818609E-02  0.9907141E-01
        1   -1    0    0  501    0  0.00000000000E+00  0.00000000000E+00  0.33277539988E+03  0.33277539992E+03  0.50400001928E-02 0. -1.
       -1   -1    0    0    0  501  0.00000000000E+00  0.00000000000E+00 -0.26970015534E+03  0.26970015539E+03  0.50400001928E-02 0.  1.
    10030    2    1    2    0    0  0.00000000000E+00  0.00000000000E+00  0.63075244545E+02  0.60247555531E+03  0.59916467542E+03 0.  0.
        3    1    3    3  502    0  0.92738908565E+02  0.15809199614E+03 -0.20674438203E+03  0.27629121250E+03  0.10100000352E+00 0.  1.
       -3    1    3    3    0  502 -0.92738908565E+02 -0.15809199614E+03  0.26981962657E+03  0.32618434280E+03  0.10100000352E+00 0. -1.
</event>
<event>
 5   0  0.5166903E-02  0.6021208E+03  0.7818609E-02  0.9901016E-01
       -1   -1    0    0    0  501  0.00000000000E+00  0.00000000000E+00  0.15128691553E+03  0.15128691562E+03  0.50400001928E-02 0.  1.
        1   -1    0    0  501    0  0.00000000000E+00  0.00000000000E+00 -0.59910898987E+03  0.59910898989E+03  0.50400001928E-02 0. -1.
    10030    2    1    2    0    0  0.00000000000E+00  0.00000000000E+00 -0.44782207434E+03  0.75039590551E+03  0.60212075594E+03 0.  0.
        2    1    3    3  502    0 -0.74123026498E+02 -0.19365715129E+03 -0.49592606470E+03  0.53753137300E+03  0.25500000920E-02 0. -1.
       -2    1    3    3    0  502  0.74123026498E+02  0.19365715129E+03  0.48103990361E+02  0.21286453251E+03  0.25500000920E-02 0.  1.
</event>
<event>
 5   0  0.3437375E-02  0.6128553E+03  0.7818609E-02  0.9879089E-01
        3   -1    0    0  501    0  0.00000000000E+00  0.00000000000E+00  0.55964206549E+03  0.55964207460E+03  0.10100000352E+00 0. -1.
       -3   -1    0    0    0  501  0.00000000000E+00  0.00000000000E+00 -0.16778204888E+03  0.16778207928E+03  0.10100000352E+00 0.  1.
    10030    2    1    2    0    0  0.00000000000E+00  0.00000000000E+00  0.39186001661E+03  0.72742415389E+03  0.61285530677E+03 0.  0.
        2    1    3    3  502    0  0.15020171288E+03  0.67054797820E+02 -0.11093774684E+03  0.19840384105E+03  0.25500000920E-02 0.  1.
       -2    1    3    3    0  502 -0.15020171288E+03 -0.67054797820E+02  0.50279776345E+03  0.52902031284E+03  0.25500000920E-02 0. -1.
</event>
<event>
 5   0  0.8575590E-02  0.5972714E+03  0.7818609E-02  0.9911083E-01
        2   -1    0    0  501    0  0.00000000000E+00  0.00000000000E+00  0.14675597223E+04  0.14675597223E+04  0.25500000920E-02 0.  1.
       -2   -1    0    0    0  501  0.00000000000E+00  0.00000000000E+00 -0.60769786265E+02  0.60769786319E+02  0.25500000920E-02 0. -1.
    10030    2    1    2    0    0  0.00000000000E+00  0.00000000000E+00  0.14067899360E+04  0.15283295086E+04  0.59727143141E+03 0.  0.
        4    1    3    3  502    0 -0.22597970622E+03  0.17593315376E+03  0.48683718251E+03  0.56482860886E+03  0.12699999809E+01 0. -1.
       -4    1    3    3    0  502  0.22597970622E+03 -0.17593315376E+03  0.91995275348E+03  0.96350089971E+03  0.12699999809E+01 0.  1.
</event>
<event>
 5   0  0.8699746E-02  0.6074137E+03  0.7818609E-02  0.9890143E-01
        2   -1    0    0  501    0  0.00000000000E+00  0.00000000000E+00  0.38408553034E+03  0.38408553035E+03  0.25500000920E-02 0.  1.
       -2   -1    0    0    0  501  0.00000000000E+00  0.00000000000E+00 -0.24014922852E+03  0.24014922854E+03  0.25500000920E-02 0. -1.
    10030    2    1    2    0    0  0.00000000000E+00  0.00000000000E+00  0.14393630182E+03  0.62423475888E+03  0.60741367717E+03 0.  0.
        3    1    3    3  502    0 -0.16328781380E+02  0.13357182010E+03  0.35177588661E+03  0.37663555970E+03  0.10100000352E+00 0.  1.
       -3    1    3    3    0  502  0.16328781380E+02 -0.13357182010E+03 -0.20783958480E+03  0.24759919918E+03  0.10100000352E+00 0. -1.
</event>
<event>
 5   0  0.5190380E-02  0.6104487E+03  0.7818609E-02  0.9883962E-01
        1   -1    0    0  501    0  0.00000000000E+00  0.00000000000E+00  0.88656684003E+03  0.88656684004E+03  0.50400001928E-02 0.  1.
       -1   -1    0    0    0  501  0.00000000000E+00  0.00000000000E+00 -0.10508165285E+03  0.10508165297E+03  0.50400001928E-02 0. -1.
    10030    2    1    2    0    0  0.00000000000E+00  0.00000000000E+00  0.78148518717E+03  0.99164849301E+03  0.61044871686E+03 0.  0.
        5    1    3    3  502    0  0.33832089590E+02 -0.11471557659E+03 -0.65367421776E+02  0.13637911727E+03  0.46999998093E+01 0. -1.
       -5    1    3    3    0  502 -0.33832089590E+02  0.11471557659E+03  0.84685260895E+03  0.85526937574E+03  0.46999998093E+01 0.  1.
</event>
<event>
 5   0  0.8420604E-02  0.5981941E+03  0.7818609E-02  0.9909160E-01
       -2   -1    0    0    0  501  0.00000000000E+00  0.00000000000E+00  0.10713717406E+03  0.10713717409E+03  0.25500000920E-02 0. -1.
        2   -1    0    0  501    0  0.00000000000E+00  0.00000000000E+00 -0.83499541706E+03  0.83499541706E+03  0.25500000920E-02 0.  1.
    10030    2    1    2    0    0  0.00000000000E+00  0.00000000000E+00 -0.72785824300E+03  0.94213259115E+03  0.59819411348E+03 0.  0.
        2    1    3    3  502    0  0.23337339143E+03  0.11424309321E+03 -0.13061985030E+03  0.29081982304E+03  0.25500000920E-02 0.  1.
       -2    1    3    3    0  502 -0.23337339143E+03 -0.11424309321E+03 -0.59723839271E+03  0.65131276811E+03  0.25500000920E-02 0. -1.
</event>
<event>
 5   0  0.3437375E-02  0.5906189E+03  0.7818609E-02  0.9925062E-01
        3   -1    0    0  501    0  0.00000000000E+00  0.00000000000E+00  0.19963267319E+03  0.19963269874E+03  0.10100000352E+00 0.  1.
       -3   -1    0    0    0  501  0.00000000000E+00  0.00000000000E+00 -0.43684062479E+03  0.43684063646E+03  0.10100000352E+00 0. -1.
    10030    2    1    2    0    0  0.00000000000E+00  0.00000000000E+00 -0.23720795160E+03  0.63647333520E+03  0.59061890768E+03 0.  0.
        4    1    3    3  502    0  0.26296998448E+02  0.22075334718E+03  0.90864245757E+02  0.24016972431E+03  0.12699999809E+01 0.  1.
       -4    1    3    3    0  502 -0.26296998448E+02 -0.22075334718E+03 -0.32807219736E+03  0.39630361088E+03  0.12699999809E+01 0. -1.
</event>
<event>
 5   0  0.8575590E-02  0.5989032E+03  0.7818609E-02  0.9907684E-01
       -2   -1    0    0    0  501  0.00000000000E+00  0.00000000000E+00  0.10804725220E+03  0.10804725223E+03  0.25500000920E-02 0.  1.
        2   -1    0    0  501    0  0.00000000000E+00  0.00000000000E+00 -0.82992638265E+03  0.82992638266E+03  0.25500000920E-02 0. -1.
    10030    2    1    2    0    0  0.00000000000E+00  0.00000000000E+00 -0.72187913045E+03  0.93797363488E+03  0.59890321485E+03 0.  0.
        4    1    3    3  502    0 -0.24915732798E+02  0.24548394685E+03 -0.62666207549E+03  0.67349100340E+03  0.12699999809E+01 0. -1.
       -4    1    3    3    0  502  0.24915732798E+02 -0.24548394685E+03 -0.95217054962E+02  0.26448263148E+03  0.12699999809E+01 0.  1.
</event>
<event>
 5   0  0.4987389E-02  0.6015406E+03  0.7818609E-02  0.9902215E-01
       -1   -1    0    0    0  501  0.00000000000E+00  0.00000000000E+00  0.24046310892E+03  0.24046310897E+03  0.50400001928E-02 0. -1.
        1   -1    0    0  501    0  0.00000000000E+00  0.00000000000E+00 -0.37620233735E+03  0.37620233738E+03  0.50400001928E-02 0.  1.
    10030    2    1    2    0    0  0.00000000000E+00  0.00000000000E+00 -0.13573922843E+03  0.61666544635E+03  0.60154063420E+03 0.  0.
        1    1    3    3  502    0 -0.26587457828E+03 -0.13900206679E+03 -0.46076750303E+02  0.30353571931E+03  0.50400001928E-02 0. -1.
       -1    1    3    3    0  502  0.26587457828E+03  0.13900206679E+03 -0.89662478126E+02  0.31312972705E+03  0.50400001928E-02 0.  1.
</event>
<event>
 5   0  0.8420604E-02  0.5858739E+03  0.7818609E-02  0.9935154E-01
       -2   -1    0    0    0  501  0.00000000000E+00  0.00000000000E+00  0.12529074917E+03  0.12529074920E+03  0.25500000920E-02 0. -1.
        2   -1    0    0  501    0  0.00000000000E+00  0.00000000000E+00 -0.68490348815E+03  0.68490348815E+03  0.25500000920E-02 0.  1.
    10030    2    1    2    0    0  0.00000000000E+00  0.00000000000E+00 -0.55961273898E+03  0.81019423735E+03  0.58587394942E+03 0.  0.
        2    1    3    3  502    0  0.10553588185E+02  0.19966754422E+03 -0.57586435520E+03  0.60958860065E+03  0.25500000920E-02 0.  1.
       -2    1    3    3    0  502 -0.10553588185E+02 -0.19966754422E+03  0.16251616224E+02  0.20060563670E+03  0.25500000920E-02 0. -1.
</event>
<event>
 5   0  0.4881209E-02  0.5887873E+03  0.7818609E-02  0.9928946E-01
        1   -1    0    0  501    0  0.00000000000E+00  0.00000000000E+00  0.58395427950E+03  0.58395427952E+03  0.50400001928E-02 0.  1.
       -1   -1    0    0    0  501  0.00000000000E+00  0.00000000000E+00 -0.14841509245E+03  0.14841509254E+03  0.50400001928E-02 0. -1.
    10030    2    1    2    0    0  0.00000000000E+00  0.00000000000E+00  0.43553918705E+03  0.73236937206E+03  0.58878732466E+03 0.  0.
        3    1    3    3  502    0 -0.27357972146E+03 -0.24955708914E+02  0.86137829759E+02  0.28790343402E+03  0.10100000352E+00 0. -1.
       -3    1    3    3    0  502  0.27357972146E+03  0.24955708914E+02  0.34940135729E+03  0.44446593804E+03  0.10100000352E+00 0.  1.
</event>
<event>
 5   0  0.5190380E-02  0.6442527E+03  0.7818609E-02  0.9817624E-01
       -1   -1    0    0    0  501  0.00000000000E+00  0.00000000000E+00  0.33200874834E+03  0.33200874838E+03  0.50400001928E-02 0. -1.
        1   -1    0    0  501    0  0.00000000000E+00  0.00000000000E+00 -0.31253809506E+03  0.31253809510E+03  0.50400001928E-02 0.  1.
    10030    2    1    2    0    0  0.00000000000E+00  0.00000000000E+00  0.19470653279E+02  0.64454684348E+03  0.64425268885E+03 0.  0.
        5    1    3    3  502    0 -0.20510348482E+03 -0.24969528765E+02  0.25693593054E+03  0.32974092747E+03  0.46999998093E+01 0. -1.
       -5    1    3    3    0  502  0.20510348482E+03  0.24969528765E+02 -0.23746527726E+03  0.31480591601E+03  0.46999998093E+01 0.  1.
</event>
<event>
 5   0  0.4987389E-02  0.5936516E+03  0.7818609E-02  0.9918665E-01
        1   -1    0    0  501    0  0.00000000000E+00  0.00000000000E+00  0.18864124890E+04  0.18864124890E+04  0.50400001928E-02 0.  1.
       -1   -1    0    0    0  501  0.00000000000E+00  0.00000000000E+00 -0.46705351178E+02  0.46705351450E+02  0.50400001928E-02 0. -1.
    10030    2    1    2    0    0  0.00000000000E+00  0.00000000000E+00  0.18397071378E+04  0.19331178404E+04  0.59365160838E+03 0.  0.
        1    1    3    3  502    0  0.23651468749E+03 -0.11588596412E+03  0.47412093042E+03  0.54236464742E+03  0.50400001928E-02 0. -1.
       -1    1    3    3    0  502 -0.23651468749E+03  0.11588596412E+03  0.13655862074E+04  0.13907531930E+04  0.50400001928E-02 0.  1.
</event>
<event>
 5   0  0.8817544E-02  0.6053392E+03  0.7818609E-02  0.9894391E-01
       -2   -1    0    0    0  501  0.00000000000E+00  0.00000000000E+00  0.14023088546E+03  0.14023088549E+03  0.25500000920E-02 0.  1.
        2   -1    0    0  501    0  0.00000000000E+00  0.00000000000E+00 -0.65327172448E+03  0.65327172448E+03  0.25500000920E-02 0. -1.
    10030    2    1    2    0    0  0.00000000000E+00  0.00000000000E+00 -0.51304083901E+03  0.79350260997E+03  0.60533915248E+03 0.  0.
        5    1    3    3  502    0 -0.16547006476E+03 -0.17616428600E+03 -0.17772690630E+02  0.24238844140E+03  0.46999998093E+01 0.  1.
       -5    1    3    3    0  502  0.16547006476E+03  0.17616428600E+03 -0.49526814838E+03  0.55111416857E+03  0.46999998093E+01 0. -1.
</event>
<event>
 5   0  0.5190380E-02  0.6061326E+03  0.7818609E-02  0.9892764E-01
       -1   -1    0    0    0  501  0.00000000000E+00  0.00000000000E+00  0.16004003035E+03  0.16004003043E+03  0.50400001928E-02 0. -1.
        1   -1    0    0  501    0  0.00000000000E+00  0.00000000000E+00 -0.57391380275E+03  0.57391380277E+03  0.50400001928E-02 0.  1.
    10030    2    1    2    0    0  0.00000000000E+00  0.00000000000E+00 -0.41387377240E+03  0.73395383319E+03  0.60613260082E+03 0.  0.
        5    1    3    3  502    0  0.16752211627E+03 -0.22382470992E+02  0.97624002339E+02  0.19523619100E+03  0.46999998093E+01 0. -1.
       -5    1    3    3    0  502 -0.16752211627E+03  0.22382470992E+02 -0.51149777474E+03  0.53871764219E+03  0.46999998093E+01 0.  1.
</event>
<event>
 5   0  0.8699746E-02  0.6022186E+03  0.7818609E-02  0.9900814E-01
        2   -1    0    0  501    0  0.00000000000E+00  0.00000000000E+00  0.17443181486E+04  0.17443181486E+04  0.25500000920E-02 0. -1.
       -2   -1    0    0    0  501  0.00000000000E+00  0.00000000000E+00 -0.51978375291E+02  0.51978375353E+02  0.25500000920E-02 0.  1.
    10030    2    1    2    0    0  0.00000000000E+00  0.00000000000E+00  0.16923397733E+04  0.17962965240E+04  0.60221864273E+03 0.  0.
        3    1    3    3  502    0 -0.12403875717E+03  0.23657991311E+03  0.12606730432E+04  0.12886629508E+04  0.10100000352E+00 0. -1.
       -3    1    3    3    0  502  0.12403875717E+03 -0.23657991311E+03  0.43166673011E+03  0.50763357322E+03  0.10100000352E+00 0.  1.
</event>
<event>
 5   0  0.4987389E-02  0.6150187E+03  0.7818609E-02  0.9874728E-01
       -1   -1    0    0    0  501  0.00000000000E+00  0.00000000000E+00  0.96135870496E+02  0.96135870628E+02  0.50400001928E-02 0. -1.
        1   -1    0    0  501    0  0.00000000000E+00  0.00000000000E+00 -0.98362863783E+03  0.98362863785E+03  0.50400001928E-02 0.  1.
    10030    2    1    2    0    0  0.00000000000E+00  0.00000000000E+00 -0.88749276734E+03  0.10797645085E+04  0.61501868401E+03 0.  0.
        1    1    3    3  502    0  0.13045331507E+03 -0.27842896024E+03 -0.45183807475E+03  0.54653307231E+03  0.50400001928E-02 0.  1.
       -1    1    3    3    0  502 -0.13045331507E+03  0.27842896024E+03 -0.43565469259E+03  0.53323143616E+03  0.50400001928E-02 0. -1.
</event>
<event>
 5   0  0.4881209E-02  0.6203355E+03  0.7818609E-02  0.9864092E-01
        1   -1    0    0  501    0  0.00000000000E+00  0.00000000000E+00  0.10569130731E+04  0.10569130731E+04  0.50400001928E-02 0. -1.
       -1   -1    0    0    0  501  0.00000000000E+00  0.00000000000E+00 -0.91023590307E+02  0.91023590447E+02  0.50400001928E-02 0.  1.
    10030    2    1    2    0    0  0.00000000000E+00  0.00000000000E+00  0.96588948281E+03  0.11479366636E+04  0.62033546616E+03 0.  0.
        3    1    3    3  502    0  0.34560626695E+02  0.36400299173E+02  0.10493475579E+04  0.10505473459E+04  0.10100000352E+00 0. -1.
       -3    1    3    3    0  502 -0.34560626695E+02 -0.36400299173E+02 -0.83458075044E+02  0.97389317630E+02  0.10100000352E+00 0.  1.
</event>
<event>
 5   0  0.8699746E-02  0.6128852E+03  0.7818609E-02  0.9879028E-01
        2   -1    0    0  501    0  0.00000000000E+00  0.00000000000E+00  0.74407536025E+03  0.74407536025E+03  0.25500000920E-02 0.  1.
       -2   -1    0    0    0  501  0.00000000000E+00  0.00000000000E+00 -0.12620639556E+03  0.12620639559E+03  0.25500000920E-02 0. -1.
    10030    2    1    2    0    0  0.00000000000E+00  0.00000000000E+00  0.61786896468E+03  0.87028175584E+03  0.61288520706E+03 0.  0.
        3    1    3    3  502    0  0.28203083972E+01  0.23004687956E+03  0.21490201771E+02  0.23106570474E+03  0.10100000352E+00 0. -1.
       -3    1    3    3    0  502 -0.28203083972E+01 -0.23004687956E+03  0.59637876291E+03  0.63921605110E+03  0.10100000352E+00 0.  1.
</event>
<event>
 5   0  0.8817544E-02  0.6253170E+03  0.7818609E-02  0.9854230E-01
       -2   -1    0    0    0  501  0.00000000000E+00  0.00000000000E+00  0.26994752064E+03  0.26994752065E+03  0.25500000920E-02 0. -1.
        2   -1    0    0  501    0  0.00000000000E+00  0.00000000000E+00 -0.36212715305E+03  0.36212715306E+03  0.25500000920E-02 0.  1.
    10030    2    1    2    0    0  0.00000000000E+00  0.00000000000E+00 -0.92179632417E+02  0.63207467371E+03  0.62531696644E+03 0.  0.
        5    1    3    3  502    0 -0.25522945025E+03  0.63225884929E+02 -0.21701379465E+03  0.34096431172E+03  0.46999998093E+01 0.  1.
       -5    1    3    3    0  502  0.25522945025E+03 -0.63225884929E+02  0.12483416224E+03  0.29111036199E+03  0.46999998093E+01 0. -1.
</event>
<event>
 5   0  0.8817544E-02  0.5869507E+03  0.7818609E-02  0.9932855E-01
       -2   -1    0    0    0  501  0.00000000000E+00  0.00000000000E+00  0.37757766171E+03  0.37757766172E+03  0.25500000920E-02 0. -1.
        2   -1    0    0  501    0  0.00000000000E+00  0.00000000000E+00 -0.22810611823E+03  0.22810611825E+03  0.25500000920E-02 0.  1.
    10030    2    1    2    0    0  0.00000000000E+00  0.00000000000E+00  0.14947154348E+03  0.60568377997E+03  0.58695067852E+03 0.  0.
        5    1    3    3  502    0 -0.18229704888E+03  0.21959971964E+03  0.14509877558E+03  0.32020617666E+03  0.46999998093E+01 0. -1.
       -5    1    3    3    0  502  0.18229704888E+03 -0.21959971964E+03  0.43727679025E+01  0.28547760331E+03  0.46999998093E+01 0.  1.
</event>
<event>
 5   0  0.5125031E-02  0.6007979E+03  0.7818609E-02  0.9903752E-01
       -1   -1    0    0    0  501  0.00000000000E+00  0.00000000000E+00  0.75763655325E+02  0.75763655493E+02  0.50400001928E-02 0. -1.
        1   -1    0    0  501    0  0.00000000000E+00  0.00000000000E+00 -0.11910662305E+04  0.11910662305E+04  0.50400001928E-02 0.  1.
    10030    2    1    2    0    0  0.00000000000E+00  0.00000000000E+00 -0.11153025751E+04  0.12668298860E+04  0.60079790768E+03 0.  0.
        4    1    3    3  502    0  0.40374498502E+02 -0.66789617861E+02  0.54007357067E+02  0.94917652207E+02  0.12699999809E+01 0. -1.
       -4    1    3    3    0  502 -0.40374498502E+02  0.66789617861E+02 -0.11693099322E+04  0.11719122338E+04  0.12699999809E+01 0.  1.
</event>
<event>
 5   0  0.5190380E-02  0.6015753E+03  0.7818609E-02  0.9902143E-01
        1   -1    0    0  501    0  0.00000000000E+00  0.00000000000E+00  0.88731523709E+03  0.88731523711E+03  0.50400001928E-02 0.  1.
       -1   -1    0    0    0  501  0.00000000000E+00  0.00000000000E+00 -0.10196288747E+03  0.10196288759E+03  0.50400001928E-02 0. -1.
    10030    2    1    2    0    0  0.00000000000E+00  0.00000000000E+00  0.78535234963E+03  0.98927812470E+03  0.60157534437E+03 0.  0.
        5    1    3    3  502    0 -0.37576076501E+02  0.24745065779E+03  0.66690186212E+03  0.71233698014E+03  0.46999998093E+01 0. -1.
       -5    1    3    3    0  502  0.37576076501E+02 -0.24745065779E+03  0.11845048750E+03  0.27694114457E+03  0.46999998093E+01 0.  1.
</event>
<event>
 5   0  0.5166903E-02  0.6012454E+03  0.7818609E-02  0.9902826E-01
        1   -1    0    0  501    0  0.00000000000E+00  0.00000000000E+00  0.15303050508E+03  0.15303050516E+03  0.50400001928E-02 0. -1.
       -1   -1    0    0    0  501  0.00000000000E+00  0.00000000000E+00 -0.59056199693E+03  0.59056199695E+03  0.50400001928E-02 0.  1.
    10030    2    1    2    0    0  0.00000000000E+00  0.00000000000E+00 -0.43753149185E+03  0.74359250211E+03  0.60124537656E+03 0.  0.
        2    1    3    3  502    0  0.15578658496E+03 -0.54951938603E+02  0.91865904299E+02  0.18901989310E+03  0.25500000920E-02 0. -1.
       -2    1    3    3    0  502 -0.15578658496E+03  0.54951938603E+02 -0.52939739615E+03  0.55457260901E+03  0.25500000920E-02 0.  1.
</event>
<event>
 5   0  0.4987389E-02  0.6283103E+03  0.7818609E-02  0.9848352E-01
       -1   -1    0    0    0  501  0.00000000000E+00  0.00000000000E+00  0.20483015686E+04  0.20483015686E+04  0.50400001928E-02 0. -1.
        1   -1    0    0  501    0  0.00000000000E+00  0.00000000000E+00 -0.48183064651E+02  0.48183064914E+02  0.50400001928E-02 0.  1.
    10030    2    1    2    0    0  0.00000000000E+00  0.00000000000E+00  0.20001185039E+04  0.20964846335E+04  0.62831026471E+03 0.  0.
        1    1    3    3  502    0 -0.19752687078E+03 -0.10233331657E+03  0.17402093977E+04  0.17543710326E+04  0.50400001928E-02 0. -1.
       -1    1    3    3    0  502  0.19752687078E+03  0.10233331657E+03  0.25990910626E+03  0.34211360087E+03  0.50400001928E-02 0.  1.
</event>
<event>
 5   0  0.3437375E-02  0.6071473E+03  0.7818609E-02  0.9890688E-01
       -3   -1    0    0    0  501  0.00000000000E+00  0.00000000000E+00  0.18337237813E+03  0.18337240595E+03  0.10100000352E+00 0. -1.
        3   -1    0    0  501    0  0.00000000000E+00  0.00000000000E+00 -0.50256717614E+03  0.50256718629E+03  0.10100000352E+00 0.  1.
    10030    2    1    2    0    0  0.00000000000E+00  0.00000000000E+00 -0.31919479801E+03  0.68593959224E+03  0.60714726807E+03 0.  0.
        2    1    3    3  502    0  0.82559686387E+02  0.53326914022E+02 -0.48409473796E+03  0.49397123084E+03  0.25500000920E-02 0.  1.
       -2    1    3    3    0  502 -0.82559686387E+02 -0.53326914022E+02  0.16489993995E+03  0.19196836140E+03  0.25500000920E-02 0. -1.
</event>
<event>
 5   0  0.5125031E-02  0.5970650E+03  0.7818609E-02  0.9911514E-01
        1   -1    0    0  501    0  0.00000000000E+00  0.00000000000E+00  0.58899151754E+03  0.58899151756E+03  0.50400001928E-02 0. -1.
       -1   -1    0    0    0  501  0.00000000000E+00  0.00000000000E+00 -0.15131227316E+03  0.15131227324E+03  0.50400001928E-02 0.  1.
    10030    2    1    2    0    0  0.00000000000E+00  0.00000000000E+00  0.43767924438E+03  0.74030379080E+03  0.59706497278E+03 0.  0.
        4    1    3    3  502    0  0.23297837655E+03 -0.16261439228E+03  0.33246300899E+03  0.43732782871E+03  0.12699999809E+01 0. -1.
       -4    1    3    3    0  502 -0.23297837655E+03  0.16261439228E+03  0.10521623539E+03  0.30297596209E+03  0.12699999809E+01 0.  1.
</event>
<event>
 5   0  0.8699746E-02  0.6293017E+03  0.7818609E-02  0.9846412E-01
       -2   -1    0    0    0  501  0.00000000000E+00  0.00000000000E+00  0.61939190127E+02  0.61939190179E+02  0.25500000920E-02 0. -1.
        2   -1    0    0  501    0  0.00000000000E+00  0.00000000000E+00 -0.15984250454E+04  0.15984250454E+04  0.25500000920E-02 0.  1.
    10030    2    1    2    0    0  0.00000000000E+00  0.00000000000E+00 -0.15364858553E+04  0.16603642356E+04  0.62930168548E+03 0.  0.
        3    1    3    3  502    0 -0.81283177997E+02  0.21447429051E+03 -0.19991548416E+03  0.30425710727E+03  0.10100000352E+00 0. -1.
       -3    1    3    3    0  502  0.81283177997E+02 -0.21447429051E+03 -0.13365703711E+04  0.13561071283E+04  0.10100000352E+00 0.  1.
</event>
<event>
 5   0  0.3437375E-02  0.5575520E+03  0.7818609E-02  0.9997609E-01
        3   -1    0    0  501    0  0.00000000000E+00  0.00000000000E+00  0.90465407666E+02  0.90465464046E+02  0.10100000352E+00 0.  1.
       -3   -1    0    0    0  501  0.00000000000E+00  0.00000000000E+00 -0.85906898373E+03  0.85906898967E+03  0.10100000352E+00 0. -1.
    10030    2    1    2    0    0  0.00000000000E+00  0.00000000000E+00 -0.76860357606E+03  0.94953445371E+03  0.55755199009E+03 0.  0.
        3    1    3    3  502    0 -0.18355771249E+03 -0.61928746476E+02 -0.72570730733E+03  0.75111897164E+03  0.10100000352E+00 0. -1.
       -3    1    3    3    0  502  0.18355771249E+03  0.61928746476E+02 -0.42896268739E+02  0.19841548207E+03  0.10100000352E+00 0.  1.
</event>
<event>
 5   0  0.8817544E-02  0.5755814E+03  0.7818609E-02  0.9957403E-01
        2   -1    0    0  501    0  0.00000000000E+00  0.00000000000E+00  0.69400475271E+03  0.69400475271E+03  0.25500000920E-02 0. -1.
       -2   -1    0    0    0  501  0.00000000000E+00  0.00000000000E+00 -0.11934136727E+03  0.11934136729E+03  0.25500000920E-02 0.  1.
    10030    2    1    2    0    0  0.00000000000E+00  0.00000000000E+00  0.57466338544E+03  0.81334612000E+03  0.57558136207E+03 0.  0.
        5    1    3    3  502    0  0.22758688901E+03 -0.12270241994E+03  0.10886997259E+03  0.28058231740E+03  0.46999998093E+01 0. -1.
       -5    1    3    3    0  502 -0.22758688901E+03  0.12270241994E+03  0.46579341285E+03  0.53276380260E+03  0.46999998093E+01 0.  1.
</event>
<event>
 5   0  0.8817544E-02  0.5908562E+03  0.7818609E-02  0.9924560E-01
        2   -1    0    0  501    0  0.00000000000E+00  0.00000000000E+00  0.83990299498E+03  0.83990299498E+03  0.25500000920E-02 0. -1.
       -2   -1    0    0    0  501  0.00000000000E+00  0.00000000000E+00 -0.10391408836E+03  0.10391408840E+03  0.25500000920E-02 0.  1.
    10030    2    1    2    0    0  0.00000000000E+00  0.00000000000E+00  0.73598890662E+03  0.94381708338E+03  0.59085617219E+03 0.  0.
        5    1    3    3  502    0  0.82300564506E+02  0.28260472576E+03  0.32832137645E+03  0.44097146186E+03  0.46999998093E+01 0.  1.
       -5    1    3    3    0  502 -0.82300564506E+02 -0.28260472576E+03  0.40766753016E+03  0.50284562152E+03  0.46999998093E+01 0. -1.
</event>
<event>
 5   0  0.4987389E-02  0.5820317E+03  0.7818609E-02  0.9943402E-01
        1   -1    0    0  501    0  0.00000000000E+00  0.00000000000E+00  0.25123146158E+03  0.25123146163E+03  0.50400001928E-02 0.  1.
       -1   -1    0    0    0  501  0.00000000000E+00  0.00000000000E+00 -0.33710039534E+03  0.33710039538E+03  0.50400001928E-02 0. -1.
    10030    2    1    2    0    0  0.00000000000E+00  0.00000000000E+00 -0.85868933759E+02  0.58833185702E+03  0.58203170033E+03 0.  0.
        1    1    3    3  502    0 -0.15685378233E+03  0.21093011804E+03  0.83299662183E+02  0.27574164987E+03  0.50400001928E-02 0.  1.
       -1    1    3    3    0  502  0.15685378233E+03 -0.21093011804E+03 -0.16916859594E+03  0.31259020715E+03  0.50400001928E-02 0. -1.
</event>
<event>
 5   0  0.8207443E-02  0.6074707E+03  0.7818609E-02  0.9890027E-01
        2   -1    0    0  501    0  0.00000000000E+00  0.00000000000E+00  0.61970744659E+03  0.61970744659E+03  0.25500000920E-02 0.  1.
       -2   -1    0    0    0  501  0.00000000000E+00  0.00000000000E+00 -0.14886888739E+03  0.14886888741E+03  0.25500000920E-02 0. -1.
    10030    2    1    2    0    0  0.00000000000E+00  0.00000000000E+00  0.47083855920E+03  0.76857633401E+03  0.60747068437E+03 0.  0.
        1    1    3    3  502    0 -0.25428815635E+03 -0.36262264686E+02  0.44051456957E+03  0.50993186244E+03  0.50400001928E-02 0.  1.
       -1    1    3    3    0  502  0.25428815635E+03  0.36262264686E+02  0.30323989631E+02  0.25864447157E+03  0.50400001928E-02 0. -1.
</event>
<event>
 5   0  0.8207443E-02  0.6010500E+03  0.7818609E-02  0.9903230E-01
       -2   -1    0    0    0  501  0.00000000000E+00  0.00000000000E+00  0.14261557430E+03  0.14261557432E+03  0.25500000920E-02 0.  1.
        2   -1    0    0  501    0  0.00000000000E+00  0.00000000000E+00 -0.63327778037E+03  0.63327778038E+03  0.25500000920E-02 0. -1.
    10030    2    1    2    0    0  0.00000000000E+00  0.00000000000E+00 -0.49066220608E+03  0.77589335470E+03  0.60104999575E+03 0.  0.
        1    1    3    3  502    0 -0.71579273111E+02  0.29061006290E+03 -0.28038728324E+03  0.41011562958E+03  0.50400001928E-02 0. -1.
       -1    1    3    3    0  502  0.71579273111E+02 -0.29061006290E+03 -0.21027492284E+03  0.36577772512E+03  0.50400001928E-02 0.  1.
</event>
<event>
 5   0  0.4987389E-02  0.6166246E+03  0.7818609E-02  0.9871503E-01
       -1   -1    0    0    0  501  0.00000000000E+00  0.00000000000E+00  0.83586583131E+02  0.83586583283E+02  0.50400001928E-02 0. -1.
        1   -1    0    0  501    0  0.00000000000E+00  0.00000000000E+00 -0.11372218607E+04  0.11372218607E+04  0.50400001928E-02 0.  1.
    10030    2    1    2    0    0  0.00000000000E+00  0.00000000000E+00 -0.10536352776E+04  0.12208084440E+04  0.61662464984E+03 0.  0.
        1    1    3    3  502    0 -0.29470530235E+03  0.19578323317E+02 -0.35171828610E+03  0.45928235192E+03  0.50400001928E-02 0. -1.
       -1    1    3    3    0  502  0.29470530235E+03 -0.19578323317E+02 -0.70191699147E+03  0.76152609208E+03  0.50400001928E-02 0.  1.
</event>
<event>
 5   0  0.8575590E-02  0.6047388E+03  0.7818609E-02  0.9895623E-01
       -2   -1    0    0    0  501  0.00000000000E+00  0.00000000000E+00  0.67743567409E+02  0.67743567457E+02  0.25500000920E-02 0.  1.
        2   -1    0    0  501    0  0.00000000000E+00  0.00000000000E+00 -0.13496081187E+04  0.13496081187E+04  0.25500000920E-02 0. -1.
    10030    2    1    2    0    0  0.00000000000E+00  0.00000000000E+00 -0.12818645513E+04  0.14173516862E+04  0.60473884811E+03 0.  0.
        4    1    3    3  502    0  0.27050789858E+03  0.53485196595E+02 -0.35017161644E+03  0.44570950552E+03  0.12699999809E+01 0.  1.
       -4    1    3    3    0  502 -0.27050789858E+03 -0.53485196595E+02 -0.93169293489E+03  0.97164218068E+03  0.12699999809E+01 0. -1.
</event>
<event>
 5   0  0.5166903E-02  0.6138922E+03  0.7818609E-02  0.9876996E-01
       -1   -1    0    0    0  501  0.00000000000E+00  0.00000000000E+00  0.65278221070E+03  0.65278221072E+03  0.50400001928E-02 0. -1.
        1   -1    0    0  501    0  0.00000000000E+00  0.00000000000E+00 -0.14432978721E+03  0.14432978730E+03  0.50400001928E-02 0.  1.
    10030    2    1    2    0    0  0.00000000000E+00  0.00000000000E+00  0.50845242349E+03  0.79711199802E+03  0.61389223031E+03 0.  0.
        2    1    3    3  502    0  0.36564857427E+02 -0.23010099712E+03  0.51369805772E+03  0.56406484751E+03  0.25500000920E-02 0. -1.
       -2    1    3    3    0  502 -0.36564857427E+02  0.23010099712E+03 -0.52456342358E+01  0.23304715051E+03  0.25500000920E-02 0.  1.
</event>
<event>
 5   0  0.8420604E-02  0.5796311E+03  0.7818609E-02  0.9948590E-01
       -2   -1    0    0    0  501  0.00000000000E+00  0.00000000000E+00  0.90276095968E+02  0.90276096004E+02  0.25500000920E-02 0. -1.
        2   -1    0    0  501    0  0.00000000000E+00  0.00000000000E+00 -0.93040178238E+03  0.93040178238E+03  0.25500000920E-02 0.  1.
    10030    2    1    2    0    0  0.00000000000E+00  0.00000000000E+00 -0.84012568641E+03  0.10206778784E+04  0.57963105719E+03 0.  0.
        2    1    3    3  502    0  0.23557344213E+02  0.44373293953E+02  0.82549930692E+02  0.96635545977E+02  0.25500000920E-02 0. -1.
       -2    1    3    3    0  502 -0.23557344213E+02 -0.44373293953E+02 -0.92267561710E+03  0.92404233241E+03  0.25500000920E-02 0.  1.
</event>
<event>
 5   0  0.4987389E-02  0.6067476E+03  0.7818609E-02  0.9891505E-01
       -1   -1    0    0    0  501  0.00000000000E+00  0.00000000000E+00  0.27291993065E+03  0.27291993070E+03  0.50400001928E-02 0.  1.
        1   -1    0    0  501    0  0.00000000000E+00  0.00000000000E+00 -0.33722583244E+03  0.33722583247E+03  0.50400001928E-02 0. -1.
    10030    2    1    2    0    0  0.00000000000E+00  0.00000000000E+00 -0.64305901784E+02  0.61014576317E+03  0.60674756144E+03 0.  0.
        1    1    3    3  502    0  0.22253593373E+03 -0.93488223980E+02 -0.21695751863E+03  0.32455023454E+03  0.50400001928E-02 0. -1.
       -1    1    3    3    0  502 -0.22253593373E+03  0.93488223980E+02  0.15265161684E+03  0.28559552863E+03  0.50400001928E-02 0.  1.
</event>
<event>
 5   0  0.8420604E-02  0.5961266E+03  0.7818609E-02  0.9913475E-01
        2   -1    0    0  501    0  0.00000000000E+00  0.00000000000E+00  0.34845779082E+03  0.34845779083E+03  0.25500000920E-02 0. -1.
       -2   -1    0    0    0  501  0.00000000000E+00  0.00000000000E+00 -0.25495696130E+03  0.25495696131E+03  0.25500000920E-02 0.  1.
    10030    2    1    2    0    0  0.00000000000E+00  0.00000000000E+00  0.93500829528E+02  0.60341475214E+03  0.59612662915E+03 0.  0.
        2    1    3    3  502    0  0.18494557384E+03  0.17649730143E+03 -0.10837323579E+03  0.27767052587E+03  0.25500000920E-02 0.  1.
       -2    1    3    3    0  502 -0.18494557384E+03 -0.17649730143E+03  0.20187406532E+03  0.32574422627E+03  0.25500000920E-02 0. -1.
</event>
<event>
 5   0  0.8817544E-02  0.6262635E+03  0.7818609E-02  0.9852368E-01
        2   -1    0    0  501    0  0.00000000000E+00  0.00000000000E+00  0.67428601371E+03  0.67428601371E+03  0.25500000920E-02 0. -1.
       -2   -1    0    0    0  501  0.00000000000E+00  0.00000000000E+00 -0.14541528433E+03  0.14541528436E+03  0.25500000920E-02 0.  1.
    10030    2    1    2    0    0  0.00000000000E+00  0.00000000000E+00  0.52887072937E+03  0.81970129807E+03  0.62626349859E+03 0.  0.
        5    1    3    3  502    0 -0.29586292129E+03  0.83814169206E+02  0.34153382265E+03  0.45959452255E+03  0.46999998093E+01 0.  1.
       -5    1    3    3    0  502  0.29586292129E+03 -0.83814169206E+02  0.18733690672E+03  0.36010677551E+03  0.46999998093E+01 0. -1.
</event>
<event>
 5   0  0.8817544E-02  0.5979876E+03  0.7818609E-02  0.9909590E-01
       -2   -1    0    0    0  501  0.00000000000E+00  0.00000000000E+00  0.34189055703E+03  0.34189055704E+03  0.25500000920E-02 0.  1.
        2   -1    0    0  501    0  0.00000000000E+00  0.00000000000E+00 -0.26147928070E+03  0.26147928071E+03  0.25500000920E-02 0. -1.
    10030    2    1    2    0    0  0.00000000000E+00  0.00000000000E+00  0.80411276327E+02  0.60336983775E+03  0.59798761504E+03 0.  0.
        5    1    3    3  502    0 -0.23641699263E+03  0.27756096264E+01  0.22481278554E+03  0.32628756788E+03  0.46999998093E+01 0.  1.
       -5    1    3    3    0  502  0.23641699263E+03 -0.27756096264E+01 -0.14440150922E+03  0.27708226987E+03  0.46999998093E+01 0. -1.
</event>
<event>
 5   0  0.8817544E-02  0.6045379E+03  0.7818609E-02  0.9896036E-01
        2   -1    0    0  501    0  0.00000000000E+00  0.00000000000E+00  0.43557458373E+03  0.43557458373E+03  0.25500000920E-02 0. -1.
       -2   -1    0    0    0  501  0.00000000000E+00  0.00000000000E+00 -0.20976089735E+03  0.20976089737E+03  0.25500000920E-02 0.  1.
    10030    2    1    2    0    0  0.00000000000E+00  0.00000000000E+00  0.22581368637E+03  0.64533548110E+03  0.60453789147E+03 0.  0.
        5    1    3    3  502    0 -0.41918142594E+02  0.29569145134E+03  0.16244853131E+03  0.34000320645E+03  0.46999998093E+01 0. -1.
       -5    1    3    3    0  502  0.41918142594E+02 -0.29569145134E+03  0.63365155059E+02  0.30533227465E+03  0.46999998093E+01 0.  1.
</event>
<event>
 5   0  0.4987389E-02  0.5083497E+03  0.7818609E-02  0.1011622E+00
        1   -1    0    0  501    0  0.00000000000E+00  0.00000000000E+00  0.20326183708E+03  0.20326183715E+03  0.50400001928E-02 0. -1.
       -1   -1    0    0    0  501  0.00000000000E+00  0.00000000000E+00 -0.31784058776E+03  0.31784058780E+03  0.50400001928E-02 0.  1.
    10030    2    1    2    0    0  0.00000000000E+00  0.00000000000E+00 -0.11457875068E+03  0.52110242495E+03  0.50834972920E+03 0.  0.
        1    1    3    3  502    0 -0.55866344864E+02  0.66817193968E+02  0.18748804099E+03  0.20673014158E+03  0.50400001928E-02 0. -1.
       -1    1    3    3    0  502  0.55866344864E+02 -0.66817193968E+02 -0.30206679167E+03  0.31437228337E+03  0.50400001928E-02 0.  1.
</event>
<event>
 5   0  0.3437375E-02  0.6027726E+03  0.7818609E-02  0.9899670E-01
        3   -1    0    0  501    0  0.00000000000E+00  0.00000000000E+00  0.29148954528E+03  0.29148956278E+03  0.10100000352E+00 0.  1.
       -3   -1    0    0    0  501  0.00000000000E+00  0.00000000000E+00 -0.31161907862E+03  0.31161909499E+03  0.10100000352E+00 0. -1.
    10030    2    1    2    0    0  0.00000000000E+00  0.00000000000E+00 -0.20129533336E+02  0.60310865777E+03  0.60277263953E+03 0.  0.
        1    1    3    3  502    0 -0.21538719773E+03  0.21067397423E+03 -0.17720525209E+02  0.30180984975E+03  0.50400001928E-02 0.  1.
       -1    1    3    3    0  502  0.21538719773E+03 -0.21067397423E+03 -0.24090081262E+01  0.30129880802E+03  0.50400001928E-02 0. -1.
</event>
<event>
 5   0  0.4987389E-02  0.5938269E+03  0.7818609E-02  0.9918297E-01
       -1   -1    0    0    0  501  0.00000000000E+00  0.00000000000E+00  0.33095173839E+03  0.33095173843E+03  0.50400001928E-02 0. -1.
        1   -1    0    0  501    0  0.00000000000E+00  0.00000000000E+00 -0.26637601781E+03  0.26637601786E+03  0.50400001928E-02 0.  1.
    10030    2    1    2    0    0  0.00000000000E+00  0.00000000000E+00  0.64575720580E+02  0.59732775628E+03  0.59382693164E+03 0.  0.
        1    1    3    3  502    0 -0.12655340212E+03  0.43571809475E+02 -0.23430921609E+03  0.26984268554E+03  0.50400001928E-02 0.  1.
       -1    1    3    3    0  502  0.12655340212E+03 -0.43571809475E+02  0.29888493667E+03  0.32748507075E+03  0.50400001928E-02 0. -1.
</event>
<event>
 5   0  0.4881209E-02  0.5906885E+03  0.7818609E-02  0.9924915E-01
       -1   -1    0    0    0  501  0.00000000000E+00  0.00000000000E+00  0.31647641587E+03  0.31647641591E+03  0.50400001928E-02 0.  1.
        1   -1    0    0  501    0  0.00000000000E+00  0.00000000000E+00 -0.27562312834E+03  0.27562312839E+03  0.50400001928E-02 0. -1.
    10030    2    1    2    0    0  0.00000000000E+00  0.00000000000E+00  0.40853287534E+02  0.59209954430E+03  0.59068847903E+03 0.  0.
        3    1    3    3  502    0 -0.17841287482E+02 -0.11629372686E+03  0.29197166844E+03  0.31478565377E+03  0.10100000352E+00 0.  1.
       -3    1    3    3    0  502  0.17841287482E+02  0.11629372686E+03 -0.25111838091E+03  0.27731389053E+03  0.10100000352E+00 0. -1.
</event>
<event>
 5   0  0.8207443E-02  0.6005973E+03  0.7818609E-02  0.9904168E-01
       -2   -1    0    0    0  501  0.00000000000E+00  0.00000000000E+00  0.99085853209E+02  0.99085853241E+02  0.25500000920E-02 0. -1.
        2   -1    0    0  501    0  0.00000000000E+00  0.00000000000E+00 -0.91011255398E+03  0.91011255399E+03  0.25500000920E-02 0.  1.
    10030    2    1    2    0    0  0.00000000000E+00  0.00000000000E+00 -0.81102670078E+03  0.10091984072E+04  0.60059729918E+03 0.  0.
        1    1    3    3  502    0 -0.19045213025E+03 -0.52556202411E+02 -0.25503160270E+02  0.19920988815E+03  0.50400001928E-02 0. -1.
       -1    1    3    3    0  502  0.19045213025E+03  0.52556202411E+02 -0.78552354051E+03  0.80998851908E+03  0.50400001928E-02 0.  1.
</event>
<event>
 5   0  0.4881209E-02  0.5969566E+03  0.7818609E-02  0.9911740E-01
        1   -1    0    0  501    0  0.00000000000E+00  0.00000000000E+00  0.20538233248E+03  0.20538233254E+03  0.50400001928E-02 0. -1.
       -1   -1    0    0    0  501  0.00000000000E+00  0.00000000000E+00 -0.43377285945E+03  0.43377285948E+03  0.50400001928E-02 0.  1.
    10030    2    1    2    0    0  0.00000000000E+00  0.00000000000E+00 -0.22839052697E+03  0.63915519203E+03  0.59695655343E+03 0.  0.
        3    1    3    3  502    0  0.14538205683E+03  0.11222164668E+03 -0.36611383811E+03  0.40959613412E+03  0.10100000352E+00 0.  1.
       -3    1    3    3    0  502 -0.14538205683E+03 -0.11222164668E+03  0.13772331114E+03  0.22955905790E+03  0.10100000352E+00 0. -1.
</event>
<event>
 5   0  0.8207443E-02  0.6062314E+03  0.7818609E-02  0.9892562E-01
       -2   -1    0    0    0  501  0.00000000000E+00  0.00000000000E+00  0.21279855882E+03  0.21279855883E+03  0.25500000920E-02 0. -1.
        2   -1    0    0  501    0  0.00000000000E+00  0.00000000000E+00 -0.43176567227E+03  0.43176567228E+03  0.25500000920E-02 0.  1.
    10030    2    1    2    0    0  0.00000000000E+00  0.00000000000E+00 -0.21896711345E+03  0.64456423111E+03  0.60623135126E+03 0.  0.
        1    1    3    3  502    0 -0.98906212184E+02 -0.12391592799E+03  0.16519568855E+03  0.22896989225E+03  0.50400001928E-02 0. -1.
       -1    1    3    3    0  502  0.98906212184E+02  0.12391592799E+03 -0.38416280200E+03  0.41559433885E+03  0.50400001928E-02 0.  1.
</event>
<event>
 5   0  0.8699746E-02  0.5817206E+03  0.7818609E-02  0.9944073E-01
       -2   -1    0    0    0  501  0.00000000000E+00  0.00000000000E+00  0.85334272984E+02  0.85334273022E+02  0.25500000920E-02 0. -1.
        2   -1    0    0  501    0  0.00000000000E+00  0.00000000000E+00 -0.99139213835E+03  0.99139213835E+03  0.25500000920E-02 0.  1.
    10030    2    1    2    0    0  0.00000000000E+00  0.00000000000E+00 -0.90605786537E+03  0.10767264114E+04  0.58172064564E+03 0.  0.
        3    1    3    3  502    0  0.20414299831E+03  0.33774891126E+02 -0.83138357411E+03  0.85674603269E+03  0.10100000352E+00 0.  1.
       -3    1    3    3    0  502 -0.20414299831E+03 -0.33774891126E+02 -0.74674291255E+02  0.21998037868E+03  0.10100000352E+00 0. -1.
</event>
<event>
 5   0  0.8420604E-02  0.6020055E+03  0.7818609E-02  0.9901254E-01
        2   -1    0    0  501    0  0.00000000000E+00  0.00000000000E+00  0.10150587742E+04  0.10150587742E+04  0.25500000920E-02 0. -1.
       -2   -1    0    0    0  501  0.00000000000E+00  0.00000000000E+00 -0.89258543769E+02  0.89258543805E+02  0.25500000920E-02 0.  1.
    10030    2    1    2    0    0  0.00000000000E+00  0.00000000000E+00  0.92580023047E+03  0.11043173180E+04  0.60200554167E+03 0.  0.
        2    1    3    3  502    0 -0.24146905101E+03  0.16989264496E+03  0.57036283694E+03  0.64224962372E+03  0.25500000920E-02 0. -1.
       -2    1    3    3    0  502  0.24146905101E+03 -0.16989264496E+03  0.35543739353E+03  0.46206769432E+03  0.25500000920E-02 0.  1.
</event>
<event>
 5   0  0.5166903E-02  0.6014497E+03  0.7818609E-02  0.9902403E-01
        1   -1    0    0  501    0  0.00000000000E+00  0.00000000000E+00  0.94958377635E+02  0.94958377769E+02  0.50400001928E-02 0.  1.
       -1   -1    0    0    0  501  0.00000000000E+00  0.00000000000E+00 -0.95236915583E+03  0.95236915584E+03  0.50400001928E-02 0. -1.
    10030    2    1    2    0    0  0.00000000000E+00  0.00000000000E+00 -0.85741077820E+03  0.10473275336E+04  0.60144968210E+03 0.  0.
        2    1    3    3  502    0 -0.23931245788E+03 -0.17177625073E+03 -0.32338827017E+03  0.43744428913E+03  0.25500000920E-02 0.  1.
       -2    1    3    3    0  502  0.23931245788E+03  0.17177625073E+03 -0.53402250803E+03  0.60988324448E+03  0.25500000920E-02 0. -1.
</event>
<event>
 5   0  0.8817544E-02  0.5706132E+03  0.7818609E-02  0.9968323E-01
       -2   -1    0    0    0  501  0.00000000000E+00  0.00000000000E+00  0.32138924375E+03  0.32138924376E+03  0.25500000920E-02 0. -1.
        2   -1    0    0  501    0  0.00000000000E+00  0.00000000000E+00 -0.25327501719E+03  0.25327501721E+03  0.25500000920E-02 0.  1.
    10030    2    1    2    0    0  0.00000000000E+00  0.00000000000E+00  0.68114226555E+02  0.57466426096E+03  0.57061323589E+03 0.  0.
        5    1    3    3  502    0  0.20128140709E+03 -0.74992956145E+02 -0.15499781569E+03  0.26492368935E+03  0.46999998093E+01 0.  1.
       -5    1    3    3    0  502 -0.20128140709E+03  0.74992956145E+02  0.22311204224E+03  0.30974057161E+03  0.46999998093E+01 0. -1.
</event>
<event>
 5   0  0.5190380E-02  0.6004005E+03  0.7818609E-02  0.9904576E-01
       -1   -1    0    0    0  501  0.00000000000E+00  0.00000000000E+00  0.23918352903E+03  0.23918352909E+03  0.50400001928E-02 0.  1.
        1   -1    0    0  501    0  0.00000000000E+00  0.00000000000E+00 -0.37678254347E+03  0.37678254350E+03  0.50400001928E-02 0. -1.
    10030    2    1    2    0    0  0.00000000000E+00  0.00000000000E+00 -0.13759901443E+03  0.61596607259E+03  0.60040046120E+03 0.  0.
        5    1    3    3  502    0 -0.39935155258E+02 -0.79557744493E+02  0.22529205081E+03  0.24228670927E+03  0.46999998093E+01 0.  1.
       -5    1    3    3    0  502  0.39935155258E+02  0.79557744493E+02 -0.36289106524E+03  0.37367936331E+03  0.46999998093E+01 0. -1.
</event>
<event>
 5   0  0.8817544E-02  0.6236974E+03  0.7818609E-02  0.9857426E-01
       -2   -1    0    0    0  501  0.00000000000E+00  0.00000000000E+00  0.25585740530E+03  0.25585740531E+03  0.25500000920E-02 0. -1.
        2   -1    0    0  501    0  0.00000000000E+00  0.00000000000E+00 -0.38009299632E+03  0.38009299633E+03  0.25500000920E-02 0.  1.
    10030    2    1    2    0    0  0.00000000000E+00  0.00000000000E+00 -0.12423559102E+03  0.63595040164E+03  0.62369738758E+03 0.  0.
        5    1    3    3  502    0  0.19095779541E+03 -0.23913691067E+03 -0.12309377315E+03  0.32988711502E+03  0.46999998093E+01 0. -1.
       -5    1    3    3    0  502 -0.19095779541E+03  0.23913691067E+03 -0.11418178677E+01  0.30606328662E+03  0.46999998093E+01 0.  1.
</event>
<event>
 5   0  0.8207443E-02  0.5856032E+03  0.7818609E-02  0.9935733E-01
        2   -1    0    0  501    0  0.00000000000E+00  0.00000000000E+00  0.85583641917E+03  0.85583641918E+03  0.25500000920E-02 0. -1.
       -2   -1    0    0    0  501  0.00000000000E+00  0.00000000000E+00 -0.10017423964E+03  0.10017423967E+03  0.25500000920E-02 0.  1.
    10030    2    1    2    0    0  0.00000000000E+00  0.00000000000E+00  0.75566217953E+03  0.95601065885E+03  0.58560315083E+03 0.  0.
        1    1    3    3  502    0  0.11371112371E+03 -0.19812912480E+02  0.81712843376E+03  0.82524035798E+03  0.50400001928E-02 0. -1.
       -1    1    3    3    0  502 -0.11371112371E+03  0.19812912480E+02 -0.61466254223E+02  0.13077030088E+03  0.50400001928E-02 0.  1.
</event>
<event>
 5   0  0.8575590E-02  0.5872526E+03  0.7818609E-02  0.9932211E-01
       -2   -1    0    0    0  501  0.00000000000E+00  0.00000000000E+00  0.33164872703E+03  0.33164872704E+03  0.25500000920E-02 0.  1.
        2   -1    0    0  501    0  0.00000000000E+00  0.00000000000E+00 -0.25996305412E+03  0.25996305413E+03  0.25500000920E-02 0. -1.
    10030    2    1    2    0    0  0.00000000000E+00  0.00000000000E+00  0.71685672911E+02  0.59161178118E+03  0.58725264063E+03 0.  0.
        4    1    3    3  502    0 -0.18771996243E+03  0.32073879896E+02 -0.18930500035E+03  0.26852469928E+03  0.12699999809E+01 0. -1.
       -4    1    3    3    0  502  0.18771996243E+03 -0.32073879896E+02  0.26099067326E+03  0.32308708190E+03  0.12699999809E+01 0.  1.
</event>
<event>
 5   0  0.3437375E-02  0.5781432E+03  0.7818609E-02  0.9951819E-01
        3   -1    0    0  501    0  0.00000000000E+00  0.00000000000E+00  0.20324952828E+03  0.20324955337E+03  0.10100000352E+00 0. -1.
       -3   -1    0    0    0  501  0.00000000000E+00  0.00000000000E+00 -0.41113194730E+03  0.41113195970E+03  0.10100000352E+00 0.  1.
    10030    2    1    2    0    0  0.00000000000E+00  0.00000000000E+00 -0.20788241902E+03  0.61438151307E+03  0.57814318596E+03 0.  0.
        3    1    3    3  502    0 -0.11330571367E+03 -0.26008086926E+03 -0.44944421121E+02  0.28722857535E+03  0.10100000352E+00 0. -1.
       -3    1    3    3    0  502  0.11330571367E+03  0.26008086926E+03 -0.16293799790E+03  0.32715293773E+03  0.10100000352E+00 0.  1.
</event>
<event>
 5   0  0.5166903E-02  0.5608433E+03  0.7818609E-02  0.9990148E-01
        1   -1    0    0  501    0  0.00000000000E+00  0.00000000000E+00  0.74669930456E+03  0.74669930458E+03  0.50400001928E-02 0. -1.
       -1   -1    0    0    0  501  0.00000000000E+00  0.00000000000E+00 -0.10531185546E+03  0.10531185558E+03  0.50400001928E-02 0.  1.
    10030    2    1    2    0    0  0.00000000000E+00  0.00000000000E+00  0.64138744910E+03  0.85201116015E+03  0.56084325543E+03 0.  0.
        2    1    3    3  502    0  0.19560452224E+03  0.39326098359E+02  0.62004406019E+03  0.65135421064E+03  0.25500000920E-02 0. -1.
       -2    1    3    3    0  502 -0.19560452224E+03 -0.39326098359E+02  0.21343388911E+02  0.20065694951E+03  0.25500000920E-02 0.  1.
</event>
<event>
 5   0  0.5166903E-02  0.6228366E+03  0.7818609E-02  0.9859128E-01
        1   -1    0    0  501    0  0.00000000000E+00  0.00000000000E+00  0.52388405872E+03  0.52388405874E+03  0.50400001928E-02 0. -1.
       -1   -1    0    0    0  501  0.00000000000E+00  0.00000000000E+00 -0.18511991200E+03  0.18511991206E+03  0.50400001928E-02 0.  1.
    10030    2    1    2    0    0  0.00000000000E+00  0.00000000000E+00  0.33876414672E+03  0.70900397081E+03  0.62283664272E+03 0.  0.
        2    1    3    3  502    0 -0.10868609107E+03 -0.27299758570E+03  0.28680859509E+03  0.41060871692E+03  0.25500000920E-02 0. -1.
       -2    1    3    3    0  502  0.10868609107E+03  0.27299758570E+03  0.51955551632E+02  0.29839525388E+03  0.25500000920E-02 0.  1.
</event>
<event>
 5   0  0.8817544E-02  0.5990626E+03  0.7818609E-02  0.9907353E-01
        2   -1    0    0  501    0  0.00000000000E+00  0.00000000000E+00  0.58000265469E+03  0.58000265469E+03  0.25500000920E-02 0. -1.
       -2   -1    0    0    0  501  0.00000000000E+00  0.00000000000E+00 -0.15468719985E+03  0.15468719987E+03  0.25500000920E-02 0.  1.
    10030    2    1    2    0    0  0.00000000000E+00  0.00000000000E+00  0.42531545484E+03  0.73468985457E+03  0.59906255623E+03 0.  0.
        5    1    3    3  502    0  0.13753012573E+03  0.24021092803E+03  0.72391369277E+02  0.28614406471E+03  0.46999998093E+01 0.  1.
       -5    1    3    3    0  502 -0.13753012573E+03 -0.24021092803E+03  0.35292408556E+03  0.44854578985E+03  0.46999998093E+01 0. -1.
</event>
<event>
 5   0  0.8699746E-02  0.5859084E+03  0.7818609E-02  0.9935081E-01
       -2   -1    0    0    0  501  0.00000000000E+00  0.00000000000E+00  0.82740249613E+02  0.82740249653E+02  0.25500000920E-02 0. -1.
        2   -1    0    0  501    0  0.00000000000E+00  0.00000000000E+00 -0.10372478962E+04  0.10372478962E+04  0.25500000920E-02 0.  1.
    10030    2    1    2    0    0  0.00000000000E+00  0.00000000000E+00 -0.95450764663E+03  0.11199881459E+04  0.58590835416E+03 0.  0.
        3    1    3    3  502    0 -0.28884925235E+03 -0.21205942562E+02 -0.56141717709E+03  0.63172212207E+03  0.10100000352E+00 0.  1.
       -3    1    3    3    0  502  0.28884925235E+03  0.21205942562E+02 -0.39309046954E+03  0.48826602383E+03  0.10100000352E+00 0. -1.
</event>
<event>
 5   0  0.3437375E-02  0.5906411E+03  0.7818609E-02  0.9925015E-01
        4   -1    0    0  501    0  0.00000000000E+00  0.00000000000E+00  0.20569135951E+03  0.20569528016E+03  0.12699999809E+01 0.  1.
       -4   -1    0    0    0  501  0.00000000000E+00  0.00000000000E+00 -0.42399642528E+03  0.42399832730E+03  0.12699999809E+01 0. -1.
    10030    2    1    2    0    0  0.00000000000E+00  0.00000000000E+00 -0.21830506577E+03  0.62969360745E+03  0.59064112414E+03 0.  0.
        5    1    3    3  502    0 -0.10220708411E+01  0.11476110721E+02 -0.42371973090E+03  0.42390240162E+03  0.46999998093E+01 0. -1.
       -5    1    3    3    0  502  0.10220708411E+01 -0.11476110721E+02  0.20541466514E+03  0.20579120583E+03  0.46999998093E+01 0.  1.
</event>
<event>
 5   0  0.8575590E-02  0.5878131E+03  0.7818609E-02  0.9931018E-01
       -2   -1    0    0    0  501  0.00000000000E+00  0.00000000000E+00  0.88810477206E+02  0.88810477242E+02  0.25500000920E-02 0. -1.
        2   -1    0    0  501    0  0.00000000000E+00  0.00000000000E+00 -0.97264492315E+03  0.97264492316E+03  0.25500000920E-02 0.  1.
    10030    2    1    2    0    0  0.00000000000E+00  0.00000000000E+00 -0.88383444595E+03  0.10614554004E+04  0.58781309886E+03 0.  0.
        4    1    3    3  502    0 -0.86686845478E+02 -0.27505797448E+03 -0.33964064755E+03  0.44556579859E+03  0.12699999809E+01 0. -1.
       -4    1    3    3    0  502  0.86686845478E+02  0.27505797448E+03 -0.54419379840E+03  0.61588960181E+03  0.12699999809E+01 0.  1.
</event>
<event>
 5   0  0.5166903E-02  0.5931097E+03  0.7818609E-02  0.9919805E-01
       -1   -1    0    0    0  501  0.00000000000E+00  0.00000000000E+00  0.10302689426E+03  0.10302689439E+03  0.50400001928E-02 0.  1.
        1   -1    0    0  501    0  0.00000000000E+00  0.00000000000E+00 -0.85360996635E+03  0.85360996636E+03  0.50400001928E-02 0. -1.
    10030    2    1    2    0    0  0.00000000000E+00  0.00000000000E+00 -0.75058307208E+03  0.95663686075E+03  0.59310971603E+03 0.  0.
        2    1    3    3  502    0 -0.51454577518E+02 -0.28901606759E+03 -0.44309015943E+03  0.53151364071E+03  0.25500000920E-02 0.  1.
       -2    1    3    3    0  502  0.51454577518E+02  0.28901606759E+03 -0.30749291265E+03  0.42512322004E+03  0.25500000920E-02 0. -1.
</event>
<event>
 5   0  0.3437375E-02  0.6039239E+03  0.7818609E-02  0.9897298E-01
       -3   -1    0    0    0  501  0.00000000000E+00  0.00000000000E+00  0.59971578847E+03  0.59971579698E+03  0.10100000352E+00 0. -1.
        3   -1    0    0  501    0  0.00000000000E+00  0.00000000000E+00 -0.15204036406E+03  0.15204039761E+03  0.10100000352E+00 0.  1.
    10030    2    1    2    0    0  0.00000000000E+00  0.00000000000E+00  0.44767542441E+03  0.75175619458E+03  0.60392391116E+03 0.  0.
        4    1    3    3  502    0  0.10731979153E+03 -0.21042855998E+02  0.57419379423E+03  0.58451729288E+03  0.12699999809E+01 0. -1.
       -4    1    3    3    0  502 -0.10731979153E+03  0.21042855998E+02 -0.12651836982E+03  0.16723890171E+03  0.12699999809E+01 0.  1.
</event>
<event>
 5   0  0.4881209E-02  0.5706826E+03  0.7818609E-02  0.9968169E-01
       -1   -1    0    0    0  501  0.00000000000E+00  0.00000000000E+00  0.63545464742E+02  0.63545464942E+02  0.50400001928E-02 0. -1.
        1   -1    0    0  501    0  0.00000000000E+00  0.00000000000E+00 -0.12812819466E+04  0.12812819466E+04  0.50400001928E-02 0.  1.
    10030    2    1    2    0    0  0.00000000000E+00  0.00000000000E+00 -0.12177364818E+04  0.13448274115E+04  0.57068259795E+03 0.  0.
        3    1    3    3  502    0  0.98690969525E+02 -0.10605143908E+03 -0.11881747318E+04  0.11969736917E+04  0.10100000352E+00 0.  1.
       -3    1    3    3    0  502 -0.98690969525E+02  0.10605143908E+03 -0.29561750054E+02  0.14785371982E+03  0.10100000352E+00 0. -1.
</event>
<event>
 5   0  0.8207443E-02  0.6218631E+03  0.7818609E-02  0.9861057E-01
        2   -1    0    0  501    0  0.00000000000E+00  0.00000000000E+00  0.25564234843E+03  0.25564234844E+03  0.25500000920E-02 0. -1.
       -2   -1    0    0    0  501  0.00000000000E+00  0.00000000000E+00 -0.37817844973E+03  0.37817844974E+03  0.25500000920E-02 0.  1.
    10030    2    1    2    0    0  0.00000000000E+00  0.00000000000E+00 -0.12253610130E+03  0.63382079818E+03  0.62186309432E+03 0.  0.
        1    1    3    3  502    0  0.30266492339E+03 -0.36855850958E+02 -0.12338264724E+03  0.32891896763E+03  0.50400001928E-02 0.  1.
       -1    1    3    3    0  502 -0.30266492339E+03  0.36855850958E+02  0.84654594036E+00  0.30490183054E+03  0.50400001928E-02 0. -1.
</event>
<event>
 5   0  0.5166903E-02  0.6113383E+03  0.7818609E-02  0.9882158E-01
        1   -1    0    0  501    0  0.00000000000E+00  0.00000000000E+00  0.53535457994E+03  0.53535457996E+03  0.50400001928E-02 0.  1.
       -1   -1    0    0    0  501  0.00000000000E+00  0.00000000000E+00 -0.17452664485E+03  0.17452664492E+03  0.50400001928E-02 0. -1.
    10030    2    1    2    0    0  0.00000000000E+00  0.00000000000E+00  0.36082793509E+03  0.70988122488E+03  0.61133833079E+03 0.  0.
        2    1    3    3  502    0 -0.19533474935E+03  0.17918472551E+03  0.35717016792E+03  0.44478462093E+03  0.25500000920E-02 0.  1.
       -2    1    3    3    0  502  0.19533474935E+03 -0.17918472551E+03  0.36577671689E+01  0.26509660395E+03  0.25500000920E-02 0. -1.
</event>
<event>
 5   0  0.8207443E-02  0.6069965E+03  0.7818609E-02  0.9890996E-01
       -2   -1    0    0    0  501  0.00000000000E+00  0.00000000000E+00  0.78904965594E+02  0.78904965636E+02  0.25500000920E-02 0.  1.
        2   -1    0    0  501    0  0.00000000000E+00  0.00000000000E+00 -0.11673685363E+04  0.11673685363E+04  0.25500000920E-02 0. -1.
    10030    2    1    2    0    0  0.00000000000E+00  0.00000000000E+00 -0.10884635707E+04  0.12462735020E+04  0.60699645542E+03 0.  0.
        1    1    3    3  502    0 -0.16169068776E+03 -0.11237791412E+03 -0.70047010253E+02  0.20899583192E+03  0.50400001928E-02 0.  1.
       -1    1    3    3    0  502  0.16169068776E+03  0.11237791412E+03 -0.10184165605E+04  0.10372776701E+04  0.50400001928E-02 0. -1.
</event>
<event>
 5   0  0.3437375E-02  0.6083895E+03  0.7818609E-02  0.9888152E-01
       -3   -1    0    0    0  501  0.00000000000E+00  0.00000000000E+00  0.78081341497E+02  0.78081406820E+02  0.10100000352E+00 0.  1.
        3   -1    0    0  501    0  0.00000000000E+00  0.00000000000E+00 -0.11851025415E+04  0.11851025458E+04  0.10100000352E+00 0. -1.
    10030    2    1    2    0    0  0.00000000000E+00  0.00000000000E+00 -0.11070212000E+04  0.12631839526E+04  0.60838948126E+03 0.  0.
        1    1    3    3  502    0  0.10105042465E+03  0.56012913249E+02  0.30752652883E+02  0.11955902499E+03  0.50400001928E-02 0.  1.
       -1    1    3    3    0  502 -0.10105042465E+03 -0.56012913249E+02 -0.11377738529E+04  0.11436249276E+04  0.50400001928E-02 0. -1.
</event>
<event>
 5   0  0.8699746E-02  0.5982684E+03  0.7818609E-02  0.9909005E-01
        2   -1    0    0  501    0  0.00000000000E+00  0.00000000000E+00  0.20384454240E+04  0.20384454240E+04  0.25500000920E-02 0.  1.
       -2   -1    0    0    0  501  0.00000000000E+00  0.00000000000E+00 -0.43896814454E+02  0.43896814528E+02  0.25500000920E-02 0. -1.
    10030    2    1    2    0    0  0.00000000000E+00  0.00000000000E+00  0.19945486096E+04  0.20823422386E+04  0.59826836999E+03 0.  0.
        3    1    3    3  502    0 -0.15631160460E+03  0.19676979350E+03  0.15620526549E+04  0.15821378500E+04  0.10100000352E+00 0.  1.
       -3    1    3    3    0  502  0.15631160460E+03 -0.19676979350E+03  0.43249595465E+03  0.50020438858E+03  0.10100000352E+00 0. -1.
</event>
<event>
 5   0  0.4987389E-02  0.4347771E+03  0.7818609E-02  0.1032361E+00
       -1   -1    0    0    0  501  0.00000000000E+00  0.00000000000E+00  0.12014240670E+03  0.12014240681E+03  0.50400001928E-02 0. -1.
        1   -1    0    0  501    0  0.00000000000E+00  0.00000000000E+00 -0.39334800828E+03  0.39334800831E+03  0.50400001928E-02 0.  1.
    10030    2    1    2    0    0  0.00000000000E+00  0.00000000000E+00 -0.27320560158E+03  0.51349041512E+03  0.43477707585E+03 0.  0.
        1    1    3    3  502    0 -0.76534553776E+02  0.14093066517E+03  0.36728228366E+02  0.16452341199E+03  0.50400001928E-02 0. -1.
       -1    1    3    3    0  502  0.76534553776E+02 -0.14093066517E+03 -0.30993382994E+03  0.34896700313E+03  0.50400001928E-02 0.  1.
</event>
<event>
 5   0  0.4987389E-02  0.5989441E+03  0.7818609E-02  0.9907599E-01
        1   -1    0    0  501    0  0.00000000000E+00  0.00000000000E+00  0.86275104989E+03  0.86275104990E+03  0.50400001928E-02 0.  1.
       -1   -1    0    0    0  501  0.00000000000E+00  0.00000000000E+00 -0.10395062657E+03  0.10395062669E+03  0.50400001928E-02 0. -1.
    10030    2    1    2    0    0  0.00000000000E+00  0.00000000000E+00  0.75880042331E+03  0.96670167660E+03  0.59894411184E+03 0.  0.
        1    1    3    3  502    0 -0.21708131576E+03  0.86359739037E+01  0.71207670534E+03  0.74448110252E+03  0.50400001928E-02 0.  1.
       -1    1    3    3    0  502  0.21708131576E+03 -0.86359739037E+01  0.46723717976E+02  0.22222057408E+03  0.50400001928E-02 0. -1.
</event>
<event>
 5   0  0.8207443E-02  0.6008126E+03  0.7818609E-02  0.9903722E-01
       -2   -1    0    0    0  501  0.00000000000E+00  0.00000000000E+00  0.50055436763E+03  0.50055436763E+03  0.25500000920E-02 0.  1.
        2   -1    0    0  501    0  0.00000000000E+00  0.00000000000E+00 -0.18028798025E+03  0.18028798027E+03  0.25500000920E-02 0. -1.
    10030    2    1    2    0    0  0.00000000000E+00  0.00000000000E+00  0.32026638737E+03  0.68084234790E+03  0.60081256962E+03 0.  0.
        1    1    3    3  502    0  0.29255948769E+03  0.17974414237E+02  0.85567065126E+02  0.30534547003E+03  0.50400001928E-02 0.  1.
       -1    1    3    3    0  502 -0.29255948769E+03 -0.17974414237E+02  0.23469932225E+03  0.37549687788E+03  0.50400001928E-02 0. -1.
</event>
<event>
 5   0  0.3437375E-02  0.6000465E+03  0.7818609E-02  0.9905310E-01
        4   -1    0    0  501    0  0.00000000000E+00  0.00000000000E+00  0.32541329625E+03  0.32541577447E+03  0.12699999809E+01 0.  1.
       -4   -1    0    0    0  501  0.00000000000E+00  0.00000000000E+00 -0.27660923535E+03  0.27661215082E+03  0.12699999809E+01 0. -1.
    10030    2    1    2    0    0  0.00000000000E+00  0.00000000000E+00  0.48804060899E+02  0.60202792529E+03  0.60004648692E+03 0.  0.
        3    1    3    3  502    0 -0.21150613308E+03  0.21230459964E+03  0.38796848543E+02  0.30218089453E+03  0.10100000352E+00 0. -1.
       -3    1    3    3    0  502  0.21150613308E+03 -0.21230459964E+03  0.10007212355E+02  0.29984703077E+03  0.10100000352E+00 0.  1.
</event>
<event>
 5   0  0.4987389E-02  0.6302082E+03  0.7818609E-02  0.9844643E-01
       -1   -1    0    0    0  501  0.00000000000E+00  0.00000000000E+00  0.11700576234E+03  0.11700576245E+03  0.50400001928E-02 0. -1.
        1   -1    0    0  501    0  0.00000000000E+00  0.00000000000E+00 -0.84859581716E+03  0.84859581718E+03  0.50400001928E-02 0.  1.
    10030    2    1    2    0    0  0.00000000000E+00  0.00000000000E+00 -0.73159005482E+03  0.96560157963E+03  0.63020822137E+03 0.  0.
        1    1    3    3  502    0 -0.19682449595E+03  0.16876570215E+03 -0.64017704019E+03  0.69068689523E+03  0.50400001928E-02 0.  1.
       -1    1    3    3    0  502  0.19682449595E+03 -0.16876570215E+03 -0.91413014632E+02  0.27491468440E+03  0.50400001928E-02 0. -1.
</event>
<event>
 5   0  0.8699746E-02  0.5972431E+03  0.7818609E-02  0.9911142E-01
       -2   -1    0    0    0  501  0.00000000000E+00  0.00000000000E+00  0.28801030677E+03  0.28801030678E+03  0.25500000920E-02 0. -1.
        2   -1    0    0  501    0  0.00000000000E+00  0.00000000000E+00 -0.30962375481E+03  0.30962375482E+03  0.25500000920E-02 0.  1.
    10030    2    1    2    0    0  0.00000000000E+00  0.00000000000E+00 -0.21613448040E+02  0.59763406161E+03  0.59724310834E+03 0.  0.
        3    1    3    3  502    0 -0.19524621967E+03  0.22593262382E+03 -0.13669647815E+02  0.29892056850E+03  0.10100000352E+00 0. -1.
       -3    1    3    3    0  502  0.19524621967E+03 -0.22593262382E+03 -0.79438002253E+01  0.29871349311E+03  0.10100000352E+00 0.  1.
</event>
<event>
 5   0  0.5125031E-02  0.6228894E+03  0.7818609E-02  0.9859024E-01
       -1   -1    0    0    0  501  0.00000000000E+00  0.00000000000E+00  0.11304339136E+03  0.11304339147E+03  0.50400001928E-02 0. -1.
        1   -1    0    0  501    0  0.00000000000E+00  0.00000000000E+00 -0.85805808885E+03  0.85805808886E+03  0.50400001928E-02 0.  1.
    10030    2    1    2    0    0  0.00000000000E+00  0.00000000000E+00 -0.74501469749E+03  0.97110148033E+03  0.62288938474E+03 0.  0.
        4    1    3    3  502    0  0.22257384950E+03 -0.12642480422E+03 -0.95922420485E+02  0.27335887265E+03  0.12699999809E+01 0.  1.
       -4    1    3    3    0  502 -0.22257384950E+03  0.12642480422E+03 -0.64909227701E+03  0.69774260768E+03  0.12699999809E+01 0. -1.
</event>
<event>
 5   0  0.5125031E-02  0.5969934E+03  0.7818609E-02  0.9911663E-01
        1   -1    0    0  501    0  0.00000000000E+00  0.00000000000E+00  0.83310873568E+02  0.83310873721E+02  0.50400001928E-02 0. -1.
       -1   -1    0    0    0  501  0.00000000000E+00  0.00000000000E+00 -0.10694916268E+04  0.10694916268E+04  0.50400001928E-02 0.  1.
    10030    2    1    2    0    0  0.00000000000E+00  0.00000000000E+00 -0.98618075324E+03  0.11528025005E+04  0.59699340632E+03 0.  0.
        4    1    3    3  502    0 -0.11194273608E+03  0.87199923302E+02 -0.10001926361E+04  0.10102088522E+04  0.12699999809E+01 0.  1.
       -4    1    3    3    0  502  0.11194273608E+03 -0.87199923302E+02  0.14011882894E+02  0.14259364834E+03  0.12699999809E+01 0. -1.
</event>
<event>
 5   0  0.5125031E-02  0.5999607E+03  0.7818609E-02  0.9905487E-01
        1   -1    0    0  501    0  0.00000000000E+00  0.00000000000E+00  0.75997637425E+03  0.75997637426E+03  0.50400001928E-02 0. -1.
       -1   -1    0    0    0  501  0.00000000000E+00  0.00000000000E+00 -0.11840924014E+03  0.11840924025E+03  0.50400001928E-02 0.  1.
    10030    2    1    2    0    0  0.00000000000E+00  0.00000000000E+00  0.64156713411E+03  0.87838561451E+03  0.59996074889E+03 0.  0.
        4    1    3    3  502    0  0.16196139069E+03 -0.68690170553E+00 -0.48889919088E+02  0.16918569974E+03  0.12699999809E+01 0.  1.
       -4    1    3    3    0  502 -0.16196139069E+03  0.68690170553E+00  0.69045705319E+03  0.70919991477E+03  0.12699999809E+01 0. -1.
</event>
<event>
 5   0  0.8420604E-02  0.5982418E+03  0.7818609E-02  0.9909060E-01
       -2   -1    0    0    0  501  0.00000000000E+00  0.00000000000E+00  0.12105874699E+03  0.12105874702E+03  0.25500000920E-02 0. -1.
        2   -1    0    0  501    0  0.00000000000E+00  0.00000000000E+00 -0.73909006054E+03  0.73909006054E+03  0.25500000920E-02 0.  1.
    10030    2    1    2    0    0  0.00000000000E+00  0.00000000000E+00 -0.61803131354E+03  0.86014880756E+03  0.59824181284E+03 0.  0.
        2    1    3    3  502    0  0.13037570636E+03 -0.22466866866E+03 -0.52227253478E+03  0.58330303966E+03  0.25500000920E-02 0.  1.
       -2    1    3    3    0  502 -0.13037570636E+03  0.22466866866E+03 -0.95758778759E+02  0.27684576790E+03  0.25500000920E-02 0. -1.
</event>
<event>
 5   0  0.8575590E-02  0.5989689E+03  0.7818609E-02  0.9907548E-01
       -2   -1    0    0    0  501  0.00000000000E+00  0.00000000000E+00  0.20379720317E+03  0.20379720319E+03  0.25500000920E-02 0.  1.
        2   -1    0    0  501    0  0.00000000000E+00  0.00000000000E+00 -0.44009890397E+03  0.44009890398E+03  0.25500000920E-02 0. -1.
    10030    2    1    2    0    0  0.00000000000E+00  0.00000000000E+00 -0.23630170080E+03  0.64389610717E+03  0.59896886649E+03 0.  0.
        4    1    3    3  502    0  0.15045505688E+03  0.25026534486E+03 -0.46682276992E+02  0.29571999402E+03  0.12699999809E+01 0.  1.
       -4    1    3    3    0  502 -0.15045505688E+03 -0.25026534486E+03 -0.18961942381E+03  0.34817611315E+03  0.12699999809E+01 0. -1.
</event>
<event>
 5   0  0.8699746E-02  0.6149383E+03  0.7818609E-02  0.9874890E-01
        2   -1    0    0  501    0  0.00000000000E+00  0.00000000000E+00  0.17836800274E+04  0.17836800274E+04  0.25500000920E-02 0. -1.
       -2   -1    0    0    0  501  0.00000000000E+00  0.00000000000E+00 -0.53001245970E+02  0.53001246031E+02  0.25500000920E-02 0.  1.
    10030    2    1    2    0    0  0.00000000000E+00  0.00000000000E+00  0.17306787814E+04  0.18366812734E+04  0.61493825356E+03 0.  0.
        3    1    3    3  502    0 -0.20093489999E+03 -0.10598182347E+03  0.14841875620E+04  0.15014725140E+04  0.10100000352E+00 0. -1.
       -3    1    3    3    0  502  0.20093489999E+03  0.10598182347E+03  0.24649121945E+03  0.33520875944E+03  0.10100000352E+00 0.  1.
</event>
<event>
 5   0  0.4881209E-02  0.6074473E+03  0.7818609E-02  0.9890075E-01
        1   -1    0    0  501    0  0.00000000000E+00  0.00000000000E+00  0.26075750228E+03  0.26075750233E+03  0.50400001928E-02 0. -1.
       -1   -1    0    0    0  501  0.00000000000E+00  0.00000000000E+00 -0.35376954283E+03  0.35376954287E+03  0.50400001928E-02 0.  1.
    10030    2    1    2    0    0  0.00000000000E+00  0.00000000000E+00 -0.93012040546E+02  0.61452704520E+03  0.60744732249E+03 0.  0.
        3    1    3    3  502    0  0.12116725541E+03 -0.26775495850E+02  0.23394255910E+03  0.26481609113E+03  0.10100000352E+00 0. -1.
       -3    1    3    3    0  502 -0.12116725541E+03  0.26775495850E+02 -0.32695459965E+03  0.34971095407E+03  0.10100000352E+00 0.  1.
</event>
<event>
 5   0  0.8699746E-02  0.5972027E+03  0.7818609E-02  0.9911227E-01
       -2   -1    0    0    0  501  0.00000000000E+00  0.00000000000E+00  0.23028864988E+03  0.23028864990E+03  0.25500000920E-02 0. -1.
        2   -1    0    0  501    0  0.00000000000E+00  0.00000000000E+00 -0.38717828548E+03  0.38717828549E+03  0.25500000920E-02 0.  1.
    10030    2    1    2    0    0  0.00000000000E+00  0.00000000000E+00 -0.15688963560E+03  0.61746693538E+03  0.59720269468E+03 0.  0.
        3    1    3    3  502    0 -0.18791453026E+03 -0.17691533145E+03 -0.23371319995E+03  0.34818497270E+03  0.10100000352E+00 0.  1.
       -3    1    3    3    0  502  0.18791453026E+03  0.17691533145E+03  0.76823564354E+02  0.26928196268E+03  0.10100000352E+00 0. -1.
</event>
<event>
 5   0  0.3437375E-02  0.5806922E+03  0.7818609E-02  0.9946294E-01
       -3   -1    0    0    0  501  0.00000000000E+00  0.00000000000E+00  0.10086261097E+04  0.10086261147E+04  0.10100000352E+00 0. -1.
        3   -1    0    0  501    0  0.00000000000E+00  0.00000000000E+00 -0.83579850224E+02  0.83579911249E+02  0.10100000352E+00 0.  1.
    10030    2    1    2    0    0  0.00000000000E+00  0.00000000000E+00  0.92504625945E+03  0.10922060260E+04  0.58069219132E+03 0.  0.
        2    1    3    3  502    0  0.39992964825E+02  0.64978497924E+02 -0.64386215718E+02  0.99836001567E+02  0.25500000920E-02 0.  1.
       -2    1    3    3    0  502 -0.39992964825E+02 -0.64978497924E+02  0.98943247517E+03  0.99237002441E+03  0.25500000920E-02 0. -1.
</event>
<event>
 5   0  0.3437375E-02  0.6287859E+03  0.7818609E-02  0.9847421E-01
        3   -1    0    0  501    0  0.00000000000E+00  0.00000000000E+00  0.95218894552E+02  0.95218948118E+02  0.10100000352E+00 0. -1.
       -3   -1    0    0    0  501  0.00000000000E+00  0.00000000000E+00 -0.10380597979E+04  0.10380598028E+04  0.10100000352E+00 0.  1.
    10030    2    1    2    0    0  0.00000000000E+00  0.00000000000E+00 -0.94284090334E+03  0.11332787509E+04  0.62878593995E+03 0.  0.
        5    1    3    3  502    0  0.29481746137E+03 -0.10904905866E+03 -0.46522483156E+03  0.56148487658E+03  0.46999998093E+01 0.  1.
       -5    1    3    3    0  502 -0.29481746137E+03  0.10904905866E+03 -0.47761607177E+03  0.57179387434E+03  0.46999998093E+01 0. -1.
</event>
<event>
 5   0  0.8420604E-02  0.6063997E+03  0.7818609E-02  0.9892217E-01
       -2   -1    0    0    0  501  0.00000000000E+00  0.00000000000E+00  0.14234909620E+03  0.14234909623E+03  0.25500000920E-02 0. -1.
        2   -1    0    0  501    0  0.00000000000E+00  0.00000000000E+00 -0.64580777620E+03  0.64580777621E+03  0.25500000920E-02 0.  1.
    10030    2    1    2    0    0  0.00000000000E+00  0.00000000000E+00 -0.50345868000E+03  0.78815687244E+03  0.60639971397E+03 0.  0.
        2    1    3    3  502    0  0.22864688090E+02 -0.55026397630E+02 -0.63812241851E+03  0.64089852505E+03  0.25500000920E-02 0.  1.
       -2    1    3    3    0  502 -0.22864688090E+02  0.55026397630E+02  0.13466373851E+03  0.14725834738E+03  0.25500000920E-02 0. -1.
</event>
<event>
 5   0  0.4881209E-02  0.6002189E+03  0.7818609E-02  0.9904952E-01
        1   -1    0    0  501    0  0.00000000000E+00  0.00000000000E+00  0.38211555511E+03  0.38211555514E+03  0.50400001928E-02 0. -1.
       -1   -1    0    0    0  501  0.00000000000E+00  0.00000000000E+00 -0.23570271574E+03  0.23570271579E+03  0.50400001928E-02 0.  1.
    10030    2    1    2    0    0  0.00000000000E+00  0.00000000000E+00  0.14641283937E+03  0.61781827094E+03  0.60021887372E+03 0.  0.
        3    1    3    3  502    0  0.34677479684E+02  0.22355141253E+03  0.27618880807E+03  0.35701264620E+03  0.10100000352E+00 0. -1.
       -3    1    3    3    0  502 -0.34677479684E+02 -0.22355141253E+03 -0.12977596870E+03  0.26080562474E+03  0.10100000352E+00 0.  1.
</event>
<event>
 5   0  0.8817544E-02  0.6056267E+03  0.7818609E-02  0.9893801E-01
        2   -1    0    0  501    0  0.00000000000E+00  0.00000000000E+00  0.95058561096E+03  0.95058561097E+03  0.25500000920E-02 0.  1.
       -2   -1    0    0    0  501  0.00000000000E+00  0.00000000000E+00 -0.96462554238E+02  0.96462554272E+02  0.25500000920E-02 0. -1.
    10030    2    1    2    0    0  0.00000000000E+00  0.00000000000E+00  0.85412305673E+03  0.10470481652E+04  0.60562667073E+03 0.  0.
        5    1    3    3  502    0  0.15441659246E+03  0.21369262842E+03  0.16967038348E+03  0.31355885013E+03  0.46999998093E+01 0. -1.
       -5    1    3    3    0  502 -0.15441659246E+03 -0.21369262842E+03  0.68445267324E+03  0.73348931511E+03  0.46999998093E+01 0.  1.
</event>
<event>
 5   0  0.5190380E-02  0.5979457E+03  0.7818609E-02  0.9909677E-01
        1   -1    0    0  501    0  0.00000000000E+00  0.00000000000E+00  0.58986525530E+03  0.58986525532E+03  0.50400001928E-02 0. -1.
       -1   -1    0    0    0  501  0.00000000000E+00  0.00000000000E+00 -0.15153421598E+03  0.15153421606E+03  0.50400001928E-02 0.  1.
    10030    2    1    2    0    0  0.00000000000E+00  0.00000000000E+00  0.43833103932E+03  0.74139947139E+03  0.59794571337E+03 0.  0.
        5    1    3    3  502    0  0.14688481958E+03 -0.63209931469E+02 -0.93999855019E+02  0.18554974644E+03  0.46999998093E+01 0.  1.
       -5    1    3    3    0  502 -0.14688481958E+03  0.63209931469E+02  0.53233089434E+03  0.55584972495E+03  0.46999998093E+01 0. -1.
</event>
<event>
 5   0  0.8817544E-02  0.6070261E+03  0.7818609E-02  0.9890935E-01
       -2   -1    0    0    0  501  0.00000000000E+00  0.00000000000E+00  0.10600391057E+03  0.10600391060E+03  0.25500000920E-02 0.  1.
        2   -1    0    0  501    0  0.00000000000E+00  0.00000000000E+00 -0.86902609465E+03  0.86902609465E+03  0.25500000920E-02 0. -1.
    10030    2    1    2    0    0  0.00000000000E+00  0.00000000000E+00 -0.76302218408E+03  0.97503000525E+03  0.60702607665E+03 0.  0.
        5    1    3    3  502    0  0.95642035479E+02  0.18879376386E+03 -0.73087339837E+03  0.76091293764E+03  0.46999998093E+01 0. -1.
       -5    1    3    3    0  502 -0.95642035479E+02 -0.18879376386E+03 -0.32148785713E+02  0.21411706761E+03  0.46999998093E+01 0.  1.
</event>
<event>
 5   0  0.8207443E-02  0.6010655E+03  0.7818609E-02  0.9903198E-01
        2   -1    0    0  501    0  0.00000000000E+00  0.00000000000E+00  0.22598947634E+03  0.22598947635E+03  0.25500000920E-02 0.  1.
       -2   -1    0    0    0  501  0.00000000000E+00  0.00000000000E+00 -0.39966438528E+03  0.39966438529E+03  0.25500000920E-02 0. -1.
    10030    2    1    2    0    0  0.00000000000E+00  0.00000000000E+00 -0.17367490895E+03  0.62565386164E+03  0.60106553768E+03 0.  0.
        1    1    3    3  502    0 -0.54314214499E+01  0.77603191103E+02  0.21532752784E+03  0.22894912073E+03  0.50400001928E-02 0.  1.
       -1    1    3    3    0  502  0.54314214499E+01 -0.77603191103E+02 -0.38900243679E+03  0.39670474091E+03  0.50400001928E-02 0. -1.
</event>
<event>
 5   0  0.8575590E-02  0.5853603E+03  0.7818609E-02  0.9936253E-01
        2   -1    0    0  501    0  0.00000000000E+00  0.00000000000E+00  0.69608471431E+03  0.69608471431E+03  0.25500000920E-02 0.  1.
       -2   -1    0    0    0  501  0.00000000000E+00  0.00000000000E+00 -0.12306215212E+03  0.12306215214E+03  0.25500000920E-02 0. -1.
    10030    2    1    2    0    0  0.00000000000E+00  0.00000000000E+00  0.57302256219E+03  0.81914686646E+03  0.58536034376E+03 0.  0.
        4    1    3    3  502    0 -0.22568974040E+03 -0.12488772787E+03  0.48004869471E+03  0.54495978356E+03  0.12699999809E+01 0.  1.
       -4    1    3    3    0  502  0.22568974040E+03  0.12488772787E+03  0.92973867477E+02  0.27418708290E+03  0.12699999809E+01 0. -1.
</event>
<event>
 5   0  0.4881209E-02  0.6000083E+03  0.7818609E-02  0.9905389E-01
       -1   -1    0    0    0  501  0.00000000000E+00  0.00000000000E+00  0.67937042036E+03  0.67937042038E+03  0.50400001928E-02 0. -1.
        1   -1    0    0  501    0  0.00000000000E+00  0.00000000000E+00 -0.13247924788E+03  0.13247924798E+03  0.50400001928E-02 0.  1.
    10030    2    1    2    0    0  0.00000000000E+00  0.00000000000E+00  0.54689117247E+03  0.81184966836E+03  0.60000827451E+03 0.  0.
        3    1    3    3  502    0 -0.10492003964E+03  0.25744484032E+03  0.12086451243E+03  0.30314072820E+03  0.10100000352E+00 0.  1.
       -3    1    3    3    0  502  0.10492003964E+03 -0.25744484032E+03  0.42602666005E+03  0.50870894016E+03  0.10100000352E+00 0. -1.
</event>
<event>
 5   0  0.5125031E-02  0.6035252E+03  0.7818609E-02  0.9898119E-01
       -1   -1    0    0    0  501  0.00000000000E+00  0.00000000000E+00  0.25472031250E+03  0.25472031255E+03  0.50400001928E-02 0.  1.
        1   -1    0    0  501    0  0.00000000000E+00  0.00000000000E+00 -0.35749273827E+03  0.35749273831E+03  0.50400001928E-02 0. -1.
    10030    2    1    2    0    0  0.00000000000E+00  0.00000000000E+00 -0.10277242577E+03  0.61221305086E+03  0.60352518435E+03 0.  0.
        4    1    3    3  502    0 -0.12923033136E+03 -0.12003861358E+03  0.19698385210E+03  0.26441255300E+03  0.12699999809E+01 0.  1.
       -4    1    3    3    0  502  0.12923033136E+03  0.12003861358E+03 -0.29975627787E+03  0.34780049787E+03  0.12699999809E+01 0. -1.
</event>
<event>
 5   0  0.8207443E-02  0.5944838E+03  0.7818609E-02  0.9916917E-01
        2   -1    0    0  501    0  0.00000000000E+00  0.00000000000E+00  0.14355320095E+04  0.14355320095E+04  0.25500000920E-02 0. -1.
       -2   -1    0    0    0  501  0.00000000000E+00  0.00000000000E+00 -0.61547048801E+02  0.61547048854E+02  0.25500000920E-02 0.  1.
    10030    2    1    2    0    0  0.00000000000E+00  0.00000000000E+00  0.13739849607E+04  0.14970790583E+04  0.59448383892E+03 0.  0.
        1    1    3    3  502    0  0.22174540652E+03  0.18817297781E+03  0.84167054629E+03  0.89049952466E+03  0.50400001928E-02 0. -1.
       -1    1    3    3    0  502 -0.22174540652E+03 -0.18817297781E+03  0.53231441440E+03  0.60657953369E+03  0.50400001928E-02 0.  1.
</event>
<event>
 5   0  0.5125031E-02  0.5531819E+03  0.7818609E-02  0.1000760E+00
       -1   -1    0    0    0  501  0.00000000000E+00  0.00000000000E+00  0.22406524126E+03  0.22406524131E+03  0.50400001928E-02 0. -1.
        1   -1    0    0  501    0  0.00000000000E+00  0.00000000000E+00 -0.34142979054E+03  0.34142979057E+03  0.50400001928E-02 0.  1.
    10030    2    1    2    0    0  0.00000000000E+00  0.00000000000E+00 -0.11736454928E+03  0.56549503189E+03  0.55318188118E+03 0.  0.
        4    1    3    3  502    0 -0.17216443648E+03 -0.16893174925E+03 -0.19705551244E+03  0.31146591623E+03  0.12699999809E+01 0.  1.
       -4    1    3    3    0  502  0.17216443648E+03  0.16893174925E+03  0.79690963165E+02  0.25402911566E+03  0.12699999809E+01 0. -1.
</event>
<event>
 5   0  0.8575590E-02  0.6029737E+03  0.7818609E-02  0.9899256E-01
       -2   -1    0    0    0  501  0.00000000000E+00  0.00000000000E+00  0.23231686011E+03  0.23231686012E+03  0.25500000920E-02 0.  1.
        2   -1    0    0  501    0  0.00000000000E+00  0.00000000000E+00 -0.39125148679E+03  0.39125148680E+03  0.25500000920E-02 0. -1.
    10030    2    1    2    0    0  0.00000000000E+00  0.00000000000E+00 -0.15893462668E+03  0.62356834692E+03  0.60297368742E+03 0.  0.
        4    1    3    3  502    0  0.22216463790E+03 -0.20365113884E+03 -0.87596545728E+02  0.31385614604E+03  0.12699999809E+01 0.  1.
       -4    1    3    3    0  502 -0.22216463790E+03  0.20365113884E+03 -0.71338080950E+02  0.30971220088E+03  0.12699999809E+01 0. -1.
</event>
<event>
 5   0  0.8817544E-02  0.6042976E+03  0.7818609E-02  0.9896530E-01
       -2   -1    0    0    0  501  0.00000000000E+00  0.00000000000E+00  0.94112910463E+02  0.94112910498E+02  0.25500000920E-02 0.  1.
        2   -1    0    0  501    0  0.00000000000E+00  0.00000000000E+00 -0.97004641614E+03  0.97004641614E+03  0.25500000920E-02 0. -1.
    10030    2    1    2    0    0  0.00000000000E+00  0.00000000000E+00 -0.87593350567E+03  0.10641593266E+04  0.60429758076E+03 0.  0.
        5    1    3    3  502    0  0.15537073850E+03  0.24376194421E+03 -0.28332203927E+03  0.40478811713E+03  0.46999998093E+01 0.  1.
       -5    1    3    3    0  502 -0.15537073850E+03 -0.24376194421E+03 -0.59261146640E+03  0.65937120951E+03  0.46999998093E+01 0. -1.
</event>
<event>
 5   0  0.8817544E-02  0.5695650E+03  0.7818609E-02  0.9970642E-01
       -2   -1    0    0    0  501  0.00000000000E+00  0.00000000000E+00  0.89549937563E+02  0.89549937599E+02  0.25500000920E-02 0.  1.
        2   -1    0    0  501    0  0.00000000000E+00  0.00000000000E+00 -0.90565184637E+03  0.90565184638E+03  0.25500000920E-02 0. -1.
    10030    2    1    2    0    0  0.00000000000E+00  0.00000000000E+00 -0.81610190881E+03  0.99520178398E+03  0.56956497897E+03 0.  0.
        5    1    3    3  502    0  0.38896070044E+02  0.64235961413E+02  0.71868295916E+02  0.10404953128E+03  0.46999998093E+01 0.  1.
       -5    1    3    3    0  502 -0.38896070044E+02 -0.64235961413E+02 -0.88797020473E+03  0.89115225270E+03  0.46999998093E+01 0. -1.
</event>
<event>
 5   0  0.5166903E-02  0.6116362E+03  0.7818609E-02  0.9881554E-01
        1   -1    0    0  501    0  0.00000000000E+00  0.00000000000E+00  0.55084936081E+03  0.55084936083E+03  0.50400001928E-02 0. -1.
       -1   -1    0    0    0  501  0.00000000000E+00  0.00000000000E+00 -0.16978273473E+03  0.16978273481E+03  0.50400001928E-02 0.  1.
    10030    2    1    2    0    0  0.00000000000E+00  0.00000000000E+00  0.38106662607E+03  0.72063209564E+03  0.61163620213E+03 0.  0.
        2    1    3    3  502    0  0.14484890812E+03  0.24279532503E+03  0.32790366491E+03  0.43295679867E+03  0.25500000920E-02 0.  1.
       -2    1    3    3    0  502 -0.14484890812E+03 -0.24279532503E+03  0.53162961158E+02  0.28767529697E+03  0.25500000920E-02 0. -1.
</event>
<event>
 5   0  0.5166903E-02  0.6028429E+03  0.7818609E-02  0.9899525E-01
       -1   -1    0    0    0  501  0.00000000000E+00  0.00000000000E+00  0.10290406232E+03  0.10290406244E+03  0.50400001928E-02 0. -1.
        1   -1    0    0  501    0  0.00000000000E+00  0.00000000000E+00 -0.88290879927E+03  0.88290879928E+03  0.50400001928E-02 0.  1.
    10030    2    1    2    0    0  0.00000000000E+00  0.00000000000E+00 -0.78000473695E+03  0.98581286173E+03  0.60284293865E+03 0.  0.
        2    1    3    3  502    0 -0.59433090456E+02  0.12927609251E+03 -0.82453694119E+03  0.83672323246E+03  0.25500000920E-02 0.  1.
       -2    1    3    3    0  502  0.59433090456E+02 -0.12927609251E+03  0.44532204244E+02  0.14908962927E+03  0.25500000920E-02 0. -1.
</event>
<event>
 5   0  0.5190380E-02  0.6991080E+03  0.7818609E-02  0.9718759E-01
       -1   -1    0    0    0  501  0.00000000000E+00  0.00000000000E+00  0.92888943755E+03  0.92888943757E+03  0.50400001928E-02 0.  1.
        1   -1    0    0  501    0  0.00000000000E+00  0.00000000000E+00 -0.13154200865E+03  0.13154200875E+03  0.50400001928E-02 0. -1.
    10030    2    1    2    0    0  0.00000000000E+00  0.00000000000E+00  0.79734742891E+03  0.10604314463E+04  0.69910795300E+03 0.  0.
        5    1    3    3  502    0  0.24352154537E+03 -0.24076053928E+03  0.29252221911E+03  0.45039951045E+03  0.46999998093E+01 0. -1.
       -5    1    3    3    0  502 -0.24352154537E+03  0.24076053928E+03  0.50482520979E+03  0.61003193587E+03  0.46999998093E+01 0.  1.
</event>
<event>
 5   0  0.4987389E-02  0.6021039E+03  0.7818609E-02  0.9901051E-01
       -1   -1    0    0    0  501  0.00000000000E+00  0.00000000000E+00  0.91854551241E+02  0.91854551380E+02  0.50400001928E-02 0. -1.
        1   -1    0    0  501    0  0.00000000000E+00  0.00000000000E+00 -0.98669326034E+03  0.98669326036E+03  0.50400001928E-02 0.  1.
    10030    2    1    2    0    0  0.00000000000E+00  0.00000000000E+00 -0.89483870910E+03  0.10785478117E+04  0.60210386720E+03 0.  0.
        1    1    3    3  502    0 -0.18444033955E+03 -0.20209373870E+03 -0.22245515232E+03  0.35262786744E+03  0.50400001928E-02 0. -1.
       -1    1    3    3    0  502  0.18444033955E+03  0.20209373870E+03 -0.67238355678E+03  0.72591994430E+03  0.50400001928E-02 0.  1.
</event>
<event>
 5   0  0.8817544E-02  0.6062262E+03  0.7818609E-02  0.9892572E-01
       -2   -1    0    0    0  501  0.00000000000E+00  0.00000000000E+00  0.93597796546E+02  0.93597796580E+02  0.25500000920E-02 0.  1.
        2   -1    0    0  501    0  0.00000000000E+00  0.00000000000E+00 -0.98162081666E+03  0.98162081667E+03  0.25500000920E-02 0. -1.
    10030    2    1    2    0    0  0.00000000000E+00  0.00000000000E+00 -0.88802302012E+03  0.10752186132E+04  0.60622618057E+03 0.  0.
        5    1    3    3  502    0 -0.21136178312E+03 -0.51023375020E+02 -0.81848724188E+03  0.84688880219E+03  0.46999998093E+01 0. -1.
       -5    1    3    3    0  502  0.21136178312E+03  0.51023375020E+02 -0.69535778241E+02  0.22832981106E+03  0.46999998093E+01 0.  1.
</event>
<event>
 5   0  0.8575590E-02  0.5941734E+03  0.7818609E-02  0.9917569E-01
       -2   -1    0    0    0  501  0.00000000000E+00  0.00000000000E+00  0.12781269105E+03  0.12781269107E+03  0.25500000920E-02 0.  1.
        2   -1    0    0  501    0  0.00000000000E+00  0.00000000000E+00 -0.69054563026E+03  0.69054563026E+03  0.25500000920E-02 0. -1.
    10030    2    1    2    0    0  0.00000000000E+00  0.00000000000E+00 -0.56273293921E+03  0.81835832133E+03  0.59417335958E+03 0.  0.
        4    1    3    3  502    0  0.71572550286E+02 -0.28509639300E+03 -0.22202554487E+03  0.36837418304E+03  0.12699999809E+01 0.  1.
       -4    1    3    3    0  502 -0.71572550286E+02  0.28509639300E+03 -0.34070739434E+03  0.44998413829E+03  0.12699999809E+01 0. -1.
</event>
<event>
 5   0  0.8207443E-02  0.6091572E+03  0.7818609E-02  0.9886588E-01
       -2   -1    0    0    0  501  0.00000000000E+00  0.00000000000E+00  0.12996225814E+03  0.12996225816E+03  0.25500000920E-02 0. -1.
        2   -1    0    0  501    0  0.00000000000E+00  0.00000000000E+00 -0.71380821692E+03  0.71380821693E+03  0.25500000920E-02 0.  1.
    10030    2    1    2    0    0  0.00000000000E+00  0.00000000000E+00 -0.58384595879E+03  0.84377047509E+03  0.60915721374E+03 0.  0.
        1    1    3    3  502    0  0.28851847732E+03 -0.41416113351E+02 -0.16951259310E+03  0.33718351894E+03  0.50400001928E-02 0. -1.
       -1    1    3    3    0  502 -0.28851847732E+03  0.41416113351E+02 -0.41433336569E+03  0.50658695615E+03  0.50400001928E-02 0.  1.
</event>
<event>
 5   0  0.8207443E-02  0.5983294E+03  0.7818609E-02  0.9908878E-01
       -2   -1    0    0    0  501  0.00000000000E+00  0.00000000000E+00  0.58619309571E+02  0.58619309626E+02  0.25500000920E-02 0.  1.
        2   -1    0    0  501    0  0.00000000000E+00  0.00000000000E+00 -0.15267924912E+04  0.15267924912E+04  0.25500000920E-02 0. -1.
    10030    2    1    2    0    0  0.00000000000E+00  0.00000000000E+00 -0.14681731816E+04  0.15854118008E+04  0.59832941341E+03 0.  0.
        1    1    3    3  502    0 -0.24473662359E+03 -0.17163289026E+03 -0.76606586153E+03  0.82232035617E+03  0.50400001928E-02 0. -1.
       -1    1    3    3    0  502  0.24473662359E+03  0.17163289026E+03 -0.70210732009E+03  0.76309144464E+03  0.50400001928E-02 0.  1.
</event>
<event>
 5   0  0.5166903E-02  0.5984359E+03  0.7818609E-02  0.9908656E-01
       -1   -1    0    0    0  501  0.00000000000E+00  0.00000000000E+00  0.17449443973E+03  0.17449443980E+03  0.50400001928E-02 0. -1.
        1   -1    0    0  501    0  0.00000000000E+00  0.00000000000E+00 -0.51309018814E+03  0.51309018817E+03  0.50400001928E-02 0.  1.
    10030    2    1    2    0    0  0.00000000000E+00  0.00000000000E+00 -0.33859574842E+03  0.68758462796E+03  0.59843591116E+03 0.  0.
        2    1    3    3  502    0  0.26185349766E+03 -0.42679339375E+02 -0.32826562417E+03  0.42207475673E+03  0.25500000920E-02 0.  1.
       -2    1    3    3    0  502 -0.26185349766E+03  0.42679339375E+02 -0.10330124242E+02  0.26550987123E+03  0.25500000920E-02 0. -1.
</event>
<event>
 5   0  0.5190380E-02  0.6041923E+03  0.7818609E-02  0.9896746E-01
       -1   -1    0    0    0  501  0.00000000000E+00  0.00000000000E+00  0.11630905584E+03  0.11630905595E+03  0.50400001928E-02 0. -1.
        1   -1    0    0  501    0  0.00000000000E+00  0.00000000000E+00 -0.78465151947E+03  0.78465151948E+03  0.50400001928E-02 0.  1.
    10030    2    1    2    0    0  0.00000000000E+00  0.00000000000E+00 -0.66834246363E+03  0.90096057543E+03  0.60419227882E+03 0.  0.
        5    1    3    3  502    0 -0.31537647102E+02  0.15941968462E+03 -0.71385415718E+03  0.73213325751E+03  0.46999998093E+01 0.  1.
       -5    1    3    3    0  502  0.31537647102E+02 -0.15941968462E+03  0.45511693549E+02  0.16882731792E+03  0.46999998093E+01 0. -1.
</event>
<event>
 5   0  0.8817544E-02  0.5991017E+03  0.7818609E-02  0.9907272E-01
        2   -1    0    0  501    0  0.00000000000E+00  0.00000000000E+00  0.10133524382E+04  0.10133524382E+04  0.25500000920E-02 0.  1.
       -2   -1    0    0    0  501  0.00000000000E+00  0.00000000000E+00 -0.88548363260E+02  0.88548363296E+02  0.25500000920E-02 0. -1.
    10030    2    1    2    0    0  0.00000000000E+00  0.00000000000E+00  0.92480407494E+03  0.11019008015E+04  0.59910166025E+03 0.  0.
        5    1    3    3  502    0 -0.17846618541E+02  0.28726469627E+02  0.10097617001E+04  0.10103388010E+04  0.46999998093E+01 0.  1.
       -5    1    3    3    0  502  0.17846618541E+02 -0.28726469627E+02 -0.84957625191E+02  0.91562000453E+02  0.46999998093E+01 0. -1.
</event>
<event>
 5   0  0.5125031E-02  0.5553137E+03  0.7818609E-02  0.1000271E+00
       -1   -1    0    0    0  501  0.00000000000E+00  0.00000000000E+00  0.11498180526E+03  0.11498180537E+03  0.50400001928E-02 0.  1.
        1   -1    0    0  501    0  0.00000000000E+00  0.00000000000E+00 -0.67048292729E+03  0.67048292731E+03  0.50400001928E-02 0. -1.
    10030    2    1    2    0    0  0.00000000000E+00  0.00000000000E+00 -0.55550112203E+03  0.78546473269E+03  0.55531373990E+03 0.  0.
        4    1    3    3  502    0 -0.15667747278E+03 -0.89661879259E+01 -0.60172959589E+03  0.62185878017E+03  0.12699999809E+01 0. -1.
       -4    1    3    3    0  502  0.15667747278E+03  0.89661879259E+01  0.46228473864E+02  0.16360595252E+03  0.12699999809E+01 0.  1.
</event>
<event>
 5   0  0.8420604E-02  0.6274379E+03  0.7818609E-02  0.9850061E-01
        2   -1    0    0  501    0  0.00000000000E+00  0.00000000000E+00  0.98496759908E+03  0.98496759908E+03  0.25500000920E-02 0. -1.
       -2   -1    0    0    0  501  0.00000000000E+00  0.00000000000E+00 -0.99921641920E+02  0.99921641953E+02  0.25500000920E-02 0.  1.
    10030    2    1    2    0    0  0.00000000000E+00  0.00000000000E+00  0.88504595716E+03  0.10848892410E+04  0.62743790054E+03 0.  0.
        2    1    3    3  502    0 -0.56791184979E+02 -0.63942025905E+02  0.96442330354E+03  0.96820768939E+03  0.25500000920E-02 0. -1.
       -2    1    3    3    0  502  0.56791184979E+02  0.63942025905E+02 -0.79377346387E+02  0.11668155164E+03  0.25500000920E-02 0.  1.
</event>
<event>
 5   0  0.4987389E-02  0.5972491E+03  0.7818609E-02  0.9911130E-01
        1   -1    0    0  501    0  0.00000000000E+00  0.00000000000E+00  0.15071013817E+04  0.15071013817E+04  0.50400001928E-02 0. -1.
       -1   -1    0    0    0  501  0.00000000000E+00  0.00000000000E+00 -0.59170951627E+02  0.59170951842E+02  0.50400001928E-02 0.  1.
    10030    2    1    2    0    0  0.00000000000E+00  0.00000000000E+00  0.14479304300E+04  0.15662723335E+04  0.59724910423E+03 0.  0.
        1    1    3    3  502    0  0.16368438329E+03  0.51736646408E+02  0.83160464063E+02  0.19074831774E+03  0.50400001928E-02 0.  1.
       -1    1    3    3    0  502 -0.16368438329E+03 -0.51736646408E+02  0.13647699660E+04  0.13755240158E+04  0.50400001928E-02 0. -1.
</event>
<event>
 5   0  0.8699746E-02  0.5999412E+03  0.7818609E-02  0.9905528E-01
       -2   -1    0    0    0  501  0.00000000000E+00  0.00000000000E+00  0.66385707525E+02  0.66385707574E+02  0.25500000920E-02 0.  1.
        2   -1    0    0  501    0  0.00000000000E+00  0.00000000000E+00 -0.13554475712E+04  0.13554475712E+04  0.25500000920E-02 0. -1.
    10030    2    1    2    0    0  0.00000000000E+00  0.00000000000E+00 -0.12890618637E+04  0.14218332788E+04  0.59994115066E+03 0.  0.
        3    1    3    3  502    0  0.93050022483E+02 -0.19420158254E+03 -0.14961441953E+03  0.26221564804E+03  0.10100000352E+00 0.  1.
       -3    1    3    3    0  502 -0.93050022483E+02  0.19420158254E+03 -0.11394474442E+04  0.11596176307E+04  0.10100000352E+00 0. -1.
</event>
<event>
 5   0  0.8817544E-02  0.6044622E+03  0.7818609E-02  0.9896191E-01
       -2   -1    0    0    0  501  0.00000000000E+00  0.00000000000E+00  0.10549705978E+03  0.10549705981E+03  0.25500000920E-02 0.  1.
        2   -1    0    0  501    0  0.00000000000E+00  0.00000000000E+00 -0.86584069106E+03  0.86584069107E+03  0.25500000920E-02 0. -1.
    10030    2    1    2    0    0  0.00000000000E+00  0.00000000000E+00 -0.76034363128E+03  0.97133775088E+03  0.60446223095E+03 0.  0.
        5    1    3    3  502    0  0.17163972021E+03  0.15363300759E+03 -0.69448581159E+03  0.73170754204E+03  0.46999998093E+01 0. -1.
       -5    1    3    3    0  502 -0.17163972021E+03 -0.15363300759E+03 -0.65857819689E+02  0.23963020884E+03  0.46999998093E+01 0.  1.
</event>
<event>
 5   0  0.4987389E-02  0.5877294E+03  0.7818609E-02  0.9931196E-01
        1   -1    0    0  501    0  0.00000000000E+00  0.00000000000E+00  0.73751807215E+03  0.73751807217E+03  0.50400001928E-02 0.  1.
       -1   -1    0    0    0  501  0.00000000000E+00  0.00000000000E+00 -0.11709064066E+03  0.11709064077E+03  0.50400001928E-02 0. -1.
    10030    2    1    2    0    0  0.00000000000E+00  0.00000000000E+00  0.62042743149E+03  0.85460871293E+03  0.58772940583E+03 0.  0.
        1    1    3    3  502    0  0.89383393469E+02 -0.78353120144E+02  0.70100266402E+03  0.71100867607E+03  0.50400001928E-02 0.  1.
       -1    1    3    3    0  502 -0.89383393469E+02  0.78353120144E+02 -0.80575232525E+02  0.14360003686E+03  0.50400001928E-02 0. -1.
</event>
<event>
 5   0  0.5125031E-02  0.6050474E+03  0.7818609E-02  0.9894989E-01
       -1   -1    0    0    0  501  0.00000000000E+00  0.00000000000E+00  0.51308025911E+03  0.51308025914E+03  0.50400001928E-02 0. -1.
        1   -1    0    0  501    0  0.00000000000E+00  0.00000000000E+00 -0.17837479077E+03  0.17837479084E+03  0.50400001928E-02 0.  1.
    10030    2    1    2    0    0  0.00000000000E+00  0.00000000000E+00  0.33470546834E+03  0.69145504998E+03  0.60504738294E+03 0.  0.
        4    1    3    3  502    0  0.12058151584E+03 -0.24628035376E+03  0.21336241963E+02  0.27504683734E+03  0.12699999809E+01 0.  1.
       -4    1    3    3    0  502 -0.12058151584E+03  0.24628035376E+03  0.31336922638E+03  0.41640821264E+03  0.12699999809E+01 0. -1.
</event>
<event>
 5   0  0.5190380E-02  0.5981063E+03  0.7818609E-02  0.9909343E-01
       -1   -1    0    0    0  501  0.00000000000E+00  0.00000000000E+00  0.83866452847E+03  0.83866452849E+03  0.50400001928E-02 0.  1.
        1   -1    0    0  501    0  0.00000000000E+00  0.00000000000E+00 -0.10663713080E+03  0.10663713092E+03  0.50400001928E-02 0. -1.
    10030    2    1    2    0    0  0.00000000000E+00  0.00000000000E+00  0.73202739768E+03  0.94530165941E+03  0.59810627511E+03 0.  0.
        5    1    3    3  502    0  0.22876791817E+03 -0.60918124192E+00  0.67033749102E+03  0.70831460055E+03  0.46999998093E+01 0.  1.
       -5    1    3    3    0  502 -0.22876791817E+03  0.60918124192E+00  0.61689906657E+02  0.23698705886E+03  0.46999998093E+01 0. -1.
</event>
<event>
 5   0  0.5190380E-02  0.6002143E+03  0.7818609E-02  0.9904961E-01
        1   -1    0    0  501    0  0.00000000000E+00  0.00000000000E+00  0.42546109919E+03  0.42546109922E+03  0.50400001928E-02 0. -1.
       -1   -1    0    0    0  501  0.00000000000E+00  0.00000000000E+00 -0.21168637090E+03  0.21168637096E+03  0.50400001928E-02 0.  1.
    10030    2    1    2    0    0  0.00000000000E+00  0.00000000000E+00  0.21377472829E+03  0.63714747019E+03  0.60021434864E+03 0.  0.
        5    1    3    3  502    0  0.65446770102E+02 -0.27202204359E+03  0.22201823563E+03  0.35720226604E+03  0.46999998093E+01 0. -1.
       -5    1    3    3    0  502 -0.65446770102E+02  0.27202204359E+03 -0.82435073426E+01  0.27994520415E+03  0.46999998093E+01 0.  1.
</event>
<event>
 5   0  0.8817544E-02  0.5962585E+03  0.7818609E-02  0.9913199E-01
       -2   -1    0    0    0  501  0.00000000000E+00  0.00000000000E+00  0.12691032669E+03  0.12691032671E+03  0.25500000920E-02 0.  1.
        2   -1    0    0  501    0  0.00000000000E+00  0.00000000000E+00 -0.70034538637E+03  0.70034538637E+03  0.25500000920E-02 0. -1.
    10030    2    1    2    0    0  0.00000000000E+00  0.00000000000E+00 -0.57343505968E+03  0.82725571308E+03  0.59625854053E+03 0.  0.
        5    1    3    3  502    0 -0.19938526660E+03  0.20572164583E+03 -0.40098405120E+03  0.49283483989E+03  0.46999998093E+01 0. -1.
       -5    1    3    3    0  502  0.19938526660E+03 -0.20572164583E+03 -0.17245100849E+03  0.33442087319E+03  0.46999998093E+01 0.  1.
</event>
<event>
 5   0  0.8817544E-02  0.6036437E+03  0.7818609E-02  0.9897875E-01
        2   -1    0    0  501    0  0.00000000000E+00  0.00000000000E+00  0.26912334239E+04  0.26912334239E+04  0.25500000920E-02 0.  1.
       -2   -1    0    0    0  501  0.00000000000E+00  0.00000000000E+00 -0.33849322860E+02  0.33849322956E+02  0.25500000920E-02 0. -1.
    10030    2    1    2    0    0  0.00000000000E+00  0.00000000000E+00  0.26573841010E+04  0.27250827468E+04  0.60364370017E+03 0.  0.
        5    1    3    3  502    0 -0.29419211426E+03  0.59539345059E+02  0.14700440278E+04  0.15003817739E+04  0.46999998093E+01 0. -1.
       -5    1    3    3    0  502  0.29419211426E+03 -0.59539345059E+02  0.11873400732E+04  0.12247009729E+04  0.46999998093E+01 0.  1.
</event>
<event>
 5   0  0.8699746E-02  0.6008311E+03  0.7818609E-02  0.9903683E-01
       -2   -1    0    0    0  501  0.00000000000E+00  0.00000000000E+00  0.60853471728E+02  0.60853471781E+02  0.25500000920E-02 0.  1.
        2   -1    0    0  501    0  0.00000000000E+00  0.00000000000E+00 -0.14830625261E+04  0.14830625261E+04  0.25500000920E-02 0. -1.
    10030    2    1    2    0    0  0.00000000000E+00  0.00000000000E+00 -0.14222090543E+04  0.15439159978E+04  0.60083110287E+03 0.  0.
        3    1    3    3  502    0 -0.10303116430E+03 -0.36232012419E+02 -0.14302408794E+04  0.14344048114E+04  0.10100000352E+00 0. -1.
       -3    1    3    3    0  502  0.10303116430E+03  0.36232012419E+02  0.80318251126E+01  0.10951118644E+03  0.10100000352E+00 0.  1.
</event>
<event>
 5   0  0.8817544E-02  0.6049146E+03  0.7818609E-02  0.9895262E-01
        2   -1    0    0  501    0  0.00000000000E+00  0.00000000000E+00  0.14511966913E+03  0.14511966915E+03  0.25500000920E-02 0. -1.
       -2   -1    0    0    0  501  0.00000000000E+00  0.00000000000E+00 -0.63037920236E+03  0.63037920236E+03  0.25500000920E-02 0.  1.
    10030    2    1    2    0    0  0.00000000000E+00  0.00000000000E+00 -0.48525953323E+03  0.77549887151E+03  0.60491460978E+03 0.  0.
        5    1    3    3  502    0  0.22787030982E+03  0.74911933689E+02 -0.47874587430E+03  0.53549638474E+03  0.46999998093E+01 0.  1.
       -5    1    3    3    0  502 -0.22787030982E+03 -0.74911933689E+02 -0.65136589285E+01  0.24000248677E+03  0.46999998093E+01 0. -1.
</event>
<event>
 5   0  0.5166903E-02  0.6195295E+03  0.7818609E-02  0.9865697E-01
       -1   -1    0    0    0  501  0.00000000000E+00  0.00000000000E+00  0.64500500924E+02  0.64500501121E+02  0.50400001928E-02 0. -1.
        1   -1    0    0  501    0  0.00000000000E+00  0.00000000000E+00 -0.14876503156E+04  0.14876503156E+04  0.50400001928E-02 0.  1.
    10030    2    1    2    0    0  0.00000000000E+00  0.00000000000E+00 -0.14231498147E+04  0.15521508167E+04  0.61952946892E+03 0.  0.
        2    1    3    3  502    0  0.23337101296E+03  0.23922923451E+02 -0.20477212514E+03  0.31139357604E+03  0.25500000920E-02 0. -1.
       -2    1    3    3    0  502 -0.23337101296E+03 -0.23922923451E+02 -0.12183776895E+04  0.12407572407E+04  0.25500000920E-02 0.  1.
</event>
<event>
 5   0  0.8699746E-02  0.6035080E+03  0.7818609E-02  0.9898155E-01
        2   -1    0    0  501    0  0.00000000000E+00  0.00000000000E+00  0.10716452868E+04  0.10716452868E+04  0.25500000920E-02 0.  1.
       -2   -1    0    0    0  501  0.00000000000E+00  0.00000000000E+00 -0.84967920274E+02  0.84967920312E+02  0.25500000920E-02 0. -1.
    10030    2    1    2    0    0  0.00000000000E+00  0.00000000000E+00  0.98667736655E+03  0.11566132071E+04  0.60350798277E+03 0.  0.
        3    1    3    3  502    0  0.25638471314E+03  0.58509634758E+02  0.77694565284E+03  0.82024450999E+03  0.10100000352E+00 0.  1.
       -3    1    3    3    0  502 -0.25638471314E+03 -0.58509634758E+02  0.20973171371E+03  0.33636869716E+03  0.10100000352E+00 0. -1.
</event>
<event>
 5   0  0.8420604E-02  0.5961976E+03  0.7818609E-02  0.9913326E-01
       -2   -1    0    0    0  501  0.00000000000E+00  0.00000000000E+00  0.30269140186E+03  0.30269140187E+03  0.25500000920E-02 0.  1.
        2   -1    0    0  501    0  0.00000000000E+00  0.00000000000E+00 -0.29357583817E+03  0.29357583818E+03  0.25500000920E-02 0. -1.
    10030    2    1    2    0    0  0.00000000000E+00  0.00000000000E+00  0.91155636915E+01  0.59626724004E+03  0.59619755790E+03 0.  0.
        2    1    3    3  502    0  0.24508506897E+03  0.16869809426E+03 -0.13805844739E+02  0.29785288213E+03  0.25500000920E-02 0. -1.
       -2    1    3    3    0  502 -0.24508506897E+03 -0.16869809426E+03  0.22921408431E+02  0.29841435791E+03  0.25500000920E-02 0.  1.
</event>
<event>
 5   0  0.8699746E-02  0.5952348E+03  0.7818609E-02  0.9915342E-01
       -2   -1    0    0    0  501  0.00000000000E+00  0.00000000000E+00  0.14599788603E+03  0.14599788606E+03  0.25500000920E-02 0. -1.
        2   -1    0    0  501    0  0.00000000000E+00  0.00000000000E+00 -0.60669451662E+03  0.60669451663E+03  0.25500000920E-02 0.  1.
    10030    2    1    2    0    0  0.00000000000E+00  0.00000000000E+00 -0.46069663059E+03  0.75269240268E+03  0.59523480041E+03 0.  0.
        3    1    3    3  502    0  0.24129977209E+03 -0.16970745977E+03 -0.28013139145E+03  0.40681667688E+03  0.10100000352E+00 0.  1.
       -3    1    3    3    0  502 -0.24129977209E+03  0.16970745977E+03 -0.18056523914E+03  0.34587572580E+03  0.10100000352E+00 0. -1.
</event>
<event>
 5   0  0.3437375E-02  0.6018133E+03  0.7818609E-02  0.9901651E-01
        4   -1    0    0  501    0  0.00000000000E+00  0.00000000000E+00  0.12124269946E+03  0.12124935081E+03  0.12699999809E+01 0.  1.
       -4   -1    0    0    0  501  0.00000000000E+00  0.00000000000E+00 -0.74677872554E+03  0.74677980544E+03  0.12699999809E+01 0. -1.
    10030    2    1    2    0    0  0.00000000000E+00  0.00000000000E+00 -0.62553602607E+03  0.86802915625E+03  0.60181333999E+03 0.  0.
        3    1    3    3  502    0 -0.12802850172E+03 -0.29073981091E+02 -0.70329301264E+03  0.71544228660E+03  0.10100000352E+00 0. -1.
       -3    1    3    3    0  502  0.12802850172E+03  0.29073981091E+02  0.77756986565E+02  0.15258686965E+03  0.10100000352E+00 0.  1.
</event>
<event>
 5   0  0.8420604E-02  0.5973081E+03  0.7818609E-02  0.9911007E-01
       -2   -1    0    0    0  501  0.00000000000E+00  0.00000000000E+00  0.46545218563E+02  0.46545218633E+02  0.25500000920E-02 0.  1.
        2   -1    0    0  501    0  0.00000000000E+00  0.00000000000E+00 -0.19162920364E+04  0.19162920364E+04  0.25500000920E-02 0. -1.
    10030    2    1    2    0    0  0.00000000000E+00  0.00000000000E+00 -0.18697468178E+04  0.19628372550E+04  0.59730806702E+03 0.  0.
        2    1    3    3  502    0 -0.21645024852E+02 -0.28307083743E+03 -0.63018921904E+03  0.69118453245E+03  0.25500000920E-02 0.  1.
       -2    1    3    3    0  502  0.21645024852E+02  0.28307083743E+03 -0.12395575988E+04  0.12716527225E+04  0.25500000920E-02 0. -1.
</event>
<event>
 5   0  0.5166903E-02  0.5621175E+03  0.7818609E-02  0.9987275E-01
       -1   -1    0    0    0  501  0.00000000000E+00  0.00000000000E+00  0.82056574872E+02  0.82056575027E+02  0.50400001928E-02 0. -1.
        1   -1    0    0  501    0  0.00000000000E+00  0.00000000000E+00 -0.96267760263E+03  0.96267760264E+03  0.50400001928E-02 0.  1.
    10030    2    1    2    0    0  0.00000000000E+00  0.00000000000E+00 -0.88062102775E+03  0.10447341777E+04  0.56211752104E+03 0.  0.
        2    1    3    3  502    0  0.34137747739E+02 -0.12375056622E+03  0.24385393072E+02  0.13066841953E+03  0.25500000920E-02 0. -1.
       -2    1    3    3    0  502 -0.34137747739E+02  0.12375056622E+03 -0.90500642083E+03  0.91406575814E+03  0.25500000920E-02 0.  1.
</event>
<event>
 5   0  0.5166903E-02  0.6020973E+03  0.7818609E-02  0.9901064E-01
       -1   -1    0    0    0  501  0.00000000000E+00  0.00000000000E+00  0.10358498130E+03  0.10358498142E+03  0.50400001928E-02 0. -1.
        1   -1    0    0  501    0  0.00000000000E+00  0.00000000000E+00 -0.87493671486E+03  0.87493671487E+03  0.50400001928E-02 0.  1.
    10030    2    1    2    0    0  0.00000000000E+00  0.00000000000E+00 -0.77135173356E+03  0.97852169629E+03  0.60209734533E+03 0.  0.
        2    1    3    3  502    0  0.16335145969E+03  0.25045640125E+03 -0.32895248001E+03  0.44454678316E+03  0.25500000920E-02 0.  1.
       -2    1    3    3    0  502 -0.16335145969E+03 -0.25045640125E+03 -0.44239925355E+03  0.53397491313E+03  0.25500000920E-02 0. -1.
</event>
<event>
 5   0  0.3437375E-02  0.6294230E+03  0.7818609E-02  0.9846175E-01
       -3   -1    0    0    0  501  0.00000000000E+00  0.00000000000E+00  0.24357231309E+03  0.24357233403E+03  0.10100000352E+00 0.  1.
        3   -1    0    0  501    0  0.00000000000E+00  0.00000000000E+00 -0.40662798604E+03  0.40662799859E+03  0.10100000352E+00 0. -1.
    10030    2    1    2    0    0  0.00000000000E+00  0.00000000000E+00 -0.16305567295E+03  0.65020033261E+03  0.62942300566E+03 0.  0.
        3    1    3    3  502    0 -0.26706595715E+03  0.13789039215E+03 -0.17791013885E+03  0.34927068789E+03  0.10100000352E+00 0. -1.
       -3    1    3    3    0  502  0.26706595715E+03 -0.13789039215E+03  0.14854465900E+02  0.30092964472E+03  0.10100000352E+00 0.  1.
</event>
<event>
 5   0  0.8575590E-02  0.6131918E+03  0.7818609E-02  0.9878409E-01
       -2   -1    0    0    0  501  0.00000000000E+00  0.00000000000E+00  0.79543952429E+02  0.79543952470E+02  0.25500000920E-02 0.  1.
        2   -1    0    0  501    0  0.00000000000E+00  0.00000000000E+00 -0.11817496771E+04  0.11817496771E+04  0.25500000920E-02 0. -1.
    10030    2    1    2    0    0  0.00000000000E+00  0.00000000000E+00 -0.11022057247E+04  0.12612936296E+04  0.61319178118E+03 0.  0.
        4    1    3    3  502    0 -0.29469055948E+03 -0.50118668021E+02 -0.69129178371E+03  0.75315360309E+03  0.12699999809E+01 0.  1.
       -4    1    3    3    0  502  0.29469055948E+03  0.50118668021E+02 -0.41091394098E+03  0.50814002649E+03  0.12699999809E+01 0. -1.
</event>
<event>
 5   0  0.3437375E-02  0.6055475E+03  0.7818609E-02  0.9893963E-01
        3   -1    0    0  501    0  0.00000000000E+00  0.00000000000E+00  0.12284308335E+03  0.12284312487E+03  0.10100000352E+00 0.  1.
       -3   -1    0    0    0  501  0.00000000000E+00  0.00000000000E+00 -0.74625216919E+03  0.74625217603E+03  0.10100000352E+00 0. -1.
    10030    2    1    2    0    0  0.00000000000E+00  0.00000000000E+00 -0.62340908584E+03  0.86909530089E+03  0.60554748263E+03 0.  0.
        1    1    3    3  502    0  0.94192102851E+01 -0.71702380127E+02 -0.73367453310E+03  0.73723013597E+03  0.50400001928E-02 0. -1.
       -1    1    3    3    0  502 -0.94192102851E+01  0.71702380127E+02  0.11026544725E+03  0.13186516493E+03  0.50400001928E-02 0.  1.
</event>
<event>
 5   0  0.4881209E-02  0.5998431E+03  0.7818609E-02  0.9905732E-01
        1   -1    0    0  501    0  0.00000000000E+00  0.00000000000E+00  0.12859996651E+04  0.12859996652E+04  0.50400001928E-02 0. -1.
       -1   -1    0    0    0  501  0.00000000000E+00  0.00000000000E+00 -0.69947867036E+02  0.69947867218E+02  0.50400001928E-02 0.  1.
    10030    2    1    2    0    0  0.00000000000E+00  0.00000000000E+00  0.12160517981E+04  0.13559475324E+04  0.59984309187E+03 0.  0.
        3    1    3    3  502    0 -0.16782860082E+03  0.10127738105E+03  0.11211621142E+04  0.11381687238E+04  0.10100000352E+00 0. -1.
       -3    1    3    3    0  502  0.16782860082E+03 -0.10127738105E+03  0.94889683862E+02  0.21777880859E+03  0.10100000352E+00 0.  1.
</event>
<event>
 5   0  0.3437375E-02  0.5994435E+03  0.7818609E-02  0.9906561E-01
       -4   -1    0    0    0  501  0.00000000000E+00  0.00000000000E+00  0.19311614681E+03  0.19312032275E+03  0.12699999809E+01 0. -1.
        4   -1    0    0  501    0  0.00000000000E+00  0.00000000000E+00 -0.46516654927E+03  0.46516828294E+03  0.12699999809E+01 0.  1.
    10030    2    1    2    0    0  0.00000000000E+00  0.00000000000E+00 -0.27205040246E+03  0.65828860569E+03  0.59944346431E+03 0.  0.
        4    1    3    3  502    0  0.27514434039E+03  0.29858928525E+02 -0.96857623677E+01  0.27693210459E+03  0.12699999809E+01 0. -1.
       -4    1    3    3    0  502 -0.27514434039E+03 -0.29858928525E+02 -0.26236464009E+03  0.38135650110E+03  0.12699999809E+01 0.  1.
</event>
<event>
 5   0  0.8207443E-02  0.5922845E+03  0.7818609E-02  0.9921544E-01
        2   -1    0    0  501    0  0.00000000000E+00  0.00000000000E+00  0.31510535688E+03  0.31510535689E+03  0.25500000920E-02 0. -1.
       -2   -1    0    0    0  501  0.00000000000E+00  0.00000000000E+00 -0.27832038056E+03  0.27832038057E+03  0.25500000920E-02 0.  1.
    10030    2    1    2    0    0  0.00000000000E+00  0.00000000000E+00  0.36784976321E+02  0.59342573746E+03  0.59228453584E+03 0.  0.
        1    1    3    3  502    0  0.52633491614E+02 -0.17809823982E+03 -0.21272701452E+03  0.28238634917E+03  0.50400001928E-02 0.  1.
       -1    1    3    3    0  502 -0.52633491614E+02  0.17809823982E+03  0.24951199085E+03  0.31103938829E+03  0.50400001928E-02 0. -1.
</event>
<event>
 5   0  0.8699746E-02  0.6036229E+03  0.7818609E-02  0.9897918E-01
       -2   -1    0    0    0  501  0.00000000000E+00  0.00000000000E+00  0.70014154524E+02  0.70014154570E+02  0.25500000920E-02 0.  1.
        2   -1    0    0  501    0  0.00000000000E+00  0.00000000000E+00 -0.13010247378E+04  0.13010247378E+04  0.25500000920E-02 0. -1.
    10030    2    1    2    0    0  0.00000000000E+00  0.00000000000E+00 -0.12310105833E+04  0.13710388924E+04  0.60362288580E+03 0.  0.
        3    1    3    3  502    0 -0.21507345972E+03 -0.21133907168E+03 -0.64506257991E+03  0.71205796007E+03  0.10100000352E+00 0. -1.
       -3    1    3    3    0  502  0.21507345972E+03  0.21133907168E+03 -0.58594800337E+03  0.65898093231E+03  0.10100000352E+00 0.  1.
</event>
<event>
 5   0  0.8420604E-02  0.5962194E+03  0.7818609E-02  0.9913281E-01
        2   -1    0    0  501    0  0.00000000000E+00  0.00000000000E+00  0.38877460492E+03  0.38877460493E+03  0.25500000920E-02 0. -1.
       -2   -1    0    0    0  501  0.00000000000E+00  0.00000000000E+00 -0.22858846094E+03  0.22858846096E+03  0.25500000920E-02 0.  1.
    10030    2    1    2    0    0  0.00000000000E+00  0.00000000000E+00  0.16018614398E+03  0.61736306588E+03  0.59621938445E+03 0.  0.
        2    1    3    3  502    0 -0.17597578961E+03  0.23995310576E+03  0.98743397695E+02  0.31352070121E+03  0.25500000920E-02 0.  1.
       -2    1    3    3    0  502  0.17597578961E+03 -0.23995310576E+03  0.61442746283E+02  0.30384236467E+03  0.25500000920E-02 0. -1.
</event>
<event>
 5   0  0.4987389E-02  0.6073060E+03  0.7818609E-02  0.9890363E-01
       -1   -1    0    0    0  501  0.00000000000E+00  0.00000000000E+00  0.18877457219E+03  0.18877457225E+03  0.50400001928E-02 0. -1.
        1   -1    0    0  501    0  0.00000000000E+00  0.00000000000E+00 -0.48844047324E+03  0.48844047327E+03  0.50400001928E-02 0.  1.
    10030    2    1    2    0    0  0.00000000000E+00  0.00000000000E+00 -0.29966590106E+03  0.67721504552E+03  0.60730599011E+03 0.  0.
        1    1    3    3  502    0 -0.22855020958E+03 -0.19333543670E+03 -0.93067741922E+02  0.31348906519E+03  0.50400001928E-02 0. -1.
       -1    1    3    3    0  502  0.22855020958E+03  0.19333543670E+03 -0.20659815914E+03  0.36372598033E+03  0.50400001928E-02 0.  1.
</event>
<event>
 5   0  0.8575590E-02  0.5858081E+03  0.7818609E-02  0.9935295E-01
        2   -1    0    0  501    0  0.00000000000E+00  0.00000000000E+00  0.30283909570E+03  0.30283909571E+03  0.25500000920E-02 0. -1.
       -2   -1    0    0    0  501  0.00000000000E+00  0.00000000000E+00 -0.28329490036E+03  0.28329490037E+03  0.25500000920E-02 0.  1.
    10030    2    1    2    0    0  0.00000000000E+00  0.00000000000E+00  0.19544195339E+02  0.58613399608E+03  0.58580806224E+03 0.  0.
        4    1    3    3  502    0 -0.86057651661E+02 -0.12010093618E+03 -0.24327374351E+03  0.28462937561E+03  0.12699999809E+01 0.  1.
       -4    1    3    3    0  502  0.86057651661E+02  0.12010093618E+03  0.26281793885E+03  0.30150462047E+03  0.12699999809E+01 0. -1.
</event>
<event>
 5   0  0.4987389E-02  0.6175273E+03  0.7818609E-02  0.9869695E-01
        1   -1    0    0  501    0  0.00000000000E+00  0.00000000000E+00  0.23806803975E+03  0.23806803981E+03  0.50400001928E-02 0. -1.
       -1   -1    0    0    0  501  0.00000000000E+00  0.00000000000E+00 -0.40045273496E+03  0.40045273499E+03  0.50400001928E-02 0.  1.
    10030    2    1    2    0    0  0.00000000000E+00  0.00000000000E+00 -0.16238469521E+03  0.63852077480E+03  0.61752731973E+03 0.  0.
        1    1    3    3  502    0  0.61797599198E+02 -0.52563595042E+02  0.22685017955E+03  0.24092089735E+03  0.50400001928E-02 0. -1.
       -1    1    3    3    0  502 -0.61797599198E+02  0.52563595042E+02 -0.38923487476E+03  0.39759987745E+03  0.50400001928E-02 0.  1.
</event>
<event>
 5   0  0.8699746E-02  0.7145527E+03  0.7818609E-02  0.9692664E-01
       -2   -1    0    0    0  501  0.00000000000E+00  0.00000000000E+00  0.74980436028E+02  0.74980436072E+02  0.25500000920E-02 0. -1.
        2   -1    0    0  501    0  0.00000000000E+00  0.00000000000E+00 -0.17023958305E+04  0.17023958305E+04  0.25500000920E-02 0.  1.
    10030    2    1    2    0    0  0.00000000000E+00  0.00000000000E+00 -0.16274153945E+04  0.17773762666E+04  0.71455267603E+03 0.  0.
        3    1    3    3  502    0 -0.11081207705E+03 -0.23108213132E+03 -0.19451014652E+03  0.32173354679E+03  0.10100000352E+00 0. -1.
       -3    1    3    3    0  502  0.11081207705E+03  0.23108213132E+03 -0.14329052480E+04  0.14556427198E+04  0.10100000352E+00 0.  1.
</event>
<event>
 5   0  0.8699746E-02  0.5953381E+03  0.7818609E-02  0.9915126E-01
        2   -1    0    0  501    0  0.00000000000E+00  0.00000000000E+00  0.98982187566E+02  0.98982187599E+02  0.25500000920E-02 0. -1.
       -2   -1    0    0    0  501  0.00000000000E+00  0.00000000000E+00 -0.89517983183E+03  0.89517983183E+03  0.25500000920E-02 0.  1.
    10030    2    1    2    0    0  0.00000000000E+00  0.00000000000E+00 -0.79619764426E+03  0.99416201943E+03  0.59533808223E+03 0.  0.
        3    1    3    3  502    0 -0.19646180000E+03  0.12228696626E+03 -0.85439322295E+02  0.24668041871E+03  0.10100000352E+00 0. -1.
       -3    1    3    3    0  502  0.19646180000E+03 -0.12228696626E+03 -0.71075832197E+03  0.74748160072E+03  0.10100000352E+00 0.  1.
</event>
<event>
 5   0  0.5125031E-02  0.5330747E+03  0.7818609E-02  0.1005489E+00
       -1   -1    0    0    0  501  0.00000000000E+00  0.00000000000E+00  0.13226295965E+03  0.13226295974E+03  0.50400001928E-02 0.  1.
        1   -1    0    0  501    0  0.00000000000E+00  0.00000000000E+00 -0.53712816579E+03  0.53712816581E+03  0.50400001928E-02 0. -1.
    10030    2    1    2    0    0  0.00000000000E+00  0.00000000000E+00 -0.40486520614E+03  0.66939112555E+03  0.53307470755E+03 0.  0.
        4    1    3    3  502    0 -0.22326526851E+03 -0.37607509458E+01 -0.38517732876E+03  0.44522433768E+03  0.12699999809E+01 0. -1.
       -4    1    3    3    0  502  0.22326526851E+03  0.37607509458E+01 -0.19687877380E+02  0.22416678787E+03  0.12699999809E+01 0.  1.
</event>
<event>
 5   0  0.4987389E-02  0.6071303E+03  0.7818609E-02  0.9890722E-01
        1   -1    0    0  501    0  0.00000000000E+00  0.00000000000E+00  0.46728329337E+03  0.46728329340E+03  0.50400001928E-02 0.  1.
       -1   -1    0    0    0  501  0.00000000000E+00  0.00000000000E+00 -0.19720754483E+03  0.19720754489E+03  0.50400001928E-02 0. -1.
    10030    2    1    2    0    0  0.00000000000E+00  0.00000000000E+00  0.27007574854E+03  0.66449083829E+03  0.60713026957E+03 0.  0.
        1    1    3    3  502    0 -0.15870742797E+03 -0.12403208367E+03 -0.11353107564E+03  0.23121702064E+03  0.50400001928E-02 0. -1.
       -1    1    3    3    0  502  0.15870742797E+03  0.12403208367E+03  0.38360682418E+03  0.43327381765E+03  0.50400001928E-02 0.  1.
</event>
<event>
 5   0  0.8207443E-02  0.6012148E+03  0.7818609E-02  0.9902889E-01
        2   -1    0    0  501    0  0.00000000000E+00  0.00000000000E+00  0.64709267258E+03  0.64709267258E+03  0.25500000920E-02 0. -1.
       -2   -1    0    0    0  501  0.00000000000E+00  0.00000000000E+00 -0.13964739745E+03  0.13964739747E+03  0.25500000920E-02 0.  1.
    10030    2    1    2    0    0  0.00000000000E+00  0.00000000000E+00  0.50744527513E+03  0.78674007005E+03  0.60121479571E+03 0.  0.
        1    1    3    3  502    0 -0.34763298987E+02 -0.22468059201E+03  0.51106809297E+03  0.55935717664E+03  0.50400001928E-02 0. -1.
       -1    1    3    3    0  502  0.34763298987E+02  0.22468059201E+03 -0.36228178489E+01  0.22738289341E+03  0.50400001928E-02 0.  1.
</event>
<event>
 5   0  0.5166903E-02  0.6031978E+03  0.7818609E-02  0.9898794E-01
       -1   -1    0    0    0  501  0.00000000000E+00  0.00000000000E+00  0.11047740243E+03  0.11047740254E+03  0.50400001928E-02 0.  1.
        1   -1    0    0  501    0  0.00000000000E+00  0.00000000000E+00 -0.82335291333E+03  0.82335291334E+03  0.50400001928E-02 0. -1.
    10030    2    1    2    0    0  0.00000000000E+00  0.00000000000E+00 -0.71287551090E+03  0.93383031589E+03  0.60319778251E+03 0.  0.
        2    1    3    3  502    0 -0.14717038603E+02  0.29919003018E+03 -0.41074668503E+03  0.50837398110E+03  0.25500000920E-02 0. -1.
       -2    1    3    3    0  502  0.14717038603E+02 -0.29919003018E+03 -0.30212882587E+03  0.42545633479E+03  0.25500000920E-02 0.  1.
</event>
<event>
 5   0  0.8817544E-02  0.6035171E+03  0.7818609E-02  0.9898136E-01
       -2   -1    0    0    0  501  0.00000000000E+00  0.00000000000E+00  0.87569299938E+02  0.87569299975E+02  0.25500000920E-02 0. -1.
        2   -1    0    0  501    0  0.00000000000E+00  0.00000000000E+00 -0.10398416776E+04  0.10398416776E+04  0.25500000920E-02 0.  1.
    10030    2    1    2    0    0  0.00000000000E+00  0.00000000000E+00 -0.95227237766E+03  0.11274109776E+04  0.60351705121E+03 0.  0.
        5    1    3    3  502    0 -0.16127345323E+03 -0.81277628675E+02 -0.92765617400E+03  0.94508372476E+03  0.46999998093E+01 0.  1.
       -5    1    3    3    0  502  0.16127345323E+03  0.81277628675E+02 -0.24616203662E+02  0.18232725282E+03  0.46999998093E+01 0. -1.
</event>
<event>
 5   0  0.5166903E-02  0.6028478E+03  0.7818609E-02  0.9899515E-01
       -1   -1    0    0    0  501  0.00000000000E+00  0.00000000000E+00  0.41067914858E+03  0.41067914861E+03  0.50400001928E-02 0.  1.
        1   -1    0    0  501    0  0.00000000000E+00  0.00000000000E+00 -0.22123440683E+03  0.22123440689E+03  0.50400001928E-02 0. -1.
    10030    2    1    2    0    0  0.00000000000E+00  0.00000000000E+00  0.18944474174E+03  0.63191355550E+03  0.60284776806E+03 0.  0.
        2    1    3    3  502    0  0.25089870528E+03  0.14820338188E+03  0.13921749800E+02  0.29173312776E+03  0.25500000920E-02 0. -1.
       -2    1    3    3    0  502 -0.25089870528E+03 -0.14820338188E+03  0.17552299194E+03  0.34018042774E+03  0.25500000920E-02 0.  1.
</event>
<event>
 5   0  0.5190380E-02  0.6067723E+03  0.7818609E-02  0.9891454E-01
        1   -1    0    0  501    0  0.00000000000E+00  0.00000000000E+00  0.46551574303E+03  0.46551574306E+03  0.50400001928E-02 0.  1.
       -1   -1    0    0    0  501  0.00000000000E+00  0.00000000000E+00 -0.19772300274E+03  0.19772300281E+03  0.50400001928E-02 0. -1.
    10030    2    1    2    0    0  0.00000000000E+00  0.00000000000E+00  0.26779274029E+03  0.66323874587E+03  0.60677234798E+03 0.  0.
        5    1    3    3  502    0  0.42805940494E+02 -0.14584796905E+03  0.42084728383E+03  0.44748017266E+03  0.46999998093E+01 0.  1.
       -5    1    3    3    0  502 -0.42805940494E+02  0.14584796905E+03 -0.15305454354E+03  0.21575857321E+03  0.46999998093E+01 0. -1.
</event>
<event>
 5   0  0.4987389E-02  0.6127825E+03  0.7818609E-02  0.9879236E-01
        1   -1    0    0  501    0  0.00000000000E+00  0.00000000000E+00  0.72691504221E+03  0.72691504223E+03  0.50400001928E-02 0.  1.
       -1   -1    0    0    0  501  0.00000000000E+00  0.00000000000E+00 -0.12914245770E+03  0.12914245780E+03  0.50400001928E-02 0. -1.
    10030    2    1    2    0    0  0.00000000000E+00  0.00000000000E+00  0.59777258451E+03  0.85605750003E+03  0.61278249042E+03 0.  0.
        1    1    3    3  502    0 -0.31208899023E+02  0.12516676519E+03  0.68712901948E+03  0.69913303736E+03  0.50400001928E-02 0.  1.
       -1    1    3    3    0  502  0.31208899023E+02 -0.12516676519E+03 -0.89356434975E+02  0.15692446267E+03  0.50400001928E-02 0. -1.
</event>
<event>
 5   0  0.8817544E-02  0.6018363E+03  0.7818609E-02  0.9901604E-01
       -2   -1    0    0    0  501  0.00000000000E+00  0.00000000000E+00  0.17396633412E+03  0.17396633414E+03  0.25500000920E-02 0. -1.
        2   -1    0    0  501    0  0.00000000000E+00  0.00000000000E+00 -0.52051293811E+03  0.52051293811E+03  0.25500000920E-02 0.  1.
    10030    2    1    2    0    0  0.00000000000E+00  0.00000000000E+00 -0.34654660398E+03  0.69447927226E+03  0.60183628244E+03 0.  0.
        5    1    3    3  502    0  0.11350818785E+03  0.27424629813E+03 -0.23020911694E+03  0.37565072643E+03  0.46999998093E+01 0.  1.
       -5    1    3    3    0  502 -0.11350818785E+03 -0.27424629813E+03 -0.11633748704E+03  0.31882854583E+03  0.46999998093E+01 0. -1.
</event>
<event>
 5   0  0.5166903E-02  0.5965875E+03  0.7818609E-02  0.9912511E-01
        1   -1    0    0  501    0  0.00000000000E+00  0.00000000000E+00  0.17234716732E+03  0.17234716739E+03  0.50400001928E-02 0. -1.
       -1   -1    0    0    0  501  0.00000000000E+00  0.00000000000E+00 -0.51627867332E+03  0.51627867334E+03  0.50400001928E-02 0.  1.
    10030    2    1    2    0    0  0.00000000000E+00  0.00000000000E+00 -0.34393150600E+03  0.68862584074E+03  0.59658751890E+03 0.  0.
        2    1    3    3  502    0  0.14939126935E+03  0.18465808501E+03 -0.38025654494E+03  0.44834294875E+03  0.25500000920E-02 0.  1.
       -2    1    3    3    0  502 -0.14939126935E+03 -0.18465808501E+03  0.36325038942E+02  0.24028289198E+03  0.25500000920E-02 0. -1.
</event>
<event>
 5   0  0.4881209E-02  0.6010257E+03  0.7818609E-02  0.9903280E-01
        1   -1    0    0  501    0  0.00000000000E+00  0.00000000000E+00  0.40694585580E+03  0.40694585583E+03  0.50400001928E-02 0.  1.
       -1   -1    0    0    0  501  0.00000000000E+00  0.00000000000E+00 -0.22191641178E+03  0.22191641184E+03  0.50400001928E-02 0. -1.
    10030    2    1    2    0    0  0.00000000000E+00  0.00000000000E+00  0.18502944402E+03  0.62886226767E+03  0.60102567045E+03 0.  0.
        3    1    3    3  502    0 -0.24545129688E+02  0.16519143172E+03  0.35392035411E+03  0.39134422158E+03  0.10100000352E+00 0.  1.
       -3    1    3    3    0  502  0.24545129688E+02 -0.16519143172E+03 -0.16889091009E+03  0.23751804609E+03  0.10100000352E+00 0. -1.
</event>
<event>
 5   0  0.8699746E-02  0.6032612E+03  0.7818609E-02  0.9898663E-01
        2   -1    0    0  501    0  0.00000000000E+00  0.00000000000E+00  0.34752211220E+03  0.34752211221E+03  0.25500000920E-02 0.  1.
       -2   -1    0    0    0  501  0.00000000000E+00  0.00000000000E+00 -0.26179923109E+03  0.26179923110E+03  0.25500000920E-02 0. -1.
    10030    2    1    2    0    0  0.00000000000E+00  0.00000000000E+00  0.85722881109E+02  0.60932134331E+03  0.60326120965E+03 0.  0.
        3    1    3    3  502    0  0.28062577351E+03 -0.11020540037E+03  0.52171219833E+02  0.30597042571E+03  0.10100000352E+00 0. -1.
       -3    1    3    3    0  502 -0.28062577351E+03  0.11020540037E+03  0.33551661276E+02  0.30335091759E+03  0.10100000352E+00 0.  1.
</event>
<event>
 5   0  0.8817544E-02  0.5919880E+03  0.7818609E-02  0.9922169E-01
       -2   -1    0    0    0  501  0.00000000000E+00  0.00000000000E+00  0.15098427546E+03  0.15098427548E+03  0.25500000920E-02 0. -1.
        2   -1    0    0  501    0  0.00000000000E+00  0.00000000000E+00 -0.58027524752E+03  0.58027524753E+03  0.25500000920E-02 0.  1.
    10030    2    1    2    0    0  0.00000000000E+00  0.00000000000E+00 -0.42929097206E+03  0.73125952301E+03  0.59198796550E+03 0.  0.
        5    1    3    3  502    0  0.29594893549E+03 -0.20478729412E+01 -0.21540857927E+03  0.36607774068E+03  0.46999998093E+01 0. -1.
       -5    1    3    3    0  502 -0.29594893549E+03  0.20478729412E+01 -0.21388239279E+03  0.36518178233E+03  0.46999998093E+01 0.  1.
</event>
<event>
 5   0  0.8207443E-02  0.6033437E+03  0.7818609E-02  0.9898493E-01
        2   -1    0    0  501    0  0.00000000000E+00  0.00000000000E+00  0.15248759716E+04  0.15248759716E+04  0.25500000920E-02 0. -1.
       -2   -1    0    0    0  501  0.00000000000E+00  0.00000000000E+00 -0.59680863457E+02  0.59680863511E+02  0.25500000920E-02 0.  1.
    10030    2    1    2    0    0  0.00000000000E+00  0.00000000000E+00  0.14651951081E+04  0.15845568351E+04  0.60334373185E+03 0.  0.
        1    1    3    3  502    0  0.28802513977E+03 -0.25407955736E+02  0.50664683780E+03  0.58334814959E+03  0.50400001928E-02 0. -1.
       -1    1    3    3    0  502 -0.28802513977E+03  0.25407955736E+02  0.95854827031E+03  0.10012086855E+04  0.50400001928E-02 0.  1.
</event>
<event>
 5   0  0.5125031E-02  0.6092036E+03  0.7818609E-02  0.9886493E-01
        1   -1    0    0  501    0  0.00000000000E+00  0.00000000000E+00  0.41034089219E+03  0.41034089223E+03  0.50400001928E-02 0.  1.
       -1   -1    0    0    0  501  0.00000000000E+00  0.00000000000E+00 -0.22611022212E+03  0.22611022218E+03  0.50400001928E-02 0. -1.
    10030    2    1    2    0    0  0.00000000000E+00  0.00000000000E+00  0.18423067007E+03  0.63645111440E+03  0.60920364512E+03 0.  0.
        4    1    3    3  502    0 -0.12302298731E+03 -0.45731078221E+02  0.37928146537E+03  0.40135025824E+03  0.12699999809E+01 0.  1.
       -4    1    3    3    0  502  0.12302298731E+03  0.45731078221E+02 -0.19505079529E+03  0.23510085616E+03  0.12699999809E+01 0. -1.
</event>
<event>
 5   0  0.4881209E-02  0.5840918E+03  0.7818609E-02  0.9938971E-01
        1   -1    0    0  501    0  0.00000000000E+00  0.00000000000E+00  0.16526280512E+03  0.16526280520E+03  0.50400001928E-02 0.  1.
       -1   -1    0    0    0  501  0.00000000000E+00  0.00000000000E+00 -0.51609205472E+03  0.51609205474E+03  0.50400001928E-02 0. -1.
    10030    2    1    2    0    0  0.00000000000E+00  0.00000000000E+00 -0.35082924960E+03  0.68135485994E+03  0.58409184448E+03 0.  0.
        3    1    3    3  502    0 -0.28471100283E+03  0.64986951046E+02 -0.17853417854E+03  0.34228368651E+03  0.10100000352E+00 0. -1.
       -3    1    3    3    0  502  0.28471100283E+03 -0.64986951046E+02 -0.17229507106E+03  0.33907117343E+03  0.10100000352E+00 0.  1.
</event>
<event>
 5   0  0.4987389E-02  0.7073106E+03  0.7818609E-02  0.9704811E-01
        1   -1    0    0  501    0  0.00000000000E+00  0.00000000000E+00  0.13258172565E+04  0.13258172565E+04  0.50400001928E-02 0. -1.
       -1   -1    0    0    0  501  0.00000000000E+00  0.00000000000E+00 -0.94335830657E+02  0.94335830791E+02  0.50400001928E-02 0.  1.
    10030    2    1    2    0    0  0.00000000000E+00  0.00000000000E+00  0.12314814258E+04  0.14201530873E+04  0.70731060304E+03 0.  0.
        1    1    3    3  502    0 -0.11734141599E+03  0.13779558733E+03  0.12257861272E+04  0.12390755673E+04  0.50400001928E-02 0. -1.
       -1    1    3    3    0  502  0.11734141599E+03 -0.13779558733E+03  0.56952986292E+01  0.18107752000E+03  0.50400001928E-02 0.  1.
</event>
<event>
 5   0  0.8420604E-02  0.5885416E+03  0.7818609E-02  0.9929468E-01
       -2   -1    0    0    0  501  0.00000000000E+00  0.00000000000E+00  0.65977105853E+02  0.65977105902E+02  0.25500000920E-02 0.  1.
        2   -1    0    0  501    0  0.00000000000E+00  0.00000000000E+00 -0.13125054736E+04  0.13125054736E+04  0.25500000920E-02 0. -1.
    10030    2    1    2    0    0  0.00000000000E+00  0.00000000000E+00 -0.12465283677E+04  0.13784825795E+04  0.58854163012E+03 0.  0.
        2    1    3    3  502    0  0.26716315326E+03  0.12014189227E+03 -0.68889128529E+03  0.74858628607E+03  0.25500000920E-02 0. -1.
       -2    1    3    3    0  502 -0.26716315326E+03 -0.12014189227E+03 -0.55763708241E+03  0.62989629339E+03  0.25500000920E-02 0.  1.
</event>
<event>
 5   0  0.4987389E-02  0.6105655E+03  0.7818609E-02  0.9883725E-01
        1   -1    0    0  501    0  0.00000000000E+00  0.00000000000E+00  0.13405916453E+04  0.13405916454E+04  0.50400001928E-02 0.  1.
       -1   -1    0    0    0  501  0.00000000000E+00  0.00000000000E+00 -0.69519723622E+02  0.69519723805E+02  0.50400001928E-02 0. -1.
    10030    2    1    2    0    0  0.00000000000E+00  0.00000000000E+00  0.12710719217E+04  0.14101113692E+04  0.61056551102E+03 0.  0.
        1    1    3    3  502    0  0.32128187287E+02 -0.68225829670E+02  0.13187415617E+04  0.13208960182E+04  0.50400001928E-02 0.  1.
       -1    1    3    3    0  502 -0.32128187287E+02  0.68225829670E+02 -0.47669639969E+02  0.89215350992E+02  0.50400001928E-02 0. -1.
</event>
<event>
 5   0  0.3437375E-02  0.5627976E+03  0.7818609E-02  0.9985744E-01
       -4   -1    0    0    0  501  0.00000000000E+00  0.00000000000E+00  0.85726911591E+02  0.85736318273E+02  0.12699999809E+01 0. -1.
        4   -1    0    0  501    0  0.00000000000E+00  0.00000000000E+00 -0.92363167574E+03  0.92363254887E+03  0.12699999809E+01 0.  1.
    10030    2    1    2    0    0  0.00000000000E+00  0.00000000000E+00 -0.83790476415E+03  0.10093688671E+04  0.56279758010E+03 0.  0.
        4    1    3    3  502    0 -0.10706634657E+03  0.16488547291E+03 -0.57872437162E+02  0.20494207384E+03  0.12699999809E+01 0. -1.
       -4    1    3    3    0  502  0.10706634657E+03 -0.16488547291E+03 -0.78003232699E+03  0.80442679330E+03  0.12699999809E+01 0.  1.
</event>
<event>
 5   0  0.5125031E-02  0.5882167E+03  0.7818609E-02  0.9930159E-01
        1   -1    0    0  501    0  0.00000000000E+00  0.00000000000E+00  0.90261104850E+03  0.90261104851E+03  0.50400001928E-02 0. -1.
       -1   -1    0    0    0  501  0.00000000000E+00  0.00000000000E+00 -0.95832766131E+02  0.95832766263E+02  0.50400001928E-02 0.  1.
    10030    2    1    2    0    0  0.00000000000E+00  0.00000000000E+00  0.80677828237E+03  0.99844381477E+03  0.58821667297E+03 0.  0.
        4    1    3    3  502    0  0.39411236689E+02 -0.77001288224E+02  0.88052590160E+03  0.88476546060E+03  0.12699999809E+01 0. -1.
       -4    1    3    3    0  502 -0.39411236689E+02  0.77001288224E+02 -0.73747619239E+02  0.11367835418E+03  0.12699999809E+01 0.  1.
</event>
<event>
 5   0  0.8207443E-02  0.5504209E+03  0.7818609E-02  0.1001397E+00
        2   -1    0    0  501    0  0.00000000000E+00  0.00000000000E+00  0.16694513492E+03  0.16694513494E+03  0.25500000920E-02 0. -1.
       -2   -1    0    0    0  501  0.00000000000E+00  0.00000000000E+00 -0.45368679754E+03  0.45368679755E+03  0.25500000920E-02 0.  1.
    10030    2    1    2    0    0  0.00000000000E+00  0.00000000000E+00 -0.28674166262E+03  0.62063193248E+03  0.55042094304E+03 0.  0.
        1    1    3    3  502    0 -0.23161159289E+03  0.77424498551E+02 -0.28935830220E+00  0.24421008720E+03  0.50400001928E-02 0. -1.
       -1    1    3    3    0  502  0.23161159289E+03 -0.77424498551E+02 -0.28645230432E+03  0.37642184529E+03  0.50400001928E-02 0.  1.
</event>
<event>
 5   0  0.8699746E-02  0.5857965E+03  0.7818609E-02  0.9935320E-01
       -2   -1    0    0    0  501  0.00000000000E+00  0.00000000000E+00  0.89799145283E+02  0.89799145319E+02  0.25500000920E-02 0. -1.
        2   -1    0    0  501    0  0.00000000000E+00  0.00000000000E+00 -0.95534737684E+03  0.95534737684E+03  0.25500000920E-02 0.  1.
    10030    2    1    2    0    0  0.00000000000E+00  0.00000000000E+00 -0.86554823156E+03  0.10451465222E+04  0.58579647629E+03 0.  0.
        3    1    3    3  502    0  0.24372687476E+03 -0.10257728496E+03 -0.20805328612E+03  0.33646852593E+03  0.10100000352E+00 0. -1.
       -3    1    3    3    0  502 -0.24372687476E+03  0.10257728496E+03 -0.65749494544E+03  0.70867799624E+03  0.10100000352E+00 0.  1.
</event>
<event>
 5   0  0.3437375E-02  0.5981382E+03  0.7818609E-02  0.9909276E-01
       -4   -1    0    0    0  501  0.00000000000E+00  0.00000000000E+00  0.38646954680E+03  0.38647163350E+03  0.12699999809E+01 0.  1.
        4   -1    0    0  501    0  0.00000000000E+00  0.00000000000E+00 -0.23142990850E+03  0.23143339312E+03  0.12699999809E+01 0. -1.
    10030    2    1    2    0    0  0.00000000000E+00  0.00000000000E+00  0.15503963829E+03  0.61790502662E+03  0.59813822188E+03 0.  0.
        5    1    3    3  502    0  0.89586482072E+02 -0.22059174726E+03  0.26442368957E+03  0.35584889255E+03  0.46999998093E+01 0.  1.
       -5    1    3    3    0  502 -0.89586482072E+02  0.22059174726E+03 -0.10938405128E+03  0.26205613406E+03  0.46999998093E+01 0. -1.
</event>
<event>
 5   0  0.5190380E-02  0.6079336E+03  0.7818609E-02  0.9889082E-01
       -1   -1    0    0    0  501  0.00000000000E+00  0.00000000000E+00  0.96763366350E+02  0.96763366482E+02  0.50400001928E-02 0.  1.
        1   -1    0    0  501    0  0.00000000000E+00  0.00000000000E+00 -0.95486366059E+03  0.95486366061E+03  0.50400001928E-02 0. -1.
    10030    2    1    2    0    0  0.00000000000E+00  0.00000000000E+00 -0.85810029424E+03  0.10516270271E+04  0.60793362230E+03 0.  0.
        5    1    3    3  502    0  0.30707456747E+00  0.83549922879E+02  0.76444818466E+02  0.11334277293E+03  0.46999998093E+01 0.  1.
       -5    1    3    3    0  502 -0.30707456747E+00 -0.83549922879E+02 -0.93454511271E+03  0.93828425416E+03  0.46999998093E+01 0. -1.
</event>
<event>
 5   0  0.5190380E-02  0.5934507E+03  0.7818609E-02  0.9919088E-01
       -1   -1    0    0    0  501  0.00000000000E+00  0.00000000000E+00  0.26707436657E+03  0.26707436661E+03  0.50400001928E-02 0. -1.
        1   -1    0    0  501    0  0.00000000000E+00  0.00000000000E+00 -0.32966823520E+03  0.32966823524E+03  0.50400001928E-02 0.  1.
    10030    2    1    2    0    0  0.00000000000E+00  0.00000000000E+00 -0.62593868633E+02  0.59674260185E+03  0.59345070602E+03 0.  0.
        5    1    3    3  502    0  0.88396069559E+02 -0.17625232610E+03  0.19161970827E+03  0.27498900008E+03  0.46999998093E+01 0. -1.
       -5    1    3    3    0  502 -0.88396069559E+02  0.17625232610E+03 -0.25421357691E+03  0.32175360177E+03  0.46999998093E+01 0.  1.
</event>
<event>
 5   0  0.8817544E-02  0.6137873E+03  0.7818609E-02  0.9877208E-01
       -2   -1    0    0    0  501  0.00000000000E+00  0.00000000000E+00  0.85182606492E+02  0.85182606530E+02  0.25500000920E-02 0.  1.
        2   -1    0    0  501    0  0.00000000000E+00  0.00000000000E+00 -0.11056684440E+04  0.11056684440E+04  0.25500000920E-02 0. -1.
    10030    2    1    2    0    0  0.00000000000E+00  0.00000000000E+00 -0.10204858375E+04  0.11908510506E+04  0.61378732474E+03 0.  0.
        5    1    3    3  502    0  0.21906132905E+03 -0.92950133340E+02 -0.13436036706E+03  0.27331738219E+03  0.46999998093E+01 0.  1.
       -5    1    3    3    0  502 -0.21906132905E+03  0.92950133340E+02 -0.88612547049E+03  0.91753366839E+03  0.46999998093E+01 0. -1.
</event>
<event>
 5   0  0.8207443E-02  0.6026702E+03  0.7818609E-02  0.9899882E-01
       -2   -1    0    0    0  501  0.00000000000E+00  0.00000000000E+00  0.78227223483E+02  0.78227223524E+02  0.25500000920E-02 0. -1.
        2   -1    0    0  501    0  0.00000000000E+00  0.00000000000E+00 -0.11607576029E+04  0.11607576029E+04  0.25500000920E-02 0.  1.
    10030    2    1    2    0    0  0.00000000000E+00  0.00000000000E+00 -0.10825303794E+04  0.12389848264E+04  0.60267020645E+03 0.  0.
        1    1    3    3  502    0 -0.82474293205E+02 -0.17285615616E+03 -0.10195334027E+04  0.10373666753E+04  0.50400001928E-02 0.  1.
       -1    1    3    3    0  502  0.82474293205E+02  0.17285615616E+03 -0.62996976706E+02  0.20161815112E+03  0.50400001928E-02 0. -1.
</event>
<event>
 5   0  0.5190380E-02  0.5994820E+03  0.7818609E-02  0.9906481E-01
       -1   -1    0    0    0  501  0.00000000000E+00  0.00000000000E+00  0.98820509596E+02  0.98820509724E+02  0.50400001928E-02 0. -1.
        1   -1    0    0  501    0  0.00000000000E+00  0.00000000000E+00 -0.90917020772E+03  0.90917020774E+03  0.50400001928E-02 0.  1.
    10030    2    1    2    0    0  0.00000000000E+00  0.00000000000E+00 -0.81034969813E+03  0.10079907175E+04  0.59948198741E+03 0.  0.
        5    1    3    3  502    0  0.12373157043E+03  0.12258018878E+01  0.53803552489E+02  0.13501080093E+03  0.46999998093E+01 0. -1.
       -5    1    3    3    0  502 -0.12373157043E+03 -0.12258018878E+01 -0.86415325062E+03  0.87297991653E+03  0.46999998093E+01 0.  1.
</event>
<event>
 5   0  0.5166903E-02  0.5967469E+03  0.7818609E-02  0.9912178E-01
        1   -1    0    0  501    0  0.00000000000E+00  0.00000000000E+00  0.31934933549E+03  0.31934933553E+03  0.50400001928E-02 0.  1.
       -1   -1    0    0    0  501  0.00000000000E+00  0.00000000000E+00 -0.27877530868E+03  0.27877530872E+03  0.50400001928E-02 0. -1.
    10030    2    1    2    0    0  0.00000000000E+00  0.00000000000E+00  0.40574026818E+02  0.59812464425E+03  0.59674687968E+03 0.  0.
        2    1    3    3  502    0 -0.13964867197E+03  0.63626455052E+02  0.27676181751E+03  0.31646039405E+03  0.25500000920E-02 0.  1.
       -2    1    3    3    0  502  0.13964867197E+03 -0.63626455052E+02 -0.23618779069E+03  0.28166425020E+03  0.25500000920E-02 0. -1.
</event>
<event>
 5   0  0.8575590E-02  0.5933486E+03  0.7818609E-02  0.9919302E-01
        2   -1    0    0  501    0  0.00000000000E+00  0.00000000000E+00  0.54654243535E+03  0.54654243536E+03  0.25500000920E-02 0.  1.
       -2   -1    0    0    0  501  0.00000000000E+00  0.00000000000E+00 -0.16104084164E+03  0.16104084166E+03  0.25500000920E-02 0. -1.
    10030    2    1    2    0    0  0.00000000000E+00  0.00000000000E+00  0.38550159371E+03  0.70758327703E+03  0.59334864555E+03 0.  0.
        4    1    3    3  502    0 -0.22123993876E+02 -0.25671064585E+03  0.17387875705E+02  0.25825138512E+03  0.12699999809E+01 0. -1.
       -4    1    3    3    0  502  0.22123993876E+02  0.25671064585E+03  0.36811371801E+03  0.44933189190E+03  0.12699999809E+01 0.  1.
</event>
<event>
 5   0  0.8207443E-02  0.5246044E+03  0.7818609E-02  0.1007549E+00
       -2   -1    0    0    0  501  0.00000000000E+00  0.00000000000E+00  0.52011203229E+02  0.52011203292E+02  0.25500000920E-02 0.  1.
        2   -1    0    0  501    0  0.00000000000E+00  0.00000000000E+00 -0.13228388991E+04  0.13228388991E+04  0.25500000920E-02 0. -1.
    10030    2    1    2    0    0  0.00000000000E+00  0.00000000000E+00 -0.12708276959E+04  0.13748501024E+04  0.52460439520E+03 0.  0.
        1    1    3    3  502    0 -0.14608775323E+03 -0.20760595164E+03 -0.80847339268E+03  0.84739075373E+03  0.50400001928E-02 0. -1.
       -1    1    3    3    0  502  0.14608775323E+03  0.20760595164E+03 -0.46235430319E+03  0.52745934867E+03  0.50400001928E-02 0.  1.
</event>
<event>
 5   0  0.8817544E-02  0.5995010E+03  0.7818609E-02  0.9906442E-01
       -2   -1    0    0    0  501  0.00000000000E+00  0.00000000000E+00  0.42597941799E+02  0.42597941876E+02  0.25500000920E-02 0. -1.
        2   -1    0    0  501    0  0.00000000000E+00  0.00000000000E+00 -0.21092652575E+04  0.21092652575E+04  0.25500000920E-02 0.  1.
    10030    2    1    2    0    0  0.00000000000E+00  0.00000000000E+00 -0.20666673157E+04  0.21518631994E+04  0.59950098837E+03 0.  0.
        5    1    3    3  502    0 -0.89217220057E+02  0.19333892602E+03 -0.27624070592E+03  0.34881323122E+03  0.46999998093E+01 0. -1.
       -5    1    3    3    0  502  0.89217220057E+02 -0.19333892602E+03 -0.17904266098E+04  0.18030499682E+04  0.46999998093E+01 0.  1.
</event>
<event>
 5   0  0.8817544E-02  0.5871752E+03  0.7818609E-02  0.9932376E-01
        2   -1    0    0  501    0  0.00000000000E+00  0.00000000000E+00  0.16223612805E+04  0.16223612805E+04  0.25500000920E-02 0.  1.
       -2   -1    0    0    0  501  0.00000000000E+00  0.00000000000E+00 -0.53128543341E+02  0.53128543403E+02  0.25500000920E-02 0. -1.
    10030    2    1    2    0    0  0.00000000000E+00  0.00000000000E+00  0.15692327372E+04  0.16754898239E+04  0.58717524355E+03 0.  0.
        5    1    3    3  502    0 -0.13865066358E+03  0.14693678349E+03  0.13923273235E+04  0.14069157369E+04  0.46999998093E+01 0.  1.
       -5    1    3    3    0  502  0.13865066358E+03 -0.14693678349E+03  0.17690541367E+03  0.26857408705E+03  0.46999998093E+01 0. -1.
</event>
<event>
 5   0  0.8817544E-02  0.6301147E+03  0.7818609E-02  0.9844825E-01
        2   -1    0    0  501    0  0.00000000000E+00  0.00000000000E+00  0.84997487699E+03  0.84997487700E+03  0.25500000920E-02 0.  1.
       -2   -1    0    0    0  501  0.00000000000E+00  0.00000000000E+00 -0.11678127442E+03  0.11678127445E+03  0.25500000920E-02 0. -1.
    10030    2    1    2    0    0  0.00000000000E+00  0.00000000000E+00  0.73319360257E+03  0.96675615144E+03  0.63011474947E+03 0.  0.
        5    1    3    3  502    0 -0.29612905825E+03  0.50679074503E+02  0.22122048191E+03  0.37312381236E+03  0.46999998093E+01 0. -1.
       -5    1    3    3    0  502  0.29612905825E+03 -0.50679074503E+02  0.51197312066E+03  0.59363233909E+03  0.46999998093E+01 0.  1.
</event>
<event>
 5   0  0.5190380E-02  0.5559538E+03  0.7818609E-02  0.1000125E+00
        1   -1    0    0  501    0  0.00000000000E+00  0.00000000000E+00  0.33000876956E+03  0.33000876960E+03  0.50400001928E-02 0.  1.
       -1   -1    0    0    0  501  0.00000000000E+00  0.00000000000E+00 -0.23414880936E+03  0.23414880942E+03  0.50400001928E-02 0. -1.
    10030    2    1    2    0    0  0.00000000000E+00  0.00000000000E+00  0.95859960196E+02  0.56415757901E+03  0.55595381282E+03 0.  0.
        5    1    3    3  502    0 -0.14095852036E+03 -0.10795040145E+03  0.26492291031E+03  0.31894957602E+03  0.46999998093E+01 0.  1.
       -5    1    3    3    0  502  0.14095852036E+03  0.10795040145E+03 -0.16906295012E+03  0.24520800300E+03  0.46999998093E+01 0. -1.
</event>
<event>
 5   0  0.8207443E-02  0.6038707E+03  0.7818609E-02  0.9897408E-01
        2   -1    0    0  501    0  0.00000000000E+00  0.00000000000E+00  0.11095464857E+04  0.11095464857E+04  0.25500000920E-02 0. -1.
       -2   -1    0    0    0  501  0.00000000000E+00  0.00000000000E+00 -0.82164169852E+02  0.82164169892E+02  0.25500000920E-02 0.  1.
    10030    2    1    2    0    0  0.00000000000E+00  0.00000000000E+00  0.10273823158E+04  0.11917106556E+04  0.60387073429E+03 0.  0.
        1    1    3    3  502    0 -0.20005241300E+03  0.10835087984E+02  0.95947584955E+03  0.98016951237E+03  0.50400001928E-02 0. -1.
       -1    1    3    3    0  502  0.20005241300E+03 -0.10835087984E+02  0.67906466273E+02  0.21154114320E+03  0.50400001928E-02 0.  1.
</event>
<event>
 5   0  0.3437375E-02  0.5949604E+03  0.7818609E-02  0.9915917E-01
        4   -1    0    0  501    0  0.00000000000E+00  0.00000000000E+00  0.10530464677E+03  0.10531230474E+03  0.12699999809E+01 0.  1.
       -4   -1    0    0    0  501  0.00000000000E+00  0.00000000000E+00 -0.84032757949E+03  0.84032853917E+03  0.12699999809E+01 0. -1.
    10030    2    1    2    0    0  0.00000000000E+00  0.00000000000E+00 -0.73502293272E+03  0.94564084391E+03  0.59496041386E+03 0.  0.
        5    1    3    3  502    0 -0.15846174304E+03  0.24333471769E+03 -0.46990841976E+03  0.55241100804E+03  0.46999998093E+01 0. -1.
       -5    1    3    3    0  502  0.15846174304E+03 -0.24333471769E+03 -0.26511451296E+03  0.39322983587E+03  0.46999998093E+01 0.  1.
</event>
<event>
 5   0  0.5166903E-02  0.6038354E+03  0.7818609E-02  0.9897481E-01
       -1   -1    0    0    0  501  0.00000000000E+00  0.00000000000E+00  0.12691048487E+03  0.12691048497E+03  0.50400001928E-02 0. -1.
        1   -1    0    0  501    0  0.00000000000E+00  0.00000000000E+00 -0.71825668142E+03  0.71825668143E+03  0.50400001928E-02 0.  1.
    10030    2    1    2    0    0  0.00000000000E+00  0.00000000000E+00 -0.59134619655E+03  0.84516716640E+03  0.60383542046E+03 0.  0.
        2    1    3    3  502    0  0.10431255318E+03  0.75929551233E+02 -0.67772748322E+03  0.68989922961E+03  0.25500000920E-02 0.  1.
       -2    1    3    3    0  502 -0.10431255318E+03 -0.75929551233E+02  0.86381286673E+02  0.15526793679E+03  0.25500000920E-02 0. -1.
</event>
<event>
 5   0  0.4987389E-02  0.6151373E+03  0.7818609E-02  0.9874489E-01
        1   -1    0    0  501    0  0.00000000000E+00  0.00000000000E+00  0.87550560984E+03  0.87550560986E+03  0.50400001928E-02 0. -1.
       -1   -1    0    0    0  501  0.00000000000E+00  0.00000000000E+00 -0.10805010973E+03  0.10805010985E+03  0.50400001928E-02 0.  1.
    10030    2    1    2    0    0  0.00000000000E+00  0.00000000000E+00  0.76745550011E+03  0.98355571970E+03  0.61513730915E+03 0.  0.
        1    1    3    3  502    0 -0.28849947795E+03  0.81626673876E+02  0.27406913313E+03  0.40621269358E+03  0.50400001928E-02 0.  1.
       -1    1    3    3    0  502  0.28849947795E+03 -0.81626673876E+02  0.49338636699E+03  0.57734302613E+03  0.50400001928E-02 0. -1.
</event>
<event>
 5   0  0.8207443E-02  0.6935100E+03  0.7818609E-02  0.9728396E-01
        2   -1    0    0  501    0  0.00000000000E+00  0.00000000000E+00  0.73686616405E+03  0.73686616406E+03  0.25500000920E-02 0. -1.
       -2   -1    0    0    0  501  0.00000000000E+00  0.00000000000E+00 -0.16317620723E+03  0.16317620725E+03  0.25500000920E-02 0.  1.
    10030    2    1    2    0    0  0.00000000000E+00  0.00000000000E+00  0.57368995682E+03  0.90004237131E+03  0.69350998810E+03 0.  0.
        1    1    3    3  502    0  0.20900517526E+03  0.74119788808E+02 -0.59117749807E+02  0.22950340900E+03  0.50400001928E-02 0.  1.
       -1    1    3    3    0  502 -0.20900517526E+03 -0.74119788808E+02  0.63280770663E+03  0.67053896231E+03  0.50400001928E-02 0. -1.
</event>
<event>
 5   0  0.5125031E-02  0.6008512E+03  0.7818609E-02  0.9903642E-01
        1   -1    0    0  501    0  0.00000000000E+00  0.00000000000E+00  0.19450485624E+03  0.19450485631E+03  0.50400001928E-02 0. -1.
       -1   -1    0    0    0  501  0.00000000000E+00  0.00000000000E+00 -0.46402721536E+03  0.46402721539E+03  0.50400001928E-02 0.  1.
    10030    2    1    2    0    0  0.00000000000E+00  0.00000000000E+00 -0.26952235912E+03  0.65853207170E+03  0.60085121901E+03 0.  0.
        4    1    3    3  502    0 -0.96532193560E+02 -0.46781963322E+02  0.17279663435E+03  0.20338954306E+03  0.12699999809E+01 0. -1.
       -4    1    3    3    0  502  0.96532193560E+02  0.46781963322E+02 -0.44231899347E+03  0.45514252863E+03  0.12699999809E+01 0.  1.
</event>
<event>
 5   0  0.5125031E-02  0.5935510E+03  0.7818609E-02  0.9918877E-01
       -1   -1    0    0    0  501  0.00000000000E+00  0.00000000000E+00  0.33058637279E+03  0.33058637283E+03  0.50400001928E-02 0. -1.
        1   -1    0    0  501    0  0.00000000000E+00  0.00000000000E+00 -0.26642265738E+03  0.26642265743E+03  0.50400001928E-02 0.  1.
    10030    2    1    2    0    0  0.00000000000E+00  0.00000000000E+00  0.64163715411E+02  0.59700903026E+03  0.59355100862E+03 0.  0.
        4    1    3    3  502    0  0.25439479344E+03 -0.14460103497E+03 -0.17682818272E+02  0.29315604242E+03  0.12699999809E+01 0.  1.
       -4    1    3    3    0  502 -0.25439479344E+03  0.14460103497E+03  0.81846533683E+02  0.30385298784E+03  0.12699999809E+01 0. -1.
</event>
<event>
 5   0  0.4881209E-02  0.6027141E+03  0.7818609E-02  0.9899791E-01
        1   -1    0    0  501    0  0.00000000000E+00  0.00000000000E+00  0.57207045110E+03  0.57207045113E+03  0.50400001928E-02 0.  1.
       -1   -1    0    0    0  501  0.00000000000E+00  0.00000000000E+00 -0.15874981977E+03  0.15874981985E+03  0.50400001928E-02 0. -1.
    10030    2    1    2    0    0  0.00000000000E+00  0.00000000000E+00  0.41332063133E+03  0.73082027098E+03  0.60271413140E+03 0.  0.
        3    1    3    3  502    0 -0.14518617339E+03  0.25803926887E+03  0.13857614427E+03  0.32690464540E+03  0.10100000352E+00 0. -1.
       -3    1    3    3    0  502  0.14518617339E+03 -0.25803926887E+03  0.27474448706E+03  0.40391562558E+03  0.10100000352E+00 0.  1.
</event>
<event>
 5   0  0.8420604E-02  0.5995696E+03  0.7818609E-02  0.9906299E-01
       -2   -1    0    0    0  501  0.00000000000E+00  0.00000000000E+00  0.18397748363E+03  0.18397748365E+03  0.25500000920E-02 0.  1.
        2   -1    0    0  501    0  0.00000000000E+00  0.00000000000E+00 -0.48848865740E+03  0.48848865741E+03  0.25500000920E-02 0. -1.
    10030    2    1    2    0    0  0.00000000000E+00  0.00000000000E+00 -0.30451117377E+03  0.67246614106E+03  0.59956955887E+03 0.  0.
        2    1    3    3  502    0 -0.74279177625E+02 -0.49864252751E+02  0.16865606190E+03  0.19091544503E+03  0.25500000920E-02 0.  1.
       -2    1    3    3    0  502  0.74279177625E+02  0.49864252751E+02 -0.47316723566E+03  0.48155069603E+03  0.25500000920E-02 0. -1.
</event>
<event>
 5   0  0.8575590E-02  0.6257732E+03  0.7818609E-02  0.9853332E-01
       -2   -1    0    0    0  501  0.00000000000E+00  0.00000000000E+00  0.81458443478E+02  0.81458443517E+02  0.25500000920E-02 0.  1.
        2   -1    0    0  501    0  0.00000000000E+00  0.00000000000E+00 -0.12018155983E+04  0.12018155983E+04  0.25500000920E-02 0. -1.
    10030    2    1    2    0    0  0.00000000000E+00  0.00000000000E+00 -0.11203571548E+04  0.12832740418E+04  0.62577321135E+03 0.  0.
        4    1    3    3  502    0 -0.28685333923E+03  0.12466781569E+03 -0.54308101255E+03  0.62671006182E+03  0.12699999809E+01 0.  1.
       -4    1    3    3    0  502  0.28685333923E+03 -0.12466781569E+03 -0.57727614226E+03  0.65656397999E+03  0.12699999809E+01 0. -1.
</event>
<event>
 5   0  0.8817544E-02  0.6158378E+03  0.7818609E-02  0.9873082E-01
        2   -1    0    0  501    0  0.00000000000E+00  0.00000000000E+00  0.94244411331E+03  0.94244411331E+03  0.25500000920E-02 0.  1.
       -2   -1    0    0    0  501  0.00000000000E+00  0.00000000000E+00 -0.10060442474E+03  0.10060442478E+03  0.25500000920E-02 0. -1.
    10030    2    1    2    0    0  0.00000000000E+00  0.00000000000E+00  0.84183968856E+03  0.10430485381E+04  0.61583779647E+03 0.  0.
        5    1    3    3  502    0 -0.20372540049E+02 -0.18740760783E+03  0.86307932165E+01  0.18876766791E+03  0.46999998093E+01 0. -1.
       -5    1    3    3    0  502  0.20372540049E+02  0.18740760783E+03  0.83320889535E+03  0.85428087017E+03  0.46999998093E+01 0.  1.
</event>
<event>
 5   0  0.8699746E-02  0.6155859E+03  0.7818609E-02  0.9873588E-01
       -2   -1    0    0    0  501  0.00000000000E+00  0.00000000000E+00  0.18248826844E+03  0.18248826846E+03  0.25500000920E-02 0.  1.
        2   -1    0    0  501    0  0.00000000000E+00  0.00000000000E+00 -0.51913741613E+03  0.51913741614E+03  0.25500000920E-02 0. -1.
    10030    2    1    2    0    0  0.00000000000E+00  0.00000000000E+00 -0.33664914768E+03  0.70162568460E+03  0.61558586131E+03 0.  0.
        3    1    3    3  502    0  0.16356284723E+03 -0.18350079145E+03  0.42797852807E+02  0.24951355046E+03  0.10100000352E+00 0.  1.
       -3    1    3    3    0  502 -0.16356284723E+03  0.18350079145E+03 -0.37944700049E+03  0.45211213414E+03  0.10100000352E+00 0. -1.
</event>
<event>
 5   0  0.8817544E-02  0.6043785E+03  0.7818609E-02  0.9896364E-01
       -2   -1    0    0    0  501  0.00000000000E+00  0.00000000000E+00  0.52330227499E+02  0.52330227561E+02  0.25500000920E-02 0. -1.
        2   -1    0    0  501    0  0.00000000000E+00  0.00000000000E+00 -0.17450399600E+04  0.17450399600E+04  0.25500000920E-02 0.  1.
    10030    2    1    2    0    0  0.00000000000E+00  0.00000000000E+00 -0.16927097325E+04  0.17973701876E+04  0.60437848460E+03 0.  0.
        5    1    3    3  502    0 -0.17900669384E+03  0.20213248778E+03 -0.44300484565E+03  0.51882205266E+03  0.46999998093E+01 0. -1.
       -5    1    3    3    0  502  0.17900669384E+03 -0.20213248778E+03 -0.12497048869E+04  0.12785481349E+04  0.46999998093E+01 0.  1.
</event>
<event>
 5   0  0.8420604E-02  0.5931473E+03  0.7818609E-02  0.9919726E-01
       -2   -1    0    0    0  501  0.00000000000E+00  0.00000000000E+00  0.10662821066E+03  0.10662821069E+03  0.25500000920E-02 0. -1.
        2   -1    0    0  501    0  0.00000000000E+00  0.00000000000E+00 -0.82488415269E+03  0.82488415269E+03  0.25500000920E-02 0.  1.
    10030    2    1    2    0    0  0.00000000000E+00  0.00000000000E+00 -0.71825594203E+03  0.93151236338E+03  0.59314727081E+03 0.  0.
        2    1    3    3  502    0 -0.20246693644E+03 -0.10790994659E+03 -0.65426740397E+03  0.69332766628E+03  0.25500000920E-02 0.  1.
       -2    1    3    3    0  502  0.20246693644E+03  0.10790994659E+03 -0.63988538060E+02  0.23818469710E+03  0.25500000920E-02 0. -1.
</event>
<event>
 5   0  0.4987389E-02  0.5949838E+03  0.7818609E-02  0.9915868E-01
       -1   -1    0    0    0  501  0.00000000000E+00  0.00000000000E+00  0.26135295053E+03  0.26135295058E+03  0.50400001928E-02 0. -1.
        1   -1    0    0  501    0  0.00000000000E+00  0.00000000000E+00 -0.33862803711E+03  0.33862803714E+03  0.50400001928E-02 0.  1.
    10030    2    1    2    0    0  0.00000000000E+00  0.00000000000E+00 -0.77275086574E+02  0.59998098772E+03  0.59498382047E+03 0.  0.
        1    1    3    3  502    0 -0.16648758377E+03  0.10601389647E+02  0.20974591209E+03  0.26799972514E+03  0.50400001928E-02 0. -1.
       -1    1    3    3    0  502  0.16648758377E+03 -0.10601389647E+02 -0.28702099866E+03  0.33198126259E+03  0.50400001928E-02 0.  1.
</event>
<event>
 5   0  0.5125031E-02  0.5978754E+03  0.7818609E-02  0.9909824E-01
       -1   -1    0    0    0  501  0.00000000000E+00  0.00000000000E+00  0.12393331038E+03  0.12393331048E+03  0.50400001928E-02 0. -1.
        1   -1    0    0  501    0  0.00000000000E+00  0.00000000000E+00 -0.72106320052E+03  0.72106320053E+03  0.50400001928E-02 0.  1.
    10030    2    1    2    0    0  0.00000000000E+00  0.00000000000E+00 -0.59712989014E+03  0.84499651101E+03  0.59787540334E+03 0.  0.
        4    1    3    3  502    0 -0.67497824692E+02  0.11613450921E+03 -0.67600389691E+03  0.68922134479E+03  0.12699999809E+01 0.  1.
       -4    1    3    3    0  502  0.67497824692E+02 -0.11613450921E+03  0.78874006771E+02  0.15577516623E+03  0.12699999809E+01 0. -1.
</event>
<event>
 5   0  0.8575590E-02  0.5967972E+03  0.7818609E-02  0.9912073E-01
       -2   -1    0    0    0  501  0.00000000000E+00  0.00000000000E+00  0.12792298120E+03  0.12792298123E+03  0.25500000920E-02 0.  1.
        2   -1    0    0  501    0  0.00000000000E+00  0.00000000000E+00 -0.69605734235E+03  0.69605734236E+03  0.25500000920E-02 0. -1.
    10030    2    1    2    0    0  0.00000000000E+00  0.00000000000E+00 -0.56813436115E+03  0.82398032359E+03  0.59679721961E+03 0.  0.
        4    1    3    3  502    0  0.10015967671E+03  0.21280763941E+03 -0.30530562880E+02  0.23717668603E+03  0.12699999809E+01 0.  1.
       -4    1    3    3    0  502 -0.10015967671E+03 -0.21280763941E+03 -0.53760379827E+03  0.58680363755E+03  0.12699999809E+01 0. -1.
</event>
<event>
 5   0  0.8575590E-02  0.5737472E+03  0.7818609E-02  0.9961421E-01
       -2   -1    0    0    0  501  0.00000000000E+00  0.00000000000E+00  0.90902027050E+02  0.90902027086E+02  0.25500000920E-02 0.  1.
        2   -1    0    0  501    0  0.00000000000E+00  0.00000000000E+00 -0.90533144929E+03  0.90533144929E+03  0.25500000920E-02 0. -1.
    10030    2    1    2    0    0  0.00000000000E+00  0.00000000000E+00 -0.81442942224E+03  0.99623347638E+03  0.57374720535E+03 0.  0.
        4    1    3    3  502    0  0.26976835093E+03 -0.35928938207E+02 -0.24970256119E+03  0.36934920296E+03  0.12699999809E+01 0.  1.
       -4    1    3    3    0  502 -0.26976835093E+03  0.35928938207E+02 -0.56472686105E+03  0.62688427341E+03  0.12699999809E+01 0. -1.
</event>
<event>
 5   0  0.5166903E-02  0.5533399E+03  0.7818609E-02  0.1000724E+00
        1   -1    0    0  501    0  0.00000000000E+00  0.00000000000E+00  0.51756906690E+03  0.51756906692E+03  0.50400001928E-02 0.  1.
       -1   -1    0    0    0  501  0.00000000000E+00  0.00000000000E+00 -0.14789573948E+03  0.14789573956E+03  0.50400001928E-02 0. -1.
    10030    2    1    2    0    0  0.00000000000E+00  0.00000000000E+00  0.36967332742E+03  0.66546480648E+03  0.55333989524E+03 0.  0.
        2    1    3    3  502    0  0.14729936326E+03  0.10059299998E+02 -0.96558812442E+02  0.17641399094E+03  0.25500000920E-02 0. -1.
       -2    1    3    3    0  502 -0.14729936326E+03 -0.10059299998E+02  0.46623213986E+03  0.48905081554E+03  0.25500000920E-02 0.  1.
</event>
<event>
 5   0  0.3437375E-02  0.6174071E+03  0.7818609E-02  0.9869936E-01
       -4   -1    0    0    0  501  0.00000000000E+00  0.00000000000E+00  0.69029923231E+03  0.69030040057E+03  0.12699999809E+01 0. -1.
        4   -1    0    0  501    0  0.00000000000E+00  0.00000000000E+00 -0.13804879525E+03  0.13805463690E+03  0.12699999809E+01 0.  1.
    10030    2    1    2    0    0  0.00000000000E+00  0.00000000000E+00  0.55225043706E+03  0.82835503747E+03  0.61740709655E+03 0.  0.
        1    1    3    3  502    0 -0.16549858229E+03 -0.16446361163E+03  0.49230690398E+01  0.23337158551E+03  0.50400001928E-02 0.  1.
       -1    1    3    3    0  502  0.16549858229E+03  0.16446361163E+03  0.54732736802E+03  0.59498345195E+03  0.50400001928E-02 0. -1.
</event>
<event>
 5   0  0.8420604E-02  0.6057350E+03  0.7818609E-02  0.9893579E-01
        2   -1    0    0  501    0  0.00000000000E+00  0.00000000000E+00  0.43254607625E+03  0.43254607626E+03  0.25500000920E-02 0.  1.
       -2   -1    0    0    0  501  0.00000000000E+00  0.00000000000E+00 -0.21206693159E+03  0.21206693161E+03  0.25500000920E-02 0. -1.
    10030    2    1    2    0    0  0.00000000000E+00  0.00000000000E+00  0.22047914466E+03  0.64461300787E+03  0.60573498882E+03 0.  0.
        2    1    3    3  502    0 -0.18722016237E+03  0.21965227446E+03  0.12530349891E+02  0.28888669154E+03  0.25500000920E-02 0. -1.
       -2    1    3    3    0  502  0.18722016237E+03 -0.21965227446E+03  0.20794879477E+03  0.35572631633E+03  0.25500000920E-02 0.  1.
</event>
<event>
 5   0  0.8699746E-02  0.6002086E+03  0.7818609E-02  0.9904973E-01
        2   -1    0    0  501    0  0.00000000000E+00  0.00000000000E+00  0.67846890779E+03  0.67846890780E+03  0.25500000920E-02 0.  1.
       -2   -1    0    0    0  501  0.00000000000E+00  0.00000000000E+00 -0.13274387790E+03  0.13274387793E+03  0.25500000920E-02 0. -1.
    10030    2    1    2    0    0  0.00000000000E+00  0.00000000000E+00  0.54572502989E+03  0.81121278572E+03  0.60020860996E+03 0.  0.
        3    1    3    3  502    0  0.17701355302E+03  0.24010927441E+03  0.31720333148E+03  0.43543567299E+03  0.10100000352E+00 0. -1.
       -3    1    3    3    0  502 -0.17701355302E+03 -0.24010927441E+03  0.22852169841E+03  0.37577711273E+03  0.10100000352E+00 0.  1.
</event>
<event>
 5   0  0.3437375E-02  0.6104072E+03  0.7818609E-02  0.9884047E-01
        3   -1    0    0  501    0  0.00000000000E+00  0.00000000000E+00  0.13274135815E+03  0.13274139657E+03  0.10100000352E+00 0.  1.
       -3   -1    0    0    0  501  0.00000000000E+00  0.00000000000E+00 -0.70173473291E+03  0.70173474018E+03  0.10100000352E+00 0. -1.
    10030    2    1    2    0    0  0.00000000000E+00  0.00000000000E+00 -0.56899337477E+03  0.83447613675E+03  0.61040721021E+03 0.  0.
        1    1    3    3  502    0 -0.75164970865E+01  0.18204703659E+03 -0.61922675543E+03  0.64547610020E+03  0.50400001928E-02 0. -1.
       -1    1    3    3    0  502  0.75164970865E+01 -0.18204703659E+03  0.50233380665E+02  0.18900003655E+03  0.50400001928E-02 0.  1.
</event>
<event>
 5   0  0.3437375E-02  0.5586661E+03  0.7818609E-02  0.9995077E-01
        3   -1    0    0  501    0  0.00000000000E+00  0.00000000000E+00  0.37631467126E+03  0.37631468482E+03  0.10100000352E+00 0. -1.
       -3   -1    0    0    0  501  0.00000000000E+00  0.00000000000E+00 -0.20734494564E+03  0.20734497024E+03  0.10100000352E+00 0.  1.
    10030    2    1    2    0    0  0.00000000000E+00  0.00000000000E+00  0.16896972563E+03  0.58365965506E+03  0.55866611206E+03 0.  0.
        2    1    3    3  502    0 -0.17682705842E+03  0.86926707902E+02 -0.12237032425E+03  0.23194516033E+03  0.25500000920E-02 0.  1.
       -2    1    3    3    0  502  0.17682705842E+03 -0.86926707902E+02  0.29134004988E+03  0.35171449473E+03  0.25500000920E-02 0. -1.
</event>
<event>
 5   0  0.8420604E-02  0.5976330E+03  0.7818609E-02  0.9910329E-01
        2   -1    0    0  501    0  0.00000000000E+00  0.00000000000E+00  0.38001320784E+03  0.38001320785E+03  0.25500000920E-02 0. -1.
       -2   -1    0    0    0  501  0.00000000000E+00  0.00000000000E+00 -0.23496897594E+03  0.23496897595E+03  0.25500000920E-02 0.  1.
    10030    2    1    2    0    0  0.00000000000E+00  0.00000000000E+00  0.14504423191E+03  0.61498218380E+03  0.59763304559E+03 0.  0.
        2    1    3    3  502    0 -0.22244001996E+03 -0.11645661538E+02 -0.13244896209E+03  0.25914843522E+03  0.25500000920E-02 0.  1.
       -2    1    3    3    0  502  0.22244001996E+03  0.11645661538E+02  0.27749319400E+03  0.35583374859E+03  0.25500000920E-02 0. -1.
</event>
<event>
 5   0  0.8207443E-02  0.5997894E+03  0.7818609E-02  0.9905843E-01
        2   -1    0    0  501    0  0.00000000000E+00  0.00000000000E+00  0.69722332805E+03  0.69722332806E+03  0.25500000920E-02 0.  1.
       -2   -1    0    0    0  501  0.00000000000E+00  0.00000000000E+00 -0.12899285188E+03  0.12899285190E+03  0.25500000920E-02 0. -1.
    10030    2    1    2    0    0  0.00000000000E+00  0.00000000000E+00  0.56823047618E+03  0.82621617996E+03  0.59978938134E+03 0.  0.
        1    1    3    3  502    0 -0.20303296500E+02  0.21563809057E+03  0.56984431046E+03  0.60961836270E+03  0.50400001928E-02 0.  1.
       -1    1    3    3    0  502  0.20303296500E+02 -0.21563809057E+03 -0.16138342831E+01  0.21659781726E+03  0.50400001928E-02 0. -1.
</event>
<event>
 5   0  0.4881209E-02  0.5936865E+03  0.7818609E-02  0.9918592E-01
       -1   -1    0    0    0  501  0.00000000000E+00  0.00000000000E+00  0.82908790781E+02  0.82908790935E+02  0.50400001928E-02 0.  1.
        1   -1    0    0  501    0  0.00000000000E+00  0.00000000000E+00 -0.10628052908E+04  0.10628052909E+04  0.50400001928E-02 0. -1.
    10030    2    1    2    0    0  0.00000000000E+00  0.00000000000E+00 -0.97989650007E+03  0.11457140818E+04  0.59368645460E+03 0.  0.
        3    1    3    3  502    0 -0.28815897665E+03 -0.59053546748E+02 -0.56697179091E+03  0.63873307343E+03  0.10100000352E+00 0.  1.
       -3    1    3    3    0  502  0.28815897665E+03  0.59053546748E+02 -0.41292470916E+03  0.50698100836E+03  0.10100000352E+00 0. -1.
</event>
<event>
 5   0  0.8817544E-02  0.6091246E+03  0.7818609E-02  0.9886654E-01
       -2   -1    0    0    0  501  0.00000000000E+00  0.00000000000E+00  0.36385018688E+03  0.36385018689E+03  0.25500000920E-02 0.  1.
        2   -1    0    0  501    0  0.00000000000E+00  0.00000000000E+00 -0.25493515693E+03  0.25493515694E+03  0.25500000920E-02 0. -1.
    10030    2    1    2    0    0  0.00000000000E+00  0.00000000000E+00  0.10891502995E+03  0.61878534383E+03  0.60912463256E+03 0.  0.
        5    1    3    3  502    0  0.18081145034E+03  0.23681459736E+03  0.11840168860E+03  0.32064775682E+03  0.46999998093E+01 0. -1.
       -5    1    3    3    0  502 -0.18081145034E+03 -0.23681459736E+03 -0.94866586471E+01  0.29813758701E+03  0.46999998093E+01 0.  1.
</event>
<event>
 5   0  0.8575590E-02  0.6098732E+03  0.7818609E-02  0.9885131E-01
        2   -1    0    0  501    0  0.00000000000E+00  0.00000000000E+00  0.54770958012E+03  0.54770958013E+03  0.25500000920E-02 0.  1.
       -2   -1    0    0    0  501  0.00000000000E+00  0.00000000000E+00 -0.16977303414E+03  0.16977303415E+03  0.25500000920E-02 0. -1.
    10030    2    1    2    0    0  0.00000000000E+00  0.00000000000E+00  0.37793654599E+03  0.71748261428E+03  0.60987315813E+03 0.  0.
        4    1    3    3  502    0  0.23722928200E+03 -0.24256599734E+02 -0.34613941453E+02  0.24096857204E+03  0.12699999809E+01 0. -1.
       -4    1    3    3    0  502 -0.23722928200E+03  0.24256599734E+02  0.41255048744E+03  0.47651404224E+03  0.12699999809E+01 0.  1.
</event>
<event>
 5   0  0.8420604E-02  0.6521035E+03  0.7818609E-02  0.9802840E-01
        2   -1    0    0  501    0  0.00000000000E+00  0.00000000000E+00  0.19841919077E+04  0.19841919077E+04  0.25500000920E-02 0.  1.
       -2   -1    0    0    0  501  0.00000000000E+00  0.00000000000E+00 -0.53578351692E+02  0.53578351752E+02  0.25500000920E-02 0. -1.
    10030    2    1    2    0    0  0.00000000000E+00  0.00000000000E+00  0.19306135560E+04  0.20377702594E+04  0.65210346393E+03 0.  0.
        2    1    3    3  502    0  0.59186351678E+02 -0.55455397518E+02  0.19521648199E+04  0.19538489730E+04  0.25500000920E-02 0.  1.
       -2    1    3    3    0  502 -0.59186351678E+02  0.55455397518E+02 -0.21551263868E+02  0.83921286451E+02  0.25500000920E-02 0. -1.
</event>
<event>
 5   0  0.4881209E-02  0.5844887E+03  0.7818609E-02  0.9938120E-01
       -1   -1    0    0    0  501  0.00000000000E+00  0.00000000000E+00  0.33198067029E+02  0.33198067411E+02  0.50400001928E-02 0. -1.
        1   -1    0    0  501    0  0.00000000000E+00  0.00000000000E+00 -0.25726425010E+04  0.25726425010E+04  0.50400001928E-02 0.  1.
    10030    2    1    2    0    0  0.00000000000E+00  0.00000000000E+00 -0.25394444340E+04  0.26058405684E+04  0.58448869517E+03 0.  0.
        3    1    3    3  502    0  0.23482508706E+03  0.16688275757E+03 -0.10506704033E+04  0.10894498533E+04  0.10100000352E+00 0. -1.
       -3    1    3    3    0  502 -0.23482508706E+03 -0.16688275757E+03 -0.14887740307E+04  0.15163907151E+04  0.10100000352E+00 0.  1.
</event>
<event>
 5   0  0.5190380E-02  0.6992789E+03  0.7818609E-02  0.9718466E-01
        1   -1    0    0  501    0  0.00000000000E+00  0.00000000000E+00  0.11668161872E+04  0.11668161873E+04  0.50400001928E-02 0.  1.
       -1   -1    0    0    0  501  0.00000000000E+00  0.00000000000E+00 -0.10477036880E+03  0.10477036892E+03  0.50400001928E-02 0. -1.
    10030    2    1    2    0    0  0.00000000000E+00  0.00000000000E+00  0.10620458184E+04  0.12715865562E+04  0.69927894962E+03 0.  0.
        5    1    3    3  502    0 -0.92327033299E+02 -0.32297728364E+03  0.35484137101E+03  0.48864413985E+03  0.46999998093E+01 0. -1.
       -5    1    3    3    0  502  0.92327033299E+02  0.32297728364E+03  0.70720444743E+03  0.78294241633E+03  0.46999998093E+01 0.  1.
</event>
<event>
 5   0  0.8207443E-02  0.6001954E+03  0.7818609E-02  0.9905001E-01
       -2   -1    0    0    0  501  0.00000000000E+00  0.00000000000E+00  0.77365015872E+03  0.77365015872E+03  0.25500000920E-02 0.  1.
        2   -1    0    0  501    0  0.00000000000E+00  0.00000000000E+00 -0.11640745005E+03  0.11640745008E+03  0.25500000920E-02 0. -1.
    10030    2    1    2    0    0  0.00000000000E+00  0.00000000000E+00  0.65724270866E+03  0.89005760880E+03  0.60019544225E+03 0.  0.
        1    1    3    3  502    0  0.19232695821E+03  0.21510023569E+03  0.20632662986E+03  0.35472305883E+03  0.50400001928E-02 0. -1.
       -1    1    3    3    0  502 -0.19232695821E+03 -0.21510023569E+03  0.45091607880E+03  0.53533454997E+03  0.50400001928E-02 0.  1.
</event>
<event>
 5   0  0.8817544E-02  0.5966404E+03  0.7818609E-02  0.9912401E-01
        2   -1    0    0  501    0  0.00000000000E+00  0.00000000000E+00  0.96693327344E+02  0.96693327377E+02  0.25500000920E-02 0.  1.
       -2   -1    0    0    0  501  0.00000000000E+00  0.00000000000E+00 -0.92038355769E+03  0.92038355770E+03  0.25500000920E-02 0. -1.
    10030    2    1    2    0    0  0.00000000000E+00  0.00000000000E+00 -0.82369023035E+03  0.10170768851E+04  0.59664042318E+03 0.  0.
        5    1    3    3  502    0 -0.15849428255E+03  0.11023597873E+03 -0.79944913460E+03  0.82244356488E+03  0.46999998093E+01 0. -1.
       -5    1    3    3    0  502  0.15849428255E+03 -0.11023597873E+03 -0.24241095750E+02  0.19463332019E+03  0.46999998093E+01 0.  1.
</event>
<event>
 5   0  0.8817544E-02  0.6492790E+03  0.7818609E-02  0.9808133E-01
       -2   -1    0    0    0  501  0.00000000000E+00  0.00000000000E+00  0.11556789850E+03  0.11556789852E+03  0.25500000920E-02 0. -1.
        2   -1    0    0  501    0  0.00000000000E+00  0.00000000000E+00 -0.91193831922E+03  0.91193831922E+03  0.25500000920E-02 0.  1.
    10030    2    1    2    0    0  0.00000000000E+00  0.00000000000E+00 -0.79637042072E+03  0.10275062177E+04  0.64927896971E+03 0.  0.
        5    1    3    3  502    0  0.23607411774E+03  0.11389776186E+03 -0.70121062995E+03  0.74861346954E+03  0.46999998093E+01 0.  1.
       -5    1    3    3    0  502 -0.23607411774E+03 -0.11389776186E+03 -0.95159790778E+02  0.27889274821E+03  0.46999998093E+01 0. -1.
</event>
<event>
 5   0  0.5125031E-02  0.6048596E+03  0.7818609E-02  0.9895375E-01
        1   -1    0    0  501    0  0.00000000000E+00  0.00000000000E+00  0.65349023021E+03  0.65349023023E+03  0.50400001928E-02 0.  1.
       -1   -1    0    0    0  501  0.00000000000E+00  0.00000000000E+00 -0.13996199308E+03  0.13996199317E+03  0.50400001928E-02 0. -1.
    10030    2    1    2    0    0  0.00000000000E+00  0.00000000000E+00  0.51352823713E+03  0.79345222340E+03  0.60485963701E+03 0.  0.
        4    1    3    3  502    0  0.19070467185E+03 -0.22833449568E+03  0.18542765909E+03  0.35055661945E+03  0.12699999809E+01 0. -1.
       -4    1    3    3    0  502 -0.19070467185E+03  0.22833449568E+03  0.32810057804E+03  0.44289560395E+03  0.12699999809E+01 0.  1.
</event>
<event>
 5   0  0.5125031E-02  0.6024051E+03  0.7818609E-02  0.9900429E-01
       -1   -1    0    0    0  501  0.00000000000E+00  0.00000000000E+00  0.24887280301E+03  0.24887280306E+03  0.50400001928E-02 0.  1.
        1   -1    0    0  501    0  0.00000000000E+00  0.00000000000E+00 -0.36453553915E+03  0.36453553919E+03  0.50400001928E-02 0. -1.
    10030    2    1    2    0    0  0.00000000000E+00  0.00000000000E+00 -0.11566273614E+03  0.61340834225E+03  0.60240511769E+03 0.  0.
        4    1    3    3  502    0 -0.29069053204E+02  0.23942797313E+03  0.12588191301E+03  0.27206365633E+03  0.12699999809E+01 0.  1.
       -4    1    3    3    0  502  0.29069053204E+02 -0.23942797313E+03 -0.24154464915E+03  0.34134468592E+03  0.12699999809E+01 0. -1.
</event>
<event>
 5   0  0.5166903E-02  0.6048612E+03  0.7818609E-02  0.9895372E-01
        1   -1    0    0  501    0  0.00000000000E+00  0.00000000000E+00  0.24974145322E+03  0.24974145327E+03  0.50400001928E-02 0.  1.
       -1   -1    0    0    0  501  0.00000000000E+00  0.00000000000E+00 -0.36623585338E+03  0.36623585341E+03  0.50400001928E-02 0. -1.
    10030    2    1    2    0    0  0.00000000000E+00  0.00000000000E+00 -0.11649440016E+03  0.61597730669E+03  0.60486122134E+03 0.  0.
        2    1    3    3  502    0  0.18915842613E+03  0.22033962715E+03  0.27766934629E+02  0.29172155240E+03  0.25500000920E-02 0.  1.
       -2    1    3    3    0  502 -0.18915842613E+03 -0.22033962715E+03 -0.14426133478E+03  0.32425575429E+03  0.25500000920E-02 0. -1.
</event>
<event>
 5   0  0.8207443E-02  0.5869220E+03  0.7818609E-02  0.9932916E-01
       -2   -1    0    0    0  501  0.00000000000E+00  0.00000000000E+00  0.12770760522E+03  0.12770760524E+03  0.25500000920E-02 0. -1.
        2   -1    0    0  501    0  0.00000000000E+00  0.00000000000E+00 -0.67434793988E+03  0.67434793988E+03  0.25500000920E-02 0.  1.
    10030    2    1    2    0    0  0.00000000000E+00  0.00000000000E+00 -0.54664033466E+03  0.80205554513E+03  0.58692200674E+03 0.  0.
        1    1    3    3  502    0  0.99430113031E+02 -0.14576342577E+03 -0.59376277790E+03  0.61942518524E+03  0.50400001928E-02 0.  1.
       -1    1    3    3    0  502 -0.99430113031E+02  0.14576342577E+03  0.47122443241E+02  0.18263035988E+03  0.50400001928E-02 0. -1.
</event>
<event>
 5   0  0.8817544E-02  0.5931640E+03  0.7818609E-02  0.9919691E-01
        2   -1    0    0  501    0  0.00000000000E+00  0.00000000000E+00  0.15762651469E+03  0.15762651471E+03  0.25500000920E-02 0. -1.
       -2   -1    0    0    0  501  0.00000000000E+00  0.00000000000E+00 -0.55803345985E+03  0.55803345986E+03  0.25500000920E-02 0.  1.
    10030    2    1    2    0    0  0.00000000000E+00  0.00000000000E+00 -0.40040694516E+03  0.71565997457E+03  0.59316395497E+03 0.  0.
        5    1    3    3  502    0  0.28583653859E+03 -0.70254778198E+02 -0.15669335271E+03  0.33348636769E+03  0.46999998093E+01 0.  1.
       -5    1    3    3    0  502 -0.28583653859E+03  0.70254778198E+02 -0.24371359245E+03  0.38217360688E+03  0.46999998093E+01 0. -1.
</event>
<event>
 5   0  0.8699746E-02  0.6860825E+03  0.7818609E-02  0.9741334E-01
       -2   -1    0    0    0  501  0.00000000000E+00  0.00000000000E+00  0.96889870222E+02  0.96889870256E+02  0.25500000920E-02 0. -1.
        2   -1    0    0  501    0  0.00000000000E+00  0.00000000000E+00 -0.12145468774E+04  0.12145468774E+04  0.25500000920E-02 0.  1.
    10030    2    1    2    0    0  0.00000000000E+00  0.00000000000E+00 -0.11176570072E+04  0.13114367477E+04  0.68608247131E+03 0.  0.
        3    1    3    3  502    0  0.18769243135E+01 -0.27445343296E+03 -0.16546599850E+03  0.32047966639E+03  0.10100000352E+00 0. -1.
       -3    1    3    3    0  502 -0.18769243135E+01  0.27445343296E+03 -0.95219100872E+03  0.99095708131E+03  0.10100000352E+00 0.  1.
</event>
<event>
 5   0  0.5125031E-02  0.6025281E+03  0.7818609E-02  0.9900175E-01
       -1   -1    0    0    0  501  0.00000000000E+00  0.00000000000E+00  0.47756351169E+03  0.47756351172E+03  0.50400001928E-02 0.  1.
        1   -1    0    0  501    0  0.00000000000E+00  0.00000000000E+00 -0.19004806050E+03  0.19004806056E+03  0.50400001928E-02 0. -1.
    10030    2    1    2    0    0  0.00000000000E+00  0.00000000000E+00  0.28751545119E+03  0.66761157228E+03  0.60252807135E+03 0.  0.
        4    1    3    3  502    0 -0.39935578978E+02 -0.70415225148E+02  0.46528377218E+03  0.47227508504E+03  0.12699999809E+01 0.  1.
       -4    1    3    3    0  502  0.39935578978E+02  0.70415225148E+02 -0.17776832098E+03  0.19533648724E+03  0.12699999809E+01 0. -1.
</event>
<event>
 5   0  0.8207443E-02  0.5662142E+03  0.7818609E-02  0.9978091E-01
       -2   -1    0    0    0  501  0.00000000000E+00  0.00000000000E+00  0.91043926303E+03  0.91043926303E+03  0.25500000920E-02 0. -1.
        2   -1    0    0  501    0  0.00000000000E+00  0.00000000000E+00 -0.88034016124E+02  0.88034016161E+02  0.25500000920E-02 0.  1.
    10030    2    1    2    0    0  0.00000000000E+00  0.00000000000E+00  0.82240524690E+03  0.99847327919E+03  0.56621418132E+03 0.  0.
        1    1    3    3  502    0  0.20892267907E+03  0.71757306485E+02  0.98963630432E+02  0.24205701196E+03  0.50400001928E-02 0.  1.
       -1    1    3    3    0  502 -0.20892267907E+03 -0.71757306485E+02  0.72344161647E+03  0.75641626723E+03  0.50400001928E-02 0. -1.
</event>
<event>
 5   0  0.5125031E-02  0.6122792E+03  0.7818609E-02  0.9880253E-01
        1   -1    0    0  501    0  0.00000000000E+00  0.00000000000E+00  0.16741224878E+03  0.16741224885E+03  0.50400001928E-02 0. -1.
       -1   -1    0    0    0  501  0.00000000000E+00  0.00000000000E+00 -0.55982432253E+03  0.55982432255E+03  0.50400001928E-02 0.  1.
    10030    2    1    2    0    0  0.00000000000E+00  0.00000000000E+00 -0.39241207375E+03  0.72723657140E+03  0.61227918073E+03 0.  0.
        4    1    3    3  502    0  0.82090036123E+02  0.15795290707E+03  0.99618302640E+02  0.20399341657E+03  0.12699999809E+01 0. -1.
       -4    1    3    3    0  502 -0.82090036123E+02 -0.15795290707E+03 -0.49203037639E+03  0.52324315483E+03  0.12699999809E+01 0.  1.
</event>
<event>
 5   0  0.8699746E-02  0.5996008E+03  0.7818609E-02  0.9906235E-01
        2   -1    0    0  501    0  0.00000000000E+00  0.00000000000E+00  0.10195984117E+04  0.10195984117E+04  0.25500000920E-02 0.  1.
       -2   -1    0    0    0  501  0.00000000000E+00  0.00000000000E+00 -0.88152618877E+02  0.88152618914E+02  0.25500000920E-02 0. -1.
    10030    2    1    2    0    0  0.00000000000E+00  0.00000000000E+00  0.93144579287E+03  0.11077510307E+04  0.59960076791E+03 0.  0.
        3    1    3    3  502    0  0.91176905744E+02  0.11051717654E+03  0.95225618862E+03  0.96297410838E+03  0.10100000352E+00 0.  1.
       -3    1    3    3    0  502 -0.91176905744E+02 -0.11051717654E+03 -0.20810395751E+02  0.14477692228E+03  0.10100000352E+00 0. -1.
</event>
<event>
 5   0  0.8575590E-02  0.6286668E+03  0.7818609E-02  0.9847654E-01
       -2   -1    0    0    0  501  0.00000000000E+00  0.00000000000E+00  0.73467672066E+02  0.73467672111E+02  0.25500000920E-02 0. -1.
        2   -1    0    0  501    0  0.00000000000E+00  0.00000000000E+00 -0.13448840019E+04  0.13448840019E+04  0.25500000920E-02 0.  1.
    10030    2    1    2    0    0  0.00000000000E+00  0.00000000000E+00 -0.12714163298E+04  0.14183516740E+04  0.62866683339E+03 0.  0.
        4    1    3    3  502    0  0.58170763207E+02  0.10082108815E+03  0.23046493660E+02  0.11866542579E+03  0.12699999809E+01 0. -1.
       -4    1    3    3    0  502 -0.58170763207E+02 -0.10082108815E+03 -0.12944628235E+04  0.12996862482E+04  0.12699999809E+01 0.  1.
</event>
<event>
 5   0  0.4987389E-02  0.5985646E+03  0.7818609E-02  0.9908388E-01
       -1   -1    0    0    0  501  0.00000000000E+00  0.00000000000E+00  0.33524484948E+03  0.33524484951E+03  0.50400001928E-02 0. -1.
        1   -1    0    0  501    0  0.00000000000E+00  0.00000000000E+00 -0.26717758193E+03  0.26717758198E+03  0.50400001928E-02 0.  1.
    10030    2    1    2    0    0  0.00000000000E+00  0.00000000000E+00  0.68067267545E+02  0.60242243149E+03  0.59856464401E+03 0.  0.
        1    1    3    3  502    0  0.20938464090E+03 -0.20462474354E+03 -0.28468911923E+02  0.29414909907E+03  0.50400001928E-02 0. -1.
       -1    1    3    3    0  502 -0.20938464090E+03  0.20462474354E+03  0.96536179468E+02  0.30827333242E+03  0.50400001928E-02 0.  1.
</event>
<event>
 5   0  0.8207443E-02  0.5869044E+03  0.7818609E-02  0.9932954E-01
       -2   -1    0    0    0  501  0.00000000000E+00  0.00000000000E+00  0.18407344467E+03  0.18407344469E+03  0.25500000920E-02 0.  1.
        2   -1    0    0  501    0  0.00000000000E+00  0.00000000000E+00 -0.46782523368E+03  0.46782523369E+03  0.25500000920E-02 0. -1.
    10030    2    1    2    0    0  0.00000000000E+00  0.00000000000E+00 -0.28375178901E+03  0.65189867838E+03  0.58690442928E+03 0.  0.
        1    1    3    3  502    0 -0.16095661982E+03 -0.20305487442E+03 -0.29488375889E+03  0.39254903741E+03  0.50400001928E-02 0. -1.
       -1    1    3    3    0  502  0.16095661982E+03  0.20305487442E+03  0.11131969880E+02  0.25934964097E+03  0.50400001928E-02 0.  1.
</event>
<event>
 5   0  0.4881209E-02  0.6084237E+03  0.7818609E-02  0.9888082E-01
       -1   -1    0    0    0  501  0.00000000000E+00  0.00000000000E+00  0.14061848418E+03  0.14061848427E+03  0.50400001928E-02 0. -1.
        1   -1    0    0  501    0  0.00000000000E+00  0.00000000000E+00 -0.65812717722E+03  0.65812717724E+03  0.50400001928E-02 0.  1.
    10030    2    1    2    0    0  0.00000000000E+00  0.00000000000E+00 -0.51750869304E+03  0.79874566151E+03  0.60842368824E+03 0.  0.
        3    1    3    3  502    0 -0.28348632016E+03  0.90239315922E+02 -0.17533957532E+03  0.34532825649E+03  0.10100000352E+00 0.  1.
       -3    1    3    3    0  502  0.28348632016E+03 -0.90239315922E+02 -0.34216911772E+03  0.45341740502E+03  0.10100000352E+00 0. -1.
</event>
<event>
 5   0  0.5190380E-02  0.5873747E+03  0.7818609E-02  0.9931951E-01
       -1   -1    0    0    0  501  0.00000000000E+00  0.00000000000E+00  0.15359035983E+03  0.15359035991E+03  0.50400001928E-02 0.  1.
        1   -1    0    0  501    0  0.00000000000E+00  0.00000000000E+00 -0.56157339396E+03  0.56157339398E+03  0.50400001928E-02 0. -1.
    10030    2    1    2    0    0  0.00000000000E+00  0.00000000000E+00 -0.40798303413E+03  0.71516375390E+03  0.58737470047E+03 0.  0.
        5    1    3    3  502    0  0.65406944233E+02 -0.22439089663E+02  0.14349026506E+03  0.15935221136E+03  0.46999998093E+01 0.  1.
       -5    1    3    3    0  502 -0.65406944233E+02  0.22439089663E+02 -0.55147329919E+03  0.55581154254E+03  0.46999998093E+01 0. -1.
</event>
<event>
 5   0  0.5125031E-02  0.6037938E+03  0.7818609E-02  0.9897566E-01
       -1   -1    0    0    0  501  0.00000000000E+00  0.00000000000E+00  0.31814562620E+03  0.31814562624E+03  0.50400001928E-02 0. -1.
        1   -1    0    0  501    0  0.00000000000E+00  0.00000000000E+00 -0.28647804617E+03  0.28647804622E+03  0.50400001928E-02 0.  1.
    10030    2    1    2    0    0  0.00000000000E+00  0.00000000000E+00  0.31667580029E+02  0.60462367246E+03  0.60379379731E+03 0.  0.
        4    1    3    3  502    0 -0.13088939632E+02 -0.86629990200E+02  0.30513231821E+03  0.31746404530E+03  0.12699999809E+01 0. -1.
       -4    1    3    3    0  502  0.13088939632E+02  0.86629990200E+02 -0.27346473818E+03  0.28715962716E+03  0.12699999809E+01 0.  1.
</event>
<event>
 5   0  0.4881209E-02  0.5915921E+03  0.7818609E-02  0.9923005E-01
        1   -1    0    0  501    0  0.00000000000E+00  0.00000000000E+00  0.62916240374E+03  0.62916240376E+03  0.50400001928E-02 0.  1.
       -1   -1    0    0    0  501  0.00000000000E+00  0.00000000000E+00 -0.13906634319E+03  0.13906634329E+03  0.50400001928E-02 0. -1.
    10030    2    1    2    0    0  0.00000000000E+00  0.00000000000E+00  0.49009606055E+03  0.76822874705E+03  0.59159213925E+03 0.  0.
        3    1    3    3  502    0  0.57501771396E+02 -0.16394154265E+03  0.55592677037E+03  0.58244129947E+03  0.10100000352E+00 0.  1.
       -3    1    3    3    0  502 -0.57501771396E+02  0.16394154265E+03 -0.65830709820E+02  0.18578744757E+03  0.10100000352E+00 0. -1.
</event>
<event>
 5   0  0.4881209E-02  0.5916949E+03  0.7818609E-02  0.9922788E-01
        1   -1    0    0  501    0  0.00000000000E+00  0.00000000000E+00  0.23959147590E+03  0.23959147595E+03  0.50400001928E-02 0.  1.
       -1   -1    0    0    0  501  0.00000000000E+00  0.00000000000E+00 -0.36531234509E+03  0.36531234512E+03  0.50400001928E-02 0. -1.
    10030    2    1    2    0    0  0.00000000000E+00  0.00000000000E+00 -0.12572086919E+03  0.60490382107E+03  0.59169493474E+03 0.  0.
        3    1    3    3  502    0  0.12763585751E+03 -0.12503800936E+03  0.17820061070E+03  0.25235071579E+03  0.10100000352E+00 0.  1.
       -3    1    3    3    0  502 -0.12763585751E+03  0.12503800936E+03 -0.30392147988E+03  0.35255310528E+03  0.10100000352E+00 0. -1.
</event>
<event>
 5   0  0.5125031E-02  0.5989654E+03  0.7818609E-02  0.9907555E-01
        1   -1    0    0  501    0  0.00000000000E+00  0.00000000000E+00  0.11334007860E+04  0.11334007861E+04  0.50400001928E-02 0.  1.
       -1   -1    0    0    0  501  0.00000000000E+00  0.00000000000E+00 -0.79133432849E+02  0.79133433009E+02  0.50400001928E-02 0. -1.
    10030    2    1    2    0    0  0.00000000000E+00  0.00000000000E+00  0.10542673532E+04  0.12125342191E+04  0.59896542504E+03 0.  0.
        4    1    3    3  502    0 -0.68048842601E+02  0.14108150183E+02 -0.62578607350E+02  0.93527428483E+02  0.12699999809E+01 0. -1.
       -4    1    3    3    0  502  0.68048842601E+02 -0.14108150183E+02  0.11168459605E+04  0.11190067906E+04  0.12699999809E+01 0.  1.
</event>
<event>
 5   0  0.4987389E-02  0.6024475E+03  0.7818609E-02  0.9900341E-01
       -1   -1    0    0    0  501  0.00000000000E+00  0.00000000000E+00  0.62954970419E+03  0.62954970421E+03  0.50400001928E-02 0.  1.
        1   -1    0    0  501    0  0.00000000000E+00  0.00000000000E+00 -0.14412799906E+03  0.14412799914E+03  0.50400001928E-02 0. -1.
    10030    2    1    2    0    0  0.00000000000E+00  0.00000000000E+00  0.48542170513E+03  0.77367770335E+03  0.60244747227E+03 0.  0.
        1    1    3    3  502    0 -0.21504255168E+03  0.13147425846E+03  0.30884055365E+02  0.25393425245E+03  0.50400001928E-02 0. -1.
       -1    1    3    3    0  502  0.21504255168E+03 -0.13147425846E+03  0.45453764976E+03  0.51974345089E+03  0.50400001928E-02 0.  1.
</event>
<event>
 5   0  0.4987389E-02  0.6013082E+03  0.7818609E-02  0.9902696E-01
       -1   -1    0    0    0  501  0.00000000000E+00  0.00000000000E+00  0.13202574930E+03  0.13202574940E+03  0.50400001928E-02 0.  1.
        1   -1    0    0  501    0  0.00000000000E+00  0.00000000000E+00 -0.68466113989E+03  0.68466113991E+03  0.50400001928E-02 0. -1.
    10030    2    1    2    0    0  0.00000000000E+00  0.00000000000E+00 -0.55263539059E+03  0.81668688931E+03  0.60130824062E+03 0.  0.
        1    1    3    3  502    0 -0.65908391017E+02 -0.13082154414E+03  0.80279068044E+02  0.16704167506E+03  0.50400001928E-02 0.  1.
       -1    1    3    3    0  502  0.65908391017E+02  0.13082154414E+03 -0.63291445863E+03  0.64964521424E+03  0.50400001928E-02 0. -1.
</event>
<event>
 5   0  0.4881209E-02  0.6011084E+03  0.7818609E-02  0.9903109E-01
        1   -1    0    0  501    0  0.00000000000E+00  0.00000000000E+00  0.12676497750E+03  0.12676497760E+03  0.50400001928E-02 0.  1.
       -1   -1    0    0    0  501  0.00000000000E+00  0.00000000000E+00 -0.71260072298E+03  0.71260072300E+03  0.50400001928E-02 0. -1.
    10030    2    1    2    0    0  0.00000000000E+00  0.00000000000E+00 -0.58583574548E+03  0.83936570059E+03  0.60110835849E+03 0.  0.
        3    1    3    3  502    0  0.38899770992E+02 -0.81134970346E+02 -0.69335225967E+03  0.69916624760E+03  0.10100000352E+00 0. -1.
       -3    1    3    3    0  502 -0.38899770992E+02  0.81134970346E+02  0.10751651418E+03  0.14019945299E+03  0.10100000352E+00 0.  1.
</event>
<event>
 5   0  0.8699746E-02  0.6050593E+03  0.7818609E-02  0.9894965E-01
       -2   -1    0    0    0  501  0.00000000000E+00  0.00000000000E+00  0.64922864344E+03  0.64922864344E+03  0.25500000920E-02 0. -1.
        2   -1    0    0  501    0  0.00000000000E+00  0.00000000000E+00 -0.14097371958E+03  0.14097371961E+03  0.25500000920E-02 0.  1.
    10030    2    1    2    0    0  0.00000000000E+00  0.00000000000E+00  0.50825492385E+03  0.79020236305E+03  0.60505925904E+03 0.  0.
        3    1    3    3  502    0  0.10596115094E+03 -0.22759243655E+03  0.47459682268E+03  0.53690617149E+03  0.10100000352E+00 0. -1.
       -3    1    3    3    0  502 -0.10596115094E+03  0.22759243655E+03  0.33658101173E+02  0.25329619156E+03  0.10100000352E+00 0.  1.
</event>
<event>
 5   0  0.8420604E-02  0.5866261E+03  0.7818609E-02  0.9933548E-01
        2   -1    0    0  501    0  0.00000000000E+00  0.00000000000E+00  0.42511481404E+03  0.42511481404E+03  0.25500000920E-02 0.  1.
       -2   -1    0    0    0  501  0.00000000000E+00  0.00000000000E+00 -0.20237483105E+03  0.20237483107E+03  0.25500000920E-02 0. -1.
    10030    2    1    2    0    0  0.00000000000E+00  0.00000000000E+00  0.22273998298E+03  0.62748964511E+03  0.58662607741E+03 0.  0.
        2    1    3    3  502    0  0.96530623156E+02 -0.20674161309E+03  0.30852488656E+03  0.38372889052E+03  0.25500000920E-02 0.  1.
       -2    1    3    3    0  502 -0.96530623156E+02  0.20674161309E+03 -0.85784903577E+02  0.24376075459E+03  0.25500000920E-02 0. -1.
</event>
<event>
 5   0  0.5190380E-02  0.6028990E+03  0.7818609E-02  0.9899410E-01
       -1   -1    0    0    0  501  0.00000000000E+00  0.00000000000E+00  0.11313720708E+04  0.11313720708E+04  0.50400001928E-02 0. -1.
        1   -1    0    0  501    0  0.00000000000E+00  0.00000000000E+00 -0.80319995004E+02  0.80319995162E+02  0.50400001928E-02 0.  1.
    10030    2    1    2    0    0  0.00000000000E+00  0.00000000000E+00  0.10510520758E+04  0.12116920659E+04  0.60289899378E+03 0.  0.
        5    1    3    3  502    0 -0.29855591897E+03 -0.26466110613E+02  0.58951200467E+03  0.66134906473E+03  0.46999998093E+01 0. -1.
       -5    1    3    3    0  502  0.29855591897E+03  0.26466110613E+02  0.46154007109E+03  0.55034300122E+03  0.46999998093E+01 0.  1.
</event>
<event>
 5   0  0.8699746E-02  0.6135020E+03  0.7818609E-02  0.9877783E-01
        2   -1    0    0  501    0  0.00000000000E+00  0.00000000000E+00  0.53264391227E+03  0.53264391227E+03  0.25500000920E-02 0. -1.
       -2   -1    0    0    0  501  0.00000000000E+00  0.00000000000E+00 -0.17665869947E+03  0.17665869949E+03  0.25500000920E-02 0.  1.
    10030    2    1    2    0    0  0.00000000000E+00  0.00000000000E+00  0.35598521279E+03  0.70930261177E+03  0.61350201575E+03 0.  0.
        3    1    3    3  502    0 -0.18837933274E+03 -0.23892310602E+03  0.13284118543E+03  0.33199068412E+03  0.10100000352E+00 0. -1.
       -3    1    3    3    0  502  0.18837933274E+03  0.23892310602E+03  0.22314402737E+03  0.37731192765E+03  0.10100000352E+00 0.  1.
</event>
<event>
 5   0  0.8207443E-02  0.6011942E+03  0.7818609E-02  0.9902932E-01
        2   -1    0    0  501    0  0.00000000000E+00  0.00000000000E+00  0.42337373841E+03  0.42337373842E+03  0.25500000920E-02 0.  1.
       -2   -1    0    0    0  501  0.00000000000E+00  0.00000000000E+00 -0.21342519471E+03  0.21342519472E+03  0.25500000920E-02 0. -1.
    10030    2    1    2    0    0  0.00000000000E+00  0.00000000000E+00  0.20994854371E+03  0.63679893314E+03  0.60119422007E+03 0.  0.
        1    1    3    3  502    0  0.90872279062E+00 -0.12832602499E+03  0.39290037143E+03  0.41332686383E+03  0.50400001928E-02 0.  1.
       -1    1    3    3    0  502 -0.90872279062E+00  0.12832602499E+03 -0.18295182773E+03  0.22347206931E+03  0.50400001928E-02 0. -1.
</event>
<event>
 5   0  0.8575590E-02  0.5994112E+03  0.7818609E-02  0.9906628E-01
       -2   -1    0    0    0  501  0.00000000000E+00  0.00000000000E+00  0.22162991414E+03  0.22162991415E+03  0.25500000920E-02 0.  1.
        2   -1    0    0  501    0  0.00000000000E+00  0.00000000000E+00 -0.40528573518E+03  0.40528573518E+03  0.25500000920E-02 0. -1.
    10030    2    1    2    0    0  0.00000000000E+00  0.00000000000E+00 -0.18365582104E+03  0.62691564933E+03  0.59941118673E+03 0.  0.
        4    1    3    3  502    0 -0.21828663217E+03  0.10495879242E+03 -0.27643913253E+03  0.36753994175E+03  0.12699999809E+01 0. -1.
       -4    1    3    3    0  502  0.21828663217E+03 -0.10495879242E+03  0.92783311487E+02  0.25937570758E+03  0.12699999809E+01 0.  1.
</event>
<event>
 5   0  0.8420604E-02  0.5951874E+03  0.7818609E-02  0.9915441E-01
       -2   -1    0    0    0  501  0.00000000000E+00  0.00000000000E+00  0.31498835838E+03  0.31498835839E+03  0.25500000920E-02 0. -1.
        2   -1    0    0  501    0  0.00000000000E+00  0.00000000000E+00 -0.28115963598E+03  0.28115963599E+03  0.25500000920E-02 0.  1.
    10030    2    1    2    0    0  0.00000000000E+00  0.00000000000E+00  0.33828722396E+02  0.59614799438E+03  0.59518740641E+03 0.  0.
        2    1    3    3  502    0  0.15351461141E+02  0.38429227946E+02 -0.27826372540E+03  0.28132396592E+03  0.25500000920E-02 0.  1.
       -2    1    3    3    0  502 -0.15351461141E+02 -0.38429227946E+02  0.31209244780E+03  0.31482402846E+03  0.25500000920E-02 0. -1.
</event>
<event>
 5   0  0.4881209E-02  0.5979304E+03  0.7818609E-02  0.9909709E-01
        1   -1    0    0  501    0  0.00000000000E+00  0.00000000000E+00  0.46503026368E+03  0.46503026371E+03  0.50400001928E-02 0. -1.
       -1   -1    0    0    0  501  0.00000000000E+00  0.00000000000E+00 -0.19220295962E+03  0.19220295969E+03  0.50400001928E-02 0.  1.
    10030    2    1    2    0    0  0.00000000000E+00  0.00000000000E+00  0.27282730406E+03  0.65723322339E+03  0.59793040740E+03 0.  0.
        3    1    3    3  502    0  0.20166090654E+02  0.23310862569E+03  0.34097305370E+03  0.41353226735E+03  0.10100000352E+00 0. -1.
       -3    1    3    3    0  502 -0.20166090654E+02 -0.23310862569E+03 -0.68145749647E+02  0.24370095605E+03  0.10100000352E+00 0.  1.
</event>
<event>
 5   0  0.8420604E-02  0.6265294E+03  0.7818609E-02  0.9851845E-01
        2   -1    0    0  501    0  0.00000000000E+00  0.00000000000E+00  0.11029273959E+04  0.11029273959E+04  0.25500000920E-02 0. -1.
       -2   -1    0    0    0  501  0.00000000000E+00  0.00000000000E+00 -0.88976629118E+02  0.88976629154E+02  0.25500000920E-02 0.  1.
    10030    2    1    2    0    0  0.00000000000E+00  0.00000000000E+00  0.10139507668E+04  0.11919040251E+04  0.62652936683E+03 0.  0.
        2    1    3    3  502    0  0.10896775243E+03 -0.25569919739E+03  0.23208996784E+03  0.36210744785E+03  0.25500000920E-02 0.  1.
       -2    1    3    3    0  502 -0.10896775243E+03  0.25569919739E+03  0.78186079897E+03  0.82979657723E+03  0.25500000920E-02 0. -1.
</event>
<event>
 5   0  0.5190380E-02  0.5950262E+03  0.7818609E-02  0.9915779E-01
       -1   -1    0    0    0  501  0.00000000000E+00  0.00000000000E+00  0.15034008429E+04  0.15034008429E+04  0.50400001928E-02 0.  1.
        1   -1    0    0  501    0  0.00000000000E+00  0.00000000000E+00 -0.58875870621E+02  0.58875870836E+02  0.50400001928E-02 0. -1.
    10030    2    1    2    0    0  0.00000000000E+00  0.00000000000E+00  0.14445249722E+04  0.15622767137E+04  0.59502616309E+03 0.  0.
        5    1    3    3  502    0  0.10762710120E+03  0.13489316378E+03  0.86073685346E+02  0.19290030548E+03  0.46999998093E+01 0. -1.
       -5    1    3    3    0  502 -0.10762710120E+03 -0.13489316378E+03  0.13584512869E+04  0.13693764082E+04  0.46999998093E+01 0.  1.
</event>
<event>
 5   0  0.5166903E-02  0.6013829E+03  0.7818609E-02  0.9902541E-01
       -1   -1    0    0    0  501  0.00000000000E+00  0.00000000000E+00  0.46267600480E+03  0.46267600483E+03  0.50400001928E-02 0. -1.
        1   -1    0    0  501    0  0.00000000000E+00  0.00000000000E+00 -0.19541829973E+03  0.19541829979E+03  0.50400001928E-02 0.  1.
    10030    2    1    2    0    0  0.00000000000E+00  0.00000000000E+00  0.26725770508E+03  0.65809430462E+03  0.60138293362E+03 0.  0.
        2    1    3    3  502    0 -0.19612277256E+03 -0.43072543393E+02 -0.11129914850E+03  0.22957980393E+03  0.25500000920E-02 0.  1.
       -2    1    3    3    0  502  0.19612277256E+03  0.43072543393E+02  0.37855685357E+03  0.42851450069E+03  0.25500000920E-02 0. -1.
</event>
<event>
 5   0  0.5166903E-02  0.5947772E+03  0.7818609E-02  0.9916301E-01
        1   -1    0    0  501    0  0.00000000000E+00  0.00000000000E+00  0.49821124168E+03  0.49821124171E+03  0.50400001928E-02 0. -1.
       -1   -1    0    0    0  501  0.00000000000E+00  0.00000000000E+00 -0.17751503314E+03  0.17751503322E+03  0.50400001928E-02 0.  1.
    10030    2    1    2    0    0  0.00000000000E+00  0.00000000000E+00  0.32069620854E+03  0.67572627492E+03  0.59477721918E+03 0.  0.
        2    1    3    3  502    0 -0.21146248254E+03  0.14858905356E+03 -0.67972228272E+01  0.25853682640E+03  0.25500000920E-02 0.  1.
       -2    1    3    3    0  502  0.21146248254E+03 -0.14858905356E+03  0.32749343136E+03  0.41718944852E+03  0.25500000920E-02 0. -1.
</event>
<event>
 5   0  0.5166903E-02  0.6001771E+03  0.7818609E-02  0.9905039E-01
        1   -1    0    0  501    0  0.00000000000E+00  0.00000000000E+00  0.91767188801E+03  0.91767188802E+03  0.50400001928E-02 0. -1.
       -1   -1    0    0    0  501  0.00000000000E+00  0.00000000000E+00 -0.98132174851E+02  0.98132174980E+02  0.50400001928E-02 0.  1.
    10030    2    1    2    0    0  0.00000000000E+00  0.00000000000E+00  0.81953971315E+03  0.10158040630E+04  0.60017710134E+03 0.  0.
        2    1    3    3  502    0 -0.24210993440E+03  0.16799433320E+03  0.31382064122E+03  0.43049124403E+03  0.25500000920E-02 0. -1.
       -2    1    3    3    0  502  0.24210993440E+03 -0.16799433320E+03  0.50571907194E+03  0.58531281897E+03  0.25500000920E-02 0.  1.
</event>
<event>
 5   0  0.8207443E-02  0.6012540E+03  0.7818609E-02  0.9902808E-01
       -2   -1    0    0    0  501  0.00000000000E+00  0.00000000000E+00  0.13273023514E+03  0.13273023517E+03  0.25500000920E-02 0. -1.
        2   -1    0    0  501    0  0.00000000000E+00  0.00000000000E+00 -0.68090440895E+03  0.68090440895E+03  0.25500000920E-02 0.  1.
    10030    2    1    2    0    0  0.00000000000E+00  0.00000000000E+00 -0.54817417381E+03  0.81363464412E+03  0.60125403057E+03 0.  0.
        1    1    3    3  502    0  0.16006089199E+03 -0.16397419932E+03 -0.53742697568E+03  0.58423863395E+03  0.50400001928E-02 0.  1.
       -1    1    3    3    0  502 -0.16006089199E+03  0.16397419932E+03 -0.10747198129E+02  0.22939601017E+03  0.50400001928E-02 0. -1.
</event>
<event>
 5   0  0.8575590E-02  0.6471426E+03  0.7818609E-02  0.9812156E-01
        2   -1    0    0  501    0  0.00000000000E+00  0.00000000000E+00  0.32877931439E+04  0.32877931439E+04  0.25500000920E-02 0.  1.
       -2   -1    0    0    0  501  0.00000000000E+00  0.00000000000E+00 -0.31844575568E+02  0.31844575670E+02  0.25500000920E-02 0. -1.
    10030    2    1    2    0    0  0.00000000000E+00  0.00000000000E+00  0.32559485684E+04  0.33196377196E+04  0.64714257284E+03 0.  0.
        4    1    3    3  502    0  0.60400183007E+02  0.29567038267E+03  0.10291484572E+04  0.10724818494E+04  0.12699999809E+01 0. -1.
       -4    1    3    3    0  502 -0.60400183007E+02 -0.29567038267E+03  0.22268001111E+04  0.22471558702E+04  0.12699999809E+01 0.  1.
</event>
<event>
 5   0  0.3437375E-02  0.5955234E+03  0.7818609E-02  0.9914737E-01
        3   -1    0    0  501    0  0.00000000000E+00  0.00000000000E+00  0.12345313145E+04  0.12345313186E+04  0.10100000352E+00 0.  1.
       -3   -1    0    0    0  501  0.00000000000E+00  0.00000000000E+00 -0.71818326578E+02  0.71818397597E+02  0.10100000352E+00 0. -1.
    10030    2    1    2    0    0  0.00000000000E+00  0.00000000000E+00  0.11627129879E+04  0.13063497162E+04  0.59552337386E+03 0.  0.
        1    1    3    3  502    0 -0.15007038132E+01 -0.21149436677E+03  0.10411266367E+04  0.10623920148E+04  0.50400001928E-02 0.  1.
       -1    1    3    3    0  502  0.15007038132E+01  0.21149436677E+03  0.12158635120E+03  0.24395770148E+03  0.50400001928E-02 0. -1.
</event>
<event>
 5   0  0.4881209E-02  0.6059558E+03  0.7818609E-02  0.9893126E-01
       -1   -1    0    0    0  501  0.00000000000E+00  0.00000000000E+00  0.62409402697E+02  0.62409402900E+02  0.50400001928E-02 0. -1.
        1   -1    0    0  501    0  0.00000000000E+00  0.00000000000E+00 -0.14708615940E+04  0.14708615940E+04  0.50400001928E-02 0.  1.
    10030    2    1    2    0    0  0.00000000000E+00  0.00000000000E+00 -0.14084521913E+04  0.15332709969E+04  0.60595575315E+03 0.  0.
        3    1    3    3  502    0  0.19558278785E+02  0.37037972016E+02 -0.14635004921E+04  0.14640997365E+04  0.10100000352E+00 0.  1.
       -3    1    3    3    0  502 -0.19558278785E+02 -0.37037972016E+02  0.55048300854E+02  0.69171260420E+02  0.10100000352E+00 0. -1.
</event>
<event>
 5   0  0.8699746E-02  0.6207484E+03  0.7818609E-02  0.9863271E-01
       -2   -1    0    0    0  501  0.00000000000E+00  0.00000000000E+00  0.12219014151E+03  0.12219014154E+03  0.25500000920E-02 0. -1.
        2   -1    0    0  501    0  0.00000000000E+00  0.00000000000E+00 -0.78837899106E+03  0.78837899106E+03  0.25500000920E-02 0.  1.
    10030    2    1    2    0    0  0.00000000000E+00  0.00000000000E+00 -0.66618884954E+03  0.91056913260E+03  0.62074838864E+03 0.  0.
        3    1    3    3  502    0 -0.39508400874E+02  0.13844367354E+03 -0.73643446291E+03  0.75037543460E+03  0.10100000352E+00 0.  1.
       -3    1    3    3    0  502  0.39508400874E+02 -0.13844367354E+03  0.70245613365E+02  0.16019369801E+03  0.10100000352E+00 0. -1.
</event>
<event>
 5   0  0.4881209E-02  0.6031122E+03  0.7818609E-02  0.9898970E-01
       -1   -1    0    0    0  501  0.00000000000E+00  0.00000000000E+00  0.11883396731E+03  0.11883396742E+03  0.50400001928E-02 0.  1.
        1   -1    0    0  501    0  0.00000000000E+00  0.00000000000E+00 -0.76523645897E+03  0.76523645899E+03  0.50400001928E-02 0. -1.
    10030    2    1    2    0    0  0.00000000000E+00  0.00000000000E+00 -0.64640249165E+03  0.88407042641E+03  0.60311220982E+03 0.  0.
        3    1    3    3  502    0  0.24849938340E+03  0.15233112165E+03 -0.43654982859E+03  0.52491187567E+03  0.10100000352E+00 0.  1.
       -3    1    3    3    0  502 -0.24849938340E+03 -0.15233112165E+03 -0.20985266306E+03  0.35915855074E+03  0.10100000352E+00 0. -1.
</event>
<event>
 5   0  0.5166903E-02  0.6080403E+03  0.7818609E-02  0.9888864E-01
        1   -1    0    0  501    0  0.00000000000E+00  0.00000000000E+00  0.16448649900E+03  0.16448649908E+03  0.50400001928E-02 0.  1.
       -1   -1    0    0    0  501  0.00000000000E+00  0.00000000000E+00 -0.56192006908E+03  0.56192006911E+03  0.50400001928E-02 0. -1.
    10030    2    1    2    0    0  0.00000000000E+00  0.00000000000E+00 -0.39743357009E+03  0.72640656818E+03  0.60804034379E+03 0.  0.
        2    1    3    3  502    0  0.21366562274E+03 -0.15605655167E+03 -0.19828931422E+02  0.26532966700E+03  0.25500000920E-02 0.  1.
       -2    1    3    3    0  502 -0.21366562274E+03  0.15605655167E+03 -0.37760463866E+03  0.46107690119E+03  0.25500000920E-02 0. -1.
</event>
<event>
 5   0  0.8420604E-02  0.5967071E+03  0.7818609E-02  0.9912261E-01
        2   -1    0    0  501    0  0.00000000000E+00  0.00000000000E+00  0.52397810856E+03  0.52397810857E+03  0.25500000920E-02 0. -1.
       -2   -1    0    0    0  501  0.00000000000E+00  0.00000000000E+00 -0.16988272989E+03  0.16988272991E+03  0.25500000920E-02 0.  1.
    10030    2    1    2    0    0  0.00000000000E+00  0.00000000000E+00  0.35409537868E+03  0.69386083847E+03  0.59670706881E+03 0.  0.
        2    1    3    3  502    0 -0.25103060637E+03 -0.10755365013E+03  0.31673423232E+03  0.41821612466E+03  0.25500000920E-02 0. -1.
       -2    1    3    3    0  502  0.25103060637E+03  0.10755365013E+03  0.37361146353E+02  0.27564471382E+03  0.25500000920E-02 0.  1.
</event>
<event>
 5   0  0.5190380E-02  0.6016105E+03  0.7818609E-02  0.9902070E-01
        1   -1    0    0  501    0  0.00000000000E+00  0.00000000000E+00  0.48559317757E+03  0.48559317760E+03  0.50400001928E-02 0. -1.
       -1   -1    0    0    0  501  0.00000000000E+00  0.00000000000E+00 -0.18633662050E+03  0.18633662057E+03  0.50400001928E-02 0.  1.
    10030    2    1    2    0    0  0.00000000000E+00  0.00000000000E+00  0.29925655707E+03  0.67192979817E+03  0.60161047757E+03 0.  0.
        5    1    3    3  502    0 -0.10350265025E+03  0.28007856354E+03  0.10928257018E+03  0.31799618002E+03  0.46999998093E+01 0.  1.
       -5    1    3    3    0  502  0.10350265025E+03 -0.28007856354E+03  0.18997398689E+03  0.35393361815E+03  0.46999998093E+01 0. -1.
</event>
<event>
 5   0  0.5125031E-02  0.6544379E+03  0.7818609E-02  0.9798487E-01
       -1   -1    0    0    0  501  0.00000000000E+00  0.00000000000E+00  0.65124072697E+03  0.65124072699E+03  0.50400001928E-02 0. -1.
        1   -1    0    0  501    0  0.00000000000E+00  0.00000000000E+00 -0.16441271703E+03  0.16441271710E+03  0.50400001928E-02 0.  1.
    10030    2    1    2    0    0  0.00000000000E+00  0.00000000000E+00  0.48682800994E+03  0.81565344409E+03  0.65443794938E+03 0.  0.
        4    1    3    3  502    0  0.12313725150E+03 -0.10533309236E+03 -0.11089099428E+03  0.19635750194E+03  0.12699999809E+01 0.  1.
       -4    1    3    3    0  502 -0.12313725150E+03  0.10533309236E+03  0.59771900423E+03  0.61929594215E+03  0.12699999809E+01 0. -1.
</event>
<event>
 5   0  0.8575590E-02  0.6017425E+03  0.7818609E-02  0.9901797E-01
        2   -1    0    0  501    0  0.00000000000E+00  0.00000000000E+00  0.88241571016E+03  0.88241571017E+03  0.25500000920E-02 0.  1.
       -2   -1    0    0    0  501  0.00000000000E+00  0.00000000000E+00 -0.10258601855E+03  0.10258601858E+03  0.25500000920E-02 0. -1.
    10030    2    1    2    0    0  0.00000000000E+00  0.00000000000E+00  0.77982969161E+03  0.98500172875E+03  0.60174251779E+03 0.  0.
        4    1    3    3  502    0  0.38712350668E+02  0.87590662852E+02  0.85679787935E+03  0.86213397408E+03  0.12699999809E+01 0.  1.
       -4    1    3    3    0  502 -0.38712350668E+02 -0.87590662852E+02 -0.76968187734E+02  0.12286775466E+03  0.12699999809E+01 0. -1.
</event>
<event>
 5   0  0.4987389E-02  0.6004421E+03  0.7818609E-02  0.9904489E-01
        1   -1    0    0  501    0  0.00000000000E+00  0.00000000000E+00  0.12440589837E+04  0.12440589837E+04  0.50400001928E-02 0.  1.
       -1   -1    0    0    0  501  0.00000000000E+00  0.00000000000E+00 -0.72450480825E+02  0.72450481000E+02  0.50400001928E-02 0. -1.
    10030    2    1    2    0    0  0.00000000000E+00  0.00000000000E+00  0.11716085029E+04  0.13165094647E+04  0.60044207602E+03 0.  0.
        1    1    3    3  502    0  0.13861196988E+02  0.52410542259E+02 -0.61629530550E+02  0.82080428745E+02  0.50400001928E-02 0. -1.
       -1    1    3    3    0  502 -0.13861196988E+02 -0.52410542259E+02  0.12332380334E+04  0.12344290359E+04  0.50400001928E-02 0.  1.
</event>
<event>
 5   0  0.8575590E-02  0.5738500E+03  0.7818609E-02  0.9961195E-01
        2   -1    0    0  501    0  0.00000000000E+00  0.00000000000E+00  0.49935368262E+03  0.49935368262E+03  0.25500000920E-02 0. -1.
       -2   -1    0    0    0  501  0.00000000000E+00  0.00000000000E+00 -0.16486500431E+03  0.16486500433E+03  0.25500000920E-02 0.  1.
    10030    2    1    2    0    0  0.00000000000E+00  0.00000000000E+00  0.33448867830E+03  0.66421868695E+03  0.57384997010E+03 0.  0.
        4    1    3    3  502    0 -0.76360383083E+02  0.98685980686E+02 -0.13181199863E+03  0.18150990819E+03  0.12699999809E+01 0.  1.
       -4    1    3    3    0  502  0.76360383083E+02 -0.98685980686E+02  0.46630067693E+03  0.48270877877E+03  0.12699999809E+01 0. -1.
</event>
<event>
 5   0  0.8817544E-02  0.6077778E+03  0.7818609E-02  0.9889400E-01
       -2   -1    0    0    0  501  0.00000000000E+00  0.00000000000E+00  0.42865627541E+03  0.42865627542E+03  0.25500000920E-02 0. -1.
        2   -1    0    0  501    0  0.00000000000E+00  0.00000000000E+00 -0.21543712882E+03  0.21543712883E+03  0.25500000920E-02 0.  1.
    10030    2    1    2    0    0  0.00000000000E+00  0.00000000000E+00  0.21321914659E+03  0.64409340425E+03  0.60777784504E+03 0.  0.
        5    1    3    3  502    0  0.54271064188E+02  0.23736145508E+03 -0.86022149164E+02  0.25827835548E+03  0.46999998093E+01 0.  1.
       -5    1    3    3    0  502 -0.54271064188E+02 -0.23736145508E+03  0.29924129576E+03  0.38581504876E+03  0.46999998093E+01 0. -1.
</event>
<event>
 5   0  0.5125031E-02  0.6010637E+03  0.7818609E-02  0.9903202E-01
       -1   -1    0    0    0  501  0.00000000000E+00  0.00000000000E+00  0.27188998680E+03  0.27188998684E+03  0.50400001928E-02 0. -1.
        1   -1    0    0  501    0  0.00000000000E+00  0.00000000000E+00 -0.33219089729E+03  0.33219089733E+03  0.50400001928E-02 0.  1.
    10030    2    1    2    0    0  0.00000000000E+00  0.00000000000E+00 -0.60300910493E+02  0.60408088417E+03  0.60106365288E+03 0.  0.
        4    1    3    3  502    0 -0.10196590089E+03 -0.14744848774E+03  0.21226495937E+03  0.27784191073E+03  0.12699999809E+01 0. -1.
       -4    1    3    3    0  502  0.10196590089E+03  0.14744848774E+03 -0.27256586986E+03  0.32623897345E+03  0.12699999809E+01 0.  1.
</event>
<event>
 5   0  0.8817544E-02  0.5809571E+03  0.7818609E-02  0.9945721E-01
       -2   -1    0    0    0  501  0.00000000000E+00  0.00000000000E+00  0.74133257314E+03  0.74133257314E+03  0.25500000920E-02 0.  1.
        2   -1    0    0  501    0  0.00000000000E+00  0.00000000000E+00 -0.11381908764E+03  0.11381908767E+03  0.25500000920E-02 0. -1.
    10030    2    1    2    0    0  0.00000000000E+00  0.00000000000E+00  0.62751348550E+03  0.85515166081E+03  0.58095713139E+03 0.  0.
        5    1    3    3  502    0  0.99911588216E+02 -0.99957318785E+00  0.71518219336E+03  0.72214332670E+03  0.46999998093E+01 0.  1.
       -5    1    3    3    0  502 -0.99911588216E+02  0.99957318785E+00 -0.87668707862E+02  0.13300833411E+03  0.46999998093E+01 0. -1.
</event>
<event>
 5   0  0.3437375E-02  0.5994932E+03  0.7818609E-02  0.9906458E-01
        4   -1    0    0  501    0  0.00000000000E+00  0.00000000000E+00  0.36104721503E+03  0.36104944866E+03  0.12699999809E+01 0.  1.
       -4   -1    0    0    0  501  0.00000000000E+00  0.00000000000E+00 -0.24884933709E+03  0.24885257778E+03  0.12699999809E+01 0. -1.
    10030    2    1    2    0    0  0.00000000000E+00  0.00000000000E+00  0.11219787794E+03  0.60990202644E+03  0.59949321768E+03 0.  0.
        1    1    3    3  502    0 -0.14270179570E+03 -0.11757188597E+03 -0.18392337109E+03  0.26079639055E+03  0.50400001928E-02 0. -1.
       -1    1    3    3    0  502  0.14270179570E+03  0.11757188597E+03  0.29612124903E+03  0.34910563590E+03  0.50400001928E-02 0.  1.
</event>
<event>
 5   0  0.3437375E-02  0.6009462E+03  0.7818609E-02  0.9903445E-01
       -3   -1    0    0    0  501  0.00000000000E+00  0.00000000000E+00  0.14186799600E+03  0.14186803195E+03  0.10100000352E+00 0. -1.
        3   -1    0    0  501    0  0.00000000000E+00  0.00000000000E+00 -0.63639485280E+03  0.63639486081E+03  0.10100000352E+00 0.  1.
    10030    2    1    2    0    0  0.00000000000E+00  0.00000000000E+00 -0.49452685680E+03  0.77826289276E+03  0.60094618574E+03 0.  0.
        1    1    3    3  502    0 -0.11068685624E+03 -0.22298348674E+03 -0.29358374607E+02  0.25066936328E+03  0.50400001928E-02 0. -1.
       -1    1    3    3    0  502  0.11068685624E+03  0.22298348674E+03 -0.46516848219E+03  0.52759352948E+03  0.50400001928E-02 0.  1.
</event>
<event>
 5   0  0.8420604E-02  0.5982770E+03  0.7818609E-02  0.9908987E-01
       -2   -1    0    0    0  501  0.00000000000E+00  0.00000000000E+00  0.12412817392E+03  0.12412817395E+03  0.25500000920E-02 0. -1.
        2   -1    0    0  501    0  0.00000000000E+00  0.00000000000E+00 -0.72089871284E+03  0.72089871284E+03  0.25500000920E-02 0.  1.
    10030    2    1    2    0    0  0.00000000000E+00  0.00000000000E+00 -0.59677053891E+03  0.84502688679E+03  0.59827699545E+03 0.  0.
        2    1    3    3  502    0 -0.23548087779E+03  0.11752645630E+02 -0.55842078157E+03  0.60615438445E+03  0.25500000920E-02 0.  1.
       -2    1    3    3    0  502  0.23548087779E+03 -0.11752645630E+02 -0.38349757338E+02  0.23887250235E+03  0.25500000920E-02 0. -1.
</event>
<event>
 5   0  0.4881209E-02  0.6270213E+03  0.7818609E-02  0.9850879E-01
       -1   -1    0    0    0  501  0.00000000000E+00  0.00000000000E+00  0.22620899743E+03  0.22620899749E+03  0.50400001928E-02 0. -1.
        1   -1    0    0  501    0  0.00000000000E+00  0.00000000000E+00 -0.43450500775E+03  0.43450500778E+03  0.50400001928E-02 0.  1.
    10030    2    1    2    0    0  0.00000000000E+00  0.00000000000E+00 -0.20829601032E+03  0.66071400526E+03  0.62702134640E+03 0.  0.
        3    1    3    3  502    0 -0.15408021100E+03  0.11545869899E+03  0.15656879351E+03  0.24816369576E+03  0.10100000352E+00 0. -1.
       -3    1    3    3    0  502  0.15408021100E+03 -0.11545869899E+03 -0.36486480383E+03  0.41255030950E+03  0.10100000352E+00 0.  1.
</event>
</LesHouchesEvents>
